<event>
 7    1  0.2612321E-009  0.9290959E+02  0.7561462E-02  0.1295955E+00
         -1   -1    0    0    0  501 -0.00000000000E+00  0.00000000000E+00  0.53390724076E+02  0.53390724076E+02  0.00000000000E+00 0.  1.
          1   -1    0    0  501    0  0.00000000000E+00 -0.00000000000E+00 -0.22708244374E+03  0.22708244374E+03  0.00000000000E+00 0. -1.
         25    2    1    2    0    0  0.32590376385E+02  0.65721293714E+01 -0.89694528629E+02  0.15747663629E+03  0.12509379279E+03 0.  0.
          5    1    3    3  502    0 -0.21117043142E+02  0.53533952362E+02 -0.45147079637E+02  0.73263529579E+02  0.41800000000E+01 0. -1.
         -5    1    3    3    0  502  0.53707419527E+02 -0.46961822990E+02 -0.44547448992E+02  0.84213106715E+02  0.41800000000E+01 0. -1.
        -11    1    1    2    0    0  0.71582255221E+01 -0.14455274904E+02 -0.80748340625E+02  0.82343728837E+02  0.00000000000E+00 0. -1.
         11    1    1    2    0    0 -0.39748601907E+02  0.78831455326E+01 -0.32488504078E+01  0.40652802683E+02  0.00000000000E+00 0.  1.
</event>
<event>
 7    1  0.2612321E-009  0.1363359E+03  0.7561462E-02  0.1218346E+00
         -2   -1    0    0    0  501 -0.00000000000E+00  0.00000000000E+00  0.64935946665E+02  0.64935946665E+02  0.00000000000E+00 0.  1.
          2   -1    0    0  501    0  0.00000000000E+00 -0.00000000000E+00 -0.62104790812E+03  0.62104790812E+03  0.00000000000E+00 0. -1.
         25    2    1    2    0    0 -0.74266539896E+02  0.52843760562E+02 -0.48116834815E+02  0.16208325029E+03  0.12509103986E+03 0.  0.
          5    1    3    3  502    0 -0.10775221194E+03  0.44245188920E+02 -0.50819929038E+02  0.12715468339E+03  0.41800000000E+01 0.  1.
         -5    1    3    3    0  502  0.33485672049E+02  0.85985716420E+01  0.27030942233E+01  0.34928566893E+02  0.41800000000E+01 0.  1.
        -11    1    1    2    0    0  0.29522776256E+02  0.20101145927E+02 -0.82721523408E+02  0.90102723712E+02  0.00000000000E+00 0.  1.
         11    1    1    2    0    0  0.44743763640E+02 -0.72944906489E+02 -0.42527360323E+03  0.43379788079E+03  0.00000000000E+00 0. -1.
</event>
<event>
 7    1  0.2612321E-009  0.7466982E+02  0.7561462E-02  0.1344897E+00
          3   -1    0    0  501    0  0.00000000000E+00  0.00000000000E+00  0.28023250932E+02  0.28023250932E+02  0.00000000000E+00 0. -1.
         -3   -1    0    0    0  501 -0.00000000000E+00 -0.00000000000E+00 -0.48915897309E+03  0.48915897309E+03  0.00000000000E+00 0.  1.
         25    2    1    2    0    0 -0.45095299650E+02  0.11342031839E+02 -0.25108885706E+03  0.28435199505E+03  0.12509282638E+03 0.  0.
          5    1    3    3  502    0 -0.23487779900E+02 -0.23265039505E+02 -0.23939790401E+03  0.24170595092E+03  0.41800000000E+01 0.  1.
         -5    1    3    3    0  502 -0.21607519751E+02  0.34607071345E+02 -0.11690953059E+02  0.42646044134E+02  0.41800000000E+01 0.  1.
        -11    1    1    2    0    0 -0.14456781077E+02 -0.44463790607E+00 -0.24246544124E+00  0.14465649362E+02  0.00000000000E+00 0. -1.
         11    1    1    2    0    0  0.59552080727E+02 -0.10897393933E+02 -0.20980439965E+03  0.21836457960E+03  0.00000000000E+00 0.  1.
</event>
<event>
 7    1  0.2612321E-009  0.2956161E+03  0.7561462E-02  0.1087453E+00
          2   -1    0    0  501    0  0.00000000000E+00  0.00000000000E+00  0.66666059714E+02  0.66666059714E+02  0.00000000000E+00 0. -1.
         -2   -1    0    0    0  501 -0.00000000000E+00 -0.00000000000E+00 -0.15690558960E+04  0.15690558960E+04  0.00000000000E+00 0.  1.
         25    2    1    2    0    0  0.17117482565E+03 -0.22194972074E+03 -0.10659825332E+04  0.11092919030E+04  0.12508902967E+03 0.  0.
          5    1    3    3  502    0  0.14612783830E+03 -0.23076537460E+03 -0.88138374109E+03  0.92274632196E+03  0.41800000000E+01 0.  1.
         -5    1    3    3    0  502  0.25046987348E+02  0.88156538608E+01 -0.18459879216E+03  0.18654558102E+03  0.41800000000E+01 0.  1.
        -11    1    1    2    0    0 -0.10309024603E+03  0.69819438129E+02 -0.14881080521E+03  0.19402837039E+03  0.00000000000E+00 0. -1.
         11    1    1    2    0    0 -0.68084579619E+02  0.15213028261E+03 -0.28759649782E+03  0.33240168235E+03  0.00000000000E+00 0.  1.
</event>
<event>
 7    1  0.2612321E-009  0.8100445E+02  0.7561462E-02  0.1326225E+00
         -4   -1    0    0    0  501 -0.00000000000E+00  0.00000000000E+00  0.40040050627E+02  0.40040050627E+02  0.00000000000E+00 0.  1.
          4   -1    0    0  501    0  0.00000000000E+00 -0.00000000000E+00 -0.34042032851E+03  0.34042032851E+03  0.00000000000E+00 0. -1.
         25    2    1    2    0    0  0.19837816153E+02  0.31409054628E+02 -0.21774418594E+03  0.25385204566E+03  0.12509301703E+03 0.  0.
          5    1    3    3  502    0  0.14180822744E+02  0.60265998043E+02 -0.40417175758E+02  0.74054755081E+02  0.41800000000E+01 0. -1.
         -5    1    3    3    0  502  0.56569934083E+01 -0.28856943415E+02 -0.17732701018E+03  0.17979729057E+03  0.41800000000E+01 0. -1.
        -11    1    1    2    0    0 -0.40870104816E+02 -0.26330450301E+02 -0.91191201809E+02  0.10334163424E+03  0.00000000000E+00 0. -1.
         11    1    1    2    0    0  0.21032288664E+02 -0.50786043270E+01  0.85551098710E+01  0.23266699234E+02  0.00000000000E+00 0.  1.
</event>
<event>
 7    1  0.2612321E-009  0.8679798E+02  0.7561462E-02  0.1310796E+00
         -2   -1    0    0    0  501 -0.00000000000E+00  0.00000000000E+00  0.41319293785E+02  0.41319293785E+02  0.00000000000E+00 0.  1.
          2   -1    0    0  501    0  0.00000000000E+00 -0.00000000000E+00 -0.37338774134E+03  0.37338774134E+03  0.00000000000E+00 0. -1.
         25    2    1    2    0    0  0.10473564955E+02  0.57794782323E+02 -0.20824447313E+03  0.24992840574E+03  0.12509402457E+03 0.  0.
          5    1    3    3  502    0 -0.75618302872E+01  0.56047542647E+02 -0.22048792577E+03  0.22766402027E+03  0.41800000000E+01 0.  1.
         -5    1    3    3    0  502  0.18035395242E+02  0.17472396756E+01  0.12243452644E+02  0.22264385477E+02  0.41800000000E+01 0.  1.
        -11    1    1    2    0    0 -0.19417317498E+02  0.15256432184E+02 -0.52883747794E+01  0.25253868013E+02  0.00000000000E+00 0.  1.
         11    1    1    2    0    0  0.89437525427E+01 -0.73051214507E+02 -0.11853559965E+03  0.13952476137E+03  0.00000000000E+00 0. -1.
</event>
<event>
 7    1  0.2612321E-009  0.1328640E+03  0.7561462E-02  0.1223267E+00
          2   -1    0    0  501    0  0.00000000000E+00  0.00000000000E+00  0.42094835264E+03  0.42094835264E+03  0.00000000000E+00 0. -1.
         -2   -1    0    0    0  501 -0.00000000000E+00 -0.00000000000E+00 -0.56807524723E+02  0.56807524723E+02  0.00000000000E+00 0.  1.
         25    2    1    2    0    0  0.59008194247E+02  0.53186233228E+02  0.78174177878E+02  0.16754064313E+03  0.12509165688E+03 0.  0.
          5    1    3    3  502    0 -0.36233067217E+02  0.35727978065E+02  0.31240929690E+02  0.59856425423E+02  0.41800000000E+01 0.  1.
         -5    1    3    3    0  502  0.95241261464E+02  0.17458255163E+02  0.46933248188E+02  0.10768421771E+03  0.41800000000E+01 0.  1.
        -11    1    1    2    0    0 -0.42331909113E+02  0.16996203946E+02  0.81513003433E+02  0.93408946073E+02  0.00000000000E+00 0.  1.
         11    1    1    2    0    0 -0.16676285134E+02 -0.70182437174E+02  0.20445364660E+03  0.21680628815E+03  0.00000000000E+00 0. -1.
</event>
<event>
 7    1  0.2612321E-009  0.7347596E+02  0.7561462E-02  0.1348657E+00
         -1   -1    0    0    0  501 -0.00000000000E+00  0.00000000000E+00  0.52446364747E+02  0.52446364747E+02  0.00000000000E+00 0.  1.
          1   -1    0    0  501    0  0.00000000000E+00 -0.00000000000E+00 -0.29668024843E+03  0.29668024843E+03  0.00000000000E+00 0. -1.
         25    2    1    2    0    0  0.17116311846E+02  0.18316835465E+02 -0.21499763682E+03  0.25000066922E+03  0.12509147125E+03 0.  0.
          5    1    3    3  502    0  0.29276822400E+02  0.31338682720E+02 -0.10061137382E+02  0.44248663820E+02  0.41800000000E+01 0.  1.
         -5    1    3    3    0  502 -0.12160510554E+02 -0.13021847255E+02 -0.20493649944E+03  0.20575200540E+03  0.41800000000E+01 0.  1.
        -11    1    1    2    0    0  0.35405662523E+01 -0.48696017788E+02 -0.37387928907E+02  0.61495487523E+02  0.00000000000E+00 0. -1.
         11    1    1    2    0    0 -0.20656878098E+02  0.30379182324E+02  0.81516820452E+01  0.37630456436E+02  0.00000000000E+00 0.  1.
</event>
<event>
 7    1  0.2612321E-009  0.1955911E+03  0.7561462E-02  0.1153513E+00
         -1   -1    0    0    0  501 -0.00000000000E+00  0.00000000000E+00  0.87247534517E+02  0.87247534517E+02  0.00000000000E+00 0.  1.
          1   -1    0    0  501    0  0.00000000000E+00 -0.00000000000E+00 -0.62421162361E+03  0.62421162361E+03  0.00000000000E+00 0. -1.
         25    2    1    2    0    0 -0.14366132210E+03  0.12316709299E+03 -0.15109541113E+03  0.27255533396E+03  0.12509148068E+03 0.  0.
          5    1    3    3  502    0 -0.69753704538E+02  0.52169953007E+02  0.32168311977E+01  0.87264561515E+02  0.41800000000E+01 0. -1.
         -5    1    3    3    0  502 -0.73907617563E+02  0.70997139988E+02 -0.15431224233E+03  0.18529077244E+03  0.41800000000E+01 0. -1.
        -11    1    1    2    0    0  0.11875047195E+03 -0.59050577969E+02 -0.19332581056E+03  0.23444298747E+03  0.00000000000E+00 0.  1.
         11    1    1    2    0    0  0.24910850151E+02 -0.64116515025E+02 -0.19254286741E+03  0.20446083670E+03  0.00000000000E+00 0. -1.
</event>
<event>
 7    1  0.2612321E-009  0.1116176E+03  0.7561462E-02  0.1257603E+00
         -2   -1    0    0    0  501 -0.00000000000E+00  0.00000000000E+00  0.10459197522E+03  0.10459197522E+03  0.00000000000E+00 0.  1.
          2   -1    0    0  501    0  0.00000000000E+00 -0.00000000000E+00 -0.13608766561E+03  0.13608766561E+03  0.00000000000E+00 0. -1.
         25    2    1    2    0    0 -0.28719791772E+02 -0.23577136356E+02  0.18662302104E+02  0.13182262714E+03  0.12509282837E+03 0.  0.
          5    1    3    3  502    0  0.47264644500E+02 -0.16677689412E+02 -0.79300800119E+01  0.50916112507E+02  0.41800000000E+01 0. -1.
         -5    1    3    3    0  502 -0.75984436272E+02 -0.68994469435E+01  0.26592382116E+02  0.80906514634E+02  0.41800000000E+01 0. -1.
        -11    1    1    2    0    0  0.37110530355E+02  0.53690954803E+02 -0.31777171941E+02  0.72592690730E+02  0.00000000000E+00 0.  1.
         11    1    1    2    0    0 -0.83907385831E+01 -0.30113818447E+02 -0.18380820556E+02  0.36264322960E+02  0.00000000000E+00 0. -1.
</event>
<event>
 7    1  0.2612321E-009  0.1347411E+03  0.7561462E-02  0.1220586E+00
         -1   -1    0    0    0  501 -0.00000000000E+00  0.00000000000E+00  0.40101337999E+02  0.40101337999E+02  0.00000000000E+00 0.  1.
          1   -1    0    0  501    0  0.00000000000E+00 -0.00000000000E+00 -0.55455692709E+03  0.55455692709E+03  0.00000000000E+00 0. -1.
         25    2    1    2    0    0 -0.50819075346E+02 -0.66267362328E+02 -0.39075766679E+03  0.41870325027E+03  0.12508763291E+03 0.  0.
          5    1    3    3  502    0 -0.88178209647E+02 -0.32354503744E+02 -0.30450363132E+03  0.31868816177E+03  0.41800000000E+01 0. -1.
         -5    1    3    3    0  502  0.37359134301E+02 -0.33912858583E+02 -0.86254035471E+02  0.10001508850E+03  0.41800000000E+01 0. -1.
        -11    1    1    2    0    0 -0.66764961462E+01  0.67001813018E+02 -0.72786992107E+02  0.99155255879E+02  0.00000000000E+00 0. -1.
         11    1    1    2    0    0  0.57495571492E+02 -0.73445069006E+00 -0.50910930196E+02  0.76799758935E+02  0.00000000000E+00 0.  1.
</event>
<event>
 7    1  0.2848379E-009  0.7871136E+02  0.7561462E-02  0.1332749E+00
         -2   -1    0    0    0  501 -0.00000000000E+00  0.00000000000E+00  0.48607298184E+02  0.48607298184E+02  0.00000000000E+00 0.  1.
          2   -1    0    0  501    0  0.00000000000E+00 -0.00000000000E+00 -0.29346829829E+03  0.29346829829E+03  0.00000000000E+00 0. -1.
         25    2    1    2    0    0  0.40313097647E+02 -0.17546339651E+02 -0.17041937887E+03  0.21592422253E+03  0.12508990888E+03 0.  0.
          5    1    3    3  502    0 -0.76953976122E+01  0.20621850849E+01  0.18177850457E+02  0.20282465308E+02  0.41800000000E+01 0. -1.
         -5    1    3    3    0  502  0.48008495259E+02 -0.19608524736E+02 -0.18859722933E+03  0.19564175723E+03  0.41800000000E+01 0. -1.
        -11    1    1    2    0    0  0.23159387797E+02  0.23066879150E+02 -0.71045259351E+01  0.33450148663E+02  0.00000000000E+00 0.  1.
         11    1    1    2    0    0 -0.63472485443E+02 -0.55205394986E+01 -0.67337095299E+02  0.92701225278E+02  0.00000000000E+00 0. -1.
</event>
<event>
 7    1  0.2612321E-009  0.1169843E+03  0.7561462E-02  0.1248156E+00
          1   -1    0    0  501    0  0.00000000000E+00  0.00000000000E+00  0.14041569372E+03  0.14041569372E+03  0.00000000000E+00 0. -1.
         -1   -1    0    0    0  501 -0.00000000000E+00 -0.00000000000E+00 -0.12630949033E+03  0.12630949033E+03  0.00000000000E+00 0.  1.
         25    2    1    2    0    0 -0.46033171821E+02  0.34288775701E+02  0.56267391198E+02  0.14868362626E+03  0.12508408516E+03 0.  0.
          5    1    3    3  502    0 -0.74859496624E+02  0.53964686456E+02  0.64393249637E+02  0.11260592621E+03  0.41800000000E+01 0. -1.
         -5    1    3    3    0  502  0.28826324803E+02 -0.19675910755E+02 -0.81258584385E+01  0.36077700052E+02  0.41800000000E+01 0. -1.
        -11    1    1    2    0    0  0.91471334118E+01 -0.60501531059E+02 -0.87929370083E+01  0.61817643528E+02  0.00000000000E+00 0. -1.
         11    1    1    2    0    0  0.36886038409E+02  0.26212755358E+02 -0.33368250805E+02  0.56223914260E+02  0.00000000000E+00 0.  1.
</event>
<event>
 7    1  0.2612321E-009  0.1386997E+03  0.7561462E-02  0.1215089E+00
          1   -1    0    0  501    0  0.00000000000E+00  0.00000000000E+00  0.61980758018E+03  0.61980758018E+03  0.00000000000E+00 0. -1.
         -1   -1    0    0    0  501 -0.00000000000E+00 -0.00000000000E+00 -0.46910791818E+02  0.46910791818E+02  0.00000000000E+00 0.  1.
         25    2    1    2    0    0 -0.31072152410E+02  0.11961820577E+03  0.39167413677E+03  0.42933665465E+03  0.12508932729E+03 0.  0.
          5    1    3    3  502    0 -0.25552485152E+02  0.43422083686E+02  0.28182929121E+02  0.57880538551E+02  0.41800000000E+01 0.  1.
         -5    1    3    3    0  502 -0.55196672579E+01  0.76196122085E+02  0.36349120765E+03  0.37145611610E+03  0.41800000000E+01 0.  1.
        -11    1    1    2    0    0  0.50408333697E+02 -0.30014786305E+02  0.94273113171E+02  0.11103741428E+03  0.00000000000E+00 0.  1.
         11    1    1    2    0    0 -0.19336181286E+02 -0.89603419466E+02  0.86949538419E+02  0.12634430307E+03  0.00000000000E+00 0. -1.
</event>
<event>
 7    1  0.2612321E-009  0.1816106E+03  0.7561462E-02  0.1166253E+00
         -2   -1    0    0    0  501 -0.00000000000E+00  0.00000000000E+00  0.86254143295E+02  0.86254143295E+02  0.00000000000E+00 0.  1.
          2   -1    0    0  501    0  0.00000000000E+00 -0.00000000000E+00 -0.67542201767E+03  0.67542201767E+03  0.00000000000E+00 0. -1.
         25    2    1    2    0    0  0.14345064859E+03  0.40354546994E+02 -0.58645848879E+02  0.20320860223E+03  0.12509125624E+03 0.  0.
          5    1    3    3  502    0  0.15648130062E+03  0.95454487920E+01 -0.63409910566E+02  0.16916205897E+03  0.41800000000E+01 0. -1.
         -5    1    3    3    0  502 -0.13030652032E+02  0.30809098202E+02  0.47640616869E+01  0.34046543263E+02  0.41800000000E+01 0. -1.
        -11    1    1    2    0    0 -0.89239801580E+02  0.20105725072E+02 -0.24114629339E+03  0.25791377858E+03  0.00000000000E+00 0. -1.
         11    1    1    2    0    0 -0.54210847009E+02 -0.60460272065E+02 -0.28937573211E+03  0.30055378016E+03  0.00000000000E+00 0.  1.
</event>
<event>
 7    1  0.2612321E-009  0.8243335E+02  0.7561462E-02  0.1322284E+00
          2   -1    0    0  501    0  0.00000000000E+00  0.00000000000E+00  0.25293270036E+03  0.25293270036E+03  0.00000000000E+00 0. -1.
         -2   -1    0    0    0  501 -0.00000000000E+00 -0.00000000000E+00 -0.54395427101E+02  0.54395427101E+02  0.00000000000E+00 0.  1.
         25    2    1    2    0    0 -0.10749077227E+02  0.29187744328E+02  0.67203602747E+02  0.14536499082E+03  0.12508872553E+03 0.  0.
          5    1    3    3  502    0  0.35056515261E+02  0.15944818632E+02  0.85701874879E+02  0.94050413403E+02  0.41800000000E+01 0. -1.
         -5    1    3    3    0  502 -0.45805592488E+02  0.13242925696E+02 -0.18498272132E+02  0.51314577422E+02  0.41800000000E+01 0. -1.
        -11    1    1    2    0    0  0.18826722733E+01  0.24135334981E+02  0.91947150099E+02  0.95080688159E+02  0.00000000000E+00 0. -1.
         11    1    1    2    0    0  0.88664049540E+01 -0.53323079310E+02  0.39386520408E+02  0.66882448473E+02  0.00000000000E+00 0.  1.
</event>
<event>
 7    1  0.2612321E-009  0.1378220E+03  0.7561462E-02  0.1216290E+00
         -1   -1    0    0    0  501 -0.00000000000E+00  0.00000000000E+00  0.18120156772E+02  0.18120156772E+02  0.00000000000E+00 0.  1.
          1   -1    0    0  501    0  0.00000000000E+00 -0.00000000000E+00 -0.13139644576E+04  0.13139644576E+04  0.00000000000E+00 0. -1.
         25    2    1    2    0    0 -0.35885930568E+02 -0.87599857656E+02 -0.92302748977E+03  0.93626308431E+03  0.12508909267E+03 0.  0.
          5    1    3    3  502    0 -0.48222718573E+02 -0.11586750771E+03 -0.75677059154E+03  0.76711792480E+03  0.41800000000E+01 0. -1.
         -5    1    3    3    0  502  0.12336788006E+02  0.28267650055E+02 -0.16625689823E+03  0.16914515951E+03  0.41800000000E+01 0. -1.
        -11    1    1    2    0    0 -0.22203198123E+02  0.27814843077E+02 -0.43941474075E+02  0.56546446805E+02  0.00000000000E+00 0.  1.
         11    1    1    2    0    0  0.58089128691E+02  0.59785014579E+02 -0.32887533697E+03  0.33927508324E+03  0.00000000000E+00 0. -1.
</event>
<event>
 7    1  0.2612321E-009  0.6622509E+02  0.7561462E-02  0.1373422E+00
          2   -1    0    0  501    0  0.00000000000E+00  0.00000000000E+00  0.37884206391E+03  0.37884206391E+03  0.00000000000E+00 0. -1.
         -2   -1    0    0    0  501 -0.00000000000E+00 -0.00000000000E+00 -0.31382177602E+02  0.31382177602E+02  0.00000000000E+00 0.  1.
         25    2    1    2    0    0 -0.10888885941E+01  0.77634411272E+01  0.19999348311E+03  0.23602157573E+03  0.12508930501E+03 0.  0.
          5    1    3    3  502    0 -0.18679723050E+02  0.25447909956E+02  0.20727197543E+03  0.20970377291E+03  0.41800000000E+01 0. -1.
         -5    1    3    3    0  502  0.17590834456E+02 -0.17684468829E+02 -0.72784923240E+01  0.26317802817E+02  0.41800000000E+01 0. -1.
        -11    1    1    2    0    0  0.37422486835E+02 -0.10532799912E+02  0.24503951656E+02  0.45954608492E+02  0.00000000000E+00 0.  1.
         11    1    1    2    0    0 -0.36333598240E+02  0.27693587852E+01  0.12296245154E+03  0.12824805729E+03  0.00000000000E+00 0. -1.
</event>
<event>
 7    1  0.2664213E-009  0.1593698E+03  0.7561462E-02  0.1189410E+00
         -2   -1    0    0    0  501 -0.00000000000E+00  0.00000000000E+00  0.81893284454E+02  0.81893284454E+02  0.00000000000E+00 0.  1.
          2   -1    0    0  501    0  0.00000000000E+00 -0.00000000000E+00 -0.38156328875E+03  0.38156328875E+03  0.00000000000E+00 0. -1.
         25    2    1    2    0    0  0.12641390036E+03 -0.55421056495E+02 -0.13290870750E+03  0.22883157105E+03  0.12508875119E+03 0.  0.
          5    1    3    3  502    0  0.12964762650E+03 -0.34735620134E+02 -0.15011399064E+03  0.20141189873E+03  0.41800000000E+01 0.  1.
         -5    1    3    3    0  502 -0.32337261392E+01 -0.20685436361E+02  0.17205283145E+02  0.27419672323E+02  0.41800000000E+01 0.  1.
        -11    1    1    2    0    0 -0.34144300476E+02  0.61810150090E+02 -0.54684161172E+02  0.89312291383E+02  0.00000000000E+00 0.  1.
         11    1    1    2    0    0 -0.92269599885E+02 -0.63890935942E+01 -0.11207713562E+03  0.14531271076E+03  0.00000000000E+00 0. -1.
</event>
<event>
 7    1  0.2612321E-009  0.9568152E+02  0.7561462E-02  0.1289648E+00
         -2   -1    0    0    0  501 -0.00000000000E+00  0.00000000000E+00  0.77688494054E+02  0.77688494054E+02  0.00000000000E+00 0.  1.
          2   -1    0    0  501    0  0.00000000000E+00 -0.00000000000E+00 -0.15698552921E+03  0.15698552921E+03  0.00000000000E+00 0. -1.
         25    2    1    2    0    0 -0.20650777927E+02 -0.11540511843E+02 -0.36871802086E+02  0.13254110609E+03  0.12509187412E+03 0.  0.
          5    1    3    3  502    0  0.40887066854E+02  0.83344672798E+01 -0.51190626985E+02  0.66175284448E+02  0.41800000000E+01 0. -1.
         -5    1    3    3    0  502 -0.61537844780E+02 -0.19874979123E+02  0.14318824898E+02  0.66365821639E+02  0.41800000000E+01 0. -1.
        -11    1    1    2    0    0 -0.92237525210E+00 -0.34115171749E+02  0.29370215729E+01  0.34253785416E+02  0.00000000000E+00 0.  1.
         11    1    1    2    0    0  0.21573153179E+02  0.45655683592E+02 -0.45362254641E+02  0.67879131760E+02  0.00000000000E+00 0. -1.
</event>
<event>
 7    1  0.2612321E-009  0.2383048E+03  0.7561462E-02  0.1120927E+00
         -2   -1    0    0    0  501 -0.00000000000E+00  0.00000000000E+00  0.91660094520E+02  0.91660094520E+02  0.00000000000E+00 0.  1.
          2   -1    0    0  501    0  0.00000000000E+00 -0.00000000000E+00 -0.75834987169E+03  0.75834987169E+03  0.00000000000E+00 0. -1.
         25    2    1    2    0    0  0.19699916112E+03  0.12885352355E+03 -0.26941358986E+03  0.37900228893E+03  0.12508857899E+03 0.  0.
          5    1    3    3  502    0  0.11356709424E+03  0.92487999069E+02 -0.24366194241E+03  0.28432398676E+03  0.41800000000E+01 0.  1.
         -5    1    3    3    0  502  0.83432066879E+02  0.36365524485E+02 -0.25751647449E+02  0.94678302166E+02  0.41800000000E+01 0.  1.
        -11    1    1    2    0    0 -0.12209145851E+03 -0.55425487642E+02 -0.14342908445E+03  0.19634207696E+03  0.00000000000E+00 0.  1.
         11    1    1    2    0    0 -0.74907702608E+02 -0.73428035912E+02 -0.25384710286E+03  0.27466560032E+03  0.00000000000E+00 0. -1.
</event>
<event>
 7    1  0.2612321E-009  0.1111297E+03  0.7561462E-02  0.1258492E+00
         -1   -1    0    0    0  501 -0.00000000000E+00  0.00000000000E+00  0.26578201235E+03  0.26578201235E+03  0.00000000000E+00 0.  1.
          1   -1    0    0  501    0  0.00000000000E+00 -0.00000000000E+00 -0.70147877504E+02  0.70147877504E+02  0.00000000000E+00 0. -1.
         25    2    1    2    0    0 -0.76821358157E+02 -0.15956679893E+02  0.65374324337E+02  0.16148168244E+03  0.12508554984E+03 0.  0.
          5    1    3    3  502    0 -0.38430550976E+02  0.50804722352E+02  0.59464977689E+01  0.64115990964E+02  0.41800000000E+01 0.  1.
         -5    1    3    3    0  502 -0.38390807181E+02 -0.66761402245E+02  0.59427826568E+02  0.97365691475E+02  0.41800000000E+01 0.  1.
        -11    1    1    2    0    0  0.25539284550E+02 -0.47709987391E+01 -0.66231953321E+01  0.26812015976E+02  0.00000000000E+00 0. -1.
         11    1    1    2    0    0  0.51282073607E+02  0.20727678632E+02  0.13688300584E+03  0.14763619144E+03  0.00000000000E+00 0.  1.
</event>
<event>
 7    1  0.2612321E-009  0.1721074E+03  0.7561462E-02  0.1175668E+00
         -2   -1    0    0    0  501 -0.00000000000E+00  0.00000000000E+00  0.24962623976E+02  0.24962623976E+02  0.00000000000E+00 0.  1.
          2   -1    0    0  501    0  0.00000000000E+00 -0.00000000000E+00 -0.12648889320E+04  0.12648889320E+04  0.00000000000E+00 0. -1.
         25    2    1    2    0    0 -0.13838903499E+03  0.18735897293E+02 -0.63824631917E+03  0.66521338035E+03  0.12509164088E+03 0.  0.
          5    1    3    3  502    0  0.72512203609E+01 -0.27003402315E+02 -0.17960950756E+03  0.18182082263E+03  0.41800000000E+01 0. -1.
         -5    1    3    3    0  502 -0.14564025535E+03  0.45739299608E+02 -0.45863681160E+03  0.48339255773E+03  0.41800000000E+01 0. -1.
        -11    1    1    2    0    0  0.33106263697E+02  0.32282112791E+02 -0.11186758452E+03  0.12104757729E+03  0.00000000000E+00 0.  1.
         11    1    1    2    0    0  0.10528277129E+03 -0.51018010084E+02 -0.48981240431E+03  0.50359059830E+03  0.00000000000E+00 0. -1.
</event>
<event>
 7    1  0.2612321E-009  0.4318337E+03  0.7561462E-02  0.1033282E+00
          1   -1    0    0  501    0  0.00000000000E+00  0.00000000000E+00  0.10917384037E+04  0.10917384037E+04  0.00000000000E+00 0. -1.
         -1   -1    0    0    0  501 -0.00000000000E+00 -0.00000000000E+00 -0.20787490673E+03  0.20787490673E+03  0.00000000000E+00 0.  1.
         25    2    1    2    0    0  0.42452802731E+03 -0.38242089268E+02  0.19694243388E+03  0.48592193413E+03  0.12508916999E+03 0.  0.
          5    1    3    3  502    0  0.65522468515E+02 -0.20746269834E+02 -0.12380455580E+02  0.69959628878E+02  0.41800000000E+01 0. -1.
         -5    1    3    3    0  502  0.35900555879E+03 -0.17495819434E+02  0.20932288946E+03  0.41596230526E+03  0.41800000000E+01 0. -1.
        -11    1    1    2    0    0 -0.29814429204E+03  0.67365254143E+02  0.45921764262E+03  0.55164203940E+03  0.00000000000E+00 0.  1.
         11    1    1    2    0    0 -0.12638373526E+03 -0.29123164876E+02  0.22770342049E+03  0.26204933691E+03  0.00000000000E+00 0. -1.
</event>
<event>
 7    1  0.2612321E-009  0.1670388E+03  0.7561462E-02  0.1180972E+00
         -1   -1    0    0    0  501 -0.00000000000E+00  0.00000000000E+00  0.94270591063E+02  0.94270591063E+02  0.00000000000E+00 0.  1.
          1   -1    0    0  501    0  0.00000000000E+00 -0.00000000000E+00 -0.31272412848E+03  0.31272412848E+03  0.00000000000E+00 0. -1.
         25    2    1    2    0    0 -0.12292265499E+03 -0.48192139205E+02 -0.10017593431E+03  0.20764122733E+03  0.12508876881E+03 0.  0.
          5    1    3    3  502    0 -0.13751297486E+03 -0.64579471561E+02 -0.63527388368E+02  0.16472257852E+03  0.41800000000E+01 0. -1.
         -5    1    3    3    0  502  0.14590319878E+02  0.16387332355E+02 -0.36648545940E+02  0.42918648806E+02  0.41800000000E+01 0. -1.
        -11    1    1    2    0    0  0.12950967277E+03  0.20285739221E+02 -0.10393918632E+03  0.16729501191E+03  0.00000000000E+00 0. -1.
         11    1    1    2    0    0 -0.65870177808E+01  0.27906399984E+02 -0.14338416782E+02  0.32058480300E+02  0.00000000000E+00 0.  1.
</event>
<event>
 7    1  0.2612321E-009  0.9029672E+02  0.7561462E-02  0.1302135E+00
         -2   -1    0    0    0  501 -0.00000000000E+00  0.00000000000E+00  0.31147200833E+02  0.31147200833E+02  0.00000000000E+00 0.  1.
          2   -1    0    0  501    0  0.00000000000E+00 -0.00000000000E+00 -0.46641726194E+03  0.46641726194E+03  0.00000000000E+00 0. -1.
         25    2    1    2    0    0  0.48207268919E+02 -0.29823375195E+00 -0.28962186366E+03  0.31914133002E+03  0.12508531049E+03 0.  0.
          5    1    3    3  502    0  0.48009079316E+02  0.23721578791E+02 -0.36714905826E+02  0.65061829877E+02  0.41800000000E+01 0.  1.
         -5    1    3    3    0  502  0.19818960276E+00 -0.24019812543E+02 -0.25290695783E+03  0.25407950015E+03  0.41800000000E+01 0.  1.
        -11    1    1    2    0    0 -0.69725184533E+02 -0.20393785907E+02 -0.94440689919E+02  0.11914928357E+03  0.00000000000E+00 0.  1.
         11    1    1    2    0    0  0.21517915614E+02  0.20692019659E+02 -0.51207507529E+02  0.59273849185E+02  0.00000000000E+00 0. -1.
</event>
<event>
 7    1  0.2612321E-009  0.1820387E+03  0.7561462E-02  0.1165844E+00
         -1   -1    0    0    0  501 -0.00000000000E+00  0.00000000000E+00  0.54746561374E+03  0.54746561374E+03  0.00000000000E+00 0.  1.
          1   -1    0    0  501    0  0.00000000000E+00 -0.00000000000E+00 -0.69623019459E+02  0.69623019459E+02  0.00000000000E+00 0. -1.
         25    2    1    2    0    0  0.36087143950E+02  0.14631186894E+03  0.15504965838E+03  0.24979448396E+03  0.12508973859E+03 0.  0.
          5    1    3    3  502    0  0.43737973232E+02  0.16500716561E+03  0.15262456506E+03  0.22902424602E+03  0.41800000000E+01 0.  1.
         -5    1    3    3    0  502 -0.76508292819E+01 -0.18695296672E+02  0.24250933189E+01  0.20770237937E+02  0.41800000000E+01 0.  1.
        -11    1    1    2    0    0 -0.63513986033E+02 -0.91251987583E+02  0.17654312029E+03  0.20863466869E+03  0.00000000000E+00 0.  1.
         11    1    1    2    0    0  0.27426842083E+02 -0.55059881354E+02  0.14624981561E+03  0.15865948055E+03  0.00000000000E+00 0. -1.
</event>
<event>
 7    1  0.2612321E-009  0.8979965E+02  0.7561462E-02  0.1303338E+00
         -1   -1    0    0    0  501 -0.00000000000E+00  0.00000000000E+00  0.37196319875E+02  0.37196319875E+02  0.00000000000E+00 0.  1.
          1   -1    0    0  501    0  0.00000000000E+00 -0.00000000000E+00 -0.38154174683E+03  0.38154174683E+03  0.00000000000E+00 0. -1.
         25    2    1    2    0    0  0.70897577987E+00 -0.48478336075E+02 -0.20262120537E+03  0.24300475275E+03  0.12508119474E+03 0.  0.
          5    1    3    3  502    0  0.37197142385E+02  0.11463240926E+02 -0.15045700302E+03  0.15546644478E+03  0.41800000000E+01 0. -1.
         -5    1    3    3    0  502 -0.36488166606E+02 -0.59941577001E+02 -0.52164202349E+02  0.87538307970E+02  0.41800000000E+01 0. -1.
        -11    1    1    2    0    0 -0.22703369423E+02  0.41101885517E+02 -0.14490037503E+03  0.15231850400E+03  0.00000000000E+00 0. -1.
         11    1    1    2    0    0  0.21994393643E+02  0.73764505576E+01  0.31761534475E+01  0.23414809956E+02  0.00000000000E+00 0.  1.
</event>
<event>
 7    1  0.2612321E-009  0.1228158E+03  0.7561462E-02  0.1238523E+00
          2   -1    0    0  501    0  0.00000000000E+00  0.00000000000E+00  0.26183798208E+02  0.26183798208E+02  0.00000000000E+00 0. -1.
         -2   -1    0    0    0  501 -0.00000000000E+00 -0.00000000000E+00 -0.70673227503E+03  0.70673227503E+03  0.00000000000E+00 0.  1.
         25    2    1    2    0    0  0.56679517375E+02  0.13664812608E+02 -0.53095717551E+03  0.54860073841E+03  0.12509177895E+03 0.  0.
          5    1    3    3  502    0 -0.50740589781E+01 -0.49289633304E+02 -0.19048864301E+03  0.19687206390E+03  0.41800000000E+01 0. -1.
         -5    1    3    3    0  502  0.61753576353E+02  0.62954445912E+02 -0.34046853250E+03  0.35172867451E+03  0.41800000000E+01 0. -1.
        -11    1    1    2    0    0 -0.63806478234E+02  0.24833010237E+02 -0.98049478684E+02  0.11958948671E+03  0.00000000000E+00 0.  1.
         11    1    1    2    0    0  0.71269608591E+01 -0.38497822844E+02 -0.51541822626E+02  0.64725848117E+02  0.00000000000E+00 0. -1.
</event>
<event>
 7    1  0.2612321E-009  0.1594599E+03  0.7561462E-02  0.1189308E+00
          1   -1    0    0  501    0  0.00000000000E+00  0.00000000000E+00  0.10497671035E+03  0.10497671035E+03  0.00000000000E+00 0. -1.
         -1   -1    0    0    0  501 -0.00000000000E+00 -0.00000000000E+00 -0.24331543247E+03  0.24331543247E+03  0.00000000000E+00 0.  1.
         25    2    1    2    0    0 -0.49284799957E+02  0.10652538969E+03 -0.68875148234E+02  0.18484555403E+03  0.12508973837E+03 0.  0.
          5    1    3    3  502    0  0.33528628489E+02  0.75013512827E+02 -0.40592753261E+02  0.91741157897E+02  0.41800000000E+01 0. -1.
         -5    1    3    3    0  502 -0.82813428446E+02  0.31511876863E+02 -0.28282394974E+02  0.93104396136E+02  0.41800000000E+01 0. -1.
        -11    1    1    2    0    0  0.26582847055E+02  0.10614458433E+02 -0.14124137888E+02  0.31918736762E+02  0.00000000000E+00 0. -1.
         11    1    1    2    0    0  0.22701952902E+02 -0.11713984812E+03 -0.55339435997E+02  0.13152785203E+03  0.00000000000E+00 0.  1.
</event>
<event>
 7    1  0.2612321E-009  0.1066901E+03  0.7561462E-02  0.1266825E+00
         -1   -1    0    0    0  501 -0.00000000000E+00  0.00000000000E+00  0.33309869854E+02  0.33309869854E+02  0.00000000000E+00 0.  1.
          1   -1    0    0  501    0  0.00000000000E+00 -0.00000000000E+00 -0.58521891312E+03  0.58521891312E+03  0.00000000000E+00 0. -1.
         25    2    1    2    0    0 -0.59405246250E+02  0.31488195256E+02 -0.17460115521E+03  0.22506338681E+03  0.12508986752E+03 0.  0.
          5    1    3    3  502    0 -0.13477346227E+02  0.53213676696E+02 -0.14340434978E+02  0.56889847285E+02  0.41800000000E+01 0.  1.
         -5    1    3    3    0  502 -0.45927900023E+02 -0.21725481440E+02 -0.16026072024E+03  0.16817353952E+03  0.41800000000E+01 0.  1.
        -11    1    1    2    0    0  0.84326277260E+01 -0.51797172043E+02 -0.23851698795E+03  0.24422205016E+03  0.00000000000E+00 0. -1.
         11    1    1    2    0    0  0.50972618524E+02  0.20308976787E+02 -0.13879090010E+03  0.14924334601E+03  0.00000000000E+00 0.  1.
</event>
<event>
 7    1  0.2612321E-009  0.1189430E+03  0.7561462E-02  0.1244851E+00
          4   -1    0    0  501    0  0.00000000000E+00  0.00000000000E+00  0.21187434445E+03  0.21187434445E+03  0.00000000000E+00 0. -1.
         -4   -1    0    0    0  501 -0.00000000000E+00 -0.00000000000E+00 -0.92733695897E+02  0.92733695897E+02  0.00000000000E+00 0.  1.
         25    2    1    2    0    0 -0.77669582365E+02  0.26759558188E+02  0.98894726002E+02  0.17937845002E+03  0.12509126077E+03 0.  0.
          5    1    3    3  502    0 -0.55939660113E+02  0.75921408686E+02  0.74254421978E+02  0.12010202935E+03  0.41800000000E+01 0.  1.
         -5    1    3    3    0  502 -0.21729922252E+02 -0.49161850497E+02  0.24640304024E+02  0.59276420673E+02  0.41800000000E+01 0.  1.
        -11    1    1    2    0    0  0.14743936520E+02  0.89271875566E+01  0.45462255195E+02  0.48619903220E+02  0.00000000000E+00 0. -1.
         11    1    1    2    0    0  0.62925645845E+02 -0.35686745745E+02 -0.25216332641E+02  0.76609687108E+02  0.00000000000E+00 0.  1.
</event>
<event>
 7    1  0.2612321E-009  0.1031341E+03  0.7561462E-02  0.1273840E+00
          3   -1    0    0  501    0  0.00000000000E+00  0.00000000000E+00  0.22095942974E+02  0.22095942974E+02  0.00000000000E+00 0. -1.
         -3   -1    0    0    0  501 -0.00000000000E+00 -0.00000000000E+00 -0.55829720587E+03  0.55829720587E+03  0.00000000000E+00 0.  1.
         25    2    1    2    0    0 -0.12367874700E+02  0.22410215988E+02 -0.22851361410E+03  0.26176550126E+03  0.12509006240E+03 0.  0.
          5    1    3    3  502    0  0.42912000760E+02  0.46234522845E+02 -0.83763121690E+02  0.10494190711E+03  0.41800000000E+01 0.  1.
         -5    1    3    3    0  502 -0.55279875460E+02 -0.23824306857E+02 -0.14475049241E+03  0.15682359415E+03  0.41800000000E+01 0.  1.
        -11    1    1    2    0    0 -0.32958599962E+02 -0.16932276511E+02 -0.14420458197E+03  0.14888899476E+03  0.00000000000E+00 0.  1.
         11    1    1    2    0    0  0.45326474662E+02 -0.54779394771E+01 -0.16348306683E+03  0.16973865283E+03  0.00000000000E+00 0. -1.
</event>
<event>
 7    1  0.2612321E-009  0.8707959E+02  0.7561462E-02  0.1310082E+00
          1   -1    0    0  501    0  0.00000000000E+00  0.00000000000E+00  0.21170159604E+03  0.21170159604E+03  0.00000000000E+00 0. -1.
         -1   -1    0    0    0  501 -0.00000000000E+00 -0.00000000000E+00 -0.55243658049E+02  0.55243658049E+02  0.00000000000E+00 0.  1.
         25    2    1    2    0    0  0.12123905842E+02 -0.12823878846E+02  0.10273421227E+03  0.16283336668E+03  0.12509574721E+03 0.  0.
          5    1    3    3  502    0  0.22705665511E+02 -0.63292309105E+02  0.30426196525E+02  0.73923538018E+02  0.41800000000E+01 0. -1.
         -5    1    3    3    0  502 -0.10581759669E+02  0.50468430259E+02  0.72308015748E+02  0.88909828657E+02  0.41800000000E+01 0. -1.
        -11    1    1    2    0    0 -0.30626656966E+02  0.18398718344E+02 -0.10342199356E+02  0.37194973332E+02  0.00000000000E+00 0.  1.
         11    1    1    2    0    0  0.18502751124E+02 -0.55748394982E+01  0.64065925079E+02  0.66916914086E+02  0.00000000000E+00 0. -1.
</event>
<event>
 7    1  0.2612321E-009  0.1120279E+03  0.7561462E-02  0.1256860E+00
         -1   -1    0    0    0  501 -0.00000000000E+00  0.00000000000E+00  0.41695348666E+03  0.41695348666E+03  0.00000000000E+00 0.  1.
          1   -1    0    0  501    0  0.00000000000E+00 -0.00000000000E+00 -0.30558942182E+02  0.30558942182E+02  0.00000000000E+00 0. -1.
         25    2    1    2    0    0  0.57508867749E+01  0.31012504076E+02  0.20652056099E+03  0.24350241706E+03  0.12509131424E+03 0.  0.
          5    1    3    3  502    0 -0.47375107865E+02 -0.22283466595E+02  0.10087277652E+03  0.11372661593E+03  0.41800000000E+01 0. -1.
         -5    1    3    3    0  502  0.53125994640E+02  0.53295970671E+02  0.10564778447E+03  0.12977580113E+03  0.41800000000E+01 0. -1.
        -11    1    1    2    0    0  0.36118669887E+02 -0.39416920748E+02  0.95602203054E+02  0.10953553389E+03  0.00000000000E+00 0. -1.
         11    1    1    2    0    0 -0.41869556661E+02  0.84044166724E+01  0.84271780441E+02  0.94474477894E+02  0.00000000000E+00 0.  1.
</event>
<event>
 7    1  0.2612321E-009  0.1057311E+03  0.7561462E-02  0.1268686E+00
         -2   -1    0    0    0  501 -0.00000000000E+00  0.00000000000E+00  0.21123423894E+02  0.21123423894E+02  0.00000000000E+00 0.  1.
          2   -1    0    0  501    0  0.00000000000E+00 -0.00000000000E+00 -0.58058303329E+03  0.58058303329E+03  0.00000000000E+00 0. -1.
         25    2    1    2    0    0 -0.60387866320E+01  0.16416439173E+02 -0.27358639804E+03  0.30133501684E+03  0.12508920322E+03 0.  0.
          5    1    3    3  502    0 -0.64059991858E+02  0.52075298050E+01 -0.17298846507E+03  0.18458949691E+03  0.41800000000E+01 0.  1.
         -5    1    3    3    0  502  0.58021205226E+02  0.11208909368E+02 -0.10059793298E+03  0.11674551993E+03  0.41800000000E+01 0.  1.
        -11    1    1    2    0    0  0.30884862085E+01 -0.52008073057E+02 -0.12212456123E+03  0.13277344187E+03  0.00000000000E+00 0.  1.
         11    1    1    2    0    0  0.29503004235E+01  0.35591633884E+02 -0.16374865012E+03  0.16759799847E+03  0.00000000000E+00 0. -1.
</event>
<event>
 7    1  0.2612321E-009  0.1194126E+03  0.7561462E-02  0.1244069E+00
          2   -1    0    0  501    0  0.00000000000E+00  0.00000000000E+00  0.10435999204E+04  0.10435999204E+04  0.00000000000E+00 0. -1.
         -2   -1    0    0    0  501 -0.00000000000E+00 -0.00000000000E+00 -0.16412045623E+02  0.16412045623E+02  0.00000000000E+00 0.  1.
         25    2    1    2    0    0  0.33800750870E+02 -0.60571469040E+02  0.47898009806E+03  0.49988125945E+03  0.12509174867E+03 0.  0.
          5    1    3    3  502    0 -0.36386604288E+02 -0.35008578489E+02  0.32227134384E+03  0.32622979171E+03  0.41800000000E+01 0. -1.
         -5    1    3    3    0  502  0.70187355157E+02 -0.25562890551E+02  0.15670875423E+03  0.17365146774E+03  0.41800000000E+01 0. -1.
        -11    1    1    2    0    0  0.12155250545E+02 -0.18354235383E+02  0.73872392500E+02  0.77082802531E+02  0.00000000000E+00 0.  1.
         11    1    1    2    0    0 -0.45956001415E+02  0.78925704423E+02  0.47433538423E+03  0.48304790406E+03  0.00000000000E+00 0. -1.
</event>
<event>
 7    1  0.2612321E-009  0.8386485E+02  0.7561462E-02  0.1318428E+00
         -2   -1    0    0    0  501 -0.00000000000E+00  0.00000000000E+00  0.31208001463E+03  0.31208001463E+03  0.00000000000E+00 0.  1.
          2   -1    0    0  501    0  0.00000000000E+00 -0.00000000000E+00 -0.58040644084E+02  0.58040644084E+02  0.00000000000E+00 0. -1.
         25    2    1    2    0    0  0.49103763700E+02  0.73843248684E+01  0.53982716222E+02  0.14501023454E+03  0.12509247223E+03 0.  0.
          5    1    3    3  502    0  0.49219156495E+02  0.33998500448E+02  0.84938270387E+02  0.10397310025E+03  0.41800000000E+01 0.  1.
         -5    1    3    3    0  502 -0.11539279478E+00 -0.26614175579E+02 -0.30955554166E+02  0.41037134293E+02  0.41800000000E+01 0.  1.
        -11    1    1    2    0    0 -0.43089967973E+02  0.23689708601E+02  0.18230787048E+03  0.18882295219E+03  0.00000000000E+00 0.  1.
         11    1    1    2    0    0 -0.60137957270E+01 -0.31074033469E+02  0.17748783841E+02  0.36287471983E+02  0.00000000000E+00 0. -1.
</event>
<event>
 7    1  0.2612321E-009  0.1265645E+03  0.7561462E-02  0.1232644E+00
         -1   -1    0    0    0  501 -0.00000000000E+00  0.00000000000E+00  0.94934555161E+02  0.94934555161E+02  0.00000000000E+00 0.  1.
          1   -1    0    0  501    0  0.00000000000E+00 -0.00000000000E+00 -0.20849055722E+03  0.20849055722E+03  0.00000000000E+00 0. -1.
         25    2    1    2    0    0  0.39464006572E+02 -0.68431845602E+02 -0.10556277207E+03  0.18174598485E+03  0.12509108223E+03 0.  0.
          5    1    3    3  502    0 -0.27541781203E+02 -0.71659418799E+02 -0.76691090019E+02  0.10859381982E+03  0.41800000000E+01 0. -1.
         -5    1    3    3    0  502  0.67005787775E+02  0.32275731967E+01 -0.28871682049E+02  0.73152165029E+02  0.41800000000E+01 0. -1.
        -11    1    1    2    0    0 -0.42098085124E+02  0.15796551003E+01  0.22941675022E+02  0.47969412485E+02  0.00000000000E+00 0. -1.
         11    1    1    2    0    0  0.26340785517E+01  0.66852190502E+02 -0.30934905016E+02  0.73709715052E+02  0.00000000000E+00 0.  1.
</event>
<event>
 7    1  0.2612321E-009  0.1244439E+03  0.7561462E-02  0.1235941E+00
         -1   -1    0    0    0  501 -0.00000000000E+00  0.00000000000E+00  0.42156421458E+02  0.42156421458E+02  0.00000000000E+00 0.  1.
          1   -1    0    0  501    0  0.00000000000E+00 -0.00000000000E+00 -0.53226997485E+03  0.53226997485E+03  0.00000000000E+00 0. -1.
         25    2    1    2    0    0  0.88272572206E+02  0.33889165294E+02 -0.34071448383E+03  0.37506592666E+03  0.12509023673E+03 0.  0.
          5    1    3    3  502    0  0.51374055353E+01 -0.37601813332E+02 -0.15245613990E+03  0.15716436076E+03  0.41800000000E+01 0.  1.
         -5    1    3    3    0  502  0.83135166671E+02  0.71490978625E+02 -0.18825834393E+03  0.21790156590E+03  0.41800000000E+01 0.  1.
        -11    1    1    2    0    0 -0.75126443276E+01 -0.16841526092E+02 -0.10307168216E+03  0.10470839742E+03  0.00000000000E+00 0. -1.
         11    1    1    2    0    0 -0.80759927878E+02 -0.17047639201E+02 -0.46327387398E+02  0.94652072225E+02  0.00000000000E+00 0.  1.
</event>
<event>
 7    1  0.2612321E-009  0.1185442E+03  0.7561462E-02  0.1245518E+00
         -2   -1    0    0    0  501 -0.00000000000E+00  0.00000000000E+00  0.17862627684E+02  0.17862627684E+02  0.00000000000E+00 0. -1.
          2   -1    0    0  501    0  0.00000000000E+00 -0.00000000000E+00 -0.88439450386E+03  0.88439450386E+03  0.00000000000E+00 0.  1.
         25    2    1    2    0    0 -0.20504984407E+02  0.57781804745E+02 -0.44599968448E+03  0.46724990762E+03  0.12509023250E+03 0.  0.
          5    1    3    3  502    0 -0.29121759939E+02 -0.33781103726E+02 -0.10763838861E+03  0.11658788519E+03  0.41800000000E+01 0. -1.
         -5    1    3    3    0  502  0.86167755322E+01  0.91562908471E+02 -0.33836129587E+03  0.35066202242E+03  0.41800000000E+01 0. -1.
        -11    1    1    2    0    0  0.32257119300E+02  0.81401655587E+01 -0.62858096521E+02  0.71119085618E+02  0.00000000000E+00 0. -1.
         11    1    1    2    0    0 -0.11752134893E+02 -0.65921970304E+02 -0.35767409517E+03  0.36388813831E+03  0.00000000000E+00 0.  1.
</event>
<event>
 7    1  0.2612321E-009  0.1115667E+03  0.7561462E-02  0.1257696E+00
          1   -1    0    0  501    0  0.00000000000E+00  0.00000000000E+00  0.19897139134E+03  0.19897139134E+03  0.00000000000E+00 0. -1.
         -1   -1    0    0    0  501 -0.00000000000E+00 -0.00000000000E+00 -0.89172542874E+02  0.89172542874E+02  0.00000000000E+00 0.  1.
         25    2    1    2    0    0  0.63192200073E+02  0.50521697570E+02  0.47894854236E+02  0.15648174999E+03  0.12508766902E+03 0.  0.
          5    1    3    3  502    0  0.55039280367E+02 -0.69111446117E+01 -0.26854864403E+02  0.61771696150E+02  0.41800000000E+01 0. -1.
         -5    1    3    3    0  502  0.81529197054E+01  0.57432842182E+02  0.74749718639E+02  0.94710053835E+02  0.41800000000E+01 0. -1.
        -11    1    1    2    0    0 -0.51205288110E+02  0.60102049498E+01  0.51635872338E+02  0.72968263006E+02  0.00000000000E+00 0. -1.
         11    1    1    2    0    0 -0.11986911963E+02 -0.56531902520E+02  0.10268121887E+02  0.58693921219E+02  0.00000000000E+00 0.  1.
</event>
<event>
 7    1  0.2612321E-009  0.1110914E+03  0.7561462E-02  0.1258562E+00
          1   -1    0    0  501    0  0.00000000000E+00  0.00000000000E+00  0.14434487579E+03  0.14434487579E+03  0.00000000000E+00 0. -1.
         -1   -1    0    0    0  501 -0.00000000000E+00 -0.00000000000E+00 -0.11715899311E+03  0.11715899311E+03  0.00000000000E+00 0.  1.
         25    2    1    2    0    0 -0.63500443365E+02  0.85247299112E+01  0.48452890610E+02  0.14866862186E+03  0.12509875775E+03 0.  0.
          5    1    3    3  502    0 -0.57042615912E+02  0.60251454140E+02  0.48845721660E+02  0.96371544974E+02  0.41800000000E+01 0. -1.
         -5    1    3    3    0  502 -0.64578274530E+01 -0.51726724229E+02 -0.39283104969E+00  0.52297076889E+02  0.41800000000E+01 0. -1.
        -11    1    1    2    0    0  0.11001872724E+01 -0.22777671367E+02 -0.40086167116E+02  0.46118689476E+02  0.00000000000E+00 0.  1.
         11    1    1    2    0    0  0.62400256093E+02  0.14252941456E+02  0.18819159183E+02  0.66716557562E+02  0.00000000000E+00 0. -1.
</event>
<event>
 7    1  0.2612321E-009  0.1308101E+03  0.7561462E-02  0.1226259E+00
          2   -1    0    0  501    0  0.00000000000E+00  0.00000000000E+00  0.55964436364E+02  0.55964436364E+02  0.00000000000E+00 0. -1.
         -2   -1    0    0    0  501 -0.00000000000E+00 -0.00000000000E+00 -0.37492160967E+03  0.37492160967E+03  0.00000000000E+00 0.  1.
         25    2    1    2    0    0  0.28924205423E+02 -0.83150682745E+02 -0.22355999650E+03  0.27088226796E+03  0.12508990910E+03 0.  0.
          5    1    3    3  502    0  0.61299770690E+02 -0.96347871630E+02 -0.14364197321E+03  0.18355125476E+03  0.41800000000E+01 0. -1.
         -5    1    3    3    0  502 -0.32375565268E+02  0.13197188885E+02 -0.79918023290E+02  0.87331013205E+02  0.41800000000E+01 0. -1.
        -11    1    1    2    0    0  0.31611462412E+01  0.79816710491E+02 -0.99377182476E+02  0.12750107653E+03  0.00000000000E+00 0.  1.
         11    1    1    2    0    0 -0.32085351664E+02  0.33339722545E+01  0.39800056746E+01  0.32502701542E+02  0.00000000000E+00 0. -1.
</event>
<event>
 7    1  0.2612321E-009  0.1878585E+03  0.7561462E-02  0.1160407E+00
          3   -1    0    0  501    0  0.00000000000E+00  0.00000000000E+00  0.70185939025E+02  0.70185939025E+02  0.00000000000E+00 0. -1.
         -3   -1    0    0    0  501 -0.00000000000E+00 -0.00000000000E+00 -0.92500629150E+03  0.92500629150E+03  0.00000000000E+00 0.  1.
         25    2    1    2    0    0  0.12450012926E+03  0.12685713429E+03 -0.15043316679E+03  0.26432653971E+03  0.12508144235E+03 0.  0.
          5    1    3    3  502    0  0.85548131199E+02  0.11313536265E+03 -0.16742937238E+03  0.21947245880E+03  0.41800000000E+01 0. -1.
         -5    1    3    3    0  502  0.38951998057E+02  0.13721771637E+02  0.16996205597E+02  0.44854080909E+02  0.41800000000E+01 0. -1.
        -11    1    1    2    0    0 -0.11533721189E+03 -0.70428225966E+02 -0.54605315802E+03  0.56252720720E+03  0.00000000000E+00 0. -1.
         11    1    1    2    0    0 -0.91629173685E+01 -0.56428908320E+02 -0.15833402767E+03  0.16833848362E+03  0.00000000000E+00 0.  1.
</event>
<event>
 7    1  0.2612321E-009  0.1552050E+03  0.7561462E-02  0.1194219E+00
         -1   -1    0    0    0  501 -0.00000000000E+00  0.00000000000E+00  0.44594980857E+03  0.44594980857E+03  0.00000000000E+00 0.  1.
          1   -1    0    0  501    0  0.00000000000E+00 -0.00000000000E+00 -0.80489343132E+02  0.80489343132E+02  0.00000000000E+00 0. -1.
         25    2    1    2    0    0  0.67737293485E+02 -0.10322840110E+03  0.62215598973E+02  0.18644641800E+03  0.12508813815E+03 0.  0.
          5    1    3    3  502    0  0.94120851616E+02 -0.31696267079E+02  0.35283126986E+02  0.10547871589E+03  0.41800000000E+01 0. -1.
         -5    1    3    3    0  502 -0.26383558131E+02 -0.71532134023E+02  0.26932471987E+02  0.80967702109E+02  0.41800000000E+01 0. -1.
        -11    1    1    2    0    0 -0.36024982461E+02  0.11847182336E+02  0.17664573341E+03  0.18067061250E+03  0.00000000000E+00 0.  1.
         11    1    1    2    0    0 -0.31712311024E+02  0.91381218766E+02  0.12659913306E+03  0.15932212120E+03  0.00000000000E+00 0. -1.
</event>
<event>
 7    1  0.2612321E-009  0.1096844E+03  0.7561462E-02  0.1261155E+00
          2   -1    0    0  501    0  0.00000000000E+00  0.00000000000E+00  0.14778654566E+03  0.14778654566E+03  0.00000000000E+00 0. -1.
         -2   -1    0    0    0  501 -0.00000000000E+00 -0.00000000000E+00 -0.91448874563E+02  0.91448874563E+02  0.00000000000E+00 0.  1.
         25    2    1    2    0    0  0.46703550087E+02 -0.34783236127E+00  0.29817636883E+02  0.13681407592E+03  0.12509059646E+03 0.  0.
          5    1    3    3  502    0 -0.18382464904E+02 -0.41558956780E+02 -0.14448440854E+02  0.47867439327E+02  0.41800000000E+01 0.  1.
         -5    1    3    3    0  502  0.65086014992E+02  0.41211124419E+02  0.44266077737E+02  0.88946636595E+02  0.41800000000E+01 0.  1.
        -11    1    1    2    0    0 -0.69694359377E+02  0.12143749715E+02  0.29009789862E+02  0.76461377792E+02  0.00000000000E+00 0. -1.
         11    1    1    2    0    0  0.22990809289E+02 -0.11795917354E+02 -0.24897556479E+01  0.25959966510E+02  0.00000000000E+00 0.  1.
</event>
<event>
 7    1  0.2612321E-009  0.1257879E+03  0.7561462E-02  0.1233843E+00
         -2   -1    0    0    0  501 -0.00000000000E+00  0.00000000000E+00  0.44516192311E+03  0.44516192311E+03  0.00000000000E+00 0.  1.
          2   -1    0    0  501    0  0.00000000000E+00 -0.00000000000E+00 -0.46946543604E+02  0.46946543604E+02  0.00000000000E+00 0. -1.
         25    2    1    2    0    0  0.23589694459E+02 -0.89554182881E+02  0.25490678287E+03  0.29866611791E+03  0.12509019419E+03 0.  0.
          5    1    3    3  502    0 -0.39543929366E+01 -0.11541340480E+03  0.21116961214E+03  0.24071968910E+03  0.41800000000E+01 0.  1.
         -5    1    3    3    0  502  0.27544087395E+02  0.25859221918E+02  0.43737170731E+02  0.57946428813E+02  0.41800000000E+01 0.  1.
        -11    1    1    2    0    0  0.46652430412E+01  0.45057130628E+02  0.13196863885E+03  0.13952645323E+03  0.00000000000E+00 0.  1.
         11    1    1    2    0    0 -0.28254937500E+02  0.44497052253E+02  0.11339957796E+02  0.53915895570E+02  0.00000000000E+00 0. -1.
</event>
<event>
 7    1  0.2612321E-009  0.8010665E+02  0.7561462E-02  0.1328749E+00
         -2   -1    0    0    0  501 -0.00000000000E+00  0.00000000000E+00  0.18854994687E+02  0.18854994687E+02  0.00000000000E+00 0.  1.
          2   -1    0    0  501    0  0.00000000000E+00 -0.00000000000E+00 -0.85989263959E+03  0.85989263959E+03  0.00000000000E+00 0. -1.
         25    2    1    2    0    0  0.17573110414E+02 -0.34717143868E+01 -0.63535570291E+03  0.64780066807E+03  0.12509184354E+03 0.  0.
          5    1    3    3  502    0  0.31480990820E+02  0.28916087541E+02 -0.58280708160E+03  0.58438750814E+03  0.41800000000E+01 0. -1.
         -5    1    3    3    0  502 -0.13907880406E+02 -0.32387801927E+02 -0.52548621305E+02  0.63413159929E+02  0.41800000000E+01 0. -1.
        -11    1    1    2    0    0  0.15556701803E+02 -0.30549216642E+02 -0.20877455578E+02  0.40138930727E+02  0.00000000000E+00 0.  1.
         11    1    1    2    0    0 -0.33129812217E+02  0.34020931029E+02 -0.18480448642E+03  0.19080803549E+03  0.00000000000E+00 0. -1.
</event>
<event>
 7    1  0.2612321E-009  0.8873073E+02  0.7561462E-02  0.1305955E+00
         -1   -1    0    0    0  501 -0.00000000000E+00  0.00000000000E+00  0.65137548046E+02  0.65137548046E+02  0.00000000000E+00 0.  1.
          1   -1    0    0  501    0  0.00000000000E+00 -0.00000000000E+00 -0.24905019886E+03  0.24905019886E+03  0.00000000000E+00 0. -1.
         25    2    1    2    0    0  0.62310686817E+02 -0.16181520495E+02 -0.87820543799E+02  0.16584402277E+03  0.12508928283E+03 0.  0.
          5    1    3    3  502    0  0.69262420835E+02  0.78241262575E+00  0.64728143772E+01  0.69694080347E+02  0.41800000000E+01 0. -1.
         -5    1    3    3    0  502 -0.69517340173E+01 -0.16963933121E+02 -0.94293358176E+02  0.96149942428E+02  0.41800000000E+01 0. -1.
        -11    1    1    2    0    0  0.81640737328E+01  0.16919743604E+02 -0.71139576856E+02  0.73578320304E+02  0.00000000000E+00 0. -1.
         11    1    1    2    0    0 -0.70474760550E+02 -0.73822310936E+00 -0.24952530157E+02  0.74765403826E+02  0.00000000000E+00 0.  1.
</event>
<event>
 7    1  0.2612321E-009  0.6601096E+02  0.7561462E-02  0.1374209E+00
          1   -1    0    0  501    0  0.00000000000E+00  0.00000000000E+00  0.12128244430E+03  0.12128244430E+03  0.00000000000E+00 0. -1.
         -1   -1    0    0    0  501 -0.00000000000E+00 -0.00000000000E+00 -0.11148287618E+03  0.11148287618E+03  0.00000000000E+00 0.  1.
         25    2    1    2    0    0  0.14638422907E+02 -0.34480739402E+02 -0.18861980223E+02  0.13192899983E+03  0.12508509857E+03 0.  0.
          5    1    3    3  502    0  0.13688437465E+02 -0.19490463950E+02 -0.72313844237E+02  0.76249694908E+02  0.41800000000E+01 0.  1.
         -5    1    3    3    0  502  0.94998544218E+00 -0.14990275452E+02  0.53451864014E+02  0.55679304926E+02  0.41800000000E+01 0.  1.
        -11    1    1    2    0    0  0.75351786777E+01  0.58833772249E+02  0.35512663220E+01  0.59420561822E+02  0.00000000000E+00 0.  1.
         11    1    1    2    0    0 -0.22173601585E+02 -0.24353032847E+02  0.25110282022E+02  0.41415758828E+02  0.00000000000E+00 0. -1.
</event>
<event>
 7    1  0.2612321E-009  0.9153808E+02  0.7561462E-02  0.1299169E+00
         -1   -1    0    0    0  501 -0.00000000000E+00  0.00000000000E+00  0.94300381037E+02  0.94300381037E+02  0.00000000000E+00 0.  1.
          1   -1    0    0  501    0  0.00000000000E+00 -0.00000000000E+00 -0.62870502875E+03  0.62870502875E+03  0.00000000000E+00 0. -1.
         25    2    1    2    0    0 -0.55662596297E+01  0.38169566892E+02 -0.59435577582E+03  0.60860864621E+03  0.12513111886E+03 0.  0.
          5    1    3    3  502    0 -0.37268947712E+02 -0.65407180427E+00 -0.50238230768E+03  0.50378056507E+03  0.41800000000E+01 0. -1.
         -5    1    3    3    0  502  0.31702688082E+02  0.38823638697E+02 -0.91973468136E+02  0.10482808113E+03  0.41800000000E+01 0. -1.
        -11    1    1    2    0    0  0.24686113537E+02 -0.60814251218E+02  0.51931719206E+02  0.83693971183E+02  0.00000000000E+00 0.  1.
         11    1    1    2    0    0 -0.19119853907E+02  0.22644684326E+02  0.80194089024E+01  0.30702792394E+02  0.00000000000E+00 0. -1.
</event>
<event>
 7    1  0.2612321E-009  0.7958611E+02  0.7561462E-02  0.1330230E+00
          2   -1    0    0  501    0  0.00000000000E+00  0.00000000000E+00  0.68259476351E+02  0.68259476351E+02  0.00000000000E+00 0.  1.
         -2   -1    0    0    0  501 -0.00000000000E+00 -0.00000000000E+00 -0.24754304533E+03  0.24754304533E+03  0.00000000000E+00 0. -1.
         25    2    1    2    0    0  0.36310377798E+02  0.57408693126E+02 -0.75259208884E+02  0.16101693127E+03  0.12509317349E+03 0.  0.
          5    1    3    3  502    0  0.32425462620E+02  0.51217753624E+02 -0.10978536299E+03  0.12547895138E+03  0.41800000000E+01 0.  1.
         -5    1    3    3    0  502  0.38849151774E+01  0.61909395023E+01  0.34526154104E+02  0.35537979896E+02  0.41800000000E+01 0.  1.
        -11    1    1    2    0    0  0.11541534213E+02  0.39309123408E+01  0.10665715935E+02  0.16199277151E+02  0.00000000000E+00 0.  1.
         11    1    1    2    0    0 -0.47851912011E+02 -0.61339605467E+02 -0.11469007603E+03  0.13858631326E+03  0.00000000000E+00 0. -1.
</event>
<event>
 7    1  0.2612321E-009  0.1184434E+03  0.7561462E-02  0.1245687E+00
         -1   -1    0    0    0  501 -0.00000000000E+00  0.00000000000E+00  0.31763541888E+02  0.31763541888E+02  0.00000000000E+00 0.  1.
          1   -1    0    0  501    0  0.00000000000E+00 -0.00000000000E+00 -0.57614953684E+03  0.57614953684E+03  0.00000000000E+00 0. -1.
         25    2    1    2    0    0  0.50175377817E+02 -0.51946167748E+02 -0.21761967712E+03  0.26119039660E+03  0.12508447754E+03 0.  0.
          5    1    3    3  502    0  0.83261477234E+02 -0.21651330966E+02 -0.18930082505E+03  0.20797482657E+03  0.41800000000E+01 0. -1.
         -5    1    3    3    0  502 -0.33086099418E+02 -0.30294836783E+02 -0.28318852072E+02  0.53215570025E+02  0.41800000000E+01 0. -1.
        -11    1    1    2    0    0 -0.42489656163E+02 -0.96947889441E+01 -0.20986243294E+03  0.21433991829E+03  0.00000000000E+00 0. -1.
         11    1    1    2    0    0 -0.76857216535E+01  0.61640956692E+02 -0.11690388489E+03  0.13238276384E+03  0.00000000000E+00 0.  1.
</event>
<event>
 7    1  0.2612321E-009  0.1211987E+03  0.7561462E-02  0.1241133E+00
         -2   -1    0    0    0  501 -0.00000000000E+00  0.00000000000E+00  0.36327510153E+03  0.36327510153E+03  0.00000000000E+00 0.  1.
          2   -1    0    0  501    0  0.00000000000E+00 -0.00000000000E+00 -0.45337568786E+02  0.45337568786E+02  0.00000000000E+00 0. -1.
         25    2    1    2    0    0 -0.58848680810E+02 -0.33606417501E+02  0.19048675785E+03  0.23774626052E+03  0.12508205685E+03 0.  0.
          5    1    3    3  502    0 -0.93340518664E+02 -0.47489870817E+02  0.14267109127E+03  0.17703178511E+03  0.41800000000E+01 0.  1.
         -5    1    3    3    0  502  0.34491837854E+02  0.13883453316E+02  0.47815666578E+02  0.60714475414E+02  0.41800000000E+01 0.  1.
        -11    1    1    2    0    0 -0.16589384364E+01 -0.19556569389E+02 -0.54778403952E+00  0.19634448053E+02  0.00000000000E+00 0. -1.
         11    1    1    2    0    0  0.60507619246E+02  0.53162986890E+02  0.12799855894E+03  0.15123196174E+03  0.00000000000E+00 0.  1.
</event>
<event>
 7    1  0.2612321E-009  0.1079047E+03  0.7561462E-02  0.1264500E+00
         -2   -1    0    0    0  501 -0.00000000000E+00  0.00000000000E+00  0.58982723652E+02  0.58982723652E+02  0.00000000000E+00 0.  1.
          2   -1    0    0  501    0  0.00000000000E+00 -0.00000000000E+00 -0.41991963181E+03  0.41991963181E+03  0.00000000000E+00 0. -1.
         25    2    1    2    0    0 -0.92974564872E+02 -0.51136765624E+02 -0.12877464955E+03  0.20853460199E+03  0.12507810100E+03 0.  0.
          5    1    3    3  502    0 -0.30490409532E+02 -0.34798162057E+01  0.22318873123E+02  0.38175629552E+02  0.41800000000E+01 0.  1.
         -5    1    3    3    0  502 -0.62484155340E+02 -0.47656949418E+02 -0.15109352267E+03  0.17035897244E+03  0.41800000000E+01 0.  1.
        -11    1    1    2    0    0  0.37576222640E+02  0.22152877646E+02 -0.19003532437E+03  0.19497729869E+03  0.00000000000E+00 0. -1.
         11    1    1    2    0    0  0.55398342231E+02  0.28983887978E+02 -0.42126934241E+02  0.75390454786E+02  0.00000000000E+00 0.  1.
</event>
<event>
 7    1  0.2612321E-009  0.1428179E+03  0.7561462E-02  0.1209587E+00
          1   -1    0    0  501    0  0.00000000000E+00  0.00000000000E+00  0.20971046985E+04  0.20971046985E+04  0.00000000000E+00 0. -1.
         -1   -1    0    0    0  501 -0.00000000000E+00 -0.00000000000E+00 -0.12895601322E+02  0.12895601322E+02  0.00000000000E+00 0.  1.
         25    2    1    2    0    0 -0.98242932188E+02  0.45240609779E+02  0.15470747591E+04  0.15558875638E+04  0.12508962573E+03 0.  0.
          5    1    3    3  502    0 -0.81945422598E+02 -0.20158183279E+02  0.11510390200E+04  0.11541359117E+04  0.41800000000E+01 0.  1.
         -5    1    3    3    0  502 -0.16297509590E+02  0.65398793058E+02  0.39603573912E+03  0.40175165216E+03  0.41800000000E+01 0.  1.
        -11    1    1    2    0    0  0.12971310047E+02  0.21649987041E+02  0.14939889246E+03  0.15151569520E+03  0.00000000000E+00 0.  1.
         11    1    1    2    0    0  0.85271622141E+02 -0.66890596819E+02  0.38773544560E+03  0.40259704080E+03  0.00000000000E+00 0. -1.
</event>
<event>
 7    1  0.2612321E-009  0.2227674E+03  0.7561462E-02  0.1131836E+00
         -1   -1    0    0    0  501 -0.00000000000E+00  0.00000000000E+00  0.99780260247E+03  0.99780260247E+03  0.00000000000E+00 0.  1.
          1   -1    0    0  501    0  0.00000000000E+00 -0.00000000000E+00 -0.67474621051E+02  0.67474621051E+02  0.00000000000E+00 0. -1.
         25    2    1    2    0    0  0.19606873565E+03 -0.76891861500E+02  0.26115707963E+03  0.35805768936E+03  0.12508789391E+03 0.  0.
          5    1    3    3  502    0  0.14512297223E+03 -0.15173003312E+02  0.22929593839E+03  0.27181794801E+03  0.41800000000E+01 0. -1.
         -5    1    3    3    0  502  0.50945763424E+02 -0.61718858187E+02  0.31861141238E+02  0.86239741348E+02  0.41800000000E+01 0. -1.
        -11    1    1    2    0    0 -0.37333716953E+02  0.43299256495E+02  0.98070905819E+02  0.11351887333E+03  0.00000000000E+00 0. -1.
         11    1    1    2    0    0 -0.15873501870E+03  0.33592605005E+02  0.57109999597E+03  0.59370066083E+03  0.00000000000E+00 0.  1.
</event>
<event>
 7    1  0.2612321E-009  0.9012327E+02  0.7561462E-02  0.1302553E+00
          1   -1    0    0  501    0  0.00000000000E+00  0.00000000000E+00  0.16038283800E+03  0.16038283800E+03  0.00000000000E+00 0. -1.
         -1   -1    0    0    0  501 -0.00000000000E+00 -0.00000000000E+00 -0.83808204398E+02  0.83808204398E+02  0.00000000000E+00 0.  1.
         25    2    1    2    0    0  0.11499152600E+02  0.20347900379E+02  0.21732987476E+02  0.12909757931E+03  0.12509034607E+03 0.  0.
          5    1    3    3  502    0  0.58380243336E+02 -0.20736344904E+02 -0.23546823234E+01  0.62139083843E+02  0.41800000000E+01 0.  1.
         -5    1    3    3    0  502 -0.46881090736E+02  0.41084245284E+02  0.24087669799E+02  0.66958495469E+02  0.41800000000E+01 0.  1.
        -11    1    1    2    0    0 -0.31490282639E+02 -0.92967566270E+01 -0.18906833960E+02  0.37888467307E+02  0.00000000000E+00 0.  1.
         11    1    1    2    0    0  0.19991130039E+02 -0.11051143752E+02  0.73748480087E+02  0.77204995782E+02  0.00000000000E+00 0. -1.
</event>
<event>
 7    1  0.2612321E-009  0.1190479E+03  0.7561462E-02  0.1244676E+00
          2   -1    0    0  501    0  0.00000000000E+00  0.00000000000E+00  0.19918283272E+03  0.19918283272E+03  0.00000000000E+00 0. -1.
         -2   -1    0    0    0  501 -0.00000000000E+00 -0.00000000000E+00 -0.83763649672E+02  0.83763649672E+02  0.00000000000E+00 0.  1.
         25    2    1    2    0    0  0.52547613011E+02  0.41034378649E+02  0.43472249450E+02  0.14821325868E+03  0.12502904347E+03 0.  0.
          5    1    3    3  502    0  0.69540190792E+02 -0.21574623850E+02  0.59957820708E+01  0.73175981936E+02  0.41800000000E+01 0.  1.
         -5    1    3    3    0  502 -0.16992577781E+02  0.62609002499E+02  0.37476467379E+02  0.75037276741E+02  0.41800000000E+01 0.  1.
        -11    1    1    2    0    0 -0.59143243120E+02 -0.55683197847E+00  0.72693031659E+02  0.93715047460E+02  0.00000000000E+00 0. -1.
         11    1    1    2    0    0  0.65956301091E+01 -0.40477546670E+02 -0.74609806095E+00  0.41018176255E+02  0.00000000000E+00 0.  1.
</event>
<event>
 7    1  0.2612321E-009  0.9327595E+02  0.7561462E-02  0.1295107E+00
         -1   -1    0    0    0  501 -0.00000000000E+00  0.00000000000E+00  0.79129901303E+02  0.79129901303E+02  0.00000000000E+00 0.  1.
          1   -1    0    0  501    0  0.00000000000E+00 -0.00000000000E+00 -0.14423901615E+03  0.14423901615E+03  0.00000000000E+00 0. -1.
         25    2    1    2    0    0  0.14463723818E+01 -0.13333823640E+02 -0.35742852527E+02  0.13078591482E+03  0.12509005221E+03 0.  0.
          5    1    3    3  502    0 -0.36574172219E+02 -0.38312085926E+02  0.21700170267E+02  0.57392123075E+02  0.41800000000E+01 0. -1.
         -5    1    3    3    0  502  0.38020544601E+02  0.24978262285E+02 -0.57443022794E+02  0.73393791742E+02  0.41800000000E+01 0. -1.
        -11    1    1    2    0    0  0.11801328482E+02 -0.35357991588E+02 -0.10719032295E+02  0.38786035843E+02  0.00000000000E+00 0.  1.
         11    1    1    2    0    0 -0.13247700864E+02  0.48691815228E+02 -0.18647230024E+02  0.53796966792E+02  0.00000000000E+00 0. -1.
</event>
<event>
 7    1  0.2612321E-009  0.1069566E+03  0.7561462E-02  0.1266312E+00
         -2   -1    0    0    0  501 -0.00000000000E+00  0.00000000000E+00  0.16436460205E+03  0.16436460205E+03  0.00000000000E+00 0.  1.
          2   -1    0    0  501    0  0.00000000000E+00 -0.00000000000E+00 -0.78623756742E+02  0.78623756742E+02  0.00000000000E+00 0. -1.
         25    2    1    2    0    0  0.16718853337E+02  0.24152966882E+02  0.68550692728E+02  0.14563467193E+03  0.12508946530E+03 0.  0.
          5    1    3    3  502    0 -0.40239403422E+02 -0.26594440550E+02  0.10142305296E+02  0.49465266730E+02  0.41800000000E+01 0. -1.
         -5    1    3    3    0  502  0.56958256759E+02  0.50747407432E+02  0.58408387432E+02  0.96169405200E+02  0.41800000000E+01 0. -1.
        -11    1    1    2    0    0  0.86378432943E+01 -0.51258734963E+02 -0.78627573590E+01  0.52572741987E+02  0.00000000000E+00 0. -1.
         11    1    1    2    0    0 -0.25356696631E+02  0.27105768081E+02  0.25052909935E+02  0.44780944871E+02  0.00000000000E+00 0.  1.
</event>
<event>
 7    1  0.2612321E-009  0.9103977E+02  0.7561462E-02  0.1300353E+00
          1   -1    0    0  501    0  0.00000000000E+00  0.00000000000E+00  0.47185614235E+02  0.47185614235E+02  0.00000000000E+00 0. -1.
         -1   -1    0    0    0  501 -0.00000000000E+00 -0.00000000000E+00 -0.18044023446E+03  0.18044023446E+03  0.00000000000E+00 0.  1.
         25    2    1    2    0    0  0.16739169722E+02 -0.14696984176E+02 -0.86994945380E+02  0.15398531499E+03  0.12508859086E+03 0.  0.
          5    1    3    3  502    0 -0.52836316574E+02  0.43683696657E+01 -0.24954056114E+02  0.58744670559E+02  0.41800000000E+01 0.  1.
         -5    1    3    3    0  502  0.69575486296E+02 -0.19065353842E+02 -0.62040889266E+02  0.95240644429E+02  0.41800000000E+01 0.  1.
        -11    1    1    2    0    0  0.10655791754E+02  0.25151008140E+02 -0.27899027079E+02  0.39044523563E+02  0.00000000000E+00 0.  1.
         11    1    1    2    0    0 -0.27394961477E+02 -0.10454023963E+02 -0.18360647763E+02  0.34596010140E+02  0.00000000000E+00 0. -1.
</event>
<event>
 7    1  0.2612321E-009  0.1226011E+03  0.7561462E-02  0.1238867E+00
          1   -1    0    0  501    0  0.00000000000E+00  0.00000000000E+00  0.21519549251E+04  0.21519549251E+04  0.00000000000E+00 0. -1.
         -1   -1    0    0    0  501 -0.00000000000E+00 -0.00000000000E+00 -0.91573252964E+01  0.91573252964E+01  0.00000000000E+00 0.  1.
         25    2    1    2    0    0 -0.17002159887E+02 -0.72036142347E+02  0.17279011254E+04  0.17340032766E+04  0.12508710953E+03 0.  0.
          5    1    3    3  502    0  0.41969343795E+02  0.10802136542E+02  0.50032343022E+03  0.50221421645E+03  0.41800000000E+01 0. -1.
         -5    1    3    3    0  502 -0.58971503682E+02 -0.82838278889E+02  0.12275776951E+04  0.12317890601E+04  0.41800000000E+01 0. -1.
        -11    1    1    2    0    0  0.40299726592E+02  0.63242511328E+02  0.27644497848E+03  0.28643587298E+03  0.00000000000E+00 0.  1.
         11    1    1    2    0    0 -0.23297566705E+02  0.87936310184E+01  0.13845149596E+03  0.14067310082E+03  0.00000000000E+00 0. -1.
</event>
<event>
 7    1  0.2612321E-009  0.6340341E+02  0.7561462E-02  0.1384080E+00
          2   -1    0    0  501    0  0.00000000000E+00  0.00000000000E+00  0.66614687859E+02  0.66614687859E+02  0.00000000000E+00 0. -1.
         -2   -1    0    0    0  501 -0.00000000000E+00 -0.00000000000E+00 -0.18960866517E+03  0.18960866517E+03  0.00000000000E+00 0.  1.
         25    2    1    2    0    0  0.52896432315E+01  0.44467377296E+01 -0.39444180821E+02  0.13134638488E+03  0.12509306782E+03 0.  0.
          5    1    3    3  502    0  0.22192002497E+02  0.10916009022E+02 -0.81552935314E+02  0.85322903644E+02  0.41800000000E+01 0.  1.
         -5    1    3    3    0  502 -0.16902359266E+02 -0.64692712927E+01  0.42108754493E+02  0.46023481233E+02  0.41800000000E+01 0.  1.
        -11    1    1    2    0    0  0.18393670931E+02 -0.37920050267E+02 -0.14500788868E+02  0.44570508415E+02  0.00000000000E+00 0. -1.
         11    1    1    2    0    0 -0.23683314163E+02  0.33473312537E+02 -0.69049007623E+02  0.80306459738E+02  0.00000000000E+00 0.  1.
</event>
<event>
 7    1  0.2612321E-009  0.1258147E+03  0.7561462E-02  0.1233801E+00
         -1   -1    0    0    0  501 -0.00000000000E+00  0.00000000000E+00  0.15692752775E+02  0.15692752775E+02  0.00000000000E+00 0.  1.
          1   -1    0    0  501    0  0.00000000000E+00 -0.00000000000E+00 -0.16349035983E+04  0.16349035983E+04  0.00000000000E+00 0. -1.
         25    2    1    2    0    0  0.11532989592E+03  0.24257702727E+02 -0.10132730695E+04  0.10277462803E+04  0.12510268676E+03 0.  0.
          5    1    3    3  502    0  0.35811675905E+02 -0.20852770838E+02 -0.70363281101E+03  0.70486446876E+03  0.41800000000E+01 0.  1.
         -5    1    3    3    0  502  0.79518220020E+02  0.45110473565E+02 -0.30964025845E+03  0.32288181149E+03  0.41800000000E+01 0.  1.
        -11    1    1    2    0    0 -0.19177452798E+02 -0.86958475394E+01 -0.20580047271E+02  0.29443688728E+02  0.00000000000E+00 0.  1.
         11    1    1    2    0    0 -0.96152443127E+02 -0.15561855188E+02 -0.58535772880E+03  0.59340638210E+03  0.00000000000E+00 0. -1.
</event>
<event>
 7    1  0.2612321E-009  0.1004132E+03  0.7561462E-02  0.1279429E+00
          2   -1    0    0  501    0  0.00000000000E+00  0.00000000000E+00  0.47104572768E+03  0.47104572768E+03  0.00000000000E+00 0. -1.
         -2   -1    0    0    0  501 -0.00000000000E+00 -0.00000000000E+00 -0.47357284684E+02  0.47357284684E+02  0.00000000000E+00 0.  1.
         25    2    1    2    0    0  0.88974507490E+02  0.53903347434E+01  0.13111311827E+03  0.20194931032E+03  0.12508938989E+03 0.  0.
          5    1    3    3  502    0  0.87021434286E+02  0.15644615279E+02  0.15333207534E+03  0.17704711729E+03  0.41800000000E+01 0. -1.
         -5    1    3    3    0  502  0.19530732040E+01 -0.10254280536E+02 -0.22218957069E+02  0.24902193025E+02  0.41800000000E+01 0. -1.
        -11    1    1    2    0    0 -0.43805798578E+02  0.21185521639E+02  0.56200160576E+02  0.74338633058E+02  0.00000000000E+00 0.  1.
         11    1    1    2    0    0 -0.45168708912E+02 -0.26575856382E+02  0.23637516415E+03  0.24211506899E+03  0.00000000000E+00 0. -1.
</event>
<event>
 7    1  0.2612321E-009  0.9730278E+02  0.7561462E-02  0.1286072E+00
          2   -1    0    0  501    0  0.00000000000E+00  0.00000000000E+00  0.17200580360E+04  0.17200580360E+04  0.00000000000E+00 0. -1.
         -2   -1    0    0    0  501 -0.00000000000E+00 -0.00000000000E+00 -0.89037280711E+01  0.89037280711E+01  0.00000000000E+00 0.  1.
         25    2    1    2    0    0  0.87906571642E+01  0.26680827594E+02  0.13161055193E+04  0.13223352529E+04  0.12509053171E+03 0.  0.
          5    1    3    3  502    0 -0.17291943480E+02  0.56634201758E+02  0.32189609206E+03  0.32732401470E+03  0.41800000000E+01 0. -1.
         -5    1    3    3    0  502  0.26082600644E+02 -0.29953374164E+02  0.99420942721E+03  0.99501123824E+03  0.41800000000E+01 0. -1.
        -11    1    1    2    0    0  0.31655029053E+02  0.16870818451E+02  0.12090706034E+03  0.12611575087E+03  0.00000000000E+00 0. -1.
         11    1    1    2    0    0 -0.40445686217E+02 -0.43551646045E+02  0.27414172828E+03  0.28051076021E+03  0.00000000000E+00 0.  1.
</event>
<event>
 7    1  0.2612321E-009  0.1146395E+03  0.7561462E-02  0.1252212E+00
         -2   -1    0    0    0  501 -0.00000000000E+00  0.00000000000E+00  0.37539224614E+02  0.37539224614E+02  0.00000000000E+00 0. -1.
          2   -1    0    0  501    0  0.00000000000E+00 -0.00000000000E+00 -0.40014689430E+03  0.40014689430E+03  0.00000000000E+00 0.  1.
         25    2    1    2    0    0 -0.30149934700E+02  0.31780954936E+02 -0.25615746722E+03  0.28841563063E+03  0.12509148780E+03 0.  0.
          5    1    3    3  502    0 -0.23228713892E+02  0.76325235178E+02 -0.11387747161E+03  0.13910666991E+03  0.41800000000E+01 0. -1.
         -5    1    3    3    0  502 -0.69212208078E+01 -0.44544280242E+02 -0.14227999561E+03  0.14930896072E+03  0.41800000000E+01 0. -1.
        -11    1    1    2    0    0 -0.13408479921E+02  0.27475134489E+02 -0.24659153082E+02  0.39277782265E+02  0.00000000000E+00 0.  1.
         11    1    1    2    0    0  0.43558414621E+02 -0.59256089425E+02 -0.81791049392E+02  0.10999270603E+03  0.00000000000E+00 0. -1.
</event>
<event>
 7    1  0.2612321E-009  0.1106040E+03  0.7561462E-02  0.1259455E+00
         -2   -1    0    0    0  501 -0.00000000000E+00  0.00000000000E+00  0.14483866871E+02  0.14483866871E+02  0.00000000000E+00 0. -1.
          2   -1    0    0  501    0  0.00000000000E+00 -0.00000000000E+00 -0.98084648073E+03  0.98084648073E+03  0.00000000000E+00 0.  1.
         25    2    1    2    0    0 -0.13738245730E+02  0.48930523377E+02 -0.56513389215E+03  0.58103958155E+03  0.12509094196E+03 0.  0.
          5    1    3    3  502    0 -0.73155456411E+01 -0.34125346598E+02 -0.32372382884E+03  0.32562654414E+03  0.41800000000E+01 0.  1.
         -5    1    3    3    0  502 -0.64227000894E+01  0.83055869974E+02 -0.24141006330E+03  0.25541303741E+03  0.41800000000E+01 0.  1.
        -11    1    1    2    0    0  0.49808704605E+02 -0.12437007452E+02 -0.22223272533E+03  0.22808544543E+03  0.00000000000E+00 0. -1.
         11    1    1    2    0    0 -0.36070458875E+02 -0.36493515924E+02 -0.17899599638E+03  0.18620532062E+03  0.00000000000E+00 0.  1.
</event>
<event>
 7    1  0.2612321E-009  0.1156056E+03  0.7561462E-02  0.1250528E+00
          2   -1    0    0  501    0  0.00000000000E+00  0.00000000000E+00  0.31559728352E+03  0.31559728352E+03  0.00000000000E+00 0. -1.
         -2   -1    0    0    0  501 -0.00000000000E+00 -0.00000000000E+00 -0.60050221965E+02  0.60050221965E+02  0.00000000000E+00 0.  1.
         25    2    1    2    0    0 -0.64658618782E+02  0.52507257472E+02  0.16552364573E+03  0.22356674818E+03  0.12508502919E+03 0.  0.
          5    1    3    3  502    0 -0.41971557994E+01 -0.35515955829E+02  0.15100006382E+02  0.39044613303E+02  0.41800000000E+01 0.  1.
         -5    1    3    3    0  502 -0.60461462983E+02  0.88023213301E+02  0.15042363935E+03  0.18452213488E+03  0.41800000000E+01 0.  1.
        -11    1    1    2    0    0  0.43345735948E+02 -0.51053440893E+02  0.10601399760E+03  0.12539646861E+03  0.00000000000E+00 0. -1.
         11    1    1    2    0    0  0.21312882834E+02 -0.14538165792E+01 -0.15990581779E+02  0.26684288692E+02  0.00000000000E+00 0.  1.
</event>
<event>
 7    1  0.2612321E-009  0.1260622E+03  0.7561462E-02  0.1233419E+00
         -2   -1    0    0    0  501 -0.00000000000E+00  0.00000000000E+00  0.42261323744E+02  0.42261323744E+02  0.00000000000E+00 0.  1.
          2   -1    0    0  501    0  0.00000000000E+00 -0.00000000000E+00 -0.13831399299E+04  0.13831399299E+04  0.00000000000E+00 0. -1.
         25    2    1    2    0    0  0.65026064729E+02 -0.42348713124E+02 -0.12773271031E+04  0.12857816704E+04  0.12509265799E+03 0.  0.
          5    1    3    3  502    0  0.32504424133E+02  0.33627373628E+02 -0.20692121084E+03  0.21218199203E+03  0.41800000000E+01 0. -1.
         -5    1    3    3    0  502  0.32521640596E+02 -0.75976086752E+02 -0.10704058923E+04  0.10735996784E+04  0.41800000000E+01 0. -1.
        -11    1    1    2    0    0 -0.20148308466E+02 -0.30679474482E+02 -0.82716333088E+01  0.37624518683E+02  0.00000000000E+00 0.  1.
         11    1    1    2    0    0 -0.44877756262E+02  0.73028187606E+02 -0.55279869762E+02  0.10199506455E+03  0.00000000000E+00 0. -1.
</event>
<event>
 7    1  0.2612321E-009  0.6587077E+02  0.7561462E-02  0.1374726E+00
         -2   -1    0    0    0  501 -0.00000000000E+00  0.00000000000E+00  0.12915521193E+03  0.12915521193E+03  0.00000000000E+00 0.  1.
          2   -1    0    0  501    0  0.00000000000E+00 -0.00000000000E+00 -0.95454320367E+02  0.95454320367E+02  0.00000000000E+00 0. -1.
         25    2    1    2    0    0 -0.33758888940E+01  0.74837168568E+01  0.41305311769E+02  0.13198564034E+03  0.12508668128E+03 0.  0.
          5    1    3    3  502    0  0.35255567256E+02 -0.25606976890E+02 -0.23351082091E+02  0.49612677038E+02  0.41800000000E+01 0. -1.
         -5    1    3    3    0  502 -0.38631456151E+02  0.33090693747E+02  0.64656393860E+02  0.82372963307E+02  0.41800000000E+01 0. -1.
        -11    1    1    2    0    0  0.17940461760E+02  0.40020168127E+01  0.38644873012E+02  0.42793720530E+02  0.00000000000E+00 0.  1.
         11    1    1    2    0    0 -0.14564572866E+02 -0.11485733669E+02 -0.46249293218E+02  0.49830171422E+02  0.00000000000E+00 0. -1.
</event>
<event>
 7    1  0.2612321E-009  0.1062876E+03  0.7561462E-02  0.1267603E+00
         -2   -1    0    0    0  501 -0.00000000000E+00  0.00000000000E+00  0.41247691972E+02  0.41247691972E+02  0.00000000000E+00 0.  1.
          2   -1    0    0  501    0  0.00000000000E+00 -0.00000000000E+00 -0.44908710858E+03  0.44908710858E+03  0.00000000000E+00 0. -1.
         25    2    1    2    0    0 -0.63449116658E+02  0.28692683815E+02 -0.14396710551E+03  0.20303494797E+03  0.12509037580E+03 0.  0.
          5    1    3    3  502    0 -0.71598133105E+02  0.41880676842E+02 -0.16004588701E+03  0.18031206866E+03  0.41800000000E+01 0.  1.
         -5    1    3    3    0  502  0.81490164472E+01 -0.13187993027E+02  0.16078781502E+02  0.22722879301E+02  0.41800000000E+01 0.  1.
        -11    1    1    2    0    0  0.84453617208E+02 -0.94512865392E+01 -0.19067161941E+03  0.20875202209E+03  0.00000000000E+00 0. -1.
         11    1    1    2    0    0 -0.21004500550E+02 -0.19241397276E+02 -0.73200691686E+02  0.78547830497E+02  0.00000000000E+00 0.  1.
</event>
<event>
 7    1  0.2612321E-009  0.1035047E+03  0.7561462E-02  0.1273094E+00
          1   -1    0    0  501    0  0.00000000000E+00  0.00000000000E+00  0.36204070778E+02  0.36204070778E+02  0.00000000000E+00 0. -1.
         -1   -1    0    0    0  501 -0.00000000000E+00 -0.00000000000E+00 -0.38690622639E+03  0.38690622639E+03  0.00000000000E+00 0.  1.
         25    2    1    2    0    0 -0.13007430275E+02 -0.98546195890E+00 -0.27815725506E+03  0.30526895565E+03  0.12509001705E+03 0.  0.
          5    1    3    3  502    0 -0.16268619293E+02 -0.56428083035E+02 -0.79342456577E+02  0.98800275022E+02  0.41800000000E+01 0. -1.
         -5    1    3    3    0  502  0.32611890174E+01  0.55442621076E+02 -0.19881479848E+03  0.20646868063E+03  0.41800000000E+01 0. -1.
        -11    1    1    2    0    0  0.42445656951E+02  0.29313823472E+02 -0.46040947411E+02  0.69142627077E+02  0.00000000000E+00 0.  1.
         11    1    1    2    0    0 -0.29438226675E+02 -0.28328361513E+02 -0.26503953137E+02  0.48698714435E+02  0.00000000000E+00 0. -1.
</event>
<event>
 7    1  0.2612321E-009  0.1317072E+03  0.7561462E-02  0.1224944E+00
         -1   -1    0    0    0  501 -0.00000000000E+00  0.00000000000E+00  0.61670349493E+02  0.61670349493E+02  0.00000000000E+00 0.  1.
          1   -1    0    0  501    0  0.00000000000E+00 -0.00000000000E+00 -0.49294679945E+03  0.49294679945E+03  0.00000000000E+00 0. -1.
         25    2    1    2    0    0 -0.88848214668E+02  0.58012571972E+02 -0.36712903845E+03  0.40210586895E+03  0.12508371283E+03 0.  0.
          5    1    3    3  502    0 -0.47579917322E+02  0.91287545102E+02 -0.17824040767E+03  0.20587467000E+03  0.41800000000E+01 0.  1.
         -5    1    3    3    0  502 -0.41268297347E+02 -0.33274973130E+02 -0.18888863078E+03  0.19623119895E+03  0.41800000000E+01 0.  1.
        -11    1    1    2    0    0  0.53514370845E+02 -0.43688149711E+02  0.93503586466E+01  0.69712778735E+02  0.00000000000E+00 0.  1.
         11    1    1    2    0    0  0.35333843823E+02 -0.14324422261E+02 -0.73497770152E+02  0.82798501253E+02  0.00000000000E+00 0. -1.
</event>
<event>
 7    1  0.2612321E-009  0.1581413E+03  0.7561462E-02  0.1190811E+00
         -1   -1    0    0    0  501 -0.00000000000E+00  0.00000000000E+00  0.41479330018E+02  0.41479330018E+02  0.00000000000E+00 0.  1.
          1   -1    0    0  501    0  0.00000000000E+00 -0.00000000000E+00 -0.90185357663E+03  0.90185357663E+03  0.00000000000E+00 0. -1.
         25    2    1    2    0    0 -0.10088282871E+03  0.62604979862E+02 -0.70033823758E+03  0.72126151870E+03  0.12509117758E+03 0.  0.
          5    1    3    3  502    0 -0.12032466433E+03  0.79405878290E+02 -0.62895986091E+03  0.64528388899E+03  0.41800000000E+01 0. -1.
         -5    1    3    3    0  502  0.19441835622E+02 -0.16800898428E+02 -0.71378376675E+02  0.75977629715E+02  0.41800000000E+01 0. -1.
        -11    1    1    2    0    0 -0.13993539891E+02  0.21446834305E+01  0.68848622663E+00  0.14173667097E+02  0.00000000000E+00 0.  1.
         11    1    1    2    0    0  0.11487636860E+03 -0.64749663293E+02 -0.16072449525E+03  0.20789772085E+03  0.00000000000E+00 0. -1.
</event>
<event>
 7    1  0.2612321E-009  0.1760995E+03  0.7561462E-02  0.1171632E+00
         -3   -1    0    0    0  501 -0.00000000000E+00  0.00000000000E+00  0.14860024351E+03  0.14860024351E+03  0.00000000000E+00 0.  1.
          3   -1    0    0  501    0  0.00000000000E+00 -0.00000000000E+00 -0.27598505411E+03  0.27598505411E+03  0.00000000000E+00 0. -1.
         25    2    1    2    0    0  0.15569763773E+03 -0.64281032609E+02 -0.44561443652E+02  0.21449105262E+03  0.12508750475E+03 0.  0.
          5    1    3    3  502    0  0.81246555198E+02 -0.28331358675E+02  0.41028802972E+02  0.95417522967E+02  0.41800000000E+01 0.  1.
         -5    1    3    3    0  502  0.74451082533E+02 -0.35949673934E+02 -0.85590246624E+02  0.11907352965E+03  0.41800000000E+01 0.  1.
        -11    1    1    2    0    0 -0.15581088919E+03  0.42518135773E+02 -0.92671633654E+02  0.18620648953E+03  0.00000000000E+00 0. -1.
         11    1    1    2    0    0  0.11325145950E+00  0.21762896835E+02  0.98482666978E+01  0.23887755472E+02  0.00000000000E+00 0.  1.
</event>
<event>
 7    1  0.2710407E-009  0.2922992E+03  0.7561462E-02  0.1089155E+00
         -1   -1    0    0    0  501 -0.00000000000E+00  0.00000000000E+00  0.10519362665E+03  0.10519362665E+03  0.00000000000E+00 0.  1.
          1   -1    0    0  501    0  0.00000000000E+00 -0.00000000000E+00 -0.82407468393E+03  0.82407468393E+03  0.00000000000E+00 0. -1.
         25    2    1    2    0    0  0.26648364636E+03 -0.58655017872E+02 -0.33612394130E+03  0.45064445576E+03  0.12508867532E+03 0.  0.
          5    1    3    3  502    0  0.27190619507E+03 -0.74106937521E+02 -0.30544854175E+03  0.41562134349E+03  0.41800000000E+01 0.  1.
         -5    1    3    3    0  502 -0.54225487134E+01  0.15451919649E+02 -0.30675399549E+02  0.35023112267E+02  0.41800000000E+01 0.  1.
        -11    1    1    2    0    0 -0.13398774583E+03 -0.14028114143E+02 -0.15596361267E+03  0.20609258234E+03  0.00000000000E+00 0.  1.
         11    1    1    2    0    0 -0.13249590053E+03  0.72683132015E+02 -0.22679350331E+03  0.27253127249E+03  0.00000000000E+00 0. -1.
</event>
<event>
 7    1  0.2612321E-009  0.1162321E+03  0.7561462E-02  0.1249446E+00
          2   -1    0    0  501    0  0.00000000000E+00  0.00000000000E+00  0.49657526711E+03  0.49657526711E+03  0.00000000000E+00 0. -1.
         -2   -1    0    0    0  501 -0.00000000000E+00 -0.00000000000E+00 -0.33971470652E+02  0.33971470652E+02  0.00000000000E+00 0.  1.
         25    2    1    2    0    0 -0.30960059310E+02 -0.35376568806E+02  0.14623844180E+03  0.19809981026E+03  0.12509127097E+03 0.  0.
          5    1    3    3  502    0 -0.74128284789E+02  0.17145762961E+01  0.64222812830E+02  0.98183422559E+02  0.41800000000E+01 0.  1.
         -5    1    3    3    0  502  0.43168225479E+02 -0.37091145102E+02  0.82015628973E+02  0.99916387704E+02  0.41800000000E+01 0.  1.
        -11    1    1    2    0    0  0.50257954410E+02  0.54379347450E+02  0.25095423337E+03  0.26165053537E+03  0.00000000000E+00 0.  1.
         11    1    1    2    0    0 -0.19297895100E+02 -0.19002778644E+02  0.65411121285E+02  0.70796392134E+02  0.00000000000E+00 0. -1.
</event>
<event>
 7    1  0.2612321E-009  0.1023062E+03  0.7561462E-02  0.1275520E+00
          2   -1    0    0  501    0  0.00000000000E+00  0.00000000000E+00  0.37149603728E+03  0.37149603728E+03  0.00000000000E+00 0. -1.
         -2   -1    0    0    0  501 -0.00000000000E+00 -0.00000000000E+00 -0.48524083763E+02  0.48524083763E+02  0.00000000000E+00 0.  1.
         25    2    1    2    0    0  0.76089505152E+00 -0.68950119609E+02  0.11683299881E+03  0.18453068859E+03  0.12508767910E+03 0.  0.
          5    1    3    3  502    0  0.36580541315E+02 -0.18103567745E+02 -0.10853670257E+02  0.42439954360E+02  0.41800000000E+01 0.  1.
         -5    1    3    3    0  502 -0.35819646264E+02 -0.50846551864E+02  0.12768666907E+03  0.14209073423E+03  0.41800000000E+01 0.  1.
        -11    1    1    2    0    0 -0.37281151893E+02  0.39663466794E+02  0.55477357289E+02  0.77722661151E+02  0.00000000000E+00 0.  1.
         11    1    1    2    0    0  0.36520256841E+02  0.29286652815E+02  0.15066159741E+03  0.15776677130E+03  0.00000000000E+00 0. -1.
</event>
<event>
 7    1  0.2612321E-009  0.1148617E+03  0.7561462E-02  0.1251823E+00
         -2   -1    0    0    0  501 -0.00000000000E+00  0.00000000000E+00  0.15176849413E+02  0.15176849413E+02  0.00000000000E+00 0.  1.
          2   -1    0    0  501    0  0.00000000000E+00 -0.00000000000E+00 -0.13719313718E+04  0.13719313718E+04  0.00000000000E+00 0. -1.
         25    2    1    2    0    0  0.47074157992E+01  0.52308247648E+02 -0.10933786108E+04  0.11017633633E+04  0.12508960682E+03 0.  0.
          5    1    3    3  502    0  0.46090469727E+02 -0.19058116463E+02 -0.53054812168E+03  0.53290367331E+03  0.41800000000E+01 0. -1.
         -5    1    3    3    0  502 -0.41383053928E+02  0.71366364110E+02 -0.56283048910E+03  0.56885969003E+03  0.41800000000E+01 0. -1.
        -11    1    1    2    0    0  0.23174683214E+02 -0.63062983067E+02 -0.23394475287E+03  0.24340121850E+03  0.00000000000E+00 0.  1.
         11    1    1    2    0    0 -0.27882099013E+02  0.10754735419E+02 -0.29431158737E+02  0.41943639374E+02  0.00000000000E+00 0. -1.
</event>
<event>
 7    1  0.2612321E-009  0.5449110E+02  0.7561462E-02  0.1422521E+00
         -1   -1    0    0    0  501 -0.00000000000E+00  0.00000000000E+00  0.35752372629E+03  0.35752372629E+03  0.00000000000E+00 0.  1.
          1   -1    0    0  501    0  0.00000000000E+00 -0.00000000000E+00 -0.53731039452E+02  0.53731039452E+02  0.00000000000E+00 0. -1.
         25    2    1    2    0    0 -0.27365788771E+02 -0.22042065121E+02  0.28529677141E+03  0.31348983701E+03  0.12508753375E+03 0.  0.
          5    1    3    3  502    0 -0.39451129127E+02 -0.28540232424E+02  0.29310964623E+03  0.29715597516E+03  0.41800000000E+01 0.  1.
         -5    1    3    3    0  502  0.12085340357E+02  0.64981673036E+01 -0.78128748257E+01  0.16333861848E+02  0.41800000000E+01 0.  1.
        -11    1    1    2    0    0  0.12804510580E+02 -0.60220055560E+01 -0.33806840950E+02  0.36648636225E+02  0.00000000000E+00 0. -1.
         11    1    1    2    0    0  0.14561278191E+02  0.28064070677E+02  0.52302756377E+02  0.61116292510E+02  0.00000000000E+00 0.  1.
</event>
<event>
 7    1  0.2612321E-009  0.6128310E+02  0.7561462E-02  0.1392525E+00
         -1   -1    0    0    0  501 -0.00000000000E+00  0.00000000000E+00  0.15078946138E+03  0.15078946138E+03  0.00000000000E+00 0.  1.
          1   -1    0    0  501    0  0.00000000000E+00 -0.00000000000E+00 -0.88737743129E+02  0.88737743129E+02  0.00000000000E+00 0. -1.
         25    2    1    2    0    0 -0.17692544601E+02  0.18002146706E+02  0.36198213689E-01  0.12761792694E+03  0.12509688463E+03 0.  0.
          5    1    3    3  502    0 -0.13349589069E+01 -0.10028219163E+02  0.59094807506E+02  0.60100049660E+02  0.41800000000E+01 0.  1.
         -5    1    3    3    0  502 -0.16357585694E+02  0.28030365869E+02 -0.59058609293E+02  0.67517877278E+02  0.41800000000E+01 0.  1.
        -11    1    1    2    0    0  0.46265071960E+02 -0.23634787358E+01  0.54620032827E+01  0.46646290260E+02  0.00000000000E+00 0. -1.
         11    1    1    2    0    0 -0.28572527359E+02 -0.15638667970E+02  0.56553516750E+02  0.65262987308E+02  0.00000000000E+00 0.  1.
</event>
<event>
 7    1  0.2612321E-009  0.1418980E+03  0.7561462E-02  0.1210798E+00
          2   -1    0    0  501    0  0.00000000000E+00  0.00000000000E+00  0.17124079491E+03  0.17124079491E+03  0.00000000000E+00 0. -1.
         -2   -1    0    0    0  501 -0.00000000000E+00 -0.00000000000E+00 -0.16111969257E+03  0.16111969257E+03  0.00000000000E+00 0.  1.
         25    2    1    2    0    0  0.92088469871E+02  0.41939997929E+02  0.78249226322E+02  0.17891080411E+03  0.12508750816E+03 0.  0.
          5    1    3    3  502    0  0.39858240458E+02 -0.41287669981E+02  0.50922471804E+02  0.76836980417E+02  0.41800000000E+01 0.  1.
         -5    1    3    3    0  502  0.52230229413E+02  0.83227667910E+02  0.27326754517E+02  0.10207382369E+03  0.41800000000E+01 0.  1.
        -11    1    1    2    0    0 -0.23725750226E+02 -0.53546444857E+02 -0.59644165260E+02  0.83591622966E+02  0.00000000000E+00 0.  1.
         11    1    1    2    0    0 -0.68362719646E+02  0.11606446928E+02 -0.84839587210E+01  0.69858060403E+02  0.00000000000E+00 0. -1.
</event>
<event>
 7    1  0.2612321E-009  0.1061214E+03  0.7561462E-02  0.1267926E+00
          2   -1    0    0  501    0  0.00000000000E+00  0.00000000000E+00  0.49416385264E+03  0.49416385264E+03  0.00000000000E+00 0. -1.
         -2   -1    0    0    0  501 -0.00000000000E+00 -0.00000000000E+00 -0.77494331510E+02  0.77494331510E+02  0.00000000000E+00 0.  1.
         25    2    1    2    0    0 -0.64720285872E+02 -0.58893105214E+02  0.41793932435E+03  0.44495220559E+03  0.12510824584E+03 0.  0.
          5    1    3    3  502    0 -0.28887603963E+02  0.38825176725E+01  0.32878682913E+03  0.33010274009E+03  0.41800000000E+01 0. -1.
         -5    1    3    3    0  502 -0.35832681909E+02 -0.62775622886E+02  0.89152495219E+02  0.11484946550E+03  0.41800000000E+01 0. -1.
        -11    1    1    2    0    0  0.34845743939E+02  0.70263006631E+02 -0.29761613498E+02  0.83886051341E+02  0.00000000000E+00 0.  1.
         11    1    1    2    0    0  0.29874541933E+02 -0.11369901418E+02  0.28491810276E+02  0.42819927216E+02  0.00000000000E+00 0. -1.
</event>
<event>
 7    1  0.2612321E-009  0.8728136E+02  0.7561462E-02  0.1309572E+00
          1   -1    0    0  501    0  0.00000000000E+00  0.00000000000E+00  0.13660878699E+03  0.13660878699E+03  0.00000000000E+00 0. -1.
         -1   -1    0    0    0  501 -0.00000000000E+00 -0.00000000000E+00 -0.85781127387E+02  0.85781127387E+02  0.00000000000E+00 0.  1.
         25    2    1    2    0    0 -0.17213425591E+02 -0.75900870787E+01  0.50764206874E+02  0.13630106590E+03  0.12508822655E+03 0.  0.
          5    1    3    3  502    0 -0.60377240771E+02 -0.27944765717E+02  0.57361340269E+02  0.87943828047E+02  0.41800000000E+01 0. -1.
         -5    1    3    3    0  502  0.43163815179E+02  0.20354678638E+02 -0.65971333956E+01  0.48357237848E+02  0.41800000000E+01 0. -1.
        -11    1    1    2    0    0  0.31063456090E+02  0.23463821924E+02 -0.30161702458E+02  0.49246497730E+02  0.00000000000E+00 0.  1.
         11    1    1    2    0    0 -0.13850030499E+02 -0.15873734846E+02  0.30225155183E+02  0.36842350747E+02  0.00000000000E+00 0. -1.
</event>
<event>
 7    1  0.3154625E-009  0.1422641E+03  0.7561462E-02  0.1210315E+00
          2   -1    0    0  501    0  0.00000000000E+00  0.00000000000E+00  0.62829865705E+03  0.62829865705E+03  0.00000000000E+00 0. -1.
         -2   -1    0    0    0  501 -0.00000000000E+00 -0.00000000000E+00 -0.42769162556E+02  0.42769162556E+02  0.00000000000E+00 0.  1.
         25    2    1    2    0    0 -0.98643337799E+02 -0.20425785282E+02  0.45524886903E+03  0.48274904987E+03  0.12508953433E+03 0.  0.
          5    1    3    3  502    0 -0.12277968529E+03 -0.31610913020E+02  0.41773450475E+03  0.43657037211E+03  0.41800000000E+01 0. -1.
         -5    1    3    3    0  502  0.24136347490E+02  0.11185127738E+02  0.37514364283E+02  0.46178677766E+02  0.41800000000E+01 0. -1.
        -11    1    1    2    0    0  0.82376914213E+02 -0.22038411531E+02  0.10821242195E+03  0.13777363987E+03  0.00000000000E+00 0. -1.
         11    1    1    2    0    0  0.16266423586E+02  0.42464196812E+02  0.22068203514E+02  0.50545129869E+02  0.00000000000E+00 0.  1.
</event>
<event>
 7    1  0.2612321E-009  0.1388353E+03  0.7561462E-02  0.1214905E+00
          2   -1    0    0  501    0  0.00000000000E+00  0.00000000000E+00  0.13754504880E+03  0.13754504880E+03  0.00000000000E+00 0. -1.
         -2   -1    0    0    0  501 -0.00000000000E+00 -0.00000000000E+00 -0.24261474703E+03  0.24261474703E+03  0.00000000000E+00 0.  1.
         25    2    1    2    0    0  0.96534458602E+02 -0.77790682391E+02 -0.13735751651E+03  0.22334819947E+03  0.12508812453E+03 0.  0.
          5    1    3    3  502    0  0.42696223950E+02 -0.83142520726E+02 -0.22363789867E+02  0.96193855259E+02  0.41800000000E+01 0.  1.
         -5    1    3    3    0  502  0.53838234652E+02  0.53518383354E+01 -0.11499372664E+03  0.12715434421E+03  0.41800000000E+01 0.  1.
        -11    1    1    2    0    0 -0.69529644465E+02  0.31669880136E+02 -0.23124244392E+02  0.79825330854E+02  0.00000000000E+00 0.  1.
         11    1    1    2    0    0 -0.27004814136E+02  0.46120802255E+02  0.55412062677E+02  0.76986265511E+02  0.00000000000E+00 0. -1.
</event>
<event>
 7    1  0.2612321E-009  0.1183037E+03  0.7561462E-02  0.1245922E+00
          2   -1    0    0  501    0  0.00000000000E+00  0.00000000000E+00  0.43323360575E+03  0.43323360575E+03  0.00000000000E+00 0. -1.
         -2   -1    0    0    0  501 -0.00000000000E+00 -0.00000000000E+00 -0.37221648185E+02  0.37221648185E+02  0.00000000000E+00 0.  1.
         25    2    1    2    0    0  0.58411859489E+02 -0.31469480525E+02  0.19912905704E+03  0.24433865150E+03  0.12508685673E+03 0.  0.
          5    1    3    3  502    0  0.54837090592E+02  0.34219597374E+02  0.14582930648E+03  0.15956737254E+03  0.41800000000E+01 0. -1.
         -5    1    3    3    0  502  0.35747688976E+01 -0.65689077899E+02  0.53299750553E+02  0.84771278962E+02  0.41800000000E+01 0. -1.
        -11    1    1    2    0    0 -0.71418517958E+01  0.50667924676E+02  0.12985117723E+03  0.13956924040E+03  0.00000000000E+00 0.  1.
         11    1    1    2    0    0 -0.51270007694E+02 -0.19198444151E+02  0.67031723302E+02  0.86547362037E+02  0.00000000000E+00 0. -1.
</event>
<event>
 7    1  0.2612321E-009  0.8404822E+02  0.7561462E-02  0.1317940E+00
          1   -1    0    0  501    0  0.00000000000E+00  0.00000000000E+00  0.23820497870E+03  0.23820497870E+03  0.00000000000E+00 0. -1.
         -1   -1    0    0    0  501 -0.00000000000E+00 -0.00000000000E+00 -0.50247131021E+02  0.50247131021E+02  0.00000000000E+00 0.  1.
         25    2    1    2    0    0 -0.37467943794E+02  0.17950750900E+02  0.11521335963E+03  0.17506553326E+03  0.12509095262E+03 0.  0.
          5    1    3    3  502    0 -0.57438489717E+02  0.36757290503E+02  0.12755220401E+03  0.14469732428E+03  0.41800000000E+01 0. -1.
         -5    1    3    3    0  502  0.19970545923E+02 -0.18806539602E+02 -0.12338844372E+02  0.30368208981E+02  0.41800000000E+01 0. -1.
        -11    1    1    2    0    0  0.97166076493E+01  0.21615312555E+02 -0.26352429941E+01  0.23844888482E+02  0.00000000000E+00 0.  1.
         11    1    1    2    0    0  0.27751336145E+02 -0.39566063455E+02  0.75379731038E+02  0.89541687981E+02  0.00000000000E+00 0. -1.
</event>
<event>
 7    1  0.2691788E-009  0.2608057E+03  0.7561462E-02  0.1106660E+00
          1   -1    0    0  501    0  0.00000000000E+00  0.00000000000E+00  0.99971642709E+03  0.99971642709E+03  0.00000000000E+00 0. -1.
         -1   -1    0    0    0  501 -0.00000000000E+00 -0.00000000000E+00 -0.76538020467E+02  0.76538020467E+02  0.00000000000E+00 0.  1.
         25    2    1    2    0    0  0.22613686908E+03 -0.10374124632E+03  0.57698888682E+03  0.64067426548E+03  0.12508880521E+03 0.  0.
          5    1    3    3  502    0  0.16538178761E+03 -0.11964127331E+03  0.35074097234E+03  0.40583478416E+03  0.41800000000E+01 0.  1.
         -5    1    3    3    0  502  0.60755081463E+02  0.15900026984E+02  0.22624791448E+03  0.23483948132E+03  0.41800000000E+01 0.  1.
        -11    1    1    2    0    0 -0.98611159624E+02  0.16464039700E+02  0.19631994600E+03  0.22031056852E+03  0.00000000000E+00 0.  1.
         11    1    1    2    0    0 -0.12752570945E+03  0.87277206624E+02  0.14986957380E+03  0.21526961355E+03  0.00000000000E+00 0. -1.
</event>
<event>
 7    1  0.2612321E-009  0.1474413E+03  0.7561462E-02  0.1203653E+00
          2   -1    0    0  501    0  0.00000000000E+00  0.00000000000E+00  0.26437730654E+03  0.26437730654E+03  0.00000000000E+00 0. -1.
         -2   -1    0    0    0  501 -0.00000000000E+00 -0.00000000000E+00 -0.10041729450E+03  0.10041729450E+03  0.00000000000E+00 0.  1.
         25    2    1    2    0    0  0.39450918801E+02 -0.10727541151E+03  0.37555204495E+02  0.17355574132E+03  0.12508722178E+03 0.  0.
          5    1    3    3  502    0 -0.44070509794E+02 -0.38346079083E+02  0.27547800853E+02  0.64722371297E+02  0.41800000000E+01 0.  1.
         -5    1    3    3    0  502  0.83521428594E+02 -0.68929332424E+02  0.10007403642E+02  0.10883337002E+03  0.41800000000E+01 0.  1.
        -11    1    1    2    0    0 -0.39102200353E+02  0.26657503139E+02  0.92256045733E+02  0.10368598035E+03  0.00000000000E+00 0. -1.
         11    1    1    2    0    0 -0.34871844747E+00  0.80617908367E+02  0.34148761804E+02  0.87552879375E+02  0.00000000000E+00 0.  1.
</event>
<event>
 7    1  0.2612321E-009  0.8935853E+02  0.7561462E-02  0.1304413E+00
          2   -1    0    0  501    0  0.00000000000E+00  0.00000000000E+00  0.66509926941E+02  0.66509926941E+02  0.00000000000E+00 0. -1.
         -2   -1    0    0    0  501 -0.00000000000E+00 -0.00000000000E+00 -0.31415207576E+03  0.31415207576E+03  0.00000000000E+00 0.  1.
         25    2    1    2    0    0 -0.17601831754E+02 -0.58462573117E+02 -0.34421149548E+02  0.14338671039E+03  0.12508891335E+03 0.  0.
          5    1    3    3  502    0  0.59818852084E+01  0.27483929253E+02 -0.45319482130E+02  0.53502123120E+02  0.41800000000E+01 0.  1.
         -5    1    3    3    0  502 -0.23583716962E+02 -0.85946502370E+02  0.10898332582E+02  0.89884587269E+02  0.41800000000E+01 0.  1.
        -11    1    1    2    0    0  0.62855958657E+01  0.19664330213E+02 -0.39738535680E+00  0.20648305335E+02  0.00000000000E+00 0. -1.
         11    1    1    2    0    0  0.11316235888E+02  0.38798242904E+02 -0.21282361391E+03  0.21662698697E+03  0.00000000000E+00 0.  1.
</event>
<event>
 7    1  0.2612321E-009  0.1788442E+03  0.7561462E-02  0.1168926E+00
          3   -1    0    0  501    0  0.00000000000E+00  0.00000000000E+00  0.66248698787E+02  0.66248698787E+02  0.00000000000E+00 0. -1.
         -3   -1    0    0    0  501 -0.00000000000E+00 -0.00000000000E+00 -0.50776289710E+03  0.50776289710E+03  0.00000000000E+00 0.  1.
         25    2    1    2    0    0  0.10199292173E+02 -0.14688064754E+03 -0.22773784016E+03  0.29864708695E+03  0.12509040141E+03 0.  0.
          5    1    3    3  502    0 -0.50087197519E+02 -0.74164842400E+02 -0.15625480670E+03  0.18011715138E+03  0.41800000000E+01 0.  1.
         -5    1    3    3    0  502  0.60286489692E+02 -0.72715805136E+02 -0.71483033458E+02  0.11852993558E+03  0.41800000000E+01 0.  1.
        -11    1    1    2    0    0 -0.45637220322E+02  0.12197615776E+03 -0.15867362675E+03  0.20527605502E+03  0.00000000000E+00 0. -1.
         11    1    1    2    0    0  0.35437928149E+02  0.24904489773E+02 -0.55102731414E+02  0.70088453911E+02  0.00000000000E+00 0.  1.
</event>
<event>
 7    1  0.2612321E-009  0.8954662E+02  0.7561462E-02  0.1303953E+00
         -2   -1    0    0    0  501 -0.00000000000E+00  0.00000000000E+00  0.13094580262E+02  0.13094580262E+02  0.00000000000E+00 0.  1.
          2   -1    0    0  501    0  0.00000000000E+00 -0.00000000000E+00 -0.97143121133E+03  0.97143121133E+03  0.00000000000E+00 0. -1.
         25    2    1    2    0    0  0.21580623200E+02  0.11487877738E+02 -0.46554457616E+03  0.48267664883E+03  0.12508916941E+03 0.  0.
          5    1    3    3  502    0  0.49063291619E+02 -0.88469543177E+01 -0.43100540809E+03  0.43389930789E+03  0.41800000000E+01 0.  1.
         -5    1    3    3    0  502 -0.27482668419E+02  0.20334832055E+02 -0.34539168064E+02  0.48777340935E+02  0.41800000000E+01 0.  1.
        -11    1    1    2    0    0  0.32040749951E+02  0.14340707458E+02 -0.16420696540E+03  0.16791722078E+03  0.00000000000E+00 0. -1.
         11    1    1    2    0    0 -0.53621373151E+02 -0.25828585196E+02 -0.32858508951E+03  0.33393192198E+03  0.00000000000E+00 0.  1.
</event>
<event>
 7    1  0.2612321E-009  0.1091959E+03  0.7561462E-02  0.1262066E+00
          2   -1    0    0  501    0  0.00000000000E+00  0.00000000000E+00  0.87770913781E+02  0.87770913781E+02  0.00000000000E+00 0. -1.
         -2   -1    0    0    0  501 -0.00000000000E+00 -0.00000000000E+00 -0.22954702084E+03  0.22954702084E+03  0.00000000000E+00 0.  1.
         25    2    1    2    0    0 -0.21232506060E+02 -0.87667776280E+02 -0.82231495239E+02  0.17477379129E+03  0.12508957191E+03 0.  0.
          5    1    3    3  502    0 -0.16140165413E+02 -0.14273766400E+02 -0.97142596984E+02  0.99591173784E+02  0.41800000000E+01 0. -1.
         -5    1    3    3    0  502 -0.50923406462E+01 -0.73394009880E+02  0.14911101745E+02  0.75182617504E+02  0.41800000000E+01 0. -1.
        -11    1    1    2    0    0  0.52965891375E+02  0.64519489850E+02 -0.18045428616E+02  0.85403675059E+02  0.00000000000E+00 0. -1.
         11    1    1    2    0    0 -0.31733385315E+02  0.23148286429E+02 -0.41499183206E+02  0.57140468277E+02  0.00000000000E+00 0.  1.
</event>
<event>
 7    1  0.2612321E-009  0.1402665E+03  0.7561462E-02  0.1212971E+00
         -1   -1    0    0    0  501 -0.00000000000E+00  0.00000000000E+00  0.54349982876E+02  0.54349982876E+02  0.00000000000E+00 0. -1.
          1   -1    0    0  501    0  0.00000000000E+00 -0.00000000000E+00 -0.62602900117E+03  0.62602900117E+03  0.00000000000E+00 0.  1.
         25    2    1    2    0    0  0.52496130608E+02 -0.94062613298E+02 -0.49176810349E+03  0.51873698819E+03  0.12509426989E+03 0.  0.
          5    1    3    3  502    0  0.56510309739E+02 -0.12097512019E+03 -0.35676355924E+03  0.38095420252E+03  0.41800000000E+01 0. -1.
         -5    1    3    3    0  502 -0.40141791309E+01  0.26912506890E+02 -0.13500454425E+03  0.13778278568E+03  0.41800000000E+01 0. -1.
        -11    1    1    2    0    0  0.10170309150E+02  0.79219810350E+01 -0.49082233417E+02  0.50747005911E+02  0.00000000000E+00 0.  1.
         11    1    1    2    0    0 -0.62666439758E+02  0.86140632263E+02 -0.30828681387E+02  0.11089498994E+03  0.00000000000E+00 0. -1.
</event>
<event>
 7    1  0.2612321E-009  0.7885148E+02  0.7561462E-02  0.1332343E+00
         -2   -1    0    0    0  501 -0.00000000000E+00  0.00000000000E+00  0.89685817672E+02  0.89685817672E+02  0.00000000000E+00 0.  1.
          2   -1    0    0  501    0  0.00000000000E+00 -0.00000000000E+00 -0.13503550748E+03  0.13503550748E+03  0.00000000000E+00 0. -1.
         25    2    1    2    0    0  0.11003806911E+02 -0.76885049827E+01 -0.10030355442E+02  0.12621703510E+03  0.12509970041E+03 0.  0.
          5    1    3    3  502    0 -0.21152934153E+02 -0.33318788880E+02 -0.53251108563E+02  0.66413411890E+02  0.41800000000E+01 0.  1.
         -5    1    3    3    0  502  0.32156741064E+02  0.25630283897E+02  0.43220753120E+02  0.59803623208E+02  0.41800000000E+01 0.  1.
        -11    1    1    2    0    0  0.24680270831E+02 -0.19797968037E+02  0.11378196713E+02  0.33623483863E+02  0.00000000000E+00 0.  1.
         11    1    1    2    0    0 -0.35684077742E+02  0.27486473019E+02 -0.46697531083E+02  0.64880806196E+02  0.00000000000E+00 0. -1.
</event>
<event>
 7    1  0.2612321E-009  0.8692270E+02  0.7561462E-02  0.1310480E+00
         -2   -1    0    0    0  501 -0.00000000000E+00  0.00000000000E+00  0.15240695287E+03  0.15240695287E+03  0.00000000000E+00 0.  1.
          2   -1    0    0  501    0  0.00000000000E+00 -0.00000000000E+00 -0.12475760179E+03  0.12475760179E+03  0.00000000000E+00 0. -1.
         25    2    1    2    0    0 -0.44587055426E+02 -0.18582683752E+02  0.85842059144E+02  0.15921676433E+03  0.12509115588E+03 0.  0.
          5    1    3    3  502    0 -0.29990644079E+02  0.29273970536E+02  0.98767116956E+02  0.10737234223E+03  0.41800000000E+01 0. -1.
         -5    1    3    3    0  502 -0.14596411346E+02 -0.47856654288E+02 -0.12925057813E+02  0.51844422104E+02  0.41800000000E+01 0. -1.
        -11    1    1    2    0    0 -0.81407152551E+01 -0.16354434428E+02 -0.51138466147E+02  0.54303604763E+02  0.00000000000E+00 0. -1.
         11    1    1    2    0    0  0.52727770681E+02  0.34937118180E+02 -0.70542419236E+01  0.63644185569E+02  0.00000000000E+00 0.  1.
</event>
<event>
 7    1  0.2612321E-009  0.1220942E+03  0.7561462E-02  0.1239682E+00
         -1   -1    0    0    0  501 -0.00000000000E+00  0.00000000000E+00  0.94586773257E+02  0.94586773257E+02  0.00000000000E+00 0.  1.
          1   -1    0    0  501    0  0.00000000000E+00 -0.00000000000E+00 -0.25879037940E+03  0.25879037940E+03  0.00000000000E+00 0. -1.
         25    2    1    2    0    0  0.78276482150E+02 -0.72368020507E+00 -0.17704991114E+03  0.23048215683E+03  0.12509045612E+03 0.  0.
          5    1    3    3  502    0  0.10481162058E+03  0.15358925323E+02 -0.16661048745E+03  0.19747885792E+03  0.41800000000E+01 0. -1.
         -5    1    3    3    0  502 -0.26535138431E+02 -0.16082605528E+02 -0.10439423689E+02  0.33003298912E+02  0.41800000000E+01 0. -1.
        -11    1    1    2    0    0  0.13555768053E+02 -0.59238919103E+01  0.25973823950E+02  0.29891317693E+02  0.00000000000E+00 0. -1.
         11    1    1    2    0    0 -0.91832250203E+02  0.66475721154E+01 -0.13127518952E+02  0.93003678133E+02  0.00000000000E+00 0.  1.
</event>
<event>
 7    1  0.2612321E-009  0.9698214E+02  0.7561462E-02  0.1286773E+00
          2   -1    0    0  501    0  0.00000000000E+00  0.00000000000E+00  0.56583964360E+03  0.56583964360E+03  0.00000000000E+00 0.  1.
         -2   -1    0    0    0  501 -0.00000000000E+00 -0.00000000000E+00 -0.24388038474E+02  0.24388038474E+02  0.00000000000E+00 0. -1.
         25    2    1    2    0    0 -0.12196076460E+02  0.30686850770E+02  0.38763082257E+03  0.40864952596E+03  0.12508538432E+03 0.  0.
          5    1    3    3  502    0 -0.28276149514E+02  0.60770054212E+02  0.35487468839E+03  0.36117316758E+03  0.41800000000E+01 0.  1.
         -5    1    3    3    0  502  0.16080073054E+02 -0.30083203442E+02  0.32756134185E+02  0.47476358385E+02  0.41800000000E+01 0.  1.
        -11    1    1    2    0    0 -0.25235735499E+02  0.18022559342E+02  0.78366975750E+02  0.84279522303E+02  0.00000000000E+00 0.  1.
         11    1    1    2    0    0  0.37431811959E+02 -0.48709410112E+02  0.75453806808E+02  0.97298633812E+02  0.00000000000E+00 0. -1.
</event>
<event>
 7    1  0.2612321E-009  0.8393772E+02  0.7561462E-02  0.1318234E+00
          1   -1    0    0  501    0  0.00000000000E+00  0.00000000000E+00  0.54212056934E+02  0.54212056934E+02  0.00000000000E+00 0. -1.
         -1   -1    0    0    0  501 -0.00000000000E+00 -0.00000000000E+00 -0.24338716520E+03  0.24338716520E+03  0.00000000000E+00 0.  1.
         25    2    1    2    0    0 -0.20941364284E+02  0.29494012366E+02 -0.84508483739E+02  0.15522820366E+03  0.12508266819E+03 0.  0.
          5    1    3    3  502    0  0.35071517598E+02  0.26021510009E+02 -0.88535338014E+02  0.98808445019E+02  0.41800000000E+01 0. -1.
         -5    1    3    3    0  502 -0.56012881881E+02  0.34725023576E+01  0.40268542752E+01  0.56419758637E+02  0.41800000000E+01 0. -1.
        -11    1    1    2    0    0  0.22371358903E+02  0.12556603541E+02  0.38883008908E+01  0.25947348140E+02  0.00000000000E+00 0. -1.
         11    1    1    2    0    0 -0.14299946197E+01 -0.42050615907E+02 -0.10855492542E+03  0.11642367034E+03  0.00000000000E+00 0.  1.
</event>
<event>
 7    1  0.2612321E-009  0.9750341E+02  0.7561462E-02  0.1285635E+00
          2   -1    0    0  501    0  0.00000000000E+00  0.00000000000E+00  0.48142406825E+03  0.48142406825E+03  0.00000000000E+00 0. -1.
         -2   -1    0    0    0  501 -0.00000000000E+00 -0.00000000000E+00 -0.46243872782E+02  0.46243872782E+02  0.00000000000E+00 0.  1.
         25    2    1    2    0    0  0.31918020154E+02  0.46521379119E+02  0.38344814983E+03  0.40726396311E+03  0.12509377807E+03 0.  0.
          5    1    3    3  502    0  0.68162006769E+02  0.16422535183E+02  0.32280229472E+03  0.33035519174E+03  0.41800000000E+01 0. -1.
         -5    1    3    3    0  502 -0.36243986615E+02  0.30098843936E+02  0.60645855106E+02  0.76908771369E+02  0.41800000000E+01 0. -1.
        -11    1    1    2    0    0  0.36640689163E+00 -0.45157808189E+02  0.69986178419E+02  0.83291218409E+02  0.00000000000E+00 0. -1.
         11    1    1    2    0    0 -0.32284427046E+02 -0.13635709302E+01 -0.18254132780E+02  0.37112759516E+02  0.00000000000E+00 0.  1.
</event>
<event>
 7    1  0.2612321E-009  0.1884530E+03  0.7561462E-02  0.1159864E+00
          2   -1    0    0  501    0  0.00000000000E+00  0.00000000000E+00  0.16636509666E+03  0.16636509666E+03  0.00000000000E+00 0. -1.
         -2   -1    0    0    0  501 -0.00000000000E+00 -0.00000000000E+00 -0.26786430898E+03  0.26786430898E+03  0.00000000000E+00 0.  1.
         25    2    1    2    0    0 -0.15858277420E+03  0.30695236872E+02 -0.13665509194E+03  0.24579011500E+03  0.12508985825E+03 0.  0.
          5    1    3    3  502    0 -0.13492277652E+03 -0.26618793005E+02 -0.11700535510E+03  0.18061129889E+03  0.41800000000E+01 0. -1.
         -5    1    3    3    0  502 -0.23659997686E+02  0.57314029877E+02 -0.19649736840E+02  0.65178816107E+02  0.41800000000E+01 0. -1.
        -11    1    1    2    0    0  0.42392602625E+02 -0.42938327966E+02 -0.13579791347E+02  0.61848552925E+02  0.00000000000E+00 0. -1.
         11    1    1    2    0    0  0.11619017158E+03  0.12243091094E+02  0.48735670975E+02  0.12659073772E+03  0.00000000000E+00 0.  1.
</event>
<event>
 7    1  0.2612321E-009  0.8140099E+02  0.7561462E-02  0.1325122E+00
         -2   -1    0    0    0  501 -0.00000000000E+00  0.00000000000E+00  0.70579833074E+02  0.70579833074E+02  0.00000000000E+00 0.  1.
          2   -1    0    0  501    0  0.00000000000E+00 -0.00000000000E+00 -0.25128548554E+03  0.25128548554E+03  0.00000000000E+00 0. -1.
         25    2    1    2    0    0  0.29632255842E+00  0.78223722207E+01 -0.18935838931E+03  0.22707633399E+03  0.12508311054E+03 0.  0.
          5    1    3    3  502    0 -0.33657775553E+02 -0.51295093656E+01 -0.18732503867E+03  0.19043975487E+03  0.41800000000E+01 0.  1.
         -5    1    3    3    0  502  0.33954098111E+02  0.12951881586E+02 -0.20333506440E+01  0.36636579126E+02  0.41800000000E+01 0.  1.
        -11    1    1    2    0    0  0.36367936936E+01  0.41892272112E+02  0.14718742134E+02  0.44551432088E+02  0.00000000000E+00 0.  1.
         11    1    1    2    0    0 -0.39331162521E+01 -0.49714644332E+02 -0.60660052876E+01  0.50237552535E+02  0.00000000000E+00 0. -1.
</event>
<event>
 7    1  0.2612321E-009  0.1552047E+03  0.7561462E-02  0.1194219E+00
         -1   -1    0    0    0  501 -0.00000000000E+00  0.00000000000E+00  0.17334375169E+03  0.17334375169E+03  0.00000000000E+00 0.  1.
          1   -1    0    0  501    0  0.00000000000E+00 -0.00000000000E+00 -0.16893245502E+03  0.16893245502E+03  0.00000000000E+00 0. -1.
         25    2    1    2    0    0  0.11494857622E+03  0.79798262142E+01  0.66931431673E+02  0.18276612091E+03  0.12508711207E+03 0.  0.
          5    1    3    3  502    0  0.12268931008E+03  0.45953646054E+02  0.50740636523E+02  0.14055777812E+03  0.41800000000E+01 0.  1.
         -5    1    3    3    0  502 -0.77407338640E+01 -0.37973819840E+02  0.16190795149E+02  0.42208342795E+02  0.41800000000E+01 0.  1.
        -11    1    1    2    0    0 -0.45128417194E+02 -0.42916732096E+02 -0.48863416770E+01  0.62468362130E+02  0.00000000000E+00 0.  1.
         11    1    1    2    0    0 -0.69820159024E+02  0.34936905881E+02 -0.57633793330E+02  0.97041723667E+02  0.00000000000E+00 0. -1.
</event>
<event>
 7    1  0.2612321E-009  0.1378918E+03  0.7561462E-02  0.1216194E+00
         -1   -1    0    0    0  501 -0.00000000000E+00  0.00000000000E+00  0.42415876991E+02  0.42415876991E+02  0.00000000000E+00 0.  1.
          1   -1    0    0  501    0  0.00000000000E+00 -0.00000000000E+00 -0.57993553178E+03  0.57993553178E+03  0.00000000000E+00 0. -1.
         25    2    1    2    0    0  0.86707248401E+02  0.24666688856E+02 -0.41743098227E+03  0.44499797092E+03  0.12509187302E+03 0.  0.
          5    1    3    3  502    0  0.15665261859E+01 -0.38843383272E+02 -0.18958146600E+03  0.19357134881E+03  0.41800000000E+01 0. -1.
         -5    1    3    3    0  502  0.85140722215E+02  0.63510072128E+02 -0.22784951627E+03  0.25142662211E+03  0.41800000000E+01 0. -1.
        -11    1    1    2    0    0  0.13000312375E+02  0.17772537029E+02 -0.23289988375E+02  0.32051439169E+02  0.00000000000E+00 0. -1.
         11    1    1    2    0    0 -0.99707560775E+02 -0.42439225885E+02 -0.96798684140E+02  0.14530199868E+03  0.00000000000E+00 0.  1.
</event>
<event>
 7    1  0.2612321E-009  0.9685800E+02  0.7561462E-02  0.1287045E+00
         -1   -1    0    0    0  501 -0.00000000000E+00  0.00000000000E+00  0.27936871143E+02  0.27936871143E+02  0.00000000000E+00 0.  1.
          1   -1    0    0  501    0  0.00000000000E+00 -0.00000000000E+00 -0.43773026545E+03  0.43773026545E+03  0.00000000000E+00 0. -1.
         25    2    1    2    0    0  0.22493707975E+02 -0.42741402804E+01 -0.21790668935E+03  0.25229587211E+03  0.12508255932E+03 0.  0.
          5    1    3    3  502    0  0.32661899794E+02 -0.60886922343E+02 -0.11064812247E+03  0.13051626878E+03  0.41800000000E+01 0.  1.
         -5    1    3    3    0  502 -0.10168191820E+02  0.56612782062E+02 -0.10725856689E+03  0.12177960334E+03  0.41800000000E+01 0.  1.
        -11    1    1    2    0    0 -0.16268987529E+01  0.32046100023E+02 -0.16842144678E+03  0.17145081820E+03  0.00000000000E+00 0. -1.
         11    1    1    2    0    0 -0.20866809222E+02 -0.27771959743E+02 -0.23465258171E+02  0.41920446277E+02  0.00000000000E+00 0.  1.
</event>
<event>
 7    1  0.2612321E-009  0.6493761E+02  0.7561462E-02  0.1378206E+00
         -2   -1    0    0    0  501 -0.00000000000E+00  0.00000000000E+00  0.27592137507E+03  0.27592137507E+03  0.00000000000E+00 0.  1.
          2   -1    0    0  501    0  0.00000000000E+00 -0.00000000000E+00 -0.66994538645E+02  0.66994538645E+02  0.00000000000E+00 0. -1.
         25    2    1    2    0    0 -0.25824686739E+02  0.33276811019E+02  0.24277928873E+02  0.13420560633E+03  0.12508983310E+03 0.  0.
          5    1    3    3  502    0  0.76404874276E+01  0.27979058001E+02 -0.46878489650E+02  0.55283541191E+02  0.41800000000E+01 0.  1.
         -5    1    3    3    0  502 -0.33465174167E+02  0.52977530174E+01  0.71156418524E+02  0.78922065141E+02  0.41800000000E+01 0.  1.
        -11    1    1    2    0    0 -0.68579420383E+01 -0.33045694009E+02  0.16924767833E+03  0.17257991159E+03  0.00000000000E+00 0.  1.
         11    1    1    2    0    0  0.32682628777E+02 -0.23111700911E+00  0.15401229214E+02  0.36130395793E+02  0.00000000000E+00 0. -1.
</event>
<event>
 7    1  0.3098714E-009  0.2631006E+03  0.7561462E-02  0.1105295E+00
         -2   -1    0    0    0  501 -0.00000000000E+00  0.00000000000E+00  0.97800183240E+02  0.97800183240E+02  0.00000000000E+00 0.  1.
          2   -1    0    0  501    0  0.00000000000E+00 -0.00000000000E+00 -0.71471529932E+03  0.71471529932E+03  0.00000000000E+00 0. -1.
         25    2    1    2    0    0  0.19382334686E+03  0.14269812360E+03 -0.29756649519E+03  0.40264664645E+03  0.12509299970E+03 0.  0.
          5    1    3    3  502    0  0.17846695935E+03  0.62090038270E+02 -0.21196803137E+03  0.28399568158E+03  0.41800000000E+01 0.  1.
         -5    1    3    3    0  502  0.15356387513E+02  0.80608085329E+02 -0.85598463819E+02  0.11865096488E+03  0.41800000000E+01 0.  1.
        -11    1    1    2    0    0 -0.16730901940E+03 -0.76985605823E+02 -0.20730584262E+03  0.27729912344E+03  0.00000000000E+00 0. -1.
         11    1    1    2    0    0 -0.26514327459E+02 -0.65712517776E+02 -0.11204277828E+03  0.13256971267E+03  0.00000000000E+00 0.  1.
</event>
<event>
 7    1  0.2612321E-009  0.2103845E+03  0.7561462E-02  0.1141262E+00
         -2   -1    0    0    0  501 -0.00000000000E+00  0.00000000000E+00  0.11992623410E+03  0.11992623410E+03  0.00000000000E+00 0.  1.
          2   -1    0    0  501    0  0.00000000000E+00 -0.00000000000E+00 -0.62975798639E+03  0.62975798639E+03  0.00000000000E+00 0. -1.
         25    2    1    2    0    0 -0.15045555640E+02  0.17902364932E+03 -0.20318251413E+02  0.21985467715E+03  0.12508961574E+03 0.  0.
          5    1    3    3  502    0  0.46535963693E+02  0.26875076651E+02  0.31551622398E+01  0.53993454332E+02  0.41800000000E+01 0. -1.
         -5    1    3    3    0  502 -0.61581519334E+02  0.15214857266E+03 -0.23473413653E+02  0.16586122282E+03  0.41800000000E+01 0. -1.
        -11    1    1    2    0    0  0.54677036213E+02 -0.91389448416E+02 -0.25162784669E+03  0.27323649610E+03  0.00000000000E+00 0.  1.
         11    1    1    2    0    0 -0.39631480572E+02 -0.87634200900E+02 -0.23788565419E+03  0.25659304724E+03  0.00000000000E+00 0. -1.
</event>
<event>
 7    1  0.3147227E-009  0.9983475E+02  0.7561462E-02  0.1280644E+00
         -2   -1    0    0    0  501 -0.00000000000E+00  0.00000000000E+00  0.47814288386E+02  0.47814288386E+02  0.00000000000E+00 0.  1.
          2   -1    0    0  501    0  0.00000000000E+00 -0.00000000000E+00 -0.36475017662E+03  0.36475017662E+03  0.00000000000E+00 0. -1.
         25    2    1    2    0    0  0.34860822345E+02 -0.88777717352E+01 -0.27985989319E+03  0.30864772868E+03  0.12509104217E+03 0.  0.
          5    1    3    3  502    0  0.34828756811E+02  0.49057646852E+02 -0.20621202428E+03  0.21485010210E+03  0.41800000000E+01 0.  1.
         -5    1    3    3    0  502  0.32065534440E-01 -0.57935418588E+02 -0.73647868916E+02  0.93797626574E+02  0.41800000000E+01 0.  1.
        -11    1    1    2    0    0 -0.67687605843E+01 -0.31425932296E+02  0.12153670637E+02  0.34367383527E+02  0.00000000000E+00 0.  1.
         11    1    1    2    0    0 -0.28092061761E+02  0.40303704032E+02 -0.49229665674E+02  0.69549352801E+02  0.00000000000E+00 0. -1.
</event>
<event>
 7    1  0.2612321E-009  0.1414373E+03  0.7561462E-02  0.1211408E+00
          2   -1    0    0  501    0  0.00000000000E+00  0.00000000000E+00  0.41517028610E+03  0.41517028610E+03  0.00000000000E+00 0. -1.
         -2   -1    0    0    0  501 -0.00000000000E+00 -0.00000000000E+00 -0.10414440959E+03  0.10414440959E+03  0.00000000000E+00 0.  1.
         25    2    1    2    0    0  0.63459269783E+02 -0.90642666338E+02  0.33447348288E+03  0.37384889490E+03  0.12508922251E+03 0.  0.
          5    1    3    3  502    0 -0.23694608745E+02 -0.74297204183E+02  0.14901136895E+03  0.16823605294E+03  0.41800000000E+01 0. -1.
         -5    1    3    3    0  502  0.87153878528E+02 -0.16345462154E+02  0.18546211393E+03  0.20561284196E+03  0.41800000000E+01 0. -1.
        -11    1    1    2    0    0 -0.11598611830E+02  0.25167479151E-01  0.27090793075E+02  0.29469297569E+02  0.00000000000E+00 0. -1.
         11    1    1    2    0    0 -0.51860657952E+02  0.90617498859E+02 -0.50538399439E+02  0.11599650323E+03  0.00000000000E+00 0.  1.
</event>
<event>
 7    1  0.2612321E-009  0.3874800E+03  0.7561462E-02  0.1048203E+00
         -2   -1    0    0    0  501 -0.00000000000E+00  0.00000000000E+00  0.83581030123E+02  0.83581030123E+02  0.00000000000E+00 0.  1.
          2   -1    0    0  501    0  0.00000000000E+00 -0.00000000000E+00 -0.18626646945E+04  0.18626646945E+04  0.00000000000E+00 0. -1.
         25    2    1    2    0    0  0.16515941606E+02 -0.37775724209E+03 -0.83109303781E+03  0.92159438638E+03  0.12508902923E+03 0.  0.
          5    1    3    3  502    0  0.45814660448E+02 -0.33031365375E+03 -0.62945177325E+03  0.71234338645E+03  0.41800000000E+01 0.  1.
         -5    1    3    3    0  502 -0.29298718842E+02 -0.47443588339E+02 -0.20164126455E+03  0.20925099993E+03  0.41800000000E+01 0.  1.
        -11    1    1    2    0    0 -0.46474180466E+02  0.25331246287E+03 -0.56740631068E+03  0.62311874847E+03  0.00000000000E+00 0. -1.
         11    1    1    2    0    0  0.29958238860E+02  0.12444477922E+03 -0.38058431586E+03  0.40153258975E+03  0.00000000000E+00 0.  1.
</event>
<event>
 7    1  0.2612321E-009  0.1242267E+03  0.7561462E-02  0.1236283E+00
         -2   -1    0    0    0  501 -0.00000000000E+00  0.00000000000E+00  0.15902169469E+03  0.15902169469E+03  0.00000000000E+00 0. -1.
          2   -1    0    0  501    0  0.00000000000E+00 -0.00000000000E+00 -0.13485235275E+03  0.13485235275E+03  0.00000000000E+00 0.  1.
         25    2    1    2    0    0 -0.73535125316E+02  0.63721185067E+02  0.17787560423E+02  0.15947357787E+03  0.12509044988E+03 0.  0.
          5    1    3    3  502    0 -0.32270791899E+01  0.74884465288E+02  0.39634288370E+02  0.84890790997E+02  0.41800000000E+01 0.  1.
         -5    1    3    3    0  502 -0.70308046126E+02 -0.11163280221E+02 -0.21846727947E+02  0.74582786870E+02  0.41800000000E+01 0.  1.
        -11    1    1    2    0    0  0.11204120185E+01 -0.14428934363E+02  0.38475433825E+02  0.41107280109E+02  0.00000000000E+00 0. -1.
         11    1    1    2    0    0  0.72414713298E+02 -0.49292250704E+02 -0.32093652316E+02  0.93293189464E+02  0.00000000000E+00 0.  1.
</event>
<event>
 7    1  0.2612321E-009  0.2280442E+03  0.7561462E-02  0.1128024E+00
          2   -1    0    0  501    0  0.00000000000E+00  0.00000000000E+00  0.58569957000E+03  0.58569957000E+03  0.00000000000E+00 0. -1.
         -2   -1    0    0    0  501 -0.00000000000E+00 -0.00000000000E+00 -0.10569202475E+03  0.10569202475E+03  0.00000000000E+00 0.  1.
         25    2    1    2    0    0  0.76810279109E+02  0.20408465851E+03  0.32114742786E+03  0.40783964573E+03  0.12508852623E+03 0.  0.
          5    1    3    3  502    0  0.38233764709E+02  0.16181834457E+03  0.13865573047E+03  0.21654071533E+03  0.41800000000E+01 0.  1.
         -5    1    3    3    0  502  0.38576514401E+02  0.42266313943E+02  0.18249169739E+03  0.19129893040E+03  0.41800000000E+01 0.  1.
        -11    1    1    2    0    0  0.11656380076E+02 -0.74968565423E+02  0.33118704624E+02  0.82782882253E+02  0.00000000000E+00 0.  1.
         11    1    1    2    0    0 -0.88466659186E+02 -0.12911609309E+03  0.12574141277E+03  0.20076906676E+03  0.00000000000E+00 0. -1.
</event>
<event>
 7    1  0.2612321E-009  0.2475218E+03  0.7561462E-02  0.1114881E+00
          1   -1    0    0  501    0  0.00000000000E+00  0.00000000000E+00  0.75953161652E+03  0.75953161652E+03  0.00000000000E+00 0.  1.
         -1   -1    0    0    0  501 -0.00000000000E+00 -0.00000000000E+00 -0.11389249429E+03  0.11389249429E+03  0.00000000000E+00 0. -1.
         25    2    1    2    0    0 -0.34405466704E+02  0.22652849294E+03  0.10906560079E+03  0.28291811638E+03  0.12509380898E+03 0.  0.
          5    1    3    3  502    0 -0.71183400011E+02  0.68988196416E+02  0.42183366012E+02  0.10781167121E+03  0.41800000000E+01 0. -1.
         -5    1    3    3    0  502  0.36777933308E+02  0.15754029653E+03  0.66882234781E+02  0.17510644516E+03  0.41800000000E+01 0. -1.
        -11    1    1    2    0    0  0.41090708332E+02 -0.11244583533E+03  0.36688840038E+03  0.38592694973E+03  0.00000000000E+00 0.  1.
         11    1    1    2    0    0 -0.66852416282E+01 -0.11408265762E+03  0.16968512106E+03  0.20457904470E+03  0.00000000000E+00 0. -1.
</event>
<event>
 7    1  0.2612321E-009  0.7422865E+02  0.7561462E-02  0.1346276E+00
         -1   -1    0    0    0  501 -0.00000000000E+00  0.00000000000E+00  0.18352249608E+02  0.18352249608E+02  0.00000000000E+00 0.  1.
          1   -1    0    0  501    0  0.00000000000E+00 -0.00000000000E+00 -0.75358171043E+03  0.75358171043E+03  0.00000000000E+00 0. -1.
         25    2    1    2    0    0  0.94831999553E+01  0.26254421212E+02 -0.55792315481E+03  0.57245225395E+03  0.12507641930E+03 0.  0.
          5    1    3    3  502    0 -0.22090512138E+02  0.54712298388E+01 -0.51330196218E+03  0.51382322044E+03  0.41800000000E+01 0. -1.
         -5    1    3    3    0  502  0.31573712093E+02  0.20783191373E+02 -0.44621192629E+02  0.58629033513E+02  0.41800000000E+01 0. -1.
        -11    1    1    2    0    0 -0.13386456225E+02  0.28976690906E+02 -0.95550885283E+02  0.10074133960E+03  0.00000000000E+00 0. -1.
         11    1    1    2    0    0  0.39032562700E+01 -0.55231112118E+02 -0.81755420730E+02  0.98740366487E+02  0.00000000000E+00 0.  1.
</event>
<event>
 7    1  0.2612321E-009  0.1726726E+03  0.7561462E-02  0.1175089E+00
         -1   -1    0    0    0  501 -0.00000000000E+00  0.00000000000E+00  0.25418641693E+03  0.25418641693E+03  0.00000000000E+00 0.  1.
          1   -1    0    0  501    0  0.00000000000E+00 -0.00000000000E+00 -0.17132620889E+03  0.17132620889E+03  0.00000000000E+00 0. -1.
         25    2    1    2    0    0 -0.15561073949E+03 -0.35334407205E+02  0.13546307298E+03  0.24384527276E+03  0.12508817022E+03 0.  0.
          5    1    3    3  502    0 -0.63942981513E+02 -0.48834424295E+02  0.12740975369E+03  0.15074555919E+03  0.41800000000E+01 0.  1.
         -5    1    3    3    0  502 -0.91667757980E+02  0.13500017090E+02  0.80533192868E+01  0.93099713566E+02  0.41800000000E+01 0.  1.
        -11    1    1    2    0    0  0.12301397746E+03 -0.12604300099E+01 -0.49357372750E+02  0.13255254649E+03  0.00000000000E+00 0.  1.
         11    1    1    2    0    0  0.32596762031E+02  0.36594837214E+02 -0.32454921854E+01  0.49114806578E+02  0.00000000000E+00 0. -1.
</event>
<event>
 7    1  0.2612321E-009  0.1410157E+03  0.7561462E-02  0.1211969E+00
          3   -1    0    0  501    0  0.00000000000E+00  0.00000000000E+00  0.10686386269E+03  0.10686386269E+03  0.00000000000E+00 0. -1.
         -3   -1    0    0    0  501 -0.00000000000E+00 -0.00000000000E+00 -0.23938404073E+03  0.23938404073E+03  0.00000000000E+00 0.  1.
         25    2    1    2    0    0 -0.50476415430E+02  0.84177985999E+02  0.24979699034E+00  0.15899980812E+03  0.12508826780E+03 0.  0.
          5    1    3    3  502    0 -0.16119816986E+02 -0.31139475502E+02 -0.13527120332E+02  0.37814954961E+02  0.41800000000E+01 0. -1.
         -5    1    3    3    0  502 -0.34356598443E+02  0.11531746150E+03  0.13776917323E+02  0.12118485316E+03  0.41800000000E+01 0. -1.
        -11    1    1    2    0    0  0.49687767430E+02 -0.82268308097E+01 -0.27338290554E+02  0.57305646387E+02  0.00000000000E+00 0.  1.
         11    1    1    2    0    0  0.78864799979E+00 -0.75951155189E+02 -0.10543168447E+03  0.12994244892E+03  0.00000000000E+00 0. -1.
</event>
<event>
 7    1  0.2739698E-009  0.8614041E+02  0.7561462E-02  0.1312477E+00
          2   -1    0    0  501    0  0.00000000000E+00  0.00000000000E+00  0.77550264217E+03  0.77550264217E+03  0.00000000000E+00 0. -1.
         -2   -1    0    0    0  501 -0.00000000000E+00 -0.00000000000E+00 -0.28022354424E+02  0.28022354424E+02  0.00000000000E+00 0.  1.
         25    2    1    2    0    0 -0.27515778150E+02  0.51397996951E+01  0.66570401508E+03  0.67793208064E+03  0.12508610904E+03 0.  0.
          5    1    3    3  502    0 -0.54308417095E+02 -0.33471904237E+02  0.53809779832E+03  0.54188235392E+03  0.41800000000E+01 0. -1.
         -5    1    3    3    0  502  0.26792638944E+02  0.38611703932E+02  0.12760621676E+03  0.13604972671E+03  0.41800000000E+01 0. -1.
        -11    1    1    2    0    0 -0.16178758003E+02 -0.65381600085E+01  0.79956116517E+02  0.81838134847E+02  0.00000000000E+00 0. -1.
         11    1    1    2    0    0  0.43694536153E+02  0.13983603134E+01  0.18201561445E+01  0.43754781105E+02  0.00000000000E+00 0.  1.
</event>
<event>
 7    1  0.2612321E-009  0.6641385E+02  0.7561462E-02  0.1372731E+00
          4   -1    0    0  501    0  0.00000000000E+00  0.00000000000E+00  0.16259316578E+03  0.16259316578E+03  0.00000000000E+00 0. -1.
         -4   -1    0    0    0  501 -0.00000000000E+00 -0.00000000000E+00 -0.90031812495E+02  0.90031812495E+02  0.00000000000E+00 0.  1.
         25    2    1    2    0    0 -0.50185538744E+02 -0.56554432761E+01  0.25437039287E+02  0.13727645215E+03  0.12508880450E+03 0.  0.
          5    1    3    3  502    0 -0.13957829142E+02 -0.93732651840E+01  0.74242888287E+02  0.76237510163E+02  0.41800000000E+01 0. -1.
         -5    1    3    3    0  502 -0.36227709601E+02  0.37178219080E+01 -0.48805849001E+02  0.61038941991E+02  0.41800000000E+01 0. -1.
        -11    1    1    2    0    0 -0.10763234553E+02  0.13641093815E+02 -0.18534849247E+02  0.25406048397E+02  0.00000000000E+00 0.  1.
         11    1    1    2    0    0  0.60948773297E+02 -0.79856505394E+01  0.65659163241E+02  0.89942477720E+02  0.00000000000E+00 0. -1.
</event>
<event>
 7    1  0.2612321E-009  0.1614645E+03  0.7561462E-02  0.1187053E+00
         -1   -1    0    0    0  501 -0.00000000000E+00  0.00000000000E+00  0.25848134155E+02  0.25848134155E+02  0.00000000000E+00 0.  1.
          1   -1    0    0  501    0  0.00000000000E+00 -0.00000000000E+00 -0.10734642992E+04  0.10734642992E+04  0.00000000000E+00 0. -1.
         25    2    1    2    0    0 -0.66411981228E+02  0.10781672239E+03 -0.59587135369E+03  0.62188853926E+03  0.12509072004E+03 0.  0.
          5    1    3    3  502    0 -0.32522090739E+02 -0.22516517670E+02 -0.90300279265E+02  0.98672654719E+02  0.41800000000E+01 0.  1.
         -5    1    3    3    0  502 -0.33889890488E+02  0.13033324006E+03 -0.50557107443E+03  0.52321588455E+03  0.41800000000E+01 0.  1.
        -11    1    1    2    0    0 -0.27352503439E+01 -0.69135082188E+02 -0.27776021619E+03  0.28624793254E+03  0.00000000000E+00 0. -1.
         11    1    1    2    0    0  0.69147231572E+02 -0.38681640205E+02 -0.17398459519E+03  0.19117596158E+03  0.00000000000E+00 0.  1.
</event>
<event>
 7    1  0.2612321E-009  0.1461479E+03  0.7561462E-02  0.1205288E+00
         -2   -1    0    0    0  501 -0.00000000000E+00  0.00000000000E+00  0.19082475001E+02  0.19082475001E+02  0.00000000000E+00 0.  1.
          2   -1    0    0  501    0  0.00000000000E+00 -0.00000000000E+00 -0.13428862094E+04  0.13428862094E+04  0.00000000000E+00 0. -1.
         25    2    1    2    0    0 -0.86098663687E+02  0.61289253557E+02 -0.94523798662E+03  0.95932145566E+03  0.12511375398E+03 0.  0.
          5    1    3    3  502    0  0.32192203940E+02  0.87947167617E+01 -0.23203967731E+03  0.23446443074E+03  0.41800000000E+01 0. -1.
         -5    1    3    3    0  502 -0.11829086763E+03  0.52494536795E+02 -0.71319830932E+03  0.72485702492E+03  0.41800000000E+01 0. -1.
        -11    1    1    2    0    0 -0.13189020742E+02 -0.14851799352E+01 -0.10996062363E+02  0.17235701757E+02  0.00000000000E+00 0.  1.
         11    1    1    2    0    0  0.99287684429E+02 -0.59804073622E+02 -0.36756968540E+03  0.38541152698E+03  0.00000000000E+00 0. -1.
</event>
<event>
 7    1  0.2612321E-009  0.1107314E+03  0.7561462E-02  0.1259221E+00
          1   -1    0    0  501    0  0.00000000000E+00  0.00000000000E+00  0.24654528589E+03  0.24654528589E+03  0.00000000000E+00 0. -1.
         -1   -1    0    0    0  501 -0.00000000000E+00 -0.00000000000E+00 -0.82767847076E+02  0.82767847076E+02  0.00000000000E+00 0.  1.
         25    2    1    2    0    0 -0.24792390362E+02  0.88736003931E+02  0.90542018562E+02  0.17981705000E+03  0.12509026074E+03 0.  0.
          5    1    3    3  502    0 -0.11220704756E+02  0.38091257866E+02 -0.28910948769E+02  0.49296688528E+02  0.41800000000E+01 0. -1.
         -5    1    3    3    0  502 -0.13571685607E+02  0.50644746065E+02  0.11945296733E+03  0.13052036147E+03  0.41800000000E+01 0. -1.
        -11    1    1    2    0    0 -0.26999993842E+02 -0.95782112287E+00  0.68778460107E+01  0.27878698939E+02  0.00000000000E+00 0.  1.
         11    1    1    2    0    0  0.51792384205E+02 -0.87778182809E+02  0.66357574241E+02  0.12161738403E+03  0.00000000000E+00 0. -1.
</event>
<event>
 7    1  0.2612321E-009  0.1168733E+03  0.7561462E-02  0.1248346E+00
          1   -1    0    0  501    0  0.00000000000E+00  0.00000000000E+00  0.43130683633E+02  0.43130683633E+02  0.00000000000E+00 0. -1.
         -1   -1    0    0    0  501 -0.00000000000E+00 -0.00000000000E+00 -0.51571620689E+03  0.51571620689E+03  0.00000000000E+00 0.  1.
         25    2    1    2    0    0 -0.96668248407E+02 -0.55865534034E+02 -0.24564474419E+03  0.29741306858E+03  0.12508990714E+03 0.  0.
          5    1    3    3  502    0 -0.99352687809E+02 -0.45332237303E+02 -0.25814687707E+03  0.28032704267E+03  0.41800000000E+01 0. -1.
         -5    1    3    3    0  502  0.26844394021E+01 -0.10533296731E+02  0.12502132873E+02  0.17086025907E+02  0.41800000000E+01 0. -1.
        -11    1    1    2    0    0  0.37238494409E+02  0.30758609260E+02 -0.16527372364E+03  0.17218653035E+03  0.00000000000E+00 0.  1.
         11    1    1    2    0    0  0.59429753999E+02  0.25106924774E+02 -0.61667055430E+02  0.89247291597E+02  0.00000000000E+00 0. -1.
</event>
<event>
 7    1  0.2612321E-009  0.1065505E+03  0.7561462E-02  0.1267095E+00
         -2   -1    0    0    0  501 -0.00000000000E+00  0.00000000000E+00  0.25221633584E+03  0.25221633584E+03  0.00000000000E+00 0.  1.
          2   -1    0    0  501    0  0.00000000000E+00 -0.00000000000E+00 -0.84922324714E+02  0.84922324714E+02  0.00000000000E+00 0. -1.
         25    2    1    2    0    0  0.80369313058E+01  0.17684827941E+01  0.20232510995E+03  0.23801499346E+03  0.12509183505E+03 0.  0.
          5    1    3    3  502    0  0.96045962649E+01 -0.59001207280E+02  0.68761570136E+02  0.91208643546E+02  0.41800000000E+01 0.  1.
         -5    1    3    3    0  502 -0.15676649591E+01  0.60769690075E+02  0.13356353982E+03  0.14680634991E+03  0.41800000000E+01 0.  1.
        -11    1    1    2    0    0 -0.43583523551E+02  0.22650313413E+02 -0.23685510428E+02  0.54530391774E+02  0.00000000000E+00 0. -1.
         11    1    1    2    0    0  0.35546592245E+02 -0.24418796207E+02 -0.11345588396E+02  0.44593275328E+02  0.00000000000E+00 0.  1.
</event>
<event>
 7    1  0.2612321E-009  0.1276251E+03  0.7561462E-02  0.1231023E+00
          2   -1    0    0  501    0  0.00000000000E+00  0.00000000000E+00  0.13263718675E+04  0.13263718675E+04  0.00000000000E+00 0. -1.
         -2   -1    0    0    0  501 -0.00000000000E+00 -0.00000000000E+00 -0.14412149467E+02  0.14412149467E+02  0.00000000000E+00 0.  1.
         25    2    1    2    0    0 -0.69017759534E+02 -0.46602880238E+02  0.80090778686E+03  0.81488344813E+03  0.12508585615E+03 0.  0.
          5    1    3    3  502    0  0.20877086588E+02 -0.34713249025E+02  0.46968941050E+03  0.47145145788E+03  0.41800000000E+01 0. -1.
         -5    1    3    3    0  502 -0.89894846122E+02 -0.11889631214E+02  0.33121837636E+03  0.34343199025E+03  0.41800000000E+01 0. -1.
        -11    1    1    2    0    0 -0.14028641074E+02  0.37707031789E+02  0.18464514415E+03  0.18897738562E+03  0.00000000000E+00 0.  1.
         11    1    1    2    0    0  0.83046400608E+02  0.88958484497E+01  0.32640678697E+03  0.33692318316E+03  0.00000000000E+00 0. -1.
</event>
<event>
 7    1  0.2612321E-009  0.1567827E+03  0.7561462E-02  0.1192378E+00
         -1   -1    0    0    0  501 -0.00000000000E+00  0.00000000000E+00  0.26091735113E+03  0.26091735113E+03  0.00000000000E+00 0.  1.
          1   -1    0    0  501    0  0.00000000000E+00 -0.00000000000E+00 -0.10426864173E+03  0.10426864173E+03  0.00000000000E+00 0. -1.
         25    2    1    2    0    0  0.35973509712E+02  0.11892281523E+03  0.75388001298E+02  0.19174775415E+03  0.12508845309E+03 0.  0.
          5    1    3    3  502    0  0.33680735851E+02  0.14158082578E+03  0.42764265006E+02  0.15174246920E+03  0.41800000000E+01 0. -1.
         -5    1    3    3    0  502  0.22927738610E+01 -0.22658010552E+02  0.32623736292E+02  0.40005284949E+02  0.41800000000E+01 0. -1.
        -11    1    1    2    0    0 -0.58938633631E+02 -0.76407360359E+02  0.79593823163E+02  0.12508806473E+03  0.00000000000E+00 0.  1.
         11    1    1    2    0    0  0.22965123919E+02 -0.42515454872E+02  0.16668849327E+01  0.48350173991E+02  0.00000000000E+00 0. -1.
</event>
<event>
 7    1  0.2612321E-009  0.1081557E+03  0.7561462E-02  0.1264024E+00
          1   -1    0    0  501    0  0.00000000000E+00  0.00000000000E+00  0.44829223003E+02  0.44829223003E+02  0.00000000000E+00 0. -1.
         -1   -1    0    0    0  501 -0.00000000000E+00 -0.00000000000E+00 -0.28301753621E+03  0.28301753621E+03  0.00000000000E+00 0.  1.
         25    2    1    2    0    0 -0.31662323215E+02 -0.36302348791E+02 -0.11629366296E+03  0.17745997259E+03  0.12508981808E+03 0.  0.
          5    1    3    3  502    0 -0.35323108239E+02 -0.81051837939E+02 -0.70141810822E+02  0.11293568273E+03  0.41800000000E+01 0. -1.
         -5    1    3    3    0  502  0.36607850240E+01  0.44749489148E+02 -0.46151852133E+02  0.64524289855E+02  0.41800000000E+01 0. -1.
        -11    1    1    2    0    0 -0.19912919669E+02  0.49637259121E+00 -0.55687713457E+02  0.59142980865E+02  0.00000000000E+00 0.  1.
         11    1    1    2    0    0  0.51575242883E+02  0.35805976200E+02 -0.66206936797E+02  0.91243805763E+02  0.00000000000E+00 0. -1.
</event>
<event>
 7    1  0.2612321E-009  0.1058210E+03  0.7561462E-02  0.1268511E+00
         -1   -1    0    0    0  501 -0.00000000000E+00  0.00000000000E+00  0.12048645163E+03  0.12048645163E+03  0.00000000000E+00 0.  1.
          1   -1    0    0  501    0  0.00000000000E+00 -0.00000000000E+00 -0.94399109478E+02  0.94399109478E+02  0.00000000000E+00 0. -1.
         25    2    1    2    0    0  0.12153316066E+02 -0.13288169863E+02  0.61556398865E+01  0.12652427436E+03  0.12508485740E+03 0.  0.
          5    1    3    3  502    0  0.62781650977E+02  0.18639660788E+02 -0.36621871701E+01  0.65725616532E+02  0.41800000000E+01 0.  1.
         -5    1    3    3    0  502 -0.50628334911E+02 -0.31927830651E+02  0.98178270566E+01  0.60798657831E+02  0.41800000000E+01 0.  1.
        -11    1    1    2    0    0  0.36088814401E+02  0.42997064277E+00  0.10075905185E+02  0.37471472682E+02  0.00000000000E+00 0.  1.
         11    1    1    2    0    0 -0.48242130467E+02  0.12858199220E+02  0.98557970797E+01  0.50889814062E+02  0.00000000000E+00 0. -1.
</event>
<event>
 7    1  0.2925818E-009  0.1020597E+03  0.7561462E-02  0.1276023E+00
         -2   -1    0    0    0  501 -0.00000000000E+00  0.00000000000E+00  0.22575129922E+03  0.22575129922E+03  0.00000000000E+00 0.  1.
          2   -1    0    0  501    0  0.00000000000E+00 -0.00000000000E+00 -0.79286054888E+02  0.79286054888E+02  0.00000000000E+00 0. -1.
         25    2    1    2    0    0 -0.29585485720E+02 -0.68978878288E+02  0.56942753483E+02  0.15660081718E+03  0.12509177492E+03 0.  0.
          5    1    3    3  502    0 -0.57684600861E+02 -0.53792658620E+02  0.83436602666E+02  0.11489256879E+03  0.41800000000E+01 0. -1.
         -5    1    3    3    0  502  0.28099115142E+02 -0.15186219668E+02 -0.26493849183E+02  0.41708248394E+02  0.41800000000E+01 0. -1.
        -11    1    1    2    0    0  0.15902711190E+02  0.75928019655E+02  0.10235572494E+03  0.12843151802E+03  0.00000000000E+00 0.  1.
         11    1    1    2    0    0  0.13682774530E+02 -0.69491413666E+01 -0.12833234089E+02  0.20005018914E+02  0.00000000000E+00 0. -1.
</event>
<event>
 7    1  0.2612321E-009  0.1229309E+03  0.7561462E-02  0.1238339E+00
          1   -1    0    0  501    0  0.00000000000E+00  0.00000000000E+00  0.11730978203E+03  0.11730978203E+03  0.00000000000E+00 0. -1.
         -1   -1    0    0    0  501 -0.00000000000E+00 -0.00000000000E+00 -0.13102217180E+03  0.13102217180E+03  0.00000000000E+00 0.  1.
         25    2    1    2    0    0 -0.38721807216E+02 -0.44080294397E+02 -0.21867571448E+02  0.13988418567E+03  0.12508774525E+03 0.  0.
          5    1    3    3  502    0  0.24507831116E+02  0.30913644007E+02 -0.10573221840E+02  0.41055481874E+02  0.41800000000E+01 0.  1.
         -5    1    3    3    0  502 -0.63229638332E+02 -0.74993938404E+02 -0.11294349608E+02  0.98828703796E+02  0.41800000000E+01 0.  1.
        -11    1    1    2    0    0 -0.24900236465E+02  0.36149744114E+02  0.69836275688E+00  0.43901178641E+02  0.00000000000E+00 0.  1.
         11    1    1    2    0    0  0.63622043682E+02  0.79305502831E+01  0.74568189192E+01  0.64546589518E+02  0.00000000000E+00 0. -1.
</event>
<event>
 7    1  0.2612321E-009  0.7623632E+02  0.7561462E-02  0.1340085E+00
          1   -1    0    0  501    0  0.00000000000E+00  0.00000000000E+00  0.50182217264E+03  0.50182217264E+03  0.00000000000E+00 0. -1.
         -1   -1    0    0    0  501 -0.00000000000E+00 -0.00000000000E+00 -0.30146044893E+02  0.30146044893E+02  0.00000000000E+00 0.  1.
         25    2    1    2    0    0  0.53624217388E+02  0.28340336778E+02  0.28912061558E+03  0.32080590729E+03  0.12508784280E+03 0.  0.
          5    1    3    3  502    0  0.42780727363E+01 -0.61580093539E+01  0.24713532775E+03  0.24728438206E+03  0.41800000000E+01 0. -1.
         -5    1    3    3    0  502  0.49346144652E+02  0.34498346132E+02  0.41985287828E+02  0.73521525228E+02  0.41800000000E+01 0. -1.
        -11    1    1    2    0    0  0.71550782046E+01 -0.21153639652E+02  0.43642105495E+01  0.22753416191E+02  0.00000000000E+00 0.  1.
         11    1    1    2    0    0 -0.60779295593E+02 -0.71866971258E+01  0.17819130162E+03  0.18840889406E+03  0.00000000000E+00 0. -1.
</event>
<event>
 7    1  0.2965921E-009  0.8845098E+02  0.7561462E-02  0.1306647E+00
         -3   -1    0    0    0  501 -0.00000000000E+00  0.00000000000E+00  0.12142970149E+03  0.12142970149E+03  0.00000000000E+00 0.  1.
          3   -1    0    0  501    0  0.00000000000E+00 -0.00000000000E+00 -0.16720391361E+03  0.16720391361E+03  0.00000000000E+00 0. -1.
         25    2    1    2    0    0  0.59768544161E+02 -0.57043041966E+01  0.46114515391E+02  0.14621579661E+03  0.12509073783E+03 0.  0.
          5    1    3    3  502    0  0.68300894508E+02 -0.39215051366E+02 -0.10682314966E+02  0.79589048852E+02  0.41800000000E+01 0.  1.
         -5    1    3    3    0  502 -0.85323503472E+01  0.33510747169E+02  0.56796830357E+02  0.66626747759E+02  0.41800000000E+01 0.  1.
        -11    1    1    2    0    0 -0.45101205171E+02 -0.45125999065E+01 -0.10876693465E+03  0.11783347715E+03  0.00000000000E+00 0.  1.
         11    1    1    2    0    0 -0.14667338990E+02  0.10216904103E+02  0.16878207144E+02  0.24584341335E+02  0.00000000000E+00 0. -1.
</event>
<event>
 7    1  0.2612321E-009  0.1052226E+03  0.7561462E-02  0.1269682E+00
          2   -1    0    0  501    0  0.00000000000E+00  0.00000000000E+00  0.18857856031E+03  0.18857856031E+03  0.00000000000E+00 0.  1.
         -2   -1    0    0    0  501 -0.00000000000E+00 -0.00000000000E+00 -0.10643729019E+03  0.10643729019E+03  0.00000000000E+00 0. -1.
         25    2    1    2    0    0  0.78546586665E+02 -0.40856746447E+02  0.24495547109E+02  0.15519951671E+03  0.12509203872E+03 0.  0.
          5    1    3    3  502    0  0.45371119584E+02 -0.23899774637E+01  0.72187511111E+02  0.85397655969E+02  0.41800000000E+01 0.  1.
         -5    1    3    3    0  502  0.33175467081E+02 -0.38466768983E+02 -0.47691964002E+02  0.69801860737E+02  0.41800000000E+01 0.  1.
        -11    1    1    2    0    0 -0.90029864508E+02  0.46192511201E+02  0.24183264813E+02  0.10403823764E+03  0.00000000000E+00 0. -1.
         11    1    1    2    0    0  0.11483277844E+02 -0.53357647549E+01  0.33462458201E+02  0.35778096154E+02  0.00000000000E+00 0.  1.
</event>
<event>
 7    1  0.2612321E-009  0.1743265E+03  0.7561462E-02  0.1173410E+00
          2   -1    0    0  501    0  0.00000000000E+00  0.00000000000E+00  0.26735339840E+03  0.26735339840E+03  0.00000000000E+00 0. -1.
         -2   -1    0    0    0  501 -0.00000000000E+00 -0.00000000000E+00 -0.13474655573E+03  0.13474655573E+03  0.00000000000E+00 0.  1.
         25    2    1    2    0    0 -0.12547669783E+03  0.91305296526E+02  0.85933131586E+02  0.21705325209E+03  0.12508617936E+03 0.  0.
          5    1    3    3  502    0 -0.81184097054E+02  0.48272609791E+01 -0.80232804956E+01  0.81829123745E+02  0.41800000000E+01 0. -1.
         -5    1    3    3    0  502 -0.44292600781E+02  0.86478035547E+02  0.93956412081E+02  0.13522412835E+03  0.41800000000E+01 0. -1.
        -11    1    1    2    0    0  0.53741198204E+02 -0.81415517313E+02  0.55273423101E+02  0.11212383397E+03  0.00000000000E+00 0.  1.
         11    1    1    2    0    0  0.71735499630E+02 -0.98897792130E+01 -0.85997120143E+01  0.72922868065E+02  0.00000000000E+00 0. -1.
</event>
<event>
 7    1  0.2612321E-009  0.2050554E+03  0.7561462E-02  0.1145542E+00
         -2   -1    0    0    0  501 -0.00000000000E+00  0.00000000000E+00  0.41803673424E+02  0.41803673424E+02  0.00000000000E+00 0.  1.
          2   -1    0    0  501    0  0.00000000000E+00 -0.00000000000E+00 -0.14796753458E+04  0.14796753458E+04  0.00000000000E+00 0. -1.
         25    2    1    2    0    0  0.21552426400E+02  0.18696693254E+03 -0.11137657932E+04  0.11364605281E+04  0.12508856417E+03 0.  0.
          5    1    3    3  502    0  0.16421123487E+02 -0.13229887744E+02 -0.57885343114E+02  0.61748429727E+02  0.41800000000E+01 0.  1.
         -5    1    3    3    0  502  0.51313029126E+01  0.20019682028E+03 -0.10558804501E+04  0.10747120984E+04  0.41800000000E+01 0.  1.
        -11    1    1    2    0    0 -0.13621568884E+02 -0.14142743849E+03 -0.15749022216E+03  0.21210949430E+03  0.00000000000E+00 0. -1.
         11    1    1    2    0    0 -0.79308575160E+01 -0.45539494052E+02 -0.16661565702E+03  0.17290899683E+03  0.00000000000E+00 0.  1.
</event>
<event>
 7    1  0.2612321E-009  0.1251429E+03  0.7561462E-02  0.1234846E+00
          1   -1    0    0  501    0  0.00000000000E+00  0.00000000000E+00  0.54888832107E+03  0.54888832107E+03  0.00000000000E+00 0. -1.
         -1   -1    0    0    0  501 -0.00000000000E+00 -0.00000000000E+00 -0.72539618601E+02  0.72539618601E+02  0.00000000000E+00 0.  1.
         25    2    1    2    0    0 -0.72821683731E+01 -0.64722618451E+02  0.94807439786E+01  0.14134755127E+03  0.12508876220E+03 0.  0.
          5    1    3    3  502    0 -0.66076009026E+02 -0.31995349363E+02  0.72774642316E+01  0.73892998554E+02  0.41800000000E+01 0.  1.
         -5    1    3    3    0  502  0.58793840653E+02 -0.32727269088E+02  0.22032797470E+01  0.67454552718E+02  0.41800000000E+01 0.  1.
        -11    1    1    2    0    0  0.45223840293E+02  0.16878377516E+02  0.25768608168E+03  0.26216825141E+03  0.00000000000E+00 0. -1.
         11    1    1    2    0    0 -0.37941671920E+02  0.47844240935E+02  0.20918187681E+03  0.21791213699E+03  0.00000000000E+00 0.  1.
</event>
<event>
 7    1  0.2612321E-009  0.1116463E+03  0.7561462E-02  0.1257551E+00
          3   -1    0    0  501    0  0.00000000000E+00  0.00000000000E+00  0.52052803259E+02  0.52052803259E+02  0.00000000000E+00 0. -1.
         -3   -1    0    0    0  501 -0.00000000000E+00 -0.00000000000E+00 -0.26306048385E+03  0.26306048385E+03  0.00000000000E+00 0.  1.
         25    2    1    2    0    0  0.19887933828E+02  0.26586057790E+02 -0.85096918742E+02  0.15489203035E+03  0.12509079544E+03 0.  0.
          5    1    3    3  502    0 -0.36548591469E+02 -0.28044651680E+02 -0.12653978909E+02  0.47957247715E+02  0.41800000000E+01 0. -1.
         -5    1    3    3    0  502  0.56436525297E+02  0.54630709469E+02 -0.72442939833E+02  0.10693478263E+03  0.41800000000E+01 0. -1.
        -11    1    1    2    0    0  0.30362958527E+02 -0.36165273524E+02 -0.50937615254E+02  0.69458454542E+02  0.00000000000E+00 0.  1.
         11    1    1    2    0    0 -0.50250892356E+02  0.95792157340E+01 -0.74973146593E+02  0.90762802220E+02  0.00000000000E+00 0. -1.
</event>
<event>
 7    1  0.2612321E-009  0.1462421E+03  0.7561462E-02  0.1205168E+00
          2   -1    0    0  501    0  0.00000000000E+00  0.00000000000E+00  0.35010694156E+04  0.35010694156E+04  0.00000000000E+00 0. -1.
         -2   -1    0    0    0  501 -0.00000000000E+00 -0.00000000000E+00 -0.12314495518E+02  0.12314495518E+02  0.00000000000E+00 0.  1.
         25    2    1    2    0    0  0.10436860765E+03  0.18858247265E+02  0.30129360221E+04  0.30173961542E+04  0.12509052110E+03 0.  0.
          5    1    3    3  502    0 -0.28473195030E+02 -0.42723706933E+01  0.53881888854E+03  0.53960378337E+03  0.41800000000E+01 0.  1.
         -5    1    3    3    0  502  0.13284180268E+03  0.23130617958E+02  0.24741171336E+04  0.24777923708E+04  0.41800000000E+01 0.  1.
        -11    1    1    2    0    0 -0.34969122156E+02  0.27957518734E+02  0.82567334760E+02  0.93924582125E+02  0.00000000000E+00 0.  1.
         11    1    1    2    0    0 -0.69399485496E+02 -0.46815765999E+02  0.39325156320E+03  0.40206317475E+03  0.00000000000E+00 0. -1.
</event>
<event>
 7    1  0.2612321E-009  0.9914056E+02  0.7561462E-02  0.1282114E+00
          1   -1    0    0  501    0  0.00000000000E+00  0.00000000000E+00  0.10471924328E+04  0.10471924328E+04  0.00000000000E+00 0. -1.
         -1   -1    0    0    0  501 -0.00000000000E+00 -0.00000000000E+00 -0.12420806953E+02  0.12420806953E+02  0.00000000000E+00 0.  1.
         25    2    1    2    0    0  0.79178200062E+01 -0.51211192443E+02  0.63507686834E+03  0.64935001775E+03  0.12509012254E+03 0.  0.
          5    1    3    3  502    0 -0.24695349687E+02  0.17013482815E+02  0.43825245427E+02  0.53267658391E+02  0.41800000000E+01 0.  1.
         -5    1    3    3    0  502  0.32613169693E+02 -0.68224675258E+02  0.59125162291E+03  0.59608235936E+03  0.41800000000E+01 0.  1.
        -11    1    1    2    0    0  0.33986890339E+02  0.16143004373E+02  0.17806777790E+03  0.18199955723E+03  0.00000000000E+00 0. -1.
         11    1    1    2    0    0 -0.41904710345E+02  0.35068188070E+02  0.22162697963E+03  0.22826366479E+03  0.00000000000E+00 0.  1.
</event>
<event>
 7    1  0.2612321E-009  0.3360476E+03  0.7561462E-02  0.1068492E+00
          1   -1    0    0  501    0  0.00000000000E+00  0.00000000000E+00  0.29660721022E+03  0.29660721022E+03  0.00000000000E+00 0. -1.
         -1   -1    0    0    0  501 -0.00000000000E+00 -0.00000000000E+00 -0.48641719548E+03  0.48641719548E+03  0.00000000000E+00 0.  1.
         25    2    1    2    0    0  0.33009951504E+03  0.79872092514E+01 -0.25343331138E+03  0.43463248820E+03  0.12508985226E+03 0.  0.
          5    1    3    3  502    0  0.18854931550E+03  0.47679405401E+02 -0.19769964558E+03  0.27735679609E+03  0.41800000000E+01 0.  1.
         -5    1    3    3    0  502  0.14155019954E+03 -0.39692196149E+02 -0.55733665807E+02  0.15727569211E+03  0.41800000000E+01 0.  1.
        -11    1    1    2    0    0 -0.29043293345E+03 -0.11609744032E+02  0.85459276452E+02  0.30296759384E+03  0.00000000000E+00 0.  1.
         11    1    1    2    0    0 -0.39666581593E+02  0.36225347804E+01 -0.21835950322E+02  0.45424323660E+02  0.00000000000E+00 0. -1.
</event>
<event>
 7    1  0.2612321E-009  0.9856884E+02  0.7561462E-02  0.1283335E+00
          2   -1    0    0  501    0  0.00000000000E+00  0.00000000000E+00  0.81730485472E+03  0.81730485472E+03  0.00000000000E+00 0. -1.
         -2   -1    0    0    0  501 -0.00000000000E+00 -0.00000000000E+00 -0.42292509762E+02  0.42292509762E+02  0.00000000000E+00 0.  1.
         25    2    1    2    0    0  0.23298633178E+02  0.27004714387E+02  0.74408775442E+03  0.75537140723E+03  0.12508915089E+03 0.  0.
          5    1    3    3  502    0 -0.25917547598E+02 -0.34682486369E+02  0.15433552184E+03  0.16034812077E+03  0.41800000000E+01 0. -1.
         -5    1    3    3    0  502  0.49216180777E+02  0.61687200756E+02  0.58975223258E+03  0.59502328645E+03  0.41800000000E+01 0. -1.
        -11    1    1    2    0    0 -0.36418215661E+02  0.79524441158E+01 -0.19035143155E+02  0.41855280124E+02  0.00000000000E+00 0.  1.
         11    1    1    2    0    0  0.13119582482E+02 -0.34957158502E+02  0.49959733692E+02  0.62370677130E+02  0.00000000000E+00 0. -1.
</event>
<event>
 7    1  0.2612321E-009  0.1333735E+03  0.7561462E-02  0.1222534E+00
          1   -1    0    0  501    0  0.00000000000E+00  0.00000000000E+00  0.27935718988E+03  0.27935718988E+03  0.00000000000E+00 0. -1.
         -1   -1    0    0    0  501 -0.00000000000E+00 -0.00000000000E+00 -0.67239285755E+02  0.67239285755E+02  0.00000000000E+00 0.  1.
         25    2    1    2    0    0  0.58705155246E+02 -0.59825798528E+02  0.12069684399E+03  0.19297891223E+03  0.12509081099E+03 0.  0.
          5    1    3    3  502    0 -0.36769955517E+02 -0.28869529948E+02  0.57804386654E+02  0.74460049050E+02  0.41800000000E+01 0. -1.
         -5    1    3    3    0  502  0.95475110762E+02 -0.30956268580E+02  0.62892457338E+02  0.11851886318E+03  0.41800000000E+01 0. -1.
        -11    1    1    2    0    0 -0.63720075397E+01  0.66316631778E+02  0.70179654639E+02  0.96766120392E+02  0.00000000000E+00 0. -1.
         11    1    1    2    0    0 -0.52333147706E+02 -0.64908332499E+01  0.21241405492E+02  0.56851443010E+02  0.00000000000E+00 0.  1.
</event>
<event>
 7    1  0.2612321E-009  0.1322878E+03  0.7561462E-02  0.1224100E+00
         -1   -1    0    0    0  501 -0.00000000000E+00  0.00000000000E+00  0.50499638851E+02  0.50499638851E+02  0.00000000000E+00 0.  1.
          1   -1    0    0  501    0  0.00000000000E+00 -0.00000000000E+00 -0.51609222250E+03  0.51609222250E+03  0.00000000000E+00 0. -1.
         25    2    1    2    0    0 -0.44552426062E+02  0.93438812429E+02 -0.14551614901E+03  0.21803279364E+03  0.12509044385E+03 0.  0.
          5    1    3    3  502    0  0.21685070225E+02  0.56827838887E+02 -0.12567289503E+03  0.13968104556E+03  0.41800000000E+01 0.  1.
         -5    1    3    3    0  502 -0.66237496287E+02  0.36610973543E+02 -0.19843253973E+02  0.78351748074E+02  0.41800000000E+01 0.  1.
        -11    1    1    2    0    0  0.65657008825E+02 -0.75995477359E+02 -0.18272887632E+03  0.20850898692E+03  0.00000000000E+00 0.  1.
         11    1    1    2    0    0 -0.21104582763E+02 -0.17443335070E+02 -0.13734755832E+03  0.14005008079E+03  0.00000000000E+00 0. -1.
</event>
<event>
 7    1  0.2612321E-009  0.2408820E+03  0.7561462E-02  0.1119207E+00
         -1   -1    0    0    0  501 -0.00000000000E+00  0.00000000000E+00  0.10075057380E+03  0.10075057380E+03  0.00000000000E+00 0.  1.
          1   -1    0    0  501    0  0.00000000000E+00 -0.00000000000E+00 -0.79836706391E+03  0.79836706391E+03  0.00000000000E+00 0. -1.
         25    2    1    2    0    0 -0.23536432991E+03 -0.31662159047E+02 -0.18221224885E+03  0.32441866477E+03  0.12508919343E+03 0.  0.
          5    1    3    3  502    0 -0.64265769150E+02  0.73961309276E+01  0.83040467941E+01  0.65354582321E+02  0.41800000000E+01 0.  1.
         -5    1    3    3    0  502 -0.17109856076E+03 -0.39058289975E+02 -0.19051629565E+03  0.25906408245E+03  0.41800000000E+01 0.  1.
        -11    1    1    2    0    0  0.81273716717E+02 -0.96825743168E+01 -0.26881310929E+03  0.28099761031E+03  0.00000000000E+00 0.  1.
         11    1    1    2    0    0  0.15409061319E+03  0.41344733364E+02 -0.24659113197E+03  0.29370136264E+03  0.00000000000E+00 0. -1.
</event>
<event>
 7    1  0.2612321E-009  0.8067325E+02  0.7561462E-02  0.1327152E+00
         -3   -1    0    0    0  501 -0.00000000000E+00  0.00000000000E+00  0.22811577921E+03  0.22811577921E+03  0.00000000000E+00 0.  1.
          3   -1    0    0  501    0  0.00000000000E+00 -0.00000000000E+00 -0.74869013068E+02  0.74869013068E+02  0.00000000000E+00 0. -1.
         25    2    1    2    0    0 -0.14191999085E+02  0.28716621485E+02  0.16406645148E+03  0.20878512869E+03  0.12508945708E+03 0.  0.
          5    1    3    3  502    0  0.40943094868E+02  0.24198144323E+02  0.14071436112E+03  0.14859303830E+03  0.41800000000E+01 0.  1.
         -5    1    3    3    0  502 -0.55135093953E+02  0.45184771616E+01  0.23352090362E+02  0.60192090389E+02  0.41800000000E+01 0.  1.
        -11    1    1    2    0    0  0.26681275518E+02 -0.35108403989E+02  0.28464458266E+02  0.52485387284E+02  0.00000000000E+00 0.  1.
         11    1    1    2    0    0 -0.12489276433E+02  0.63917825040E+01 -0.39284143602E+02  0.41714276309E+02  0.00000000000E+00 0. -1.
</event>
<event>
 7    1  0.2612321E-009  0.1611358E+03  0.7561462E-02  0.1187420E+00
          2   -1    0    0  501    0  0.00000000000E+00  0.00000000000E+00  0.13724640159E+04  0.13724640159E+04  0.00000000000E+00 0. -1.
         -2   -1    0    0    0  501 -0.00000000000E+00 -0.00000000000E+00 -0.29216045957E+02  0.29216045957E+02  0.00000000000E+00 0.  1.
         25    2    1    2    0    0  0.14718750911E+03 -0.34842371875E+02  0.95464241950E+03  0.97461084699E+03  0.12508397277E+03 0.  0.
          5    1    3    3  502    0  0.10556694074E+03 -0.22071380743E+02  0.30565096075E+03  0.32414735389E+03  0.41800000000E+01 0. -1.
         -5    1    3    3    0  502  0.41620568368E+02 -0.12770991132E+02  0.64899145875E+03  0.65046349310E+03  0.41800000000E+01 0. -1.
        -11    1    1    2    0    0 -0.11578336581E+03 -0.96067144906E+01  0.20574735802E+03  0.23628383799E+03  0.00000000000E+00 0.  1.
         11    1    1    2    0    0 -0.31404143296E+02  0.44449086365E+02  0.18285819240E+03  0.19078537686E+03  0.00000000000E+00 0. -1.
</event>
<event>
 7    1  0.2612321E-009  0.1022232E+03  0.7561462E-02  0.1275689E+00
          4   -1    0    0  501    0  0.00000000000E+00  0.00000000000E+00  0.13345820576E+03  0.13345820576E+03  0.00000000000E+00 0.  1.
         -4   -1    0    0    0  501 -0.00000000000E+00 -0.00000000000E+00 -0.10468616728E+03  0.10468616728E+03  0.00000000000E+00 0. -1.
         25    2    1    2    0    0  0.38105848684E+02  0.32793760632E+01  0.40054656572E+02  0.13679288483E+03  0.12508040541E+03 0.  0.
          5    1    3    3  502    0  0.67233918840E+02  0.20565443904E+02  0.63947871021E+02  0.95132223424E+02  0.41800000000E+01 0. -1.
         -5    1    3    3    0  502 -0.29128070156E+02 -0.17286067840E+02 -0.23893214449E+02  0.41660661410E+02  0.41800000000E+01 0. -1.
        -11    1    1    2    0    0  0.19391151896E+02 -0.30600532756E+02  0.21525976530E+01  0.36291087796E+02  0.00000000000E+00 0.  1.
         11    1    1    2    0    0 -0.57497000579E+02  0.27321156692E+02 -0.13435215750E+02  0.65060400405E+02  0.00000000000E+00 0. -1.
</event>
<event>
 7    1  0.2612321E-009  0.1114109E+03  0.7561462E-02  0.1257979E+00
         -1   -1    0    0    0  501 -0.00000000000E+00  0.00000000000E+00  0.32504439887E+02  0.32504439887E+02  0.00000000000E+00 0.  1.
          1   -1    0    0  501    0  0.00000000000E+00 -0.00000000000E+00 -0.67044220750E+03  0.67044220750E+03  0.00000000000E+00 0. -1.
         25    2    1    2    0    0 -0.31806611388E+02  0.88441091881E+02 -0.26403039674E+03  0.30691133440E+03  0.12509608116E+03 0.  0.
          5    1    3    3  502    0 -0.39144354700E+01 -0.15703315133E+02 -0.14616834275E+03  0.14712094933E+03  0.41800000000E+01 0. -1.
         -5    1    3    3    0  502 -0.27892175918E+02  0.10414440701E+03 -0.11786205400E+03  0.15979038507E+03  0.41800000000E+01 0. -1.
        -11    1    1    2    0    0  0.36532694041E+02 -0.67592103753E+02 -0.36479125596E+03  0.37279483721E+03  0.00000000000E+00 0. -1.
         11    1    1    2    0    0 -0.47260826528E+01 -0.20848988128E+02 -0.91161149124E+01  0.23240475776E+02  0.00000000000E+00 0.  1.
</event>
<event>
 7    1  0.2612321E-009  0.1627466E+03  0.7561462E-02  0.1185630E+00
         -1   -1    0    0    0  501 -0.00000000000E+00  0.00000000000E+00  0.51833883137E+02  0.51833883137E+02  0.00000000000E+00 0.  1.
          1   -1    0    0  501    0  0.00000000000E+00 -0.00000000000E+00 -0.52691528384E+03  0.52691528384E+03  0.00000000000E+00 0. -1.
         25    2    1    2    0    0  0.12076029256E+03  0.59066380755E+01 -0.30305551471E+03  0.34944022666E+03  0.12509152799E+03 0.  0.
          5    1    3    3  502    0  0.38338453842E+02 -0.57948632224E+02 -0.11902186839E+03  0.13788240850E+03  0.41800000000E+01 0.  1.
         -5    1    3    3    0  502  0.82421838719E+02  0.63855270299E+02 -0.18403364633E+03  0.21155781816E+03  0.41800000000E+01 0.  1.
        -11    1    1    2    0    0 -0.44808389300E+02  0.42265836415E+02 -0.73737772057E+02  0.96080443939E+02  0.00000000000E+00 0.  1.
         11    1    1    2    0    0 -0.75951903261E+02 -0.48172474490E+02 -0.98288113932E+02  0.13322849638E+03  0.00000000000E+00 0. -1.
</event>
<event>
 7    1  0.2612321E-009  0.1485572E+03  0.7561462E-02  0.1202257E+00
          1   -1    0    0  501    0  0.00000000000E+00  0.00000000000E+00  0.42108287599E+03  0.42108287599E+03  0.00000000000E+00 0. -1.
         -1   -1    0    0    0  501 -0.00000000000E+00 -0.00000000000E+00 -0.57887043970E+02  0.57887043970E+02  0.00000000000E+00 0.  1.
         25    2    1    2    0    0 -0.10614964406E+03 -0.35212761676E+01  0.14856410716E+03  0.22137305333E+03  0.12511829797E+03 0.  0.
          5    1    3    3  502    0 -0.82952366590E+02  0.50232438284E+02  0.12466956728E+03  0.15800115944E+03  0.41800000000E+01 0.  1.
         -5    1    3    3    0  502 -0.23197277468E+02 -0.53753714451E+02  0.23894539876E+02  0.63371893889E+02  0.41800000000E+01 0.  1.
        -11    1    1    2    0    0  0.47867731717E+02 -0.44863203148E+02  0.83889745929E+02  0.10649655491E+03  0.00000000000E+00 0.  1.
         11    1    1    2    0    0  0.58281912341E+02  0.48384479316E+02  0.13074197894E+03  0.15110031172E+03  0.00000000000E+00 0. -1.
</event>
<event>
 7    1  0.2612321E-009  0.1005694E+03  0.7561462E-02  0.1279103E+00
          1   -1    0    0  501    0  0.00000000000E+00  0.00000000000E+00  0.44614773461E+03  0.44614773461E+03  0.00000000000E+00 0. -1.
         -1   -1    0    0    0  501 -0.00000000000E+00 -0.00000000000E+00 -0.28655808593E+02  0.28655808593E+02  0.00000000000E+00 0.  1.
         25    2    1    2    0    0  0.11337034242E+02 -0.26379844224E+02  0.28170048976E+03  0.30955799006E+03  0.12508620528E+03 0.  0.
          5    1    3    3  502    0  0.54364552666E+02 -0.35201577386E+02  0.24080981473E+03  0.24940227526E+03  0.41800000000E+01 0.  1.
         -5    1    3    3    0  502 -0.43027518424E+02  0.88217331620E+01  0.40890675030E+02  0.60155714792E+02  0.41800000000E+01 0.  1.
        -11    1    1    2    0    0 -0.45431880067E+02  0.34526196091E+02  0.66761256231E+02  0.87824707665E+02  0.00000000000E+00 0.  1.
         11    1    1    2    0    0  0.34094845825E+02 -0.81463518670E+01  0.69030180025E+02  0.77420845481E+02  0.00000000000E+00 0. -1.
</event>
<event>
 7    1  0.2612321E-009  0.3510755E+03  0.7561462E-02  0.1062174E+00
          3   -1    0    0  501    0  0.00000000000E+00  0.00000000000E+00  0.79295603102E+03  0.79295603102E+03  0.00000000000E+00 0. -1.
         -3   -1    0    0    0  501 -0.00000000000E+00 -0.00000000000E+00 -0.16263859974E+03  0.16263859974E+03  0.00000000000E+00 0.  1.
         25    2    1    2    0    0  0.31542039449E+03  0.11188293870E+03  0.22121336219E+03  0.42022824563E+03  0.12509440267E+03 0.  0.
          5    1    3    3  502    0  0.16104277763E+03 -0.83391909907E+01  0.10802563851E+03  0.19414254894E+03  0.41800000000E+01 0.  1.
         -5    1    3    3    0  502  0.15437761686E+03  0.12022212969E+03  0.11318772368E+03  0.22608569669E+03  0.41800000000E+01 0.  1.
        -11    1    1    2    0    0 -0.28555114440E+03 -0.70562627845E+02  0.35498937659E+03  0.46101626653E+03  0.00000000000E+00 0. -1.
         11    1    1    2    0    0 -0.29869250097E+02 -0.41320310857E+02  0.54114692510E+02  0.74350118602E+02  0.00000000000E+00 0.  1.
</event>
<event>
 7    1  0.2612321E-009  0.1014794E+03  0.7561462E-02  0.1277215E+00
          1   -1    0    0  501    0  0.00000000000E+00  0.00000000000E+00  0.14923371474E+03  0.14923371474E+03  0.00000000000E+00 0. -1.
         -1   -1    0    0    0  501 -0.00000000000E+00 -0.00000000000E+00 -0.94910864692E+02  0.94910864692E+02  0.00000000000E+00 0.  1.
         25    2    1    2    0    0 -0.10885722347E+02 -0.38997439397E+02 -0.25617878746E+01  0.13150722456E+03  0.12509311781E+03 0.  0.
          5    1    3    3  502    0  0.72418111560E+01  0.34766231789E+02 -0.33861566019E+02  0.49246449160E+02  0.41800000000E+01 0. -1.
         -5    1    3    3    0  502 -0.18127533503E+02 -0.73763671185E+02  0.31299778144E+02  0.82260775401E+02  0.41800000000E+01 0. -1.
        -11    1    1    2    0    0 -0.35737891187E+02  0.16783705705E+02  0.44572621838E+02  0.59545010381E+02  0.00000000000E+00 0. -1.
         11    1    1    2    0    0  0.46623613534E+02  0.22213733691E+02  0.12312016084E+02  0.53092344491E+02  0.00000000000E+00 0.  1.
</event>
<event>
 7    1  0.2612321E-009  0.8852214E+02  0.7561462E-02  0.1306471E+00
         -2   -1    0    0    0  501 -0.00000000000E+00  0.00000000000E+00  0.12016630753E+03  0.12016630753E+03  0.00000000000E+00 0.  1.
          2   -1    0    0  501    0  0.00000000000E+00 -0.00000000000E+00 -0.13696175011E+03  0.13696175011E+03  0.00000000000E+00 0. -1.
         25    2    1    2    0    0 -0.51563758252E+02 -0.30944539674E+02  0.23755485673E+02  0.14080666109E+03  0.12508320034E+03 0.  0.
          5    1    3    3  502    0 -0.25279767691E+02 -0.39732773721E+02  0.71338388203E+02  0.85582696811E+02  0.41800000000E+01 0. -1.
         -5    1    3    3    0  502 -0.26283990561E+02  0.87882340470E+01 -0.47582902530E+02  0.55223964278E+02  0.41800000000E+01 0. -1.
        -11    1    1    2    0    0  0.66163801905E+02 -0.14778281419E+01 -0.55264916526E+01  0.66410652523E+02  0.00000000000E+00 0.  1.
         11    1    1    2    0    0 -0.14600043653E+02  0.32422367816E+02 -0.35024436602E+02  0.49910744021E+02  0.00000000000E+00 0. -1.
</event>
<event>
 7    1  0.2612321E-009  0.9852472E+02  0.7561462E-02  0.1283429E+00
         -2   -1    0    0    0  501 -0.00000000000E+00  0.00000000000E+00  0.13646480142E+03  0.13646480142E+03  0.00000000000E+00 0.  1.
          2   -1    0    0  501    0  0.00000000000E+00 -0.00000000000E+00 -0.24300235654E+03  0.24300235654E+03  0.00000000000E+00 0. -1.
         25    2    1    2    0    0  0.27396517921E+02  0.60779722707E+01 -0.20514950663E+03  0.24191385918E+03  0.12509390173E+03 0.  0.
          5    1    3    3  502    0 -0.27963774843E+02  0.46811746544E+02 -0.59543544726E+02  0.80846882664E+02  0.41800000000E+01 0. -1.
         -5    1    3    3    0  502  0.55360292764E+02 -0.40733774273E+02 -0.14560596190E+03  0.16106697651E+03  0.41800000000E+01 0. -1.
        -11    1    1    2    0    0 -0.36739758531E+02  0.22740281536E+02  0.10622550012E+02  0.44494593267E+02  0.00000000000E+00 0. -1.
         11    1    1    2    0    0  0.93432406094E+01 -0.28818253807E+02  0.87989401494E+02  0.93058705518E+02  0.00000000000E+00 0.  1.
</event>
<event>
 7    1  0.2888935E-009  0.9993321E+02  0.7561462E-02  0.1280436E+00
          2   -1    0    0  501    0  0.00000000000E+00  0.00000000000E+00  0.73035370008E+03  0.73035370008E+03  0.00000000000E+00 0. -1.
         -2   -1    0    0    0  501 -0.00000000000E+00 -0.00000000000E+00 -0.28582005336E+02  0.28582005336E+02  0.00000000000E+00 0.  1.
         25    2    1    2    0    0 -0.87467331802E+02  0.37315199169E+02  0.39960345545E+03  0.42938704652E+03  0.12508939160E+03 0.  0.
          5    1    3    3  502    0 -0.50526577969E+02  0.30722103411E+01  0.36408625558E+03  0.36761208829E+03  0.41800000000E+01 0.  1.
         -5    1    3    3    0  502 -0.36940753833E+02  0.34242988828E+02  0.35517199873E+02  0.61774958231E+02  0.41800000000E+01 0.  1.
        -11    1    1    2    0    0  0.46405468240E+02 -0.33616895614E+02  0.56596715082E+02  0.80540370693E+02  0.00000000000E+00 0.  1.
         11    1    1    2    0    0  0.41061863562E+02 -0.36983035551E+01  0.24557152421E+03  0.24900828820E+03  0.00000000000E+00 0. -1.
</event>
<event>
 7    1  0.2612321E-009  0.1071178E+03  0.7561462E-02  0.1266002E+00
          2   -1    0    0  501    0  0.00000000000E+00  0.00000000000E+00  0.34663093435E+03  0.34663093435E+03  0.00000000000E+00 0. -1.
         -2   -1    0    0    0  501 -0.00000000000E+00 -0.00000000000E+00 -0.52384634589E+02  0.52384634589E+02  0.00000000000E+00 0.  1.
         25    2    1    2    0    0  0.48885888296E+02 -0.14959542769E+02  0.71512952277E+02  0.15288736841E+03  0.12508727786E+03 0.  0.
          5    1    3    3  502    0  0.41436007646E+02 -0.55062037429E+02  0.85201054702E+02  0.10966067124E+03  0.41800000000E+01 0. -1.
         -5    1    3    3    0  502  0.74498806500E+01  0.40102494660E+02 -0.13688102426E+02  0.43226697164E+02  0.41800000000E+01 0. -1.
        -11    1    1    2    0    0  0.15406508398E+02 -0.24367036561E+02  0.50982127521E+02  0.58568680182E+02  0.00000000000E+00 0.  1.
         11    1    1    2    0    0 -0.64292396694E+02  0.39326579329E+02  0.17175121996E+03  0.18755952035E+03  0.00000000000E+00 0. -1.
</event>
<event>
 7    1  0.2612321E-009  0.2287038E+03  0.7561462E-02  0.1127555E+00
          2   -1    0    0  501    0  0.00000000000E+00  0.00000000000E+00  0.31959124924E+03  0.31959124924E+03  0.00000000000E+00 0. -1.
         -2   -1    0    0    0  501 -0.00000000000E+00 -0.00000000000E+00 -0.17181343099E+03  0.17181343099E+03  0.00000000000E+00 0.  1.
         25    2    1    2    0    0  0.11117004454E+03 -0.17458200345E+03  0.92470294613E+02  0.25891324207E+03  0.12509059438E+03 0.  0.
          5    1    3    3  502    0  0.21754366399E+02  0.18451229792E+02  0.74417134246E+01  0.29775020351E+02  0.41800000000E+01 0.  1.
         -5    1    3    3    0  502  0.89415678145E+02 -0.19303323324E+03  0.85028581188E+02  0.22913822172E+03  0.41800000000E+01 0.  1.
        -11    1    1    2    0    0 -0.67560210352E+02  0.50707003922E+02 -0.11323544627E+02  0.85227958632E+02  0.00000000000E+00 0.  1.
         11    1    1    2    0    0 -0.43609834191E+02  0.12387499953E+03  0.66631068263E+02  0.14726347953E+03  0.00000000000E+00 0. -1.
</event>
<event>
 7    1  0.2612321E-009  0.1347854E+03  0.7561462E-02  0.1220523E+00
          1   -1    0    0  501    0  0.00000000000E+00  0.00000000000E+00  0.10480750277E+04  0.10480750277E+04  0.00000000000E+00 0. -1.
         -1   -1    0    0    0  501 -0.00000000000E+00 -0.00000000000E+00 -0.25390727269E+02  0.25390727269E+02  0.00000000000E+00 0.  1.
         25    2    1    2    0    0  0.49707898519E+01  0.10155810135E+03  0.76064505808E+03  0.77753938900E+03  0.12509132808E+03 0.  0.
          5    1    3    3  502    0 -0.43719845715E+02  0.41611409219E+02  0.14588190175E+03  0.15793016160E+03  0.41800000000E+01 0. -1.
         -5    1    3    3    0  502  0.48690635567E+02  0.59946692134E+02  0.61476315633E+03  0.61960922739E+03  0.41800000000E+01 0. -1.
        -11    1    1    2    0    0 -0.44428630282E+02 -0.54575487654E+02  0.18160503617E+03  0.19476338517E+03  0.00000000000E+00 0. -1.
         11    1    1    2    0    0  0.39457840430E+02 -0.46982613700E+02  0.80434206220E+02  0.10116298084E+03  0.00000000000E+00 0.  1.
</event>
<event>
 7    1  0.2612321E-009  0.7135919E+02  0.7561462E-02  0.1355531E+00
          2   -1    0    0  501    0  0.00000000000E+00  0.00000000000E+00  0.64046150329E+02  0.64046150329E+02  0.00000000000E+00 0. -1.
         -2   -1    0    0    0  501 -0.00000000000E+00 -0.00000000000E+00 -0.26568969420E+03  0.26568969420E+03  0.00000000000E+00 0.  1.
         25    2    1    2    0    0  0.38267022827E+02  0.46417502045E+02 -0.16514192612E+03  0.21572039973E+03  0.12507791797E+03 0.  0.
          5    1    3    3  502    0 -0.16830353718E+01  0.41823828880E+02  0.35839123210E+01  0.42218267347E+02  0.41800000000E+01 0. -1.
         -5    1    3    3    0  502  0.39950058199E+02  0.45936731648E+01 -0.16872583845E+03  0.17350213239E+03  0.41800000000E+01 0. -1.
        -11    1    1    2    0    0 -0.29931274042E+02 -0.38049211042E+02 -0.66224094948E+02  0.82032032635E+02  0.00000000000E+00 0.  1.
         11    1    1    2    0    0 -0.83357487849E+01 -0.83682910034E+01  0.29722477204E+02  0.31983412158E+02  0.00000000000E+00 0. -1.
</event>
<event>
 7    1  0.2612321E-009  0.1017836E+03  0.7561462E-02  0.1276589E+00
         -1   -1    0    0    0  501 -0.00000000000E+00  0.00000000000E+00  0.57043843217E+02  0.57043843217E+02  0.00000000000E+00 0.  1.
          1   -1    0    0  501    0  0.00000000000E+00 -0.00000000000E+00 -0.29683826217E+03  0.29683826217E+03  0.00000000000E+00 0. -1.
         25    2    1    2    0    0  0.40343940185E+02  0.27355565292E+02 -0.20325641431E+03  0.24359123013E+03  0.12509019536E+03 0.  0.
          5    1    3    3  502    0 -0.28299858071E+02  0.33597785871E+02 -0.21352565937E+02  0.49021399964E+02  0.41800000000E+01 0. -1.
         -5    1    3    3    0  502  0.68643798256E+02 -0.62422205795E+01 -0.18190384837E+03  0.19456983016E+03  0.41800000000E+01 0. -1.
        -11    1    1    2    0    0 -0.46056218291E+02  0.14390247978E+02  0.80782209242E+01  0.48923533534E+02  0.00000000000E+00 0.  1.
         11    1    1    2    0    0  0.57122781056E+01 -0.41745813270E+02 -0.44616225567E+02  0.61367341727E+02  0.00000000000E+00 0. -1.
</event>
<event>
 7    1  0.2935836E-009  0.1750937E+03  0.7561462E-02  0.1172638E+00
          2   -1    0    0  501    0  0.00000000000E+00  0.00000000000E+00  0.15289841993E+04  0.15289841993E+04  0.00000000000E+00 0. -1.
         -2   -1    0    0    0  501 -0.00000000000E+00 -0.00000000000E+00 -0.20241939285E+02  0.20241939285E+02  0.00000000000E+00 0.  1.
         25    2    1    2    0    0  0.45067991893E+01 -0.13760234430E+03  0.76131837764E+03  0.78371331442E+03  0.12508465398E+03 0.  0.
          5    1    3    3  502    0 -0.39316780753E+02 -0.13501926212E+03  0.61540150202E+03  0.63127845795E+03  0.41800000000E+01 0.  1.
         -5    1    3    3    0  502  0.43823579943E+02 -0.25830821814E+01  0.14591687562E+03  0.15243485646E+03  0.41800000000E+01 0.  1.
        -11    1    1    2    0    0  0.41593710784E+02  0.41214958197E+02  0.27175100631E+03  0.27798798353E+03  0.00000000000E+00 0.  1.
         11    1    1    2    0    0 -0.46100509973E+02  0.96387386102E+02  0.47567287610E+03  0.48752484068E+03  0.00000000000E+00 0. -1.
</event>
<event>
 7    1  0.2612321E-009  0.1140041E+03  0.7561462E-02  0.1253330E+00
         -1   -1    0    0    0  501 -0.00000000000E+00  0.00000000000E+00  0.77593835509E+03  0.77593835509E+03  0.00000000000E+00 0.  1.
          1   -1    0    0  501    0  0.00000000000E+00 -0.00000000000E+00 -0.27871353031E+02  0.27871353031E+02  0.00000000000E+00 0. -1.
         25    2    1    2    0    0  0.20591667559E+02 -0.85361467116E+02  0.52952235334E+03  0.55113819733E+03  0.12509513589E+03 0.  0.
          5    1    3    3  502    0 -0.31311937320E+02 -0.75721041451E+01  0.32013443781E+03  0.32177834739E+03  0.41800000000E+01 0.  1.
         -5    1    3    3    0  502  0.51903604879E+02 -0.77789362971E+02  0.20938791553E+03  0.22935984993E+03  0.41800000000E+01 0.  1.
        -11    1    1    2    0    0  0.16782598707E+02  0.16336487862E+02  0.13885256462E+03  0.14081395939E+03  0.00000000000E+00 0.  1.
         11    1    1    2    0    0 -0.37374266266E+02  0.69024979255E+02  0.79692084097E+02  0.11185755141E+03  0.00000000000E+00 0. -1.
</event>
<event>
 7    1  0.2612321E-009  0.7508822E+02  0.7561462E-02  0.1343598E+00
          1   -1    0    0  501    0  0.00000000000E+00  0.00000000000E+00  0.44702130930E+02  0.44702130930E+02  0.00000000000E+00 0. -1.
         -1   -1    0    0    0  501 -0.00000000000E+00 -0.00000000000E+00 -0.33813561378E+03  0.33813561378E+03  0.00000000000E+00 0.  1.
         25    2    1    2    0    0  0.27759739725E+02  0.51542339660E+02 -0.14540133058E+03  0.20054389663E+03  0.12509632934E+03 0.  0.
          5    1    3    3  502    0  0.49937891896E+02  0.23093246896E+02 -0.15369117896E+03  0.16329587254E+03  0.41800000000E+01 0. -1.
         -5    1    3    3    0  502 -0.22178152171E+02  0.28449092764E+02  0.82898483771E+01  0.37248024094E+02  0.41800000000E+01 0. -1.
        -11    1    1    2    0    0 -0.75427297418E+01 -0.18069555785E+02  0.82102153626E+01  0.21232269180E+02  0.00000000000E+00 0. -1.
         11    1    1    2    0    0 -0.20217009983E+02 -0.33472783875E+02 -0.15624236764E+03  0.16106157890E+03  0.00000000000E+00 0.  1.
</event>
<event>
 7    1  0.2612321E-009  0.9189005E+02  0.7561462E-02  0.1298338E+00
         -1   -1    0    0    0  501 -0.00000000000E+00  0.00000000000E+00  0.79719394355E+02  0.79719394355E+02  0.00000000000E+00 0.  1.
          1   -1    0    0  501    0  0.00000000000E+00 -0.00000000000E+00 -0.16796924471E+03  0.16796924471E+03  0.00000000000E+00 0. -1.
         25    2    1    2    0    0  0.37017186151E+01 -0.29778255117E+02 -0.80300306491E+02  0.15164777799E+03  0.12509381340E+03 0.  0.
          5    1    3    3  502    0 -0.13339008000E+02  0.47236639593E+02 -0.25140773704E+02  0.55306058953E+02  0.41800000000E+01 0. -1.
         -5    1    3    3    0  502  0.17040726615E+02 -0.77014894710E+02 -0.55159532787E+02  0.96341719042E+02  0.41800000000E+01 0. -1.
        -11    1    1    2    0    0  0.20497771185E+02  0.22098505927E+02 -0.43152950930E+02  0.52637246905E+02  0.00000000000E+00 0. -1.
         11    1    1    2    0    0 -0.24199489800E+02  0.76797491902E+01  0.35203407062E+02  0.43403614169E+02  0.00000000000E+00 0.  1.
</event>
<event>
 7    1  0.2612321E-009  0.1086570E+03  0.7561462E-02  0.1263077E+00
         -1   -1    0    0    0  501 -0.00000000000E+00  0.00000000000E+00  0.35156937949E+02  0.35156937949E+02  0.00000000000E+00 0.  1.
          1   -1    0    0  501    0  0.00000000000E+00 -0.00000000000E+00 -0.35551014926E+03  0.35551014926E+03  0.00000000000E+00 0. -1.
         25    2    1    2    0    0  0.25854730505E+02 -0.90467142121E+01 -0.17390032903E+03  0.21596045887E+03  0.12508910917E+03 0.  0.
          5    1    3    3  502    0  0.55926867927E+02  0.40914183306E+02 -0.88848391235E+02  0.11275324375E+03  0.41800000000E+01 0. -1.
         -5    1    3    3    0  502 -0.30072137422E+02 -0.49960897518E+02 -0.85051937790E+02  0.10320721512E+03  0.41800000000E+01 0. -1.
        -11    1    1    2    0    0 -0.32226644736E+02  0.43643105877E+02 -0.57517871945E+02  0.79066952101E+02  0.00000000000E+00 0.  1.
         11    1    1    2    0    0  0.63719142312E+01 -0.34596391665E+02 -0.88935010345E+02  0.95639676245E+02  0.00000000000E+00 0. -1.
</event>
<event>
 7    1  0.2987633E-009  0.1214108E+03  0.7561462E-02  0.1240788E+00
         -1   -1    0    0    0  501 -0.00000000000E+00  0.00000000000E+00  0.90037021224E+02  0.90037021224E+02  0.00000000000E+00 0.  1.
          1   -1    0    0  501    0  0.00000000000E+00 -0.00000000000E+00 -0.21422824455E+03  0.21422824455E+03  0.00000000000E+00 0. -1.
         25    2    1    2    0    0 -0.46615689982E+02 -0.72007294693E+02 -0.57663128245E+02  0.16226798466E+03  0.12509112456E+03 0.  0.
          5    1    3    3  502    0 -0.21073931012E+02  0.26588638546E+02 -0.49296317884E+02  0.59988879177E+02  0.41800000000E+01 0.  1.
         -5    1    3    3    0  502 -0.25541758970E+02 -0.98595933239E+02 -0.83668103616E+01  0.10227910548E+03  0.41800000000E+01 0.  1.
        -11    1    1    2    0    0  0.61876540473E+02  0.48251025309E+02 -0.10379938131E+02  0.79149294500E+02  0.00000000000E+00 0.  1.
         11    1    1    2    0    0 -0.15260850491E+02  0.23756269384E+02 -0.56148156947E+02  0.62847986613E+02  0.00000000000E+00 0. -1.
</event>
<event>
 7    1  0.2612321E-009  0.1408263E+03  0.7561462E-02  0.1212221E+00
          1   -1    0    0  501    0  0.00000000000E+00  0.00000000000E+00  0.21044469836E+03  0.21044469836E+03  0.00000000000E+00 0. -1.
         -1   -1    0    0    0  501 -0.00000000000E+00 -0.00000000000E+00 -0.14691336124E+03  0.14691336124E+03  0.00000000000E+00 0.  1.
         25    2    1    2    0    0 -0.11801030530E+03 -0.36781958984E+02 -0.30435529686E+02  0.17847449541E+03  0.12508988520E+03 0.  0.
          5    1    3    3  502    0 -0.12674539197E+03 -0.22572575234E+02  0.15205277245E+02  0.12970192132E+03  0.41800000000E+01 0. -1.
         -5    1    3    3    0  502  0.87350866694E+01 -0.14209383750E+02 -0.45640806931E+02  0.48772574086E+02  0.41800000000E+01 0. -1.
        -11    1    1    2    0    0  0.77628824790E+02 -0.46836714611E+01  0.12225396367E+02  0.78725037523E+02  0.00000000000E+00 0.  1.
         11    1    1    2    0    0  0.40381480509E+02  0.41465630445E+02  0.81741470433E+02  0.10015852667E+03  0.00000000000E+00 0. -1.
</event>
<event>
 7    1  0.2612321E-009  0.7756423E+02  0.7561462E-02  0.1336109E+00
          1   -1    0    0  501    0  0.00000000000E+00  0.00000000000E+00  0.49629750648E+02  0.49629750648E+02  0.00000000000E+00 0. -1.
         -1   -1    0    0    0  501 -0.00000000000E+00 -0.00000000000E+00 -0.33103773808E+03  0.33103773808E+03  0.00000000000E+00 0.  1.
         25    2    1    2    0    0  0.42272281203E+02 -0.50590197669E+02 -0.12155832758E+03  0.18646822304E+03  0.12509059653E+03 0.  0.
          5    1    3    3  502    0  0.30638395770E+02 -0.22267667532E+01 -0.13189609655E+03  0.13549067301E+03  0.41800000000E+01 0.  1.
         -5    1    3    3    0  502  0.11633885433E+02 -0.48363430916E+02  0.10337768972E+02  0.50977550035E+02  0.41800000000E+01 0.  1.
        -11    1    1    2    0    0 -0.11665946034E+02  0.40242891511E+02 -0.15615732547E+03  0.16168084275E+03  0.00000000000E+00 0.  1.
         11    1    1    2    0    0 -0.30606335169E+02  0.10347306158E+02 -0.36923343803E+01  0.32518422938E+02  0.00000000000E+00 0. -1.
</event>
<event>
 7    1  0.2612321E-009  0.1257453E+03  0.7561462E-02  0.1233909E+00
          1   -1    0    0  501    0  0.00000000000E+00  0.00000000000E+00  0.10652445359E+04  0.10652445359E+04  0.00000000000E+00 0. -1.
         -1   -1    0    0    0  501 -0.00000000000E+00 -0.00000000000E+00 -0.20516932819E+02  0.20516932819E+02  0.00000000000E+00 0.  1.
         25    2    1    2    0    0  0.38243138857E+02 -0.85703430041E+02  0.65936258066E+03  0.67765366941E+03  0.12509143577E+03 0.  0.
          5    1    3    3  502    0 -0.13973861950E+02 -0.55045682175E+02  0.10055803452E+03  0.11556247942E+03  0.41800000000E+01 0.  1.
         -5    1    3    3    0  502  0.52217000807E+02 -0.30657747866E+02  0.55880454614E+03  0.56209118999E+03  0.41800000000E+01 0.  1.
        -11    1    1    2    0    0 -0.21609307023E+01  0.96236853458E+02  0.29212271533E+03  0.30757419007E+03  0.00000000000E+00 0.  1.
         11    1    1    2    0    0 -0.36082208155E+02 -0.10533423417E+02  0.93242307070E+02  0.10053360922E+03  0.00000000000E+00 0. -1.
</event>
<event>
 7    1  0.2612321E-009  0.1295300E+03  0.7561462E-02  0.1228155E+00
          2   -1    0    0  501    0  0.00000000000E+00  0.00000000000E+00  0.29448882492E+03  0.29448882492E+03  0.00000000000E+00 0.  1.
         -2   -1    0    0    0  501 -0.00000000000E+00 -0.00000000000E+00 -0.90780450573E+02  0.90780450573E+02  0.00000000000E+00 0. -1.
         25    2    1    2    0    0 -0.79802157880E+02 -0.48726541048E+02  0.20864084555E+02  0.15756035939E+03  0.12508915469E+03 0.  0.
          5    1    3    3  502    0  0.49425614462E+01  0.34709219385E+02 -0.53443378279E+01  0.35709846972E+02  0.41800000000E+01 0. -1.
         -5    1    3    3    0  502 -0.84744719327E+02 -0.83435760433E+02  0.26208422383E+02  0.12185051242E+03  0.41800000000E+01 0. -1.
        -11    1    1    2    0    0  0.32501923078E+02  0.47352195480E+02  0.24492353824E+02  0.62437815596E+02  0.00000000000E+00 0. -1.
         11    1    1    2    0    0  0.47300234803E+02  0.13743455677E+01  0.15835193597E+03  0.16527110051E+03  0.00000000000E+00 0.  1.
</event>
<event>
 7    1  0.2612321E-009  0.9887507E+02  0.7561462E-02  0.1282679E+00
          2   -1    0    0  501    0  0.00000000000E+00  0.00000000000E+00  0.26461409194E+03  0.26461409194E+03  0.00000000000E+00 0.  1.
         -2   -1    0    0    0  501 -0.00000000000E+00 -0.00000000000E+00 -0.77252467793E+02  0.77252467793E+02  0.00000000000E+00 0. -1.
         25    2    1    2    0    0 -0.16454771404E+02  0.69361837080E+02  0.20753672070E+02  0.14546492052E+03  0.12508998462E+03 0.  0.
          5    1    3    3  502    0 -0.39619537628E+02  0.49776918230E+02  0.65394641358E+02  0.91331160448E+02  0.41800000000E+01 0.  1.
         -5    1    3    3    0  502  0.23164766224E+02  0.19584918850E+02 -0.44640969288E+02  0.54133760072E+02  0.41800000000E+01 0.  1.
        -11    1    1    2    0    0  0.46511527117E+02 -0.39829478819E+02  0.87944751601E+02  0.10716337468E+03  0.00000000000E+00 0. -1.
         11    1    1    2    0    0 -0.30056755713E+02 -0.29532358261E+02  0.78663200477E+02  0.89238264538E+02  0.00000000000E+00 0.  1.
</event>
<event>
 7    1  0.2612321E-009  0.8594679E+02  0.7561462E-02  0.1312975E+00
         -4   -1    0    0    0  501 -0.00000000000E+00  0.00000000000E+00  0.42055817453E+03  0.42055817453E+03  0.00000000000E+00 0. -1.
          4   -1    0    0  501    0  0.00000000000E+00 -0.00000000000E+00 -0.39267879481E+02  0.39267879481E+02  0.00000000000E+00 0.  1.
         25    2    1    2    0    0 -0.22702081875E+02  0.29463205688E+02  0.10744765678E+03  0.16904297363E+03  0.12508822077E+03 0.  0.
          5    1    3    3  502    0  0.22221851868E+02  0.13795337944E+02  0.11731947806E+03  0.12027241738E+03  0.41800000000E+01 0. -1.
         -5    1    3    3    0  502 -0.44923933742E+02  0.15667867744E+02 -0.98718212745E+01  0.48770556259E+02  0.41800000000E+01 0. -1.
        -11    1    1    2    0    0 -0.10538078755E+02 -0.54828594274E+02  0.14839497084E+03  0.15855060147E+03  0.00000000000E+00 0.  1.
         11    1    1    2    0    0  0.33240160630E+02  0.25365388587E+02  0.12544766742E+03  0.13223247891E+03  0.00000000000E+00 0. -1.
</event>
<event>
 7    1  0.2612321E-009  0.1206436E+03  0.7561462E-02  0.1242039E+00
          2   -1    0    0  501    0  0.00000000000E+00  0.00000000000E+00  0.14923273664E+03  0.14923273664E+03  0.00000000000E+00 0.  1.
         -2   -1    0    0    0  501 -0.00000000000E+00 -0.00000000000E+00 -0.16198237013E+03  0.16198237013E+03  0.00000000000E+00 0. -1.
         25    2    1    2    0    0 -0.35456558302E+02 -0.50473515305E+02  0.85734177419E+02  0.16370853954E+03  0.12508154727E+03 0.  0.
          5    1    3    3  502    0  0.26030917362E+02 -0.66732731472E+02  0.25891844442E+02  0.76280574965E+02  0.41800000000E+01 0.  1.
         -5    1    3    3    0  502 -0.61487475665E+02  0.16259216167E+02  0.59842332977E+02  0.87427964577E+02  0.41800000000E+01 0.  1.
        -11    1    1    2    0    0  0.19747321680E+02 -0.23200699385E+02 -0.11820023538E+02  0.32679383745E+02  0.00000000000E+00 0.  1.
         11    1    1    2    0    0  0.15709236622E+02  0.73674214690E+02 -0.86663787373E+02  0.11482718349E+03  0.00000000000E+00 0. -1.
</event>
<event>
 7    1  0.2612321E-009  0.8929003E+02  0.7561462E-02  0.1304580E+00
         -2   -1    0    0    0  501 -0.00000000000E+00  0.00000000000E+00  0.22421675890E+03  0.22421675890E+03  0.00000000000E+00 0.  1.
          2   -1    0    0  501    0  0.00000000000E+00 -0.00000000000E+00 -0.64698531629E+02  0.64698531629E+02  0.00000000000E+00 0. -1.
         25    2    1    2    0    0 -0.44221430100E+02 -0.26430723366E+02  0.97449308114E+02  0.16672832029E+03  0.12509135508E+03 0.  0.
          5    1    3    3  502    0  0.13521512949E+02 -0.13060411656E+02 -0.24447164575E+02  0.31121406151E+02  0.41800000000E+01 0. -1.
         -5    1    3    3    0  502 -0.57742943049E+02 -0.13370311711E+02  0.12189647269E+03  0.13560691413E+03  0.41800000000E+01 0. -1.
        -11    1    1    2    0    0  0.30752099878E+02 -0.29355962443E+02  0.78440926473E+01  0.43231862871E+02  0.00000000000E+00 0. -1.
         11    1    1    2    0    0  0.13469330222E+02  0.55786685809E+02  0.54224826508E+02  0.78955107371E+02  0.00000000000E+00 0.  1.
</event>
<event>
 7    1  0.2612321E-009  0.1075688E+03  0.7561462E-02  0.1265140E+00
         -3   -1    0    0    0  501 -0.00000000000E+00  0.00000000000E+00  0.27897379276E+03  0.27897379276E+03  0.00000000000E+00 0.  1.
          3   -1    0    0  501    0  0.00000000000E+00 -0.00000000000E+00 -0.94631933552E+02  0.94631933552E+02  0.00000000000E+00 0. -1.
         25    2    1    2    0    0  0.25499204093E+02 -0.25260585755E+02  0.23114922610E+03  0.26526609704E+03  0.12509129031E+03 0.  0.
          5    1    3    3  502    0  0.18239039105E+02  0.50337671298E+02  0.10568609673E+03  0.11854774203E+03  0.41800000000E+01 0.  1.
         -5    1    3    3    0  502  0.72601649879E+01 -0.75598257052E+02  0.12546312937E+03  0.14671835501E+03  0.41800000000E+01 0.  1.
        -11    1    1    2    0    0  0.27654870686E+02  0.32603764823E+01 -0.42291089251E+02  0.50635542434E+02  0.00000000000E+00 0. -1.
         11    1    1    2    0    0 -0.53154074779E+02  0.22000209272E+02 -0.45162776433E+01  0.57704086834E+02  0.00000000000E+00 0.  1.
</event>
<event>
 7    1  0.2612321E-009  0.8464028E+02  0.7561462E-02  0.1316376E+00
          1   -1    0    0  501    0  0.00000000000E+00  0.00000000000E+00  0.12158351896E+04  0.12158351896E+04  0.00000000000E+00 0. -1.
         -1   -1    0    0    0  501 -0.00000000000E+00 -0.00000000000E+00 -0.13113165149E+02  0.13113165149E+02  0.00000000000E+00 0.  1.
         25    2    1    2    0    0  0.19359048024E+02 -0.47048661013E+02  0.58414705483E+03  0.59955365895E+03  0.12509380102E+03 0.  0.
          5    1    3    3  502    0  0.13863866131E+02 -0.15763145802E+02  0.55742026048E+03  0.55783107008E+03  0.41800000000E+01 0. -1.
         -5    1    3    3    0  502  0.54951818929E+01 -0.31285515211E+02  0.26726794345E+02  0.41722588870E+02  0.41800000000E+01 0. -1.
        -11    1    1    2    0    0 -0.53513293657E+02  0.58999372664E+02  0.44768651171E+03  0.45471728727E+03  0.00000000000E+00 0.  1.
         11    1    1    2    0    0  0.34154245633E+02 -0.11950711651E+02  0.17088845793E+03  0.17467740855E+03  0.00000000000E+00 0. -1.
</event>
<event>
 7    1  0.2612321E-009  0.1117993E+03  0.7561462E-02  0.1257274E+00
         -1   -1    0    0    0  501 -0.00000000000E+00  0.00000000000E+00  0.46146769025E+03  0.46146769025E+03  0.00000000000E+00 0.  1.
          1   -1    0    0  501    0  0.00000000000E+00 -0.00000000000E+00 -0.39918618122E+02  0.39918618122E+02  0.00000000000E+00 0. -1.
         25    2    1    2    0    0 -0.62163697930E+02 -0.49820196551E+02  0.19347923055E+03  0.24377835803E+03  0.12508915965E+03 0.  0.
          5    1    3    3  502    0 -0.10494423572E+02 -0.65276073722E+02  0.32176518227E+02  0.73647127927E+02  0.41800000000E+01 0.  1.
         -5    1    3    3    0  502 -0.51669274359E+02  0.15455877171E+02  0.16130271233E+03  0.17013123010E+03  0.41800000000E+01 0.  1.
        -11    1    1    2    0    0  0.31211270761E+02 -0.12542796535E+02  0.14675142689E+03  0.15055712026E+03  0.00000000000E+00 0.  1.
         11    1    1    2    0    0  0.30952427170E+02  0.62362993086E+02  0.81318414682E+02  0.10705083008E+03  0.00000000000E+00 0. -1.
</event>
<event>
 7    1  0.2612321E-009  0.1353253E+03  0.7561462E-02  0.1219761E+00
          1   -1    0    0  501    0  0.00000000000E+00  0.00000000000E+00  0.48000566649E+03  0.48000566649E+03  0.00000000000E+00 0.  1.
         -1   -1    0    0    0  501 -0.00000000000E+00 -0.00000000000E+00 -0.54204365302E+02  0.54204365302E+02  0.00000000000E+00 0. -1.
         25    2    1    2    0    0 -0.58993507222E+02 -0.72639115916E+02  0.35035543547E+03  0.38360445884E+03  0.12508706817E+03 0.  0.
          5    1    3    3  502    0  0.28711169093E+02 -0.36533390560E+02  0.20316338330E+03  0.20845107956E+03  0.41800000000E+01 0.  1.
         -5    1    3    3    0  502 -0.87704676315E+02 -0.36105725356E+02  0.14719205217E+03  0.17515337928E+03  0.41800000000E+01 0.  1.
        -11    1    1    2    0    0 -0.22566748125E+02  0.50294804027E+01  0.22138448508E+02  0.32010384197E+02  0.00000000000E+00 0.  1.
         11    1    1    2    0    0  0.81560255347E+02  0.67609635513E+02  0.53307417213E+02  0.11859518876E+03  0.00000000000E+00 0. -1.
</event>
<event>
 7    1  0.2612321E-009  0.1162370E+03  0.7561462E-02  0.1249437E+00
          1   -1    0    0  501    0  0.00000000000E+00  0.00000000000E+00  0.17939188482E+04  0.17939188482E+04  0.00000000000E+00 0. -1.
         -1   -1    0    0    0  501 -0.00000000000E+00 -0.00000000000E+00 -0.94595791967E+01  0.94595791967E+01  0.00000000000E+00 0.  1.
         25    2    1    2    0    0 -0.26366015428E+02  0.34814644540E+02  0.13714635558E+04  0.13778487581E+04  0.12509072340E+03 0.  0.
          5    1    3    3  502    0  0.46909582355E+02  0.33390653315E+02  0.70300900833E+03  0.70537549067E+03  0.41800000000E+01 0.  1.
         -5    1    3    3    0  502 -0.73275597782E+02  0.14239912254E+01  0.66845454747E+03  0.67247326744E+03  0.41800000000E+01 0.  1.
        -11    1    1    2    0    0  0.55506877178E+01 -0.64687083393E+02  0.29424645001E+03  0.30132408174E+03  0.00000000000E+00 0.  1.
         11    1    1    2    0    0  0.20815327710E+02  0.29872438853E+02  0.11874926322E+03  0.12420558758E+03  0.00000000000E+00 0. -1.
</event>
<event>
 7    1  0.2612321E-009  0.1129445E+03  0.7561462E-02  0.1255212E+00
          1   -1    0    0  501    0  0.00000000000E+00  0.00000000000E+00  0.23470151558E+02  0.23470151558E+02  0.00000000000E+00 0. -1.
         -1   -1    0    0    0  501 -0.00000000000E+00 -0.00000000000E+00 -0.76167682944E+03  0.76167682944E+03  0.00000000000E+00 0.  1.
         25    2    1    2    0    0  0.38368583605E+02 -0.20754093149E+02 -0.21648236311E+03  0.25380112690E+03  0.12509003912E+03 0.  0.
          5    1    3    3  502    0  0.74233871120E+02  0.15093643277E+02 -0.91521616563E+02  0.11887878022E+03  0.41800000000E+01 0.  1.
         -5    1    3    3    0  502 -0.35865287515E+02 -0.35847736426E+02 -0.12496074654E+03  0.13492234667E+03  0.41800000000E+01 0.  1.
        -11    1    1    2    0    0 -0.42948417516E+02  0.52066627598E+02 -0.39532264456E+03  0.40104300714E+03  0.00000000000E+00 0.  1.
         11    1    1    2    0    0  0.45798339110E+01 -0.31312534449E+02 -0.12640167022E+03  0.13030284696E+03  0.00000000000E+00 0. -1.
</event>
<event>
 7    1  0.2612321E-009  0.8315739E+02  0.7561462E-02  0.1320323E+00
          4   -1    0    0  501    0  0.00000000000E+00  0.00000000000E+00  0.46349546004E+02  0.46349546004E+02  0.00000000000E+00 0. -1.
         -4   -1    0    0    0  501 -0.00000000000E+00 -0.00000000000E+00 -0.28962777455E+03  0.28962777455E+03  0.00000000000E+00 0.  1.
         25    2    1    2    0    0  0.15252923937E+02 -0.46296914805E+01 -0.20515687472E+03  0.24080999068E+03  0.12508406228E+03 0.  0.
          5    1    3    3  502    0  0.12843839623E+01  0.51473472381E+02 -0.15753886505E+03  0.16579244374E+03  0.41800000000E+01 0.  1.
         -5    1    3    3    0  502  0.13968539974E+02 -0.56103163861E+02 -0.47618009669E+02  0.75017546941E+02  0.41800000000E+01 0.  1.
        -11    1    1    2    0    0 -0.35260343529E+02 -0.27419487098E+01 -0.56740261365E+02  0.66860058094E+02  0.00000000000E+00 0.  1.
         11    1    1    2    0    0  0.20007419593E+02  0.73716401903E+01  0.18618907534E+02  0.28307271780E+02  0.00000000000E+00 0. -1.
</event>
<event>
 7    1  0.2612321E-009  0.3100564E+03  0.7561462E-02  0.1080319E+00
          2   -1    0    0  501    0  0.00000000000E+00  0.00000000000E+00  0.11970721792E+04  0.11970721792E+04  0.00000000000E+00 0. -1.
         -2   -1    0    0    0  501 -0.00000000000E+00 -0.00000000000E+00 -0.87779395274E+02  0.87779395274E+02  0.00000000000E+00 0.  1.
         25    2    1    2    0    0  0.30050303881E+03 -0.41833568059E+02  0.50653202839E+03  0.60355215699E+03  0.12509351173E+03 0.  0.
          5    1    3    3  502    0  0.74984341030E+02 -0.51841169081E+01  0.42855013033E+02  0.86623039717E+02  0.41800000000E+01 0.  1.
         -5    1    3    3    0  502  0.22551869778E+03 -0.36649451151E+02  0.46367701536E+03  0.51692911728E+03  0.41800000000E+01 0.  1.
        -11    1    1    2    0    0 -0.18417412777E+03 -0.18807411331E+02  0.38211356913E+03  0.42459934971E+03  0.00000000000E+00 0.  1.
         11    1    1    2    0    0 -0.11632891105E+03  0.60640979390E+02  0.22064718643E+03  0.25670006780E+03  0.00000000000E+00 0. -1.
</event>
<event>
 7    1  0.2612321E-009  0.1176945E+03  0.7561462E-02  0.1246950E+00
          2   -1    0    0  501    0  0.00000000000E+00  0.00000000000E+00  0.11504953876E+04  0.11504953876E+04  0.00000000000E+00 0. -1.
         -2   -1    0    0    0  501 -0.00000000000E+00 -0.00000000000E+00 -0.13637447303E+02  0.13637447303E+02  0.00000000000E+00 0.  1.
         25    2    1    2    0    0 -0.20626887801E+01 -0.56285607693E+02  0.74309176818E+03  0.75564883223E+03  0.12508979732E+03 0.  0.
          5    1    3    3  502    0 -0.24543364805E+02 -0.86218794374E+02  0.37293979109E+03  0.38358521535E+03  0.41800000000E+01 0.  1.
         -5    1    3    3    0  502  0.22480676024E+02  0.29933186681E+02  0.37015197709E+03  0.37206361687E+03  0.41800000000E+01 0.  1.
        -11    1    1    2    0    0  0.27761463210E+02  0.72472837471E+02  0.26136026600E+03  0.27263932154E+03  0.00000000000E+00 0. -1.
         11    1    1    2    0    0 -0.25698774430E+02 -0.16187229778E+02  0.13240590608E+03  0.13584468109E+03  0.00000000000E+00 0.  1.
</event>
<event>
 7    1  0.2612321E-009  0.1428117E+03  0.7561462E-02  0.1209595E+00
         -2   -1    0    0    0  501 -0.00000000000E+00  0.00000000000E+00  0.70554996203E+02  0.70554996203E+02  0.00000000000E+00 0.  1.
          2   -1    0    0  501    0  0.00000000000E+00 -0.00000000000E+00 -0.31267171520E+03  0.31267171520E+03  0.00000000000E+00 0. -1.
         25    2    1    2    0    0 -0.98418161090E+02  0.22011256499E+02 -0.11337230895E+03  0.19665158384E+03  0.12509170694E+03 0.  0.
          5    1    3    3  502    0 -0.55611630252E+02  0.74294278464E+02 -0.62424552614E+02  0.11192225159E+03  0.41800000000E+01 0.  1.
         -5    1    3    3    0  502 -0.42806530839E+02 -0.52283021965E+02 -0.50947756336E+02  0.84729332252E+02  0.41800000000E+01 0.  1.
        -11    1    1    2    0    0  0.17806161554E+02 -0.38794302367E+02 -0.80566005366E+02  0.91175317417E+02  0.00000000000E+00 0. -1.
         11    1    1    2    0    0  0.80611999536E+02  0.16783045868E+02 -0.48178404679E+02  0.95399810142E+02  0.00000000000E+00 0.  1.
</event>
<event>
 7    1  0.2612321E-009  0.1166407E+03  0.7561462E-02  0.1248744E+00
          1   -1    0    0  501    0  0.00000000000E+00  0.00000000000E+00  0.84598054914E+03  0.84598054914E+03  0.00000000000E+00 0. -1.
         -1   -1    0    0    0  501 -0.00000000000E+00 -0.00000000000E+00 -0.19158532600E+02  0.19158532600E+02  0.00000000000E+00 0.  1.
         25    2    1    2    0    0 -0.26546354197E+02  0.58869165886E+02  0.52739418210E+03  0.54585972408E+03  0.12509167616E+03 0.  0.
          5    1    3    3  502    0  0.48636592807E+02  0.39459048083E+02  0.25174021479E+03  0.25944776503E+03  0.41800000000E+01 0. -1.
         -5    1    3    3    0  502 -0.75182947004E+02  0.19410117804E+02  0.27565396731E+03  0.28641195905E+03  0.41800000000E+01 0. -1.
        -11    1    1    2    0    0  0.46040678331E+02 -0.21958475271E+02  0.24726085619E+03  0.25246752207E+03  0.00000000000E+00 0. -1.
         11    1    1    2    0    0 -0.19494324133E+02 -0.36910690616E+02  0.52166978247E+02  0.66811835587E+02  0.00000000000E+00 0.  1.
</event>
<event>
 7    1  0.2612321E-009  0.1484414E+03  0.7561462E-02  0.1202401E+00
         -1   -1    0    0    0  501 -0.00000000000E+00  0.00000000000E+00  0.59708701925E+03  0.59708701925E+03  0.00000000000E+00 0.  1.
          1   -1    0    0  501    0  0.00000000000E+00 -0.00000000000E+00 -0.42325065376E+02  0.42325065376E+02  0.00000000000E+00 0. -1.
         25    2    1    2    0    0 -0.35984138526E+02  0.10431678510E+03  0.35327628817E+03  0.39067572706E+03  0.12508612253E+03 0.  0.
          5    1    3    3  502    0 -0.80539650345E+02  0.56008678978E+02  0.17557731445E+03  0.20116777363E+03  0.41800000000E+01 0.  1.
         -5    1    3    3    0  502  0.44555511819E+02  0.48308106118E+02  0.17769897372E+03  0.18950795343E+03  0.41800000000E+01 0.  1.
        -11    1    1    2    0    0 -0.19610669074E+02 -0.71076663820E+01  0.33246918720E+01  0.21122282996E+02  0.00000000000E+00 0. -1.
         11    1    1    2    0    0  0.55594807600E+02 -0.97209118715E+02  0.19816097383E+03  0.22761407457E+03  0.00000000000E+00 0.  1.
</event>
<event>
 7    1  0.2612321E-009  0.1256581E+03  0.7561462E-02  0.1234044E+00
         -2   -1    0    0    0  501 -0.00000000000E+00  0.00000000000E+00  0.74099758176E+02  0.74099758176E+02  0.00000000000E+00 0. -1.
          2   -1    0    0  501    0  0.00000000000E+00 -0.00000000000E+00 -0.23936821402E+03  0.23936821402E+03  0.00000000000E+00 0.  1.
         25    2    1    2    0    0  0.81043764113E+02 -0.16224760841E+02 -0.11778315150E+03  0.19065916790E+03  0.12508682169E+03 0.  0.
          5    1    3    3  502    0 -0.30138206179E+02 -0.21441175285E+02 -0.40994725255E+02  0.55372153363E+02  0.41800000000E+01 0.  1.
         -5    1    3    3    0  502  0.11118197029E+03  0.52164144435E+01 -0.76788426240E+02  0.13528701454E+03  0.41800000000E+01 0.  1.
        -11    1    1    2    0    0 -0.44441123671E+02  0.39397324428E+02 -0.11848172134E+01  0.59401737660E+02  0.00000000000E+00 0. -1.
         11    1    1    2    0    0 -0.36602640442E+02 -0.23172563587E+02 -0.46300487136E+02  0.63407066638E+02  0.00000000000E+00 0.  1.
</event>
<event>
 7    1  0.2612321E-009  0.2135504E+03  0.7561462E-02  0.1138785E+00
         -2   -1    0    0    0  501 -0.00000000000E+00  0.00000000000E+00  0.53728110742E+02  0.53728110742E+02  0.00000000000E+00 0.  1.
          2   -1    0    0  501    0  0.00000000000E+00 -0.00000000000E+00 -0.11191378478E+04  0.11191378478E+04  0.00000000000E+00 0. -1.
         25    2    1    2    0    0  0.18102640785E+03  0.82500445839E+02 -0.32524682528E+03  0.40126240133E+03  0.12509649659E+03 0.  0.
          5    1    3    3  502    0  0.19868071137E+02  0.40535136120E+02 -0.12680345686E+02  0.47075482766E+02  0.41800000000E+01 0. -1.
         -5    1    3    3    0  502  0.16115833672E+03  0.41965309719E+02 -0.31256647960E+03  0.35418691856E+03  0.41800000000E+01 0. -1.
        -11    1    1    2    0    0 -0.11148411774E+03 -0.57819645606E+01 -0.32165388522E+03  0.34047519953E+03  0.00000000000E+00 0.  1.
         11    1    1    2    0    0 -0.69542290110E+02 -0.76718481278E+02 -0.41850902651E+03  0.43112835763E+03  0.00000000000E+00 0. -1.
</event>
<event>
 7    1  0.3916589E-009  0.1442235E+03  0.7561462E-02  0.1207756E+00
          2   -1    0    0  501    0  0.00000000000E+00  0.00000000000E+00  0.47144542553E+03  0.47144542553E+03  0.00000000000E+00 0. -1.
         -2   -1    0    0    0  501 -0.00000000000E+00 -0.00000000000E+00 -0.48645326734E+02  0.48645326734E+02  0.00000000000E+00 0.  1.
         25    2    1    2    0    0 -0.75978675603E+02 -0.68017336808E+02  0.27223413220E+03  0.31647617132E+03  0.12508647819E+03 0.  0.
          5    1    3    3  502    0 -0.23707397627E+02 -0.96216983341E+02  0.14124325739E+03  0.17258875613E+03  0.41800000000E+01 0.  1.
         -5    1    3    3    0  502 -0.52271277977E+02  0.28199646534E+02  0.13099087481E+03  0.14388741519E+03  0.41800000000E+01 0.  1.
        -11    1    1    2    0    0  0.24956398073E+02  0.74241647344E+02  0.57033042337E+02  0.96888657351E+02  0.00000000000E+00 0.  1.
         11    1    1    2    0    0  0.51022277530E+02 -0.62243105362E+01  0.93532924258E+02  0.10672592359E+03  0.00000000000E+00 0. -1.
</event>
<event>
 7    1  0.2612321E-009  0.1169818E+03  0.7561462E-02  0.1248161E+00
          1   -1    0    0  501    0  0.00000000000E+00  0.00000000000E+00  0.20024988809E+03  0.20024988809E+03  0.00000000000E+00 0. -1.
         -1   -1    0    0    0  501 -0.00000000000E+00 -0.00000000000E+00 -0.10327976029E+03  0.10327976029E+03  0.00000000000E+00 0.  1.
         25    2    1    2    0    0  0.62191087333E+02 -0.61630420007E+02  0.70702830146E+02  0.16826142881E+03  0.12508788199E+03 0.  0.
          5    1    3    3  502    0  0.25057165415E+01 -0.52324329345E+02  0.90419351776E+02  0.10458128720E+03  0.41800000000E+01 0.  1.
         -5    1    3    3    0  502  0.59685370792E+02 -0.93060906628E+01 -0.19716521630E+02  0.63680141608E+02  0.41800000000E+01 0.  1.
        -11    1    1    2    0    0 -0.83038297518E+02  0.47309991733E+02 -0.42110040804E+01  0.95662567014E+02  0.00000000000E+00 0.  1.
         11    1    1    2    0    0  0.20847210184E+02  0.14320428274E+02  0.30478301728E+02  0.39605652560E+02  0.00000000000E+00 0. -1.
</event>
<event>
 7    1  0.2612321E-009  0.1174686E+03  0.7561462E-02  0.1247332E+00
          2   -1    0    0  501    0  0.00000000000E+00  0.00000000000E+00  0.11991453172E+03  0.11991453172E+03  0.00000000000E+00 0. -1.
         -2   -1    0    0    0  501 -0.00000000000E+00 -0.00000000000E+00 -0.13647834049E+03  0.13647834049E+03  0.00000000000E+00 0.  1.
         25    2    1    2    0    0  0.35995031053E+02 -0.37321395364E+02  0.38903910099E+02  0.14088926761E+03  0.12509093770E+03 0.  0.
          5    1    3    3  502    0 -0.45700777979E+02 -0.26154482060E+02  0.16598674069E+02  0.55367918694E+02  0.41800000000E+01 0. -1.
         -5    1    3    3    0  502  0.81695809032E+02 -0.11166913304E+02  0.22305236030E+02  0.85521348916E+02  0.41800000000E+01 0. -1.
        -11    1    1    2    0    0  0.27922339311E+02  0.15961688836E+02 -0.82114109146E+01  0.33194273788E+02  0.00000000000E+00 0.  1.
         11    1    1    2    0    0 -0.63917370364E+02  0.21359706527E+02 -0.47256307952E+02  0.82309330811E+02  0.00000000000E+00 0. -1.
</event>
<event>
 7    1  0.2612321E-009  0.9662357E+02  0.7561462E-02  0.1287561E+00
         -1   -1    0    0    0  501 -0.00000000000E+00  0.00000000000E+00  0.42192742153E+02  0.42192742153E+02  0.00000000000E+00 0.  1.
          1   -1    0    0  501    0  0.00000000000E+00 -0.00000000000E+00 -0.38050066108E+03  0.38050066108E+03  0.00000000000E+00 0. -1.
         25    2    1    2    0    0 -0.42043737529E+02 -0.26542502912E+02 -0.11647614259E+03  0.17800678740E+03  0.12509014447E+03 0.  0.
          5    1    3    3  502    0  0.38103655945E+02  0.10459693420E+02 -0.12732130170E+02  0.41723774056E+02  0.41800000000E+01 0.  1.
         -5    1    3    3    0  502 -0.80147393474E+02 -0.37002196332E+02 -0.10374401242E+03  0.13628301335E+03  0.41800000000E+01 0.  1.
        -11    1    1    2    0    0  0.28900079247E+02 -0.64609433003E+01 -0.12137185921E+02  0.32004213018E+02  0.00000000000E+00 0.  1.
         11    1    1    2    0    0  0.13143658282E+02  0.33003446213E+02 -0.20969459042E+03  0.21268240281E+03  0.00000000000E+00 0. -1.
</event>
<event>
 7    1  0.2612321E-009  0.1579753E+03  0.7561462E-02  0.1191002E+00
          1   -1    0    0  501    0  0.00000000000E+00  0.00000000000E+00  0.28829791269E+03  0.28829791269E+03  0.00000000000E+00 0. -1.
         -1   -1    0    0    0  501 -0.00000000000E+00 -0.00000000000E+00 -0.11904029023E+03  0.11904029023E+03  0.00000000000E+00 0.  1.
         25    2    1    2    0    0 -0.10297694202E+03 -0.82847713317E+02  0.16781275225E+03  0.24754818726E+03  0.12510392082E+03 0.  0.
          5    1    3    3  502    0 -0.93710169935E+02 -0.20007311584E+02  0.38377674611E+02  0.10330637335E+03  0.41800000000E+01 0.  1.
         -5    1    3    3    0  502 -0.92667720897E+01 -0.62840401732E+02  0.12943507764E+03  0.14424181391E+03  0.41800000000E+01 0.  1.
        -11    1    1    2    0    0  0.37556059651E+02 -0.13510090900E+02 -0.14013816573E+02  0.42300912846E+02  0.00000000000E+00 0.  1.
         11    1    1    2    0    0  0.65420882374E+02  0.96357804217E+02  0.15458686773E+02  0.11748910282E+03  0.00000000000E+00 0. -1.
</event>
<event>
 6    1  0.2612321E-009  0.8607675E+02  0.7561462E-02  0.1312641E+00
          2   -1    0    0  501    0  0.00000000000E+00  0.00000000000E+00  0.15058575626E+03  0.15058575626E+03  0.00000000000E+00 0. -1.
         -2   -1    0    0    0  501 -0.00000000000E+00 -0.00000000000E+00 -0.15383506277E+03  0.15383506277E+03  0.00000000000E+00 0.  1.
          5    1    1    2  502    0  0.16896169749E+02 -0.70045991493E+02 -0.29331667043E+01  0.72235706844E+02  0.41800000000E+01 0.  1.
         -5    1    1    2    0  502 -0.11204477320E+02  0.16301861289E+02  0.86861204483E+02  0.89183138753E+02  0.41800000000E+01 0.  1.
        -11    1    1    2    0    0  0.26512742172E+02  0.27683036608E+02  0.80374861807E+01  0.39164744317E+02  0.00000000000E+00 0. -1.
         11    1    1    2    0    0 -0.32204434601E+02  0.26061093595E+02 -0.95214830479E+02  0.10383722912E+03  0.00000000000E+00 0.  1.
</event>
<event>
 7    1  0.2624227E-009  0.1130439E+03  0.7561462E-02  0.1255035E+00
         -2   -1    0    0    0  501 -0.00000000000E+00  0.00000000000E+00  0.28348204880E+02  0.28348204880E+02  0.00000000000E+00 0. -1.
          2   -1    0    0  501    0  0.00000000000E+00 -0.00000000000E+00 -0.58667246708E+03  0.58667246708E+03  0.00000000000E+00 0.  1.
         25    2    1    2    0    0  0.38550034085E+02  0.54158626294E+02 -0.35311134684E+03  0.38046460331E+03  0.12508568733E+03 0.  0.
          5    1    3    3  502    0 -0.38707682040E+02  0.31369845014E+02 -0.69558413096E+02  0.85663277181E+02  0.41800000000E+01 0.  1.
         -5    1    3    3    0  502  0.77257716125E+02  0.22788781280E+02 -0.28355293374E+03  0.29480132613E+03  0.41800000000E+01 0.  1.
        -11    1    1    2    0    0 -0.44585833033E+02 -0.38374761257E+01 -0.16163440237E+03  0.16771494495E+03  0.00000000000E+00 0.  1.
         11    1    1    2    0    0  0.60357989476E+01 -0.50321150168E+02 -0.43578512997E+02  0.66841123706E+02  0.00000000000E+00 0. -1.
</event>
<event>
 7    1  0.2612321E-009  0.1035917E+03  0.7561462E-02  0.1272919E+00
          1   -1    0    0  501    0  0.00000000000E+00  0.00000000000E+00  0.45361827652E+03  0.45361827652E+03  0.00000000000E+00 0. -1.
         -1   -1    0    0    0  501 -0.00000000000E+00 -0.00000000000E+00 -0.41149318302E+02  0.41149318302E+02  0.00000000000E+00 0.  1.
         25    2    1    2    0    0  0.73038394304E+02  0.23204804209E+02  0.17259321823E+03  0.22651575800E+03  0.12509156511E+03 0.  0.
          5    1    3    3  502    0 -0.20100479021E+02 -0.17567558580E+02  0.94381689302E+02  0.98173438602E+02  0.41800000000E+01 0.  1.
         -5    1    3    3    0  502  0.93138873324E+02  0.40772362789E+02  0.78211528932E+02  0.12834231940E+03  0.41800000000E+01 0.  1.
        -11    1    1    2    0    0 -0.61553691691E+02 -0.25613380361E+02  0.24609854851E+03  0.25496940560E+03  0.00000000000E+00 0.  1.
         11    1    1    2    0    0 -0.11484702613E+02  0.24085761524E+01 -0.62228085228E+01  0.13282431219E+02  0.00000000000E+00 0. -1.
</event>
<event>
 7    1  0.2969216E-009  0.1709593E+03  0.7561462E-02  0.1176851E+00
         -2   -1    0    0    0  501 -0.00000000000E+00  0.00000000000E+00  0.12058082209E+03  0.12058082209E+03  0.00000000000E+00 0.  1.
          2   -1    0    0  501    0  0.00000000000E+00 -0.00000000000E+00 -0.36861401584E+03  0.36861401584E+03  0.00000000000E+00 0. -1.
         25    2    1    2    0    0  0.16437890090E+03 -0.29561662077E+02 -0.20869276811E+03  0.29511808562E+03  0.12509075933E+03 0.  0.
          5    1    3    3  502    0  0.12558763923E+02 -0.22624825827E+01 -0.11245980495E+03  0.11325864871E+03  0.41800000000E+01 0.  1.
         -5    1    3    3    0  502  0.15182013697E+03 -0.27299179494E+02 -0.96232963161E+02  0.18185943690E+03  0.41800000000E+01 0.  1.
        -11    1    1    2    0    0 -0.55374397805E+02 -0.13468158162E+02  0.22859807619E+02  0.61402654836E+02  0.00000000000E+00 0.  1.
         11    1    1    2    0    0 -0.10900450309E+03  0.43029820239E+02 -0.62200233256E+02  0.13267409748E+03  0.00000000000E+00 0. -1.
</event>
<event>
 7    1  0.2612321E-009  0.1084138E+03  0.7561462E-02  0.1263536E+00
         -2   -1    0    0    0  501 -0.00000000000E+00  0.00000000000E+00  0.78788937378E+03  0.78788937378E+03  0.00000000000E+00 0.  1.
          2   -1    0    0  501    0  0.00000000000E+00 -0.00000000000E+00 -0.16557809559E+02  0.16557809559E+02  0.00000000000E+00 0. -1.
         25    2    1    2    0    0 -0.23998672690E+02  0.29636044087E+02  0.44691835994E+03  0.46565851419E+03  0.12509036727E+03 0.  0.
          5    1    3    3  502    0 -0.48034491677E+02 -0.30080236509E+02  0.12459518016E+03  0.13694365388E+03  0.41800000000E+01 0.  1.
         -5    1    3    3    0  502  0.24035818987E+02  0.59716280595E+02  0.32232317978E+03  0.32871486030E+03  0.41800000000E+01 0.  1.
        -11    1    1    2    0    0  0.13918427955E+02  0.31021540115E+02  0.15147729426E+03  0.15524635025E+03  0.00000000000E+00 0.  1.
         11    1    1    2    0    0  0.10080244736E+02 -0.60657584202E+02  0.17293591002E+03  0.18354231891E+03  0.00000000000E+00 0. -1.
</event>
<event>
 7    1  0.2612321E-009  0.9619972E+02  0.7561462E-02  0.1288497E+00
          1   -1    0    0  501    0  0.00000000000E+00  0.00000000000E+00  0.79200168288E+03  0.79200168288E+03  0.00000000000E+00 0. -1.
         -1   -1    0    0    0  501 -0.00000000000E+00 -0.00000000000E+00 -0.17294663316E+02  0.17294663316E+02  0.00000000000E+00 0.  1.
         25    2    1    2    0    0  0.35155590370E+01  0.63852471517E+02  0.45566400871E+03  0.47682600017E+03  0.12507537059E+03 0.  0.
          5    1    3    3  502    0 -0.37742569147E+02  0.46044089745E+02  0.87561942134E+02  0.10596756974E+03  0.41800000000E+01 0. -1.
         -5    1    3    3    0  502  0.41258128184E+02  0.17808381772E+02  0.36810206658E+03  0.37085843043E+03  0.41800000000E+01 0. -1.
        -11    1    1    2    0    0 -0.31507462363E+02 -0.28432263160E+02  0.21350008698E+03  0.21767728617E+03  0.00000000000E+00 0. -1.
         11    1    1    2    0    0  0.27991903326E+02 -0.35420208357E+02  0.10554292387E+03  0.11479305985E+03  0.00000000000E+00 0.  1.
</event>
<event>
 7    1  0.2612321E-009  0.1437535E+03  0.7561462E-02  0.1208366E+00
         -2   -1    0    0    0  501 -0.00000000000E+00  0.00000000000E+00  0.16144600613E+03  0.16144600613E+03  0.00000000000E+00 0.  1.
          2   -1    0    0  501    0  0.00000000000E+00 -0.00000000000E+00 -0.13800965432E+03  0.13800965432E+03  0.00000000000E+00 0. -1.
         25    2    1    2    0    0 -0.60808843638E+01 -0.10091325408E+03 -0.22894021258E+01  0.16085473857E+03  0.12509413877E+03 0.  0.
          5    1    3    3  502    0  0.29245129617E+02  0.18235888807E+02  0.93805156052E+01  0.35962365327E+02  0.41800000000E+01 0.  1.
         -5    1    3    3    0  502 -0.35326013981E+02 -0.11914914288E+03 -0.11669917731E+02  0.12489237324E+03  0.41800000000E+01 0.  1.
        -11    1    1    2    0    0 -0.36531321890E+02  0.40878755117E+02 -0.11633161255E+02  0.56044094602E+02  0.00000000000E+00 0. -1.
         11    1    1    2    0    0  0.42612206254E+02  0.60034498961E+02  0.37358915192E+02  0.82556827287E+02  0.00000000000E+00 0.  1.
</event>
<event>
 7    1  0.2612321E-009  0.2358342E+03  0.7561462E-02  0.1122599E+00
         -2   -1    0    0    0  501 -0.00000000000E+00  0.00000000000E+00  0.19531578405E+03  0.19531578405E+03  0.00000000000E+00 0. -1.
          2   -1    0    0  501    0  0.00000000000E+00 -0.00000000000E+00 -0.30392984182E+03  0.30392984182E+03  0.00000000000E+00 0.  1.
         25    2    1    2    0    0 -0.16158933815E+03  0.14153346986E+03 -0.92050136919E+02  0.26507181051E+03  0.12508796795E+03 0.  0.
          5    1    3    3  502    0  0.13178950526E+02  0.48379149674E+02 -0.22633840599E+02  0.55172366276E+02  0.41800000000E+01 0.  1.
         -5    1    3    3    0  502 -0.17476828868E+03  0.93154320187E+02 -0.69416296320E+02  0.20989944424E+03  0.41800000000E+01 0.  1.
        -11    1    1    2    0    0  0.35735820562E+02 -0.69765089328E+02 -0.39028473164E+02  0.87563909676E+02  0.00000000000E+00 0.  1.
         11    1    1    2    0    0  0.12585351759E+03 -0.71768380533E+02  0.22464552317E+02  0.14660990568E+03  0.00000000000E+00 0. -1.
</event>
<event>
 7    1  0.2612321E-009  0.1847751E+03  0.7561462E-02  0.1163260E+00
          2   -1    0    0  501    0  0.00000000000E+00  0.00000000000E+00  0.10577828266E+04  0.10577828266E+04  0.00000000000E+00 0. -1.
         -2   -1    0    0    0  501 -0.00000000000E+00 -0.00000000000E+00 -0.39003737830E+02  0.39003737830E+02  0.00000000000E+00 0.  1.
         25    2    1    2    0    0  0.14956591405E+03 -0.32365632005E+02  0.32225830962E+03  0.37804148359E+03  0.12508976144E+03 0.  0.
          5    1    3    3  502    0  0.84730677780E+02 -0.80324172168E+02  0.18567476727E+03  0.21937149312E+03  0.41800000000E+01 0. -1.
         -5    1    3    3    0  502  0.64835236267E+02  0.47958540162E+02  0.13658354235E+03  0.15866999048E+03  0.41800000000E+01 0. -1.
        -11    1    1    2    0    0 -0.70374707992E+02  0.55323652548E+02  0.44950243133E+03  0.45832929410E+03  0.00000000000E+00 0.  1.
         11    1    1    2    0    0 -0.79191206056E+02 -0.22958020542E+02  0.24701834780E+03  0.26041578673E+03  0.00000000000E+00 0. -1.
</event>
<event>
 7    1  0.2612321E-009  0.8126330E+02  0.7561462E-02  0.1325504E+00
         -1   -1    0    0    0  501 -0.00000000000E+00  0.00000000000E+00  0.12506652956E+03  0.12506652956E+03  0.00000000000E+00 0.  1.
          1   -1    0    0  501    0  0.00000000000E+00 -0.00000000000E+00 -0.10760313349E+03  0.10760313349E+03  0.00000000000E+00 0. -1.
         25    2    1    2    0    0 -0.66416042198E+01 -0.42248854098E+02  0.16038033785E+02  0.13317077384E+03  0.12509260529E+03 0.  0.
          5    1    3    3  502    0 -0.36855303229E+02 -0.13638201851E+02  0.60415650146E+02  0.72193054433E+02  0.41800000000E+01 0. -1.
         -5    1    3    3    0  502  0.30213699010E+02 -0.28610652248E+02 -0.44377616360E+02  0.60977719404E+02  0.41800000000E+01 0. -1.
        -11    1    1    2    0    0 -0.25883579230E+02 -0.23477865054E+01 -0.26945635210E+02  0.37437134400E+02  0.00000000000E+00 0. -1.
         11    1    1    2    0    0  0.32525183450E+02  0.44596640604E+02  0.28370997489E+02  0.62061754810E+02  0.00000000000E+00 0.  1.
</event>
<event>
 6    1  0.2612321E-009  0.2508445E+03  0.7561462E-02  0.1112772E+00
          1   -1    0    0  501    0  0.00000000000E+00  0.00000000000E+00  0.11259670152E+04  0.11259670152E+04  0.00000000000E+00 0. -1.
         -1   -1    0    0    0  501 -0.00000000000E+00 -0.00000000000E+00 -0.59836901268E+02  0.59836901268E+02  0.00000000000E+00 0.  1.
          5    1    1    2  502    0  0.48613973260E+02 -0.42838480114E+02  0.60603303285E+02  0.88818278207E+02  0.41800000000E+01 0.  1.
         -5    1    1    2    0  502  0.16117963026E+01 -0.18640031529E+03  0.44383022462E+03  0.48140462826E+03  0.41800000000E+01 0.  1.
        -11    1    1    2    0    0 -0.65288106993E+02  0.95283753644E+02  0.22534162608E+03  0.25322002106E+03  0.00000000000E+00 0.  1.
         11    1    1    2    0    0  0.15062337430E+02  0.13395504176E+03  0.33635495997E+03  0.36236098895E+03  0.00000000000E+00 0. -1.
</event>
<event>
 7    1  0.2612321E-009  0.6939696E+02  0.7561462E-02  0.1362156E+00
          1   -1    0    0  501    0  0.00000000000E+00  0.00000000000E+00  0.17732341082E+02  0.17732341082E+02  0.00000000000E+00 0. -1.
         -1   -1    0    0    0  501 -0.00000000000E+00 -0.00000000000E+00 -0.86809700642E+03  0.86809700642E+03  0.00000000000E+00 0.  1.
         25    2    1    2    0    0 -0.34607383165E+02  0.34481790596E+02 -0.59742056726E+03  0.61232795443E+03  0.12509006653E+03 0.  0.
          5    1    3    3  502    0 -0.99899939349E+01  0.52536711805E+00 -0.54480055932E+03  0.54490843068E+03  0.41800000000E+01 0.  1.
         -5    1    3    3    0  502 -0.24617389230E+02  0.33956423478E+02 -0.52620007939E+02  0.67419523755E+02  0.41800000000E+01 0.  1.
        -11    1    1    2    0    0  0.45516125998E+02  0.41079200451E+01 -0.54874225091E+02  0.71412697136E+02  0.00000000000E+00 0. -1.
         11    1    1    2    0    0 -0.10908742832E+02 -0.38589710641E+02 -0.19806987299E+03  0.20208869593E+03  0.00000000000E+00 0.  1.
</event>
<event>
 7    1  0.2612321E-009  0.9591207E+02  0.7561462E-02  0.1289135E+00
          2   -1    0    0  501    0  0.00000000000E+00  0.00000000000E+00  0.33245195316E+03  0.33245195316E+03  0.00000000000E+00 0. -1.
         -2   -1    0    0    0  501 -0.00000000000E+00 -0.00000000000E+00 -0.41975477656E+02  0.41975477656E+02  0.00000000000E+00 0.  1.
         25    2    1    2    0    0 -0.29907532341E+02 -0.20351267112E+02  0.21293716335E+03  0.24959774956E+03  0.12509263162E+03 0.  0.
          5    1    3    3  502    0 -0.16813434055E+02 -0.70442360541E+02  0.15873316787E+03  0.17452366231E+03  0.41800000000E+01 0.  1.
         -5    1    3    3    0  502 -0.13094098287E+02  0.50091093429E+02  0.54203995478E+02  0.75074087251E+02  0.41800000000E+01 0.  1.
        -11    1    1    2    0    0  0.45494640141E+02  0.23846591263E+02  0.90631874845E+02  0.10417561583E+03  0.00000000000E+00 0. -1.
         11    1    1    2    0    0 -0.15587107800E+02 -0.34953241509E+01 -0.13092562693E+02  0.20654065419E+02  0.00000000000E+00 0.  1.
</event>
<event>
 7    1  0.3107791E-009  0.1185443E+03  0.7561462E-02  0.1245518E+00
         -2   -1    0    0    0  501 -0.00000000000E+00  0.00000000000E+00  0.26622012214E+03  0.26622012214E+03  0.00000000000E+00 0. -1.
          2   -1    0    0  501    0  0.00000000000E+00 -0.00000000000E+00 -0.76353289649E+02  0.76353289649E+02  0.00000000000E+00 0.  1.
         25    2    1    2    0    0  0.83963659920E+02  0.28552601103E+02  0.74024139247E+02  0.17027352618E+03  0.12509337836E+03 0.  0.
          5    1    3    3  502    0  0.68354381278E+02 -0.14987008735E+02  0.96019079966E+02  0.11888678643E+03  0.41800000000E+01 0. -1.
         -5    1    3    3    0  502  0.15609278641E+02  0.43539609838E+02 -0.21994940719E+02  0.51386739747E+02  0.41800000000E+01 0. -1.
        -11    1    1    2    0    0 -0.62511575676E+02  0.21486131686E+02  0.90956197576E+02  0.11243834233E+03  0.00000000000E+00 0.  1.
         11    1    1    2    0    0 -0.21452084244E+02 -0.50038732789E+02  0.24886495669E+02  0.59861543283E+02  0.00000000000E+00 0. -1.
</event>
<event>
 7    1  0.2612321E-009  0.9007575E+02  0.7561462E-02  0.1302668E+00
         -1   -1    0    0    0  501 -0.00000000000E+00  0.00000000000E+00  0.15762079859E+02  0.15762079859E+02  0.00000000000E+00 0.  1.
          1   -1    0    0  501    0  0.00000000000E+00 -0.00000000000E+00 -0.79300735293E+03  0.79300735293E+03  0.00000000000E+00 0. -1.
         25    2    1    2    0    0  0.26834685573E+02 -0.22436435548E+01 -0.42197551692E+03  0.44094907178E+03  0.12509041826E+03 0.  0.
          5    1    3    3  502    0  0.54772889621E+02  0.65867962337E+01 -0.77595042911E+02  0.95299099715E+02  0.41800000000E+01 0. -1.
         -5    1    3    3    0  502 -0.27938204048E+02 -0.88304397885E+01 -0.34438047401E+03  0.34564997207E+03  0.41800000000E+01 0. -1.
        -11    1    1    2    0    0  0.34069343885E+02 -0.23594460875E+01 -0.12264472017E+03  0.12731070090E+03  0.00000000000E+00 0.  1.
         11    1    1    2    0    0 -0.60904029458E+02  0.46030896423E+01 -0.23262503598E+03  0.24050966010E+03  0.00000000000E+00 0. -1.
</event>
<event>
 7    1  0.2612321E-009  0.9595907E+02  0.7561462E-02  0.1289031E+00
         -1   -1    0    0    0  501 -0.00000000000E+00  0.00000000000E+00  0.11922511290E+03  0.11922511290E+03  0.00000000000E+00 0.  1.
          1   -1    0    0  501    0  0.00000000000E+00 -0.00000000000E+00 -0.14373832024E+03  0.14373832024E+03  0.00000000000E+00 0. -1.
         25    2    1    2    0    0  0.50110094892E+02 -0.48130418945E+02 -0.24445530208E+02  0.14515796306E+03  0.12508273843E+03 0.  0.
          5    1    3    3  502    0  0.35131724474E+01 -0.40154008355E+02 -0.69027391946E+02  0.80043363288E+02  0.41800000000E+01 0. -1.
         -5    1    3    3    0  502  0.46596922445E+02 -0.79764105899E+01  0.44581861739E+02  0.65114599771E+02  0.41800000000E+01 0. -1.
        -11    1    1    2    0    0 -0.54015063805E+02  0.66204738199E+02  0.22764418932E+02  0.88424619011E+02  0.00000000000E+00 0.  1.
         11    1    1    2    0    0  0.39049689128E+01 -0.18074319254E+02 -0.22832096068E+02  0.29380851069E+02  0.00000000000E+00 0. -1.
</event>
<event>
 7    1  0.2612321E-009  0.2105224E+03  0.7561462E-02  0.1141153E+00
         -1   -1    0    0    0  501 -0.00000000000E+00  0.00000000000E+00  0.72092569516E+03  0.72092569516E+03  0.00000000000E+00 0.  1.
          1   -1    0    0  501    0  0.00000000000E+00 -0.00000000000E+00 -0.71068819089E+02  0.71068819089E+02  0.00000000000E+00 0. -1.
         25    2    1    2    0    0  0.33956977405E+02  0.18937174196E+03  0.42662562870E+03  0.48443235770E+03  0.12510215485E+03 0.  0.
          5    1    3    3  502    0  0.74912672876E+02  0.91819879983E+02  0.27521072654E+03  0.29966850905E+03  0.41800000000E+01 0. -1.
         -5    1    3    3    0  502 -0.40955695471E+02  0.97551861978E+02  0.15141490217E+03  0.18476384864E+03  0.41800000000E+01 0. -1.
        -11    1    1    2    0    0 -0.28011392000E+02 -0.51824903670E+02  0.12576459902E+03  0.13887833916E+03  0.00000000000E+00 0. -1.
         11    1    1    2    0    0 -0.59455854048E+01 -0.13754683829E+03  0.97466648349E+02  0.16868381739E+03  0.00000000000E+00 0.  1.
</event>
<event>
 7    1  0.2612321E-009  0.1135365E+03  0.7561462E-02  0.1254158E+00
         -1   -1    0    0    0  501 -0.00000000000E+00  0.00000000000E+00  0.63972151466E+03  0.63972151466E+03  0.00000000000E+00 0.  1.
          1   -1    0    0  501    0  0.00000000000E+00 -0.00000000000E+00 -0.35216660710E+02  0.35216660710E+02  0.00000000000E+00 0. -1.
         25    2    1    2    0    0 -0.89687829770E+02  0.49644669652E+02  0.30770178469E+03  0.34761533122E+03  0.12509008819E+03 0.  0.
          5    1    3    3  502    0 -0.88337655434E+02  0.35238629551E+02  0.95378045600E+02  0.13475810314E+03  0.41800000000E+01 0.  1.
         -5    1    3    3    0  502 -0.13501743361E+01  0.14406040101E+02  0.21232373909E+03  0.21285722808E+03  0.41800000000E+01 0.  1.
        -11    1    1    2    0    0  0.93120911353E+02 -0.31435877638E+02  0.29211993172E+03  0.30821059852E+03  0.00000000000E+00 0.  1.
         11    1    1    2    0    0 -0.34330815829E+01 -0.18208792014E+02  0.46831375397E+01  0.19112245629E+02  0.00000000000E+00 0. -1.
</event>
<event>
 7    1  0.2612321E-009  0.1065981E+03  0.7561462E-02  0.1267002E+00
         -2   -1    0    0    0  501 -0.00000000000E+00  0.00000000000E+00  0.23809098143E+02  0.23809098143E+02  0.00000000000E+00 0.  1.
          2   -1    0    0  501    0  0.00000000000E+00 -0.00000000000E+00 -0.71680051423E+03  0.71680051423E+03  0.00000000000E+00 0. -1.
         25    2    1    2    0    0  0.39482597211E+02 -0.53471870230E+02 -0.29883443440E+03  0.33070719810E+03  0.12508842994E+03 0.  0.
          5    1    3    3  502    0  0.99405619670E+01  0.19364997593E+02 -0.50700720607E+00  0.22170867378E+02  0.41800000000E+01 0. -1.
         -5    1    3    3    0  502  0.29542035244E+02 -0.72836867823E+02 -0.29832742719E+03  0.30853633072E+03  0.41800000000E+01 0. -1.
        -11    1    1    2    0    0  0.27143935877E+02  0.32769342531E+02 -0.16127022999E+03  0.16678941856E+03  0.00000000000E+00 0. -1.
         11    1    1    2    0    0 -0.66626533088E+02  0.20702527699E+02 -0.23288675171E+03  0.24311299571E+03  0.00000000000E+00 0.  1.
</event>
<event>
 7    1  0.2612321E-009  0.6294163E+02  0.7561462E-02  0.1385886E+00
          1   -1    0    0  501    0  0.00000000000E+00  0.00000000000E+00  0.75370350133E+03  0.75370350133E+03  0.00000000000E+00 0. -1.
         -1   -1    0    0    0  501 -0.00000000000E+00 -0.00000000000E+00 -0.33000813079E+02  0.33000813079E+02  0.00000000000E+00 0.  1.
         25    2    1    2    0    0  0.20619182830E+02 -0.87532612706E+01  0.66916689390E+03  0.68112614636E+03  0.12508687014E+03 0.  0.
          5    1    3    3  502    0  0.11964356617E+02  0.10527881819E+02  0.65529593101E+03  0.65550302190E+03  0.41800000000E+01 0. -1.
         -5    1    3    3    0  502  0.86548262121E+01 -0.19281143089E+02  0.13870962893E+02  0.25623124461E+02  0.41800000000E+01 0. -1.
        -11    1    1    2    0    0 -0.43400042761E+02 -0.22738336142E+02  0.44277726917E+02  0.66038721543E+02  0.00000000000E+00 0.  1.
         11    1    1    2    0    0  0.22780859931E+02  0.31491597412E+02  0.72580674318E+01  0.39539446501E+02  0.00000000000E+00 0. -1.
</event>
<event>
 7    1  0.2612321E-009  0.9148912E+02  0.7561462E-02  0.1299285E+00
         -2   -1    0    0    0  501 -0.00000000000E+00  0.00000000000E+00  0.28916458569E+02  0.28916458569E+02  0.00000000000E+00 0.  1.
          2   -1    0    0  501    0  0.00000000000E+00 -0.00000000000E+00 -0.43406218385E+03  0.43406218385E+03  0.00000000000E+00 0. -1.
         25    2    1    2    0    0 -0.29592807254E+02  0.28658039664E+01 -0.26085974115E+03  0.29082608779E+03  0.12509221284E+03 0.  0.
          5    1    3    3  502    0  0.91381946929E+01 -0.35416926335E+02 -0.16335763640E+02  0.40276480072E+02  0.41800000000E+01 0. -1.
         -5    1    3    3    0  502 -0.38731001947E+02  0.38282730301E+02 -0.24452397751E+03  0.25054960772E+03  0.41800000000E+01 0. -1.
        -11    1    1    2    0    0  0.54079398396E+02 -0.24031928850E+02 -0.73849039204E+02  0.94635064994E+02  0.00000000000E+00 0. -1.
         11    1    1    2    0    0 -0.24486591142E+02  0.21166124883E+02 -0.70436944919E+02  0.77517489626E+02  0.00000000000E+00 0.  1.
</event>
<event>
 7    1  0.2612321E-009  0.1298687E+03  0.7561462E-02  0.1227651E+00
         -1   -1    0    0    0  501 -0.00000000000E+00  0.00000000000E+00  0.40933283754E+02  0.40933283754E+02  0.00000000000E+00 0.  1.
          1   -1    0    0  501    0  0.00000000000E+00 -0.00000000000E+00 -0.50569503074E+03  0.50569503074E+03  0.00000000000E+00 0. -1.
         25    2    1    2    0    0 -0.50310390227E+02  0.67926235688E+02 -0.33279568343E+03  0.36542024880E+03  0.12503552481E+03 0.  0.
          5    1    3    3  502    0 -0.63105637658E+02 -0.14719117192E+02 -0.11473548317E+03  0.13183579716E+03  0.41800000000E+01 0.  1.
         -5    1    3    3    0  502  0.12795247431E+02  0.82645352880E+02 -0.21806020027E+03  0.23358445164E+03  0.41800000000E+01 0.  1.
        -11    1    1    2    0    0 -0.17861300141E+02 -0.24204591429E+02 -0.78754117969E+02  0.84303614312E+02  0.00000000000E+00 0. -1.
         11    1    1    2    0    0  0.68171690369E+02 -0.43721644259E+02 -0.53211945587E+02  0.96904451382E+02  0.00000000000E+00 0.  1.
</event>
<event>
 7    1  0.2612321E-009  0.1068941E+03  0.7561462E-02  0.1266432E+00
         -1   -1    0    0    0  501 -0.00000000000E+00  0.00000000000E+00  0.48124959799E+02  0.48124959799E+02  0.00000000000E+00 0.  1.
          1   -1    0    0  501    0  0.00000000000E+00 -0.00000000000E+00 -0.33887308915E+03  0.33887308915E+03  0.00000000000E+00 0. -1.
         25    2    1    2    0    0 -0.42306102061E+02  0.45133243006E+01 -0.24247475499E+03  0.27613655490E+03  0.12508882355E+03 0.  0.
          5    1    3    3  502    0 -0.25932718974E+00 -0.52385857816E+02 -0.15433341397E+03  0.16303564155E+03  0.41800000000E+01 0.  1.
         -5    1    3    3    0  502 -0.42046774871E+02  0.56899182117E+02 -0.88141341023E+02  0.11310091335E+03  0.41800000000E+01 0.  1.
        -11    1    1    2    0    0 -0.73710392983E+01 -0.32513065442E+02  0.39066088526E+01  0.33566251466E+02  0.00000000000E+00 0.  1.
         11    1    1    2    0    0  0.49677141359E+02  0.27999741141E+02 -0.52179983212E+02  0.77295242581E+02  0.00000000000E+00 0. -1.
</event>
<event>
 7    1  0.2612321E-009  0.2983284E+03  0.7561462E-02  0.1086079E+00
          1   -1    0    0  501    0  0.00000000000E+00  0.00000000000E+00  0.20784929889E+04  0.20784929889E+04  0.00000000000E+00 0. -1.
         -1   -1    0    0    0  501 -0.00000000000E+00 -0.00000000000E+00 -0.45743044446E+02  0.45743044446E+02  0.00000000000E+00 0.  1.
         25    2    1    2    0    0 -0.27326614943E+03  0.82497484401E+02  0.89760378219E+03  0.95016800891E+03  0.12508585856E+03 0.  0.
          5    1    3    3  502    0  0.46205122629E+01  0.26287555069E+02  0.10321806635E+03  0.10669501537E+03  0.41800000000E+01 0.  1.
         -5    1    3    3    0  502 -0.27788666169E+03  0.56209929332E+02  0.79438571584E+03  0.84347299354E+03  0.41800000000E+01 0.  1.
        -11    1    1    2    0    0  0.22826753747E+03 -0.61307054422E+02  0.10420395519E+04  0.10685087980E+04  0.00000000000E+00 0. -1.
         11    1    1    2    0    0  0.44998611956E+02 -0.21190429979E+02  0.93106610381E+02  0.10555922649E+03  0.00000000000E+00 0.  1.
</event>
<event>
 7    1  0.2612321E-009  0.1670871E+03  0.7561462E-02  0.1180920E+00
         -3   -1    0    0    0  501 -0.00000000000E+00  0.00000000000E+00  0.38850876983E+03  0.38850876983E+03  0.00000000000E+00 0.  1.
          3   -1    0    0  501    0  0.00000000000E+00 -0.00000000000E+00 -0.94980877500E+02  0.94980877500E+02  0.00000000000E+00 0. -1.
         25    2    1    2    0    0 -0.13567750377E+03  0.14873163729E+02  0.52878151468E+02  0.19254777115E+03  0.12509576029E+03 0.  0.
          5    1    3    3  502    0 -0.12338134453E+03 -0.30817775434E+02  0.84710655709E+01  0.12752224438E+03  0.41800000000E+01 0. -1.
         -5    1    3    3    0  502 -0.12296159245E+02  0.45690939163E+02  0.44407085897E+02  0.65025526770E+02  0.41800000000E+01 0. -1.
        -11    1    1    2    0    0  0.10272048760E+03 -0.47398506480E+02  0.13881815319E+03  0.17907706901E+03  0.00000000000E+00 0.  1.
         11    1    1    2    0    0  0.32957016173E+02  0.32525342751E+02  0.10183158767E+03  0.11186480717E+03  0.00000000000E+00 0. -1.
</event>
<event>
 7    1  0.2612321E-009  0.8323201E+02  0.7561462E-02  0.1320122E+00
         -2   -1    0    0    0  501 -0.00000000000E+00  0.00000000000E+00  0.33089034149E+02  0.33089034149E+02  0.00000000000E+00 0.  1.
          2   -1    0    0  501    0  0.00000000000E+00 -0.00000000000E+00 -0.46978258584E+03  0.46978258584E+03  0.00000000000E+00 0. -1.
         25    2    1    2    0    0 -0.32012289217E+02  0.17485050136E+01 -0.13699199370E+03  0.18825912578E+03  0.12508736216E+03 0.  0.
          5    1    3    3  502    0 -0.26663029871E+02 -0.29796974717E+02 -0.14861899485E+03  0.15396056279E+03  0.41800000000E+01 0. -1.
         -5    1    3    3    0  502 -0.53492593452E+01  0.31545479730E+02  0.11627001157E+02  0.34298562985E+02  0.41800000000E+01 0. -1.
        -11    1    1    2    0    0 -0.30227402777E+02  0.73087680624E+01 -0.12891310955E+03  0.13261109978E+03  0.00000000000E+00 0. -1.
         11    1    1    2    0    0  0.62239691994E+02 -0.90572730760E+01 -0.17078844844E+03  0.18200139444E+03  0.00000000000E+00 0.  1.
</event>
<event>
 7    1  0.2612321E-009  0.1957000E+03  0.7561462E-02  0.1153419E+00
         -2   -1    0    0    0  501 -0.00000000000E+00  0.00000000000E+00  0.74815237221E+02  0.74815237221E+02  0.00000000000E+00 0.  1.
          2   -1    0    0  501    0  0.00000000000E+00 -0.00000000000E+00 -0.85989898182E+03  0.85989898182E+03  0.00000000000E+00 0. -1.
         25    2    1    2    0    0  0.16796120844E+03  0.75829916844E+02 -0.15334426003E+03  0.27041267715E+03  0.12508960807E+03 0.  0.
          5    1    3    3  502    0  0.49296189188E+02  0.10982352608E+02 -0.12117925089E+03  0.13134918951E+03  0.41800000000E+01 0.  1.
         -5    1    3    3    0  502  0.11866501926E+03  0.64847564236E+02 -0.32165009140E+02  0.13906348764E+03  0.41800000000E+01 0.  1.
        -11    1    1    2    0    0 -0.38350127895E+02 -0.64867726984E+02 -0.23254769433E+03  0.24445241757E+03  0.00000000000E+00 0. -1.
         11    1    1    2    0    0 -0.12961108055E+03 -0.10962189860E+02 -0.39919179023E+03  0.41984912432E+03  0.00000000000E+00 0.  1.
</event>
<event>
 7    1  0.2612321E-009  0.1284696E+03  0.7561462E-02  0.1229744E+00
          2   -1    0    0  501    0  0.00000000000E+00  0.00000000000E+00  0.81650210958E+02  0.81650210958E+02  0.00000000000E+00 0. -1.
         -2   -1    0    0    0  501 -0.00000000000E+00 -0.00000000000E+00 -0.20787103990E+03  0.20787103990E+03  0.00000000000E+00 0.  1.
         25    2    1    2    0    0 -0.66565989356E+02  0.19862627350E+02 -0.52515614984E+02  0.15241924875E+03  0.12509269630E+03 0.  0.
          5    1    3    3  502    0 -0.65101987031E+02 -0.43119175331E+02 -0.40806631892E+02  0.88205360398E+02  0.41800000000E+01 0. -1.
         -5    1    3    3    0  502 -0.14640023248E+01  0.62981802681E+02 -0.11708983092E+02  0.64213888348E+02  0.41800000000E+01 0. -1.
        -11    1    1    2    0    0  0.85834397391E+02  0.27705820479E+01 -0.54444448492E+02  0.10168292812E+03  0.00000000000E+00 0.  1.
         11    1    1    2    0    0 -0.19268408035E+02 -0.22633209397E+02 -0.19260765469E+02  0.35419073990E+02  0.00000000000E+00 0. -1.
</event>
<event>
 7    1  0.2612321E-009  0.2301296E+03  0.7561462E-02  0.1126549E+00
         -3   -1    0    0    0  501 -0.00000000000E+00  0.00000000000E+00  0.66730299308E+02  0.66730299308E+02  0.00000000000E+00 0.  1.
          3   -1    0    0  501    0  0.00000000000E+00 -0.00000000000E+00 -0.10636662317E+04  0.10636662317E+04  0.00000000000E+00 0. -1.
         25    2    1    2    0    0  0.22271212613E+03 -0.23296285622E+02 -0.71235854425E+03  0.75712864440E+03  0.12508269491E+03 0.  0.
          5    1    3    3  502    0  0.34738745236E+02  0.14704321956E+02 -0.30168956133E+02  0.48483356102E+02  0.41800000000E+01 0. -1.
         -5    1    3    3    0  502  0.18797338089E+03 -0.38000607577E+02 -0.68218958812E+03  0.70864528830E+03  0.41800000000E+01 0. -1.
        -11    1    1    2    0    0 -0.18016613734E+03 -0.35051466854E+01 -0.16824436773E+03  0.24653253410E+03  0.00000000000E+00 0.  1.
         11    1    1    2    0    0 -0.42545988784E+02  0.26801432307E+02 -0.11633302045E+03  0.12673535254E+03  0.00000000000E+00 0. -1.
</event>
<event>
 7    1  0.2612321E-009  0.1529696E+03  0.7561462E-02  0.1196871E+00
         -4   -1    0    0    0  501 -0.00000000000E+00  0.00000000000E+00  0.19572325370E+03  0.19572325370E+03  0.00000000000E+00 0.  1.
          4   -1    0    0  501    0  0.00000000000E+00 -0.00000000000E+00 -0.12933414162E+03  0.12933414162E+03  0.00000000000E+00 0. -1.
         25    2    1    2    0    0 -0.11647751328E+03 -0.79123673630E+01  0.56052384664E+02  0.18005377128E+03  0.12509146281E+03 0.  0.
          5    1    3    3  502    0  0.22842557261E+02 -0.11274759345E+02  0.27536257689E+02  0.37744145347E+02  0.41800000000E+01 0. -1.
         -5    1    3    3    0  502 -0.13932007054E+03  0.33623919816E+01  0.28516126975E+02  0.14230962593E+03  0.41800000000E+01 0. -1.
        -11    1    1    2    0    0  0.91025660140E+02 -0.29293586960E+02 -0.88083563294E+01  0.96027976039E+02  0.00000000000E+00 0. -1.
         11    1    1    2    0    0  0.25451853140E+02  0.37205954323E+02  0.19145083750E+02  0.48975648001E+02  0.00000000000E+00 0.  1.
</event>
<event>
 7    1  0.2612321E-009  0.1689038E+03  0.7561462E-02  0.1178996E+00
          3   -1    0    0  501    0  0.00000000000E+00  0.00000000000E+00  0.91871117059E+02  0.91871117059E+02  0.00000000000E+00 0. -1.
         -3   -1    0    0    0  501 -0.00000000000E+00 -0.00000000000E+00 -0.37913176013E+03  0.37913176013E+03  0.00000000000E+00 0.  1.
         25    2    1    2    0    0 -0.46323429514E+02 -0.12695826738E+03 -0.23591718003E+03  0.29928096060E+03  0.12509162947E+03 0.  0.
          5    1    3    3  502    0 -0.71091753052E+02 -0.36427293799E+02 -0.15850746500E+03  0.17754738507E+03  0.41800000000E+01 0. -1.
         -5    1    3    3    0  502  0.24768323538E+02 -0.90530973581E+02 -0.77409715036E+02  0.12173357553E+03  0.41800000000E+01 0. -1.
        -11    1    1    2    0    0 -0.83346009778E+01  0.10440616753E+03 -0.32614855874E+02  0.10969887062E+03  0.00000000000E+00 0.  1.
         11    1    1    2    0    0  0.54658030492E+02  0.22552099846E+02 -0.18728607163E+02  0.62023045967E+02  0.00000000000E+00 0. -1.
</event>
<event>
 7    1  0.2612321E-009  0.1106622E+03  0.7561462E-02  0.1259349E+00
         -2   -1    0    0    0  501 -0.00000000000E+00  0.00000000000E+00  0.26279792809E+02  0.26279792809E+02  0.00000000000E+00 0. -1.
          2   -1    0    0  501    0  0.00000000000E+00 -0.00000000000E+00 -0.61247245216E+03  0.61247245216E+03  0.00000000000E+00 0.  1.
         25    2    1    2    0    0  0.39391520323E+02 -0.11193129232E+00 -0.45276249405E+03  0.47137725890E+03  0.12510371610E+03 0.  0.
          5    1    3    3  502    0  0.78077112992E+02  0.23055014416E+02 -0.22894461376E+03  0.24302402728E+03  0.41800000000E+01 0.  1.
         -5    1    3    3    0  502 -0.38685592669E+02 -0.23166945708E+02 -0.22381788029E+03  0.22835323162E+03  0.41800000000E+01 0.  1.
        -11    1    1    2    0    0 -0.23932692319E+02  0.42846384134E+02 -0.39389347143E+02  0.62929381559E+02  0.00000000000E+00 0. -1.
         11    1    1    2    0    0 -0.15458828004E+02 -0.42734452842E+02 -0.94040818159E+02  0.10444560452E+03  0.00000000000E+00 0.  1.
</event>
<event>
 7    1  0.2612321E-009  0.1501879E+03  0.7561462E-02  0.1200242E+00
         -2   -1    0    0    0  501 -0.00000000000E+00  0.00000000000E+00  0.57927676862E+02  0.57927676862E+02  0.00000000000E+00 0.  1.
          2   -1    0    0  501    0  0.00000000000E+00 -0.00000000000E+00 -0.42177695648E+03  0.42177695648E+03  0.00000000000E+00 0. -1.
         25    2    1    2    0    0 -0.76217996566E+02  0.76581746193E+02 -0.23735304203E+03  0.28923734790E+03  0.12509128669E+03 0.  0.
          5    1    3    3  502    0 -0.96107485521E+02  0.94927819098E+02 -0.17479078048E+03  0.22094621280E+03  0.41800000000E+01 0.  1.
         -5    1    3    3    0  502  0.19889488955E+02 -0.18346072904E+02 -0.62562261556E+02  0.68291135097E+02  0.41800000000E+01 0.  1.
        -11    1    1    2    0    0 -0.49454386641E+01 -0.53134671790E+02 -0.73169514347E+02  0.90562290936E+02  0.00000000000E+00 0.  1.
         11    1    1    2    0    0  0.81163435230E+02 -0.23447074403E+02 -0.53326723241E+02  0.99904994510E+02  0.00000000000E+00 0. -1.
</event>
<event>
 7    1  0.2612321E-009  0.1419236E+03  0.7561462E-02  0.1210764E+00
          2   -1    0    0  501    0  0.00000000000E+00  0.00000000000E+00  0.29848752271E+03  0.29848752271E+03  0.00000000000E+00 0. -1.
         -2   -1    0    0    0  501 -0.00000000000E+00 -0.00000000000E+00 -0.12849214948E+03  0.12849214948E+03  0.00000000000E+00 0.  1.
         25    2    1    2    0    0 -0.77779034351E+02  0.66751642875E+02  0.22961774550E+03  0.28085079380E+03  0.12508996491E+03 0.  0.
          5    1    3    3  502    0 -0.85446894079E+02 -0.40431911688E+01  0.91046893333E+02  0.12499811314E+03  0.41800000000E+01 0.  1.
         -5    1    3    3    0  502  0.76678597279E+01  0.70794834043E+02  0.13857085216E+03  0.15585268066E+03  0.41800000000E+01 0.  1.
        -11    1    1    2    0    0  0.60949935609E+02 -0.30960054729E+01 -0.62056075295E+01  0.61343210427E+02  0.00000000000E+00 0. -1.
         11    1    1    2    0    0  0.16829098742E+02 -0.63655637402E+02 -0.53416764733E+02  0.84785667964E+02  0.00000000000E+00 0.  1.
</event>
<event>
 7    1  0.2612321E-009  0.1012844E+03  0.7561462E-02  0.1277618E+00
         -3   -1    0    0    0  501 -0.00000000000E+00  0.00000000000E+00  0.15551338865E+03  0.15551338865E+03  0.00000000000E+00 0.  1.
          3   -1    0    0  501    0  0.00000000000E+00 -0.00000000000E+00 -0.81133775787E+02  0.81133775787E+02  0.00000000000E+00 0. -1.
         25    2    1    2    0    0  0.84414925127E+01  0.18976724117E+02  0.22274350432E+02  0.12874240597E+03  0.12508831102E+03 0.  0.
          5    1    3    3  502    0  0.61259066619E+02 -0.76604733266E+01  0.30303593796E+02  0.68899465103E+02  0.41800000000E+01 0.  1.
         -5    1    3    3    0  502 -0.52817574106E+02  0.26637197444E+02 -0.80292433640E+01  0.59842940862E+02  0.41800000000E+01 0.  1.
        -11    1    1    2    0    0  0.40112704777E+01  0.30299617978E+02  0.48011724937E+02  0.56914698206E+02  0.00000000000E+00 0.  1.
         11    1    1    2    0    0 -0.12452762990E+02 -0.49276342095E+02  0.40935374905E+01  0.50990060262E+02  0.00000000000E+00 0. -1.
</event>
<event>
 7    1  0.2612321E-009  0.1183211E+03  0.7561462E-02  0.1245893E+00
         -2   -1    0    0    0  501 -0.00000000000E+00  0.00000000000E+00  0.56300222656E+02  0.56300222656E+02  0.00000000000E+00 0.  1.
          2   -1    0    0  501    0  0.00000000000E+00 -0.00000000000E+00 -0.25840278245E+03  0.25840278245E+03  0.00000000000E+00 0. -1.
         25    2    1    2    0    0 -0.33423526979E+02 -0.35529779763E+02 -0.10338987896E+03  0.16945539062E+03  0.12508463109E+03 0.  0.
          5    1    3    3  502    0 -0.20317523298E+02  0.45857425808E+02 -0.27626482265E+02  0.57414285479E+02  0.41800000000E+01 0.  1.
         -5    1    3    3    0  502 -0.13106003681E+02 -0.81387205571E+02 -0.75763396693E+02  0.11204110514E+03  0.41800000000E+01 0.  1.
        -11    1    1    2    0    0  0.63917610072E+02  0.35828227030E+02 -0.83747880970E+02  0.11127816631E+03  0.00000000000E+00 0. -1.
         11    1    1    2    0    0 -0.30494083093E+02 -0.29844726741E+00 -0.14964799862E+02  0.33969448176E+02  0.00000000000E+00 0.  1.
</event>
<event>
 7    1  0.2612321E-009  0.1119172E+03  0.7561462E-02  0.1257060E+00
          2   -1    0    0  501    0  0.00000000000E+00  0.00000000000E+00  0.94608746137E+02  0.94608746137E+02  0.00000000000E+00 0. -1.
         -2   -1    0    0    0  501 -0.00000000000E+00 -0.00000000000E+00 -0.15611071504E+03  0.15611071504E+03  0.00000000000E+00 0.  1.
         25    2    1    2    0    0  0.33230716017E+02 -0.37964275061E+02 -0.13649199322E+02  0.13556826399E+03  0.12508751693E+03 0.  0.
          5    1    3    3  502    0 -0.76197702262E+01 -0.76061565673E+02 -0.20187285401E+02  0.79173363973E+02  0.41800000000E+01 0.  1.
         -5    1    3    3    0  502  0.40850486243E+02  0.38097290612E+02  0.65380860789E+01  0.56394900016E+02  0.41800000000E+01 0.  1.
        -11    1    1    2    0    0  0.93875836099E+01  0.46805391970E+02  0.34622223521E+01  0.47862912856E+02  0.00000000000E+00 0. -1.
         11    1    1    2    0    0 -0.42618299627E+02 -0.88411169087E+01 -0.51314991935E+02  0.67288284334E+02  0.00000000000E+00 0.  1.
</event>
<event>
 7    1  0.2612321E-009  0.9826991E+02  0.7561462E-02  0.1283977E+00
          3   -1    0    0  501    0  0.00000000000E+00  0.00000000000E+00  0.31162389683E+03  0.31162389683E+03  0.00000000000E+00 0. -1.
         -3   -1    0    0    0  501 -0.00000000000E+00 -0.00000000000E+00 -0.73096552837E+02  0.73096552837E+02  0.00000000000E+00 0.  1.
         25    2    1    2    0    0  0.34120033981E+02 -0.30575579397E+02  0.10142654071E+02  0.13360582087E+03  0.12509436104E+03 0.  0.
          5    1    3    3  502    0 -0.15580831459E+02 -0.51151688177E+02 -0.34333827343E+02  0.63683134441E+02  0.41800000000E+01 0. -1.
         -5    1    3    3    0  502  0.49700865440E+02  0.20576108779E+02  0.44476481413E+02  0.69922686425E+02  0.41800000000E+01 0. -1.
        -11    1    1    2    0    0  0.27808141032E+00 -0.24237055291E+02  0.13705979513E+03  0.13918656408E+03  0.00000000000E+00 0. -1.
         11    1    1    2    0    0 -0.34398115391E+02  0.54812634688E+02  0.91324894791E+02  0.11192806472E+03  0.00000000000E+00 0.  1.
</event>
<event>
 7    1  0.2612321E-009  0.1439185E+03  0.7561462E-02  0.1208151E+00
         -2   -1    0    0    0  501 -0.00000000000E+00  0.00000000000E+00  0.13256558569E+03  0.13256558569E+03  0.00000000000E+00 0.  1.
          2   -1    0    0  501    0  0.00000000000E+00 -0.00000000000E+00 -0.18006507249E+03  0.18006507249E+03  0.00000000000E+00 0. -1.
         25    2    1    2    0    0 -0.68945550067E+02  0.84662335290E+02 -0.11075443388E+02  0.16640854988E+03  0.12509172689E+03 0.  0.
          5    1    3    3  502    0 -0.90309738454E+02  0.32233925772E+02 -0.38435882258E+02  0.10339083265E+03  0.41800000000E+01 0. -1.
         -5    1    3    3    0  502  0.21364188387E+02  0.52428409518E+02  0.27360438869E+02  0.63017717232E+02  0.41800000000E+01 0. -1.
        -11    1    1    2    0    0  0.81322729057E+02 -0.43750016832E+02 -0.44844387486E+02  0.10265704712E+03  0.00000000000E+00 0. -1.
         11    1    1    2    0    0 -0.12377178990E+02 -0.40912318458E+02  0.84203440812E+01  0.43565061183E+02  0.00000000000E+00 0.  1.
</event>
<event>
 7    1  0.2612321E-009  0.1040202E+03  0.7561462E-02  0.1272062E+00
         -3   -1    0    0    0  501 -0.00000000000E+00  0.00000000000E+00  0.59393326830E+03  0.59393326830E+03  0.00000000000E+00 0.  1.
          3   -1    0    0  501    0  0.00000000000E+00 -0.00000000000E+00 -0.25171789412E+02  0.25171789412E+02  0.00000000000E+00 0. -1.
         25    2    1    2    0    0  0.21982132305E+02 -0.24943589293E+02  0.40892894222E+03  0.42892261471E+03  0.12508530226E+03 0.  0.
          5    1    3    3  502    0  0.58411315362E+02 -0.39800996560E+02  0.35525724883E+03  0.36224464984E+03  0.41800000000E+01 0.  1.
         -5    1    3    3    0  502 -0.36429183056E+02  0.14857407267E+02  0.53671693390E+02  0.66677964877E+02  0.41800000000E+01 0.  1.
        -11    1    1    2    0    0  0.17493407894E+02 -0.27157232851E+02  0.84385042883E+02  0.90356903877E+02  0.00000000000E+00 0.  1.
         11    1    1    2    0    0 -0.39475540200E+02  0.52100822144E+02  0.75447493784E+02  0.99825539119E+02  0.00000000000E+00 0. -1.
</event>
<event>
 7    1  0.2612321E-009  0.1208385E+03  0.7561462E-02  0.1241720E+00
         -1   -1    0    0    0  501 -0.00000000000E+00  0.00000000000E+00  0.20911818933E+03  0.20911818933E+03  0.00000000000E+00 0.  1.
          1   -1    0    0  501    0  0.00000000000E+00 -0.00000000000E+00 -0.84098039413E+02  0.84098039413E+02  0.00000000000E+00 0. -1.
         25    2    1    2    0    0  0.21022191541E+01  0.73958284574E+02  0.84027001576E+02  0.16787467475E+03  0.12508845768E+03 0.  0.
          5    1    3    3  502    0  0.18361299874E+02 -0.20737964734E+02 -0.13333428542E+02  0.31023430356E+02  0.41800000000E+01 0.  1.
         -5    1    3    3    0  502 -0.16259080720E+02  0.94696249307E+02  0.97360430118E+02  0.13685124439E+03  0.41800000000E+01 0.  1.
        -11    1    1    2    0    0 -0.46010863913E+02 -0.27665481553E+02  0.10840921353E+02  0.54771379783E+02  0.00000000000E+00 0.  1.
         11    1    1    2    0    0  0.43908644759E+02 -0.46292803020E+02  0.30152226990E+02  0.70570174213E+02  0.00000000000E+00 0. -1.
</event>
<event>
 7    1  0.2612321E-009  0.1870552E+03  0.7561462E-02  0.1161144E+00
         -1   -1    0    0    0  501 -0.00000000000E+00  0.00000000000E+00  0.86408272860E+03  0.86408272860E+03  0.00000000000E+00 0.  1.
          1   -1    0    0  501    0  0.00000000000E+00 -0.00000000000E+00 -0.43473560811E+02  0.43473560811E+02  0.00000000000E+00 0. -1.
         25    2    1    2    0    0  0.89394810085E+02 -0.12151532148E+03  0.32439166361E+03  0.37899265897E+03  0.12509228079E+03 0.  0.
          5    1    3    3  502    0  0.85940947067E+02 -0.17103473698E+02  0.11204481044E+03  0.14230209817E+03  0.41800000000E+01 0.  1.
         -5    1    3    3    0  502  0.34538630182E+01 -0.10441184778E+03  0.21234685317E+03  0.23669056081E+03  0.41800000000E+01 0.  1.
        -11    1    1    2    0    0 -0.10761286523E+03  0.73074379534E+02  0.34263767881E+03  0.36649825736E+03  0.00000000000E+00 0.  1.
         11    1    1    2    0    0  0.18218055142E+02  0.48440941945E+02  0.15357982537E+03  0.16206537308E+03  0.00000000000E+00 0. -1.
</event>
<event>
 7    1  0.2774623E-009  0.7263015E+02  0.7561462E-02  0.1351371E+00
          2   -1    0    0  501    0  0.00000000000E+00  0.00000000000E+00  0.37179809524E+03  0.37179809524E+03  0.00000000000E+00 0.  1.
         -2   -1    0    0    0  501 -0.00000000000E+00 -0.00000000000E+00 -0.35251194883E+02  0.35251194883E+02  0.00000000000E+00 0. -1.
         25    2    1    2    0    0  0.29424461009E+02  0.14777538519E+02  0.16131929648E+03  0.20677551131E+03  0.12509205454E+03 0.  0.
          5    1    3    3  502    0 -0.18236566437E+01  0.28244139258E+02 -0.11317975331E+02  0.30767289311E+02  0.41800000000E+01 0.  1.
         -5    1    3    3    0  502  0.31248117653E+02 -0.13466600738E+02  0.17263727181E+03  0.17600822200E+03  0.41800000000E+01 0.  1.
        -11    1    1    2    0    0  0.60908365281E+01 -0.38939589816E+02  0.13771707974E+03  0.14324588649E+03  0.00000000000E+00 0.  1.
         11    1    1    2    0    0 -0.35515297537E+02  0.24162051297E+02  0.37510524144E+02  0.57027892330E+02  0.00000000000E+00 0. -1.
</event>
<event>
 7    1  0.2612321E-009  0.1653487E+03  0.7561462E-02  0.1182787E+00
          2   -1    0    0  501    0  0.00000000000E+00  0.00000000000E+00  0.70432781283E+03  0.70432781283E+03  0.00000000000E+00 0. -1.
         -2   -1    0    0    0  501 -0.00000000000E+00 -0.00000000000E+00 -0.46657466990E+02  0.46657466990E+02  0.00000000000E+00 0.  1.
         25    2    1    2    0    0  0.11425023366E+03  0.88392350069E+02  0.34251830014E+03  0.39221629509E+03  0.12509401568E+03 0.  0.
          5    1    3    3  502    0  0.10857417633E+03  0.99522047238E+02  0.19650987463E+03  0.24561472447E+03  0.41800000000E+01 0. -1.
         -5    1    3    3    0  502  0.56760573362E+01 -0.11129697169E+02  0.14600842551E+03  0.14660157062E+03  0.41800000000E+01 0. -1.
        -11    1    1    2    0    0  0.58031778917E+01 -0.40518191954E+02  0.95682221716E+02  0.10406963200E+03  0.00000000000E+00 0. -1.
         11    1    1    2    0    0 -0.12005341156E+03 -0.47874158115E+02  0.21946982398E+03  0.25469935273E+03  0.00000000000E+00 0.  1.
</event>
<event>
 7    1  0.2612321E-009  0.1378397E+03  0.7561462E-02  0.1216266E+00
          2   -1    0    0  501    0  0.00000000000E+00  0.00000000000E+00  0.72261714353E+03  0.72261714353E+03  0.00000000000E+00 0.  1.
         -2   -1    0    0    0  501 -0.00000000000E+00 -0.00000000000E+00 -0.39136594417E+02  0.39136594417E+02  0.00000000000E+00 0. -1.
         25    2    1    2    0    0  0.90855545647E+02 -0.28013343917E+02  0.55602543108E+03  0.57779894858E+03  0.12509143598E+03 0.  0.
          5    1    3    3  502    0  0.20336936372E+02  0.48637252094E+02  0.18765080822E+03  0.19496017926E+03  0.41800000000E+01 0.  1.
         -5    1    3    3    0  502  0.70518609275E+02 -0.76650596010E+02  0.36837462287E+03  0.38283876932E+03  0.41800000000E+01 0.  1.
        -11    1    1    2    0    0  0.59425890972E+01 -0.12331096199E+02  0.54530883745E+02  0.56222660740E+02  0.00000000000E+00 0.  1.
         11    1    1    2    0    0 -0.96798134744E+02  0.40344440116E+02  0.72924234289E+02  0.12773212863E+03  0.00000000000E+00 0. -1.
</event>
<event>
 7    1  0.2612321E-009  0.1018445E+03  0.7561462E-02  0.1276464E+00
          1   -1    0    0  501    0  0.00000000000E+00  0.00000000000E+00  0.26148535537E+03  0.26148535537E+03  0.00000000000E+00 0. -1.
         -1   -1    0    0    0  501 -0.00000000000E+00 -0.00000000000E+00 -0.65784094117E+02  0.65784094117E+02  0.00000000000E+00 0.  1.
         25    2    1    2    0    0  0.16060710080E+02  0.66165513809E+02  0.14000283270E+03  0.19970898899E+03  0.12508823083E+03 0.  0.
          5    1    3    3  502    0  0.71430488325E+01 -0.14408914562E+02 -0.16493666683E+02  0.23412676184E+02  0.41800000000E+01 0. -1.
         -5    1    3    3    0  502  0.89176612471E+01  0.80574428371E+02  0.15649649938E+03  0.17629631280E+03  0.41800000000E+01 0. -1.
        -11    1    1    2    0    0  0.33021240295E+02 -0.20558738572E+02  0.45381350961E+02  0.59770653814E+02  0.00000000000E+00 0.  1.
         11    1    1    2    0    0 -0.49081950374E+02 -0.45606775237E+02  0.10317077591E+02  0.67789806683E+02  0.00000000000E+00 0. -1.
</event>
<event>
 7    1  0.2612321E-009  0.1399065E+03  0.7561462E-02  0.1213455E+00
         -2   -1    0    0    0  501 -0.00000000000E+00  0.00000000000E+00  0.28065755285E+02  0.28065755285E+02  0.00000000000E+00 0.  1.
          2   -1    0    0  501    0  0.00000000000E+00 -0.00000000000E+00 -0.98565121615E+03  0.98565121615E+03  0.00000000000E+00 0. -1.
         25    2    1    2    0    0 -0.12206857737E+03  0.22790528894E+02 -0.45829553406E+03  0.49102128964E+03  0.12508782733E+03 0.  0.
          5    1    3    3  502    0 -0.10918439484E+03  0.35055280482E+02 -0.45860761863E+03  0.47274572979E+03  0.41800000000E+01 0. -1.
         -5    1    3    3    0  502 -0.12884182531E+02 -0.12264751588E+02  0.31208457018E+00  0.18275559848E+02  0.41800000000E+01 0. -1.
        -11    1    1    2    0    0  0.41789761280E+02 -0.47046800562E+02 -0.13601248853E+03  0.14986388033E+03  0.00000000000E+00 0.  1.
         11    1    1    2    0    0  0.80278816092E+02  0.24256271668E+02 -0.36327743827E+03  0.37283180147E+03  0.00000000000E+00 0. -1.
</event>
<event>
 7    1  0.2612321E-009  0.1311531E+03  0.7561462E-02  0.1225755E+00
         -1   -1    0    0    0  501 -0.00000000000E+00  0.00000000000E+00  0.40427630134E+03  0.40427630134E+03  0.00000000000E+00 0.  1.
          1   -1    0    0  501    0  0.00000000000E+00 -0.00000000000E+00 -0.97289345099E+02  0.97289345099E+02  0.00000000000E+00 0. -1.
         25    2    1    2    0    0  0.53917210138E+02 -0.60942847128E+02 -0.21817270249E+02  0.15080956523E+03  0.12508571269E+03 0.  0.
          5    1    3    3  502    0 -0.32453456303E+02 -0.40580050685E+02 -0.32348819395E+02  0.61350516345E+02  0.41800000000E+01 0. -1.
         -5    1    3    3    0  502  0.86370666441E+02 -0.20362796444E+02  0.10531549146E+02  0.89459048888E+02  0.41800000000E+01 0. -1.
        -11    1    1    2    0    0 -0.75479687857E+02  0.25159774547E+02  0.23395743611E+03  0.24711592309E+03  0.00000000000E+00 0.  1.
         11    1    1    2    0    0  0.21562477719E+02  0.35783072582E+02  0.94846790375E+02  0.10364015811E+03  0.00000000000E+00 0. -1.
</event>
<event>
 7    1  0.2612321E-009  0.1591170E+03  0.7561462E-02  0.1189697E+00
         -2   -1    0    0    0  501 -0.00000000000E+00  0.00000000000E+00  0.27103584800E+02  0.27103584800E+02  0.00000000000E+00 0.  1.
          2   -1    0    0  501    0  0.00000000000E+00 -0.00000000000E+00 -0.97829990265E+03  0.97829990265E+03  0.00000000000E+00 0. -1.
         25    2    1    2    0    0 -0.25063500811E+02  0.11450801493E+03 -0.59385279846E+03  0.61810106262E+03  0.12509001887E+03 0.  0.
          5    1    3    3  502    0  0.46786675248E+02  0.16534909551E+02 -0.16506118736E+03  0.17240958264E+03  0.41800000000E+01 0.  1.
         -5    1    3    3    0  502 -0.71850176059E+02  0.97973105377E+02 -0.42879161110E+03  0.44569147998E+03  0.41800000000E+01 0.  1.
        -11    1    1    2    0    0  0.55984465658E+02 -0.95117898198E+02 -0.29618833940E+03  0.31608417763E+03  0.00000000000E+00 0. -1.
         11    1    1    2    0    0 -0.30920964848E+02 -0.19390116729E+02 -0.61155179990E+02  0.71218247195E+02  0.00000000000E+00 0.  1.
</event>
<event>
 7    1  0.2612321E-009  0.1253378E+03  0.7561462E-02  0.1234542E+00
          1   -1    0    0  501    0  0.00000000000E+00  0.00000000000E+00  0.31625638417E+03  0.31625638417E+03  0.00000000000E+00 0. -1.
         -1   -1    0    0    0  501 -0.00000000000E+00 -0.00000000000E+00 -0.68707058436E+02  0.68707058436E+02  0.00000000000E+00 0.  1.
         25    2    1    2    0    0  0.27792229830E+02 -0.90707388960E+02  0.10894035224E+03  0.19108920389E+03  0.12508734967E+03 0.  0.
          5    1    3    3  502    0  0.24559855658E+02 -0.12153138244E+03  0.75137948205E+02  0.14503877788E+03  0.41800000000E+01 0.  1.
         -5    1    3    3    0  502  0.32323741722E+01  0.30823993485E+02  0.33802404032E+02  0.46050426008E+02  0.41800000000E+01 0.  1.
        -11    1    1    2    0    0 -0.34624720804E+01  0.25703106069E+02 -0.11594891853E+02  0.28409151546E+02  0.00000000000E+00 0.  1.
         11    1    1    2    0    0 -0.24329757750E+02  0.65004282891E+02  0.15020386535E+03  0.16546508717E+03  0.00000000000E+00 0. -1.
</event>
<event>
 7    1  0.2612321E-009  0.8522028E+02  0.7561462E-02  0.1314857E+00
         -2   -1    0    0    0  501 -0.00000000000E+00  0.00000000000E+00  0.26818854130E+02  0.26818854130E+02  0.00000000000E+00 0.  1.
          2   -1    0    0  501    0  0.00000000000E+00 -0.00000000000E+00 -0.44863486310E+03  0.44863486310E+03  0.00000000000E+00 0. -1.
         25    2    1    2    0    0  0.13634697741E+01 -0.10526479715E+02 -0.20706969108E+03  0.24215333754E+03  0.12509083137E+03 0.  0.
          5    1    3    3  502    0 -0.22980332474E+02 -0.36559618548E+02 -0.13720321782E+02  0.45501879289E+02  0.41800000000E+01 0. -1.
         -5    1    3    3    0  502  0.24343802248E+02  0.26033138834E+02 -0.19334936930E+03  0.19665145825E+03  0.41800000000E+01 0. -1.
        -11    1    1    2    0    0 -0.37982061472E+02  0.31169269132E+02 -0.11442249687E+03  0.12452577292E+03  0.00000000000E+00 0.  1.
         11    1    1    2    0    0  0.36618591698E+02 -0.20642789417E+02 -0.10032382102E+03  0.10877460677E+03  0.00000000000E+00 0. -1.
</event>
<event>
 7    1  0.2612321E-009  0.1218699E+03  0.7561462E-02  0.1240044E+00
         -1   -1    0    0    0  501 -0.00000000000E+00  0.00000000000E+00  0.30130170518E+02  0.30130170518E+02  0.00000000000E+00 0.  1.
          1   -1    0    0  501    0  0.00000000000E+00 -0.00000000000E+00 -0.71445564452E+03  0.71445564452E+03  0.00000000000E+00 0. -1.
         25    2    1    2    0    0  0.64085776836E+02 -0.55438398367E+02 -0.50061910230E+03  0.52292264356E+03  0.12509277657E+03 0.  0.
          5    1    3    3  502    0 -0.24810921415E+02 -0.24542275568E+01 -0.22917030325E+02  0.34121367694E+02  0.41800000000E+01 0.  1.
         -5    1    3    3    0  502  0.88896698251E+02 -0.52984170811E+02 -0.47770207198E+03  0.48880127587E+03  0.41800000000E+01 0.  1.
        -11    1    1    2    0    0 -0.32146715331E+02 -0.16531155083E+02 -0.23393046744E+02  0.43057229718E+02  0.00000000000E+00 0.  1.
         11    1    1    2    0    0 -0.31939061504E+02  0.71969553451E+02 -0.16031332496E+03  0.17860594176E+03  0.00000000000E+00 0. -1.
</event>
<event>
 7    1  0.2612321E-009  0.1120072E+03  0.7561462E-02  0.1256897E+00
          1   -1    0    0  501    0  0.00000000000E+00  0.00000000000E+00  0.96303536020E+02  0.96303536020E+02  0.00000000000E+00 0. -1.
         -1   -1    0    0    0  501 -0.00000000000E+00 -0.00000000000E+00 -0.17946911803E+03  0.17946911803E+03  0.00000000000E+00 0.  1.
         25    2    1    2    0    0  0.25507524649E+02 -0.59101214311E+02 -0.77896333464E+01  0.14089723589E+03  0.12509102825E+03 0.  0.
          5    1    3    3  502    0  0.33534484395E+02  0.32132194529E+02 -0.14864472238E+02  0.48943482751E+02  0.41800000000E+01 0. -1.
         -5    1    3    3    0  502 -0.80269597461E+01 -0.91233408840E+02  0.70748388918E+01  0.91953753141E+02  0.41800000000E+01 0. -1.
        -11    1    1    2    0    0  0.22277377287E+01 -0.10523063170E+02  0.14371322430E+02  0.17950837926E+02  0.00000000000E+00 0. -1.
         11    1    1    2    0    0 -0.27735262378E+02  0.69624277481E+02 -0.89747271098E+02  0.11692458024E+03  0.00000000000E+00 0.  1.
</event>
<event>
 7    1  0.2612321E-009  0.6853363E+02  0.7561462E-02  0.1365152E+00
         -1   -1    0    0    0  501 -0.00000000000E+00  0.00000000000E+00  0.60032868195E+02  0.60032868195E+02  0.00000000000E+00 0. -1.
          1   -1    0    0  501    0  0.00000000000E+00 -0.00000000000E+00 -0.22652408370E+03  0.22652408370E+03  0.00000000000E+00 0.  1.
         25    2    1    2    0    0  0.25648404014E+01  0.38888331241E+01 -0.44666177766E+02  0.13290382829E+03  0.12508660483E+03 0.  0.
          5    1    3    3  502    0  0.45967278249E+02  0.10766590625E+02 -0.68066718579E+02  0.82942514559E+02  0.41800000000E+01 0. -1.
         -5    1    3    3    0  502 -0.43402437847E+02 -0.68777575006E+01  0.23400540813E+02  0.49961313730E+02  0.41800000000E+01 0. -1.
        -11    1    1    2    0    0  0.10677578841E+02 -0.21197860727E+02 -0.12864578519E+03  0.13081704032E+03  0.00000000000E+00 0.  1.
         11    1    1    2    0    0 -0.13242419242E+02  0.17309027603E+02  0.68207474579E+01  0.22836083286E+02  0.00000000000E+00 0. -1.
</event>
<event>
 7    1  0.2612321E-009  0.1112291E+03  0.7561462E-02  0.1258311E+00
         -2   -1    0    0    0  501 -0.00000000000E+00  0.00000000000E+00  0.28846606924E+03  0.28846606924E+03  0.00000000000E+00 0.  1.
          2   -1    0    0  501    0  0.00000000000E+00 -0.00000000000E+00 -0.54281077159E+02  0.54281077159E+02  0.00000000000E+00 0. -1.
         25    2    1    2    0    0  0.53515182998E+02 -0.22536439872E+02  0.10216298735E+03  0.17162790061E+03  0.12508834619E+03 0.  0.
          5    1    3    3  502    0 -0.20228174947E+01 -0.51153101372E+02  0.95784608044E+02  0.10868714325E+03  0.41800000000E+01 0. -1.
         -5    1    3    3    0  502  0.55538000492E+02  0.28616661500E+02  0.63783793014E+01  0.62940757357E+02  0.41800000000E+01 0. -1.
        -11    1    1    2    0    0 -0.20841664754E+02 -0.35909279998E+02  0.43615693943E+02  0.60217772608E+02  0.00000000000E+00 0.  1.
         11    1    1    2    0    0 -0.32673518243E+02  0.58445719870E+02  0.88406310794E+02  0.11090147318E+03  0.00000000000E+00 0. -1.
</event>
<event>
 7    1  0.2612321E-009  0.1368596E+03  0.7561462E-02  0.1217618E+00
          3   -1    0    0  501    0  0.00000000000E+00  0.00000000000E+00  0.21958092234E+02  0.21958092234E+02  0.00000000000E+00 0. -1.
         -3   -1    0    0    0  501 -0.00000000000E+00 -0.00000000000E+00 -0.11317649102E+04  0.11317649102E+04  0.00000000000E+00 0.  1.
         25    2    1    2    0    0  0.80201387809E+02  0.38962955582E+02 -0.85096404173E+03  0.86471794517E+03  0.12508776868E+03 0.  0.
          5    1    3    3  502    0 -0.28911120124E+02 -0.41113144440E+01 -0.29657278862E+03  0.29803631846E+03  0.41800000000E+01 0. -1.
         -5    1    3    3    0  502  0.10911250793E+03  0.43074270027E+02 -0.55439125311E+03  0.56668162671E+03  0.41800000000E+01 0. -1.
        -11    1    1    2    0    0 -0.66344371568E+02  0.17570143424E+02 -0.16318430423E+03  0.17702938379E+03  0.00000000000E+00 0. -1.
         11    1    1    2    0    0 -0.13857016241E+02 -0.56533099007E+02 -0.95658472015E+02  0.11197567348E+03  0.00000000000E+00 0.  1.
</event>
<event>
 7    1  0.2612321E-009  0.8149695E+02  0.7561462E-02  0.1324856E+00
          1   -1    0    0  501    0  0.00000000000E+00  0.00000000000E+00  0.56855976709E+03  0.56855976709E+03  0.00000000000E+00 0. -1.
         -1   -1    0    0    0  501 -0.00000000000E+00 -0.00000000000E+00 -0.28477627776E+02  0.28477627776E+02  0.00000000000E+00 0.  1.
         25    2    1    2    0    0  0.38516149193E+02  0.37698185794E+02  0.37724997774E+03  0.40108652901E+03  0.12509280987E+03 0.  0.
          5    1    3    3  502    0  0.32048579354E+02  0.38049247847E+02  0.38612046130E+03  0.38933448311E+03  0.41800000000E+01 0.  1.
         -5    1    3    3    0  502  0.64675698385E+01 -0.35106205258E+00 -0.88704835595E+01  0.11752045897E+02  0.41800000000E+01 0.  1.
        -11    1    1    2    0    0 -0.68340576364E+02 -0.22957767426E+02  0.85969341914E+02  0.11219724244E+03  0.00000000000E+00 0.  1.
         11    1    1    2    0    0  0.29824427171E+02 -0.14740418368E+02  0.76862819654E+02  0.83753623414E+02  0.00000000000E+00 0. -1.
</event>
<event>
 7    1  0.2612321E-009  0.4319070E+02  0.7561462E-02  0.1485963E+00
         -1   -1    0    0    0  501 -0.00000000000E+00  0.00000000000E+00  0.87770323396E+02  0.87770323396E+02  0.00000000000E+00 0.  1.
          1   -1    0    0  501    0  0.00000000000E+00 -0.00000000000E+00 -0.15327332519E+03  0.15327332519E+03  0.00000000000E+00 0. -1.
         25    2    1    2    0    0 -0.16885745293E+02  0.46819222906E+01 -0.77695482934E+02  0.14828992579E+03  0.12508503200E+03 0.  0.
          5    1    3    3  502    0 -0.12459130537E+02 -0.72591815962E-01  0.33935861858E+02  0.36391624357E+02  0.41800000000E+01 0.  1.
         -5    1    3    3    0  502 -0.44266147566E+01  0.47545141066E+01 -0.11163134479E+03  0.11189830143E+03  0.41800000000E+01 0.  1.
        -11    1    1    2    0    0 -0.20749146292E+02 -0.16014666270E+02  0.37686826929E+02  0.45905266926E+02  0.00000000000E+00 0.  1.
         11    1    1    2    0    0  0.37634891585E+02  0.11332743980E+02 -0.25494345791E+02  0.46848455877E+02  0.00000000000E+00 0. -1.
</event>
<event>
 7    1  0.2612321E-009  0.1509757E+03  0.7561462E-02  0.1199279E+00
         -1   -1    0    0    0  501 -0.00000000000E+00  0.00000000000E+00  0.10772144321E+02  0.10772144321E+02  0.00000000000E+00 0.  1.
          1   -1    0    0  501    0  0.00000000000E+00 -0.00000000000E+00 -0.24838892321E+04  0.24838892321E+04  0.00000000000E+00 0. -1.
         25    2    1    2    0    0  0.99219825286E+02 -0.48079117706E+02 -0.17175777722E+04  0.17256531669E+04  0.12509705630E+03 0.  0.
          5    1    3    3  502    0  0.92353682006E+02 -0.86392001160E+02 -0.12227911797E+04  0.12293203496E+04  0.41800000000E+01 0. -1.
         -5    1    3    3    0  502  0.68661432809E+01  0.38312883454E+02 -0.49478659252E+03  0.49633281727E+03  0.41800000000E+01 0. -1.
        -11    1    1    2    0    0 -0.10641789578E+03  0.60133600367E+02 -0.72698034113E+03  0.73718466806E+03  0.00000000000E+00 0. -1.
         11    1    1    2    0    0  0.71980704958E+01 -0.12054482661E+02 -0.28558974438E+02  0.31823541475E+02  0.00000000000E+00 0.  1.
</event>
<event>
 7    1  0.2612321E-009  0.2728678E+03  0.7561462E-02  0.1099649E+00
          4   -1    0    0  501    0  0.00000000000E+00  0.00000000000E+00  0.58024278718E+03  0.58024278718E+03  0.00000000000E+00 0.  1.
         -4   -1    0    0    0  501 -0.00000000000E+00 -0.00000000000E+00 -0.17947111340E+03  0.17947111340E+03  0.00000000000E+00 0. -1.
         25    2    1    2    0    0 -0.44590193031E+02  0.25894942976E+03  0.24809254526E+02  0.29207511192E+03  0.12509707992E+03 0.  0.
          5    1    3    3  502    0 -0.25720578250E+02  0.24995873544E+03 -0.97145030104E+01  0.25150101697E+03  0.41800000000E+01 0. -1.
         -5    1    3    3    0  502 -0.18869614781E+02  0.89906943204E+01  0.34523757536E+02  0.40574094947E+02  0.41800000000E+01 0. -1.
        -11    1    1    2    0    0  0.65604126289E+02 -0.20320884934E+03  0.25346231036E+03  0.33142251072E+03  0.00000000000E+00 0.  1.
         11    1    1    2    0    0 -0.21013933258E+02 -0.55740580419E+02  0.12250010890E+03  0.13621627794E+03  0.00000000000E+00 0. -1.
</event>
<event>
 7    1  0.2612321E-009  0.1008032E+03  0.7561462E-02  0.1278616E+00
         -2   -1    0    0    0  501 -0.00000000000E+00  0.00000000000E+00  0.11322751019E+03  0.11322751019E+03  0.00000000000E+00 0.  1.
          2   -1    0    0  501    0  0.00000000000E+00 -0.00000000000E+00 -0.13018594793E+03  0.13018594793E+03  0.00000000000E+00 0. -1.
         25    2    1    2    0    0  0.12146055607E+02  0.22825061132E+02 -0.56903766584E+02  0.13984066270E+03  0.12509541243E+03 0.  0.
          5    1    3    3  502    0 -0.53876161750E+02  0.23447925236E+02 -0.12656449505E+02  0.60250345367E+02  0.41800000000E+01 0.  1.
         -5    1    3    3    0  502  0.66022217357E+02 -0.62286410364E+00 -0.44247317079E+02  0.79590317333E+02  0.41800000000E+01 0.  1.
        -11    1    1    2    0    0 -0.40326603020E+02 -0.26306413732E+02  0.53613000074E+02  0.72059809127E+02  0.00000000000E+00 0.  1.
         11    1    1    2    0    0  0.28180547413E+02  0.34813525995E+01 -0.13667671234E+02  0.31512986297E+02  0.00000000000E+00 0. -1.
</event>
<event>
 6    1  0.2612321E-009  0.8014622E+02  0.7561462E-02  0.1328637E+00
         -1   -1    0    0    0  501 -0.00000000000E+00  0.00000000000E+00  0.56462148054E+02  0.56462148054E+02  0.00000000000E+00 0.  1.
          1   -1    0    0  501    0  0.00000000000E+00 -0.00000000000E+00 -0.26910696853E+03  0.26910696853E+03  0.00000000000E+00 0. -1.
          5    1    1    2  502    0  0.49296606290E+02  0.23612673995E+02 -0.20657575061E+02  0.58582604691E+02  0.41800000000E+01 0. -1.
         -5    1    1    2    0  502 -0.15081314429E+02 -0.18369866495E+02 -0.17247216979E+03  0.17415228908E+03  0.41800000000E+01 0. -1.
        -11    1    1    2    0    0  0.23477572977E+02 -0.13391321394E+01  0.12611660919E+02  0.26684146958E+02  0.00000000000E+00 0.  1.
         11    1    1    2    0    0 -0.57692864838E+02 -0.39036753601E+01 -0.32126736544E+02  0.66150075854E+02  0.00000000000E+00 0. -1.
</event>
<event>
 7    1  0.2612321E-009  0.9250105E+02  0.7561462E-02  0.1296906E+00
         -3   -1    0    0    0  501 -0.00000000000E+00  0.00000000000E+00  0.66846964194E+02  0.66846964194E+02  0.00000000000E+00 0.  1.
          3   -1    0    0  501    0  0.00000000000E+00 -0.00000000000E+00 -0.22704200384E+03  0.22704200384E+03  0.00000000000E+00 0. -1.
         25    2    1    2    0    0 -0.20895181578E+02  0.17592266155E+02 -0.14954168402E+03  0.19686510026E+03  0.12508819289E+03 0.  0.
          5    1    3    3  502    0  0.54669592979E+01 -0.34303076971E+02  0.14210702095E+01  0.35015433371E+02  0.41800000000E+01 0. -1.
         -5    1    3    3    0  502 -0.26362140876E+02  0.51895343126E+02 -0.15096275423E+03  0.16184966689E+03  0.41800000000E+01 0. -1.
        -11    1    1    2    0    0 -0.28045555740E+02  0.16008963757E+02 -0.18380899408E+02  0.37157739172E+02  0.00000000000E+00 0. -1.
         11    1    1    2    0    0  0.48940737318E+02 -0.33601229911E+02  0.77275437770E+01  0.59866128601E+02  0.00000000000E+00 0.  1.
</event>
<event>
 7    1  0.2612321E-009  0.1438640E+03  0.7561462E-02  0.1208222E+00
         -1   -1    0    0    0  501 -0.00000000000E+00  0.00000000000E+00  0.54048044504E+03  0.54048044504E+03  0.00000000000E+00 0.  1.
          1   -1    0    0  501    0  0.00000000000E+00 -0.00000000000E+00 -0.69117401376E+02  0.69117401376E+02  0.00000000000E+00 0. -1.
         25    2    1    2    0    0 -0.18839404218E+02  0.12877808642E+03  0.10102861216E+03  0.20686306527E+03  0.12508728394E+03 0.  0.
          5    1    3    3  502    0 -0.40309724995E+02  0.56435884063E+02 -0.12385422775E+02  0.70574457394E+02  0.41800000000E+01 0.  1.
         -5    1    3    3    0  502  0.21470320777E+02  0.72342202357E+02  0.11341403494E+03  0.13628860788E+03  0.41800000000E+01 0.  1.
        -11    1    1    2    0    0 -0.19227523848E+02 -0.21516644459E+02  0.16909246269E+03  0.17153694821E+03  0.00000000000E+00 0.  1.
         11    1    1    2    0    0  0.38066928067E+02 -0.10726144196E+03  0.20124196881E+03  0.23119783294E+03  0.00000000000E+00 0. -1.
</event>
<event>
 7    1  0.2612321E-009  0.1827030E+03  0.7561462E-02  0.1165212E+00
         -2   -1    0    0    0  501 -0.00000000000E+00  0.00000000000E+00  0.22024901575E+02  0.22024901575E+02  0.00000000000E+00 0. -1.
          2   -1    0    0  501    0  0.00000000000E+00 -0.00000000000E+00 -0.18320136527E+04  0.18320136527E+04  0.00000000000E+00 0.  1.
         25    2    1    2    0    0  0.14215986505E+03  0.49281973053E+02 -0.12975844959E+04  0.13122522050E+04  0.12506872206E+03 0.  0.
          5    1    3    3  502    0 -0.10676183209E+02  0.35380032384E+02 -0.15498980492E+03  0.15938958438E+03  0.41800000000E+01 0. -1.
         -5    1    3    3    0  502  0.15283604826E+03  0.13901940668E+02 -0.11425946910E+04  0.11528626206E+04  0.41800000000E+01 0. -1.
        -11    1    1    2    0    0 -0.41138392746E+02 -0.60378884613E+02 -0.24741032217E+03  0.25797256556E+03  0.00000000000E+00 0.  1.
         11    1    1    2    0    0 -0.10102147230E+03  0.11096911560E+02 -0.26499393305E+03  0.28381378379E+03  0.00000000000E+00 0. -1.
</event>
<event>
 7    1  0.2612321E-009  0.1168159E+03  0.7561462E-02  0.1248444E+00
         -2   -1    0    0    0  501 -0.00000000000E+00  0.00000000000E+00  0.25930821752E+02  0.25930821752E+02  0.00000000000E+00 0.  1.
          2   -1    0    0  501    0  0.00000000000E+00 -0.00000000000E+00 -0.55797257898E+03  0.55797257898E+03  0.00000000000E+00 0. -1.
         25    2    1    2    0    0  0.47240442098E+02  0.29323725146E+01 -0.24343027707E+03  0.27775156036E+03  0.12508945324E+03 0.  0.
          5    1    3    3  502    0  0.75694299980E+02 -0.36850243750E+02 -0.16354229813E+03  0.18398674733E+03  0.41800000000E+01 0.  1.
         -5    1    3    3    0  502 -0.28453857882E+02  0.39782616265E+02 -0.79887978934E+02  0.93764813035E+02  0.41800000000E+01 0.  1.
        -11    1    1    2    0    0 -0.44885836834E+02  0.38267427077E+02 -0.14002460796E+03  0.15194086073E+03  0.00000000000E+00 0.  1.
         11    1    1    2    0    0 -0.23546052640E+01 -0.41199799592E+02 -0.14858687219E+03  0.15421097964E+03  0.00000000000E+00 0. -1.
</event>
<event>
 7    1  0.2612321E-009  0.1114631E+03  0.7561462E-02  0.1257884E+00
         -2   -1    0    0    0  501 -0.00000000000E+00  0.00000000000E+00  0.13746948736E+03  0.13746948736E+03  0.00000000000E+00 0.  1.
          2   -1    0    0  501    0  0.00000000000E+00 -0.00000000000E+00 -0.10563414013E+03  0.10563414013E+03  0.00000000000E+00 0. -1.
         25    2    1    2    0    0 -0.42436167185E+02 -0.25214739647E-01 -0.12645483793E+02  0.13273405832E+03  0.12513030431E+03 0.  0.
          5    1    3    3  502    0 -0.45493357173E+02 -0.53253439696E+02 -0.30283773070E+02  0.76420898304E+02  0.41800000000E+01 0.  1.
         -5    1    3    3    0  502  0.30571899882E+01  0.53228224956E+02  0.17638289277E+02  0.56313160018E+02  0.41800000000E+01 0.  1.
        -11    1    1    2    0    0 -0.16986522364E+01 -0.39799445877E+02  0.80280517884E+01  0.40636571300E+02  0.00000000000E+00 0.  1.
         11    1    1    2    0    0  0.44134819421E+02  0.39824660616E+02  0.36452779228E+02  0.69732997870E+02  0.00000000000E+00 0. -1.
</event>
<event>
 7    1  0.2612321E-009  0.2400574E+03  0.7561462E-02  0.1119755E+00
          1   -1    0    0  501    0  0.00000000000E+00  0.00000000000E+00  0.53404724051E+02  0.53404724051E+02  0.00000000000E+00 0. -1.
         -1   -1    0    0    0  501 -0.00000000000E+00 -0.00000000000E+00 -0.11440657260E+04  0.11440657260E+04  0.00000000000E+00 0.  1.
         25    2    1    2    0    0  0.12264202056E+03 -0.18416494123E+03 -0.57540553771E+03  0.62904415379E+03  0.12508886360E+03 0.  0.
          5    1    3    3  502    0  0.79084005805E+02 -0.37656865569E+02 -0.31587037343E+03  0.32781684629E+03  0.41800000000E+01 0. -1.
         -5    1    3    3    0  502  0.43558014754E+02 -0.14650807566E+03 -0.25953516428E+03  0.30122730750E+03  0.41800000000E+01 0. -1.
        -11    1    1    2    0    0  0.63302704864E+01  0.60529762054E+02 -0.11514961107E+03  0.13024345414E+03  0.00000000000E+00 0. -1.
         11    1    1    2    0    0 -0.12897229105E+03  0.12363517918E+03 -0.40010585317E+03  0.43818284212E+03  0.00000000000E+00 0.  1.
</event>
<event>
 7    1  0.2612321E-009  0.9039688E+02  0.7561462E-02  0.1301893E+00
         -2   -1    0    0    0  501 -0.00000000000E+00  0.00000000000E+00  0.50943942539E+02  0.50943942539E+02  0.00000000000E+00 0.  1.
          2   -1    0    0  501    0  0.00000000000E+00 -0.00000000000E+00 -0.35882967080E+03  0.35882967080E+03  0.00000000000E+00 0. -1.
         25    2    1    2    0    0 -0.64749792227E+01  0.67972098242E+02 -0.10739806270E+03  0.17844857035E+03  0.12508963543E+03 0.  0.
          5    1    3    3  502    0 -0.16010778641E+02  0.14322654073E+02  0.26180481532E+02  0.34122917016E+02  0.41800000000E+01 0. -1.
         -5    1    3    3    0  502  0.95357994183E+01  0.53649444169E+02 -0.13357854423E+03  0.14432565333E+03  0.41800000000E+01 0. -1.
        -11    1    1    2    0    0  0.41874701381E+02 -0.25744475394E+02 -0.46068387399E+02  0.67368872238E+02  0.00000000000E+00 0.  1.
         11    1    1    2    0    0 -0.35399722158E+02 -0.42227622848E+02 -0.15441927816E+03  0.16395617076E+03  0.00000000000E+00 0. -1.
</event>
<event>
 7    1  0.2612321E-009  0.8143742E+02  0.7561462E-02  0.1325021E+00
          1   -1    0    0  501    0  0.00000000000E+00  0.00000000000E+00  0.62641756517E+02  0.62641756517E+02  0.00000000000E+00 0. -1.
         -1   -1    0    0    0  501 -0.00000000000E+00 -0.00000000000E+00 -0.29711287254E+03  0.29711287254E+03  0.00000000000E+00 0.  1.
         25    2    1    2    0    0 -0.16989272081E+01  0.84509322822E+01 -0.23650514714E+03  0.26768735398E+03  0.12509008854E+03 0.  0.
          5    1    3    3  502    0  0.49050155890E+02 -0.24133085928E+02 -0.60777171035E+02  0.81851454160E+02  0.41800000000E+01 0. -1.
         -5    1    3    3    0  502 -0.50749083098E+02  0.32584018210E+02 -0.17572797610E+03  0.18583589982E+03  0.41800000000E+01 0. -1.
        -11    1    1    2    0    0  0.20656298118E+02 -0.17045608110E+02 -0.38267502274E+02  0.46707998652E+02  0.00000000000E+00 0.  1.
         11    1    1    2    0    0 -0.18957370910E+02  0.85946758282E+01  0.40301533386E+02  0.45359276423E+02  0.00000000000E+00 0. -1.
</event>
<event>
 7    1  0.2612321E-009  0.1227169E+03  0.7561462E-02  0.1238681E+00
         -1   -1    0    0    0  501 -0.00000000000E+00  0.00000000000E+00  0.19634209074E+02  0.19634209074E+02  0.00000000000E+00 0.  1.
          1   -1    0    0  501    0  0.00000000000E+00 -0.00000000000E+00 -0.92401963209E+03  0.92401963209E+03  0.00000000000E+00 0. -1.
         25    2    1    2    0    0 -0.60156579649E+02 -0.53094008669E+02 -0.49574135349E+03  0.51753685725E+03  0.12508845359E+03 0.  0.
          5    1    3    3  502    0 -0.22091834330E+01 -0.68518002684E+02 -0.13136607804E+03  0.14823668926E+03  0.41800000000E+01 0. -1.
         -5    1    3    3    0  502 -0.57947396216E+02  0.15423994015E+02 -0.36437527545E+03  0.36930016799E+03  0.41800000000E+01 0. -1.
        -11    1    1    2    0    0  0.36029035972E+01  0.59606206938E+02 -0.26409619764E+03  0.27076314821E+03  0.00000000000E+00 0. -1.
         11    1    1    2    0    0  0.56553676052E+02 -0.65121982697E+01 -0.14454787189E+03  0.15535383571E+03  0.00000000000E+00 0.  1.
</event>
<event>
 7    1  0.2612321E-009  0.1272532E+03  0.7561462E-02  0.1231589E+00
          1   -1    0    0  501    0  0.00000000000E+00  0.00000000000E+00  0.10725222270E+04  0.10725222270E+04  0.00000000000E+00 0. -1.
         -1   -1    0    0    0  501 -0.00000000000E+00 -0.00000000000E+00 -0.19402239096E+02  0.19402239096E+02  0.00000000000E+00 0.  1.
         25    2    1    2    0    0 -0.28842442277E+02  0.86356669139E+02  0.47421871799E+03  0.49881778573E+03  0.12508569094E+03 0.  0.
          5    1    3    3  502    0 -0.58843790686E+02  0.36539857410E+02  0.11068481007E+03  0.13063825038E+03  0.41800000000E+01 0.  1.
         -5    1    3    3    0  502  0.30001348409E+02  0.49816811729E+02  0.36353390793E+03  0.36817953535E+03  0.41800000000E+01 0.  1.
        -11    1    1    2    0    0 -0.30581362917E+02 -0.15342005097E+02  0.11189722133E+03  0.11701104657E+03  0.00000000000E+00 0.  1.
         11    1    1    2    0    0  0.59423805193E+02 -0.71014664042E+02  0.46700404857E+03  0.47609563379E+03  0.00000000000E+00 0. -1.
</event>
<event>
 7    1  0.2612321E-009  0.1020978E+03  0.7561462E-02  0.1275945E+00
          2   -1    0    0  501    0  0.00000000000E+00  0.00000000000E+00  0.44054259518E+03  0.44054259518E+03  0.00000000000E+00 0. -1.
         -2   -1    0    0    0  501 -0.00000000000E+00 -0.00000000000E+00 -0.37179522172E+02  0.37179522172E+02  0.00000000000E+00 0.  1.
         25    2    1    2    0    0  0.53332070040E+02  0.25454115678E+02  0.15939572955E+03  0.21106057897E+03  0.12508935885E+03 0.  0.
          5    1    3    3  502    0  0.57078806392E+02 -0.17576396201E+02  0.17054581452E+02  0.62251513966E+02  0.41800000000E+01 0. -1.
         -5    1    3    3    0  502 -0.37467363524E+01  0.43030511879E+02  0.14234114810E+03  0.14880906500E+03  0.41800000000E+01 0. -1.
        -11    1    1    2    0    0 -0.61226270724E+02  0.12223836738E+02  0.19262079329E+03  0.20248666232E+03  0.00000000000E+00 0. -1.
         11    1    1    2    0    0  0.78942006839E+01 -0.37677952416E+02  0.51346550167E+02  0.64174876056E+02  0.00000000000E+00 0.  1.
</event>
<event>
 7    1  0.2612321E-009  0.2979408E+03  0.7561462E-02  0.1086275E+00
          2   -1    0    0  501    0  0.00000000000E+00  0.00000000000E+00  0.23800516512E+04  0.23800516512E+04  0.00000000000E+00 0. -1.
         -2   -1    0    0    0  501 -0.00000000000E+00 -0.00000000000E+00 -0.43198063024E+02  0.43198063024E+02  0.00000000000E+00 0.  1.
         25    2    1    2    0    0  0.14122758312E+02  0.29304692186E+03  0.93134003958E+03  0.98443758391E+03  0.12508851495E+03 0.  0.
          5    1    3    3  502    0 -0.23489049922E+02  0.50562072010E+02  0.33399300487E+03  0.33864001284E+03  0.41800000000E+01 0. -1.
         -5    1    3    3    0  502  0.37611808234E+02  0.24248484985E+03  0.59734703471E+03  0.64579757107E+03  0.41800000000E+01 0. -1.
        -11    1    1    2    0    0  0.77067880491E+01 -0.92983890942E+02  0.27163953657E+03  0.28721670631E+03  0.00000000000E+00 0. -1.
         11    1    1    2    0    0 -0.21829546361E+02 -0.20006303092E+03  0.11338740120E+04  0.11515954240E+04  0.00000000000E+00 0.  1.
</event>
<event>
 7    1  0.2612321E-009  0.1069779E+03  0.7561462E-02  0.1266271E+00
         -1   -1    0    0    0  501 -0.00000000000E+00  0.00000000000E+00  0.10966033939E+03  0.10966033939E+03  0.00000000000E+00 0.  1.
          1   -1    0    0  501    0  0.00000000000E+00 -0.00000000000E+00 -0.14021183180E+03  0.14021183180E+03  0.00000000000E+00 0. -1.
         25    2    1    2    0    0  0.19185506705E+02  0.57469751727E+02 -0.22168038841E+02  0.14075113413E+03  0.12509437949E+03 0.  0.
          5    1    3    3  502    0  0.52195222284E+02  0.53056014882E+02 -0.55892427132E+02  0.93170369513E+02  0.41800000000E+01 0.  1.
         -5    1    3    3    0  502 -0.33009715580E+02  0.44137368447E+01  0.33724388292E+02  0.47580764614E+02  0.41800000000E+01 0.  1.
        -11    1    1    2    0    0  0.27805246931E+02 -0.51436550950E+02  0.79480895112E+01  0.59008665952E+02  0.00000000000E+00 0.  1.
         11    1    1    2    0    0 -0.46990753636E+02 -0.60332007765E+01 -0.16331543088E+02  0.50112371113E+02  0.00000000000E+00 0. -1.
</event>
<event>
 7    1  0.2612321E-009  0.1617405E+03  0.7561462E-02  0.1186746E+00
         -2   -1    0    0    0  501 -0.00000000000E+00  0.00000000000E+00  0.19816959964E+02  0.19816959964E+02  0.00000000000E+00 0.  1.
          2   -1    0    0  501    0  0.00000000000E+00 -0.00000000000E+00 -0.16458659463E+04  0.16458659463E+04  0.00000000000E+00 0. -1.
         25    2    1    2    0    0  0.20166584668E+02 -0.14419108684E+03 -0.91919031649E+03  0.93901692320E+03  0.12507671035E+03 0.  0.
          5    1    3    3  502    0 -0.15922217760E+02  0.68803244047E+01 -0.21315668280E+02  0.27797230016E+02  0.41800000000E+01 0.  1.
         -5    1    3    3    0  502  0.36088802428E+02 -0.15107141124E+03 -0.89787464821E+03  0.91121969318E+03  0.41800000000E+01 0.  1.
        -11    1    1    2    0    0 -0.50227146473E+00  0.11536680643E+03 -0.64841605317E+03  0.65859937011E+03  0.00000000000E+00 0. -1.
         11    1    1    2    0    0 -0.19664313204E+02  0.28824280412E+02 -0.58442616696E+02  0.68066612971E+02  0.00000000000E+00 0.  1.
</event>
<event>
 7    1  0.2612321E-009  0.1147710E+03  0.7561462E-02  0.1251981E+00
          2   -1    0    0  501    0  0.00000000000E+00  0.00000000000E+00  0.38093087375E+03  0.38093087375E+03  0.00000000000E+00 0. -1.
         -2   -1    0    0    0  501 -0.00000000000E+00 -0.00000000000E+00 -0.40639929792E+02  0.40639929792E+02  0.00000000000E+00 0.  1.
         25    2    1    2    0    0  0.56668674347E+02 -0.35199436123E+01  0.18707654533E+03  0.23209728270E+03  0.12509111146E+03 0.  0.
          5    1    3    3  502    0  0.90617983410E+02 -0.26269232842E+02  0.11188042367E+03  0.14641172464E+03  0.41800000000E+01 0. -1.
         -5    1    3    3    0  502 -0.33949309063E+02  0.22749289230E+02  0.75196121660E+02  0.85685558054E+02  0.41800000000E+01 0. -1.
        -11    1    1    2    0    0 -0.73266972586E+02 -0.81669577656E+01  0.62906619658E+02  0.96912286465E+02  0.00000000000E+00 0.  1.
         11    1    1    2    0    0  0.16598298239E+02  0.11686901378E+02  0.90307778969E+02  0.92561234383E+02  0.00000000000E+00 0. -1.
</event>
<event>
 7    1  0.2612321E-009  0.1789549E+03  0.7561462E-02  0.1168818E+00
         -1   -1    0    0    0  501 -0.00000000000E+00  0.00000000000E+00  0.50168166077E+02  0.50168166077E+02  0.00000000000E+00 0.  1.
          1   -1    0    0  501    0  0.00000000000E+00 -0.00000000000E+00 -0.79380726501E+03  0.79380726501E+03  0.00000000000E+00 0. -1.
         25    2    1    2    0    0 -0.29670781944E+02 -0.16142757890E+03 -0.45429338413E+03  0.49896832351E+03  0.12509072897E+03 0.  0.
          5    1    3    3  502    0 -0.12972994764E+02  0.90623500896E-01 -0.17758322207E+03  0.17810553042E+03  0.41800000000E+01 0. -1.
         -5    1    3    3    0  502 -0.16697787180E+02 -0.16151820240E+03 -0.27671016206E+03  0.32086279309E+03  0.41800000000E+01 0. -1.
        -11    1    1    2    0    0  0.39697656401E+02  0.29300468293E+02 -0.12167337476E+03  0.13129673070E+03  0.00000000000E+00 0. -1.
         11    1    1    2    0    0 -0.10026874458E+02  0.13212711061E+03 -0.16767234003E+03  0.21371037687E+03  0.00000000000E+00 0.  1.
</event>
<event>
 7    1  0.2612321E-009  0.1132058E+03  0.7561462E-02  0.1254746E+00
         -2   -1    0    0    0  501 -0.00000000000E+00  0.00000000000E+00  0.45613727966E+02  0.45613727966E+02  0.00000000000E+00 0.  1.
          2   -1    0    0  501    0  0.00000000000E+00 -0.00000000000E+00 -0.30762514068E+03  0.30762514068E+03  0.00000000000E+00 0. -1.
         25    2    1    2    0    0 -0.15508364958E+02  0.45738228951E+02 -0.16418095628E+03  0.21196885385E+03  0.12507163398E+03 0.  0.
          5    1    3    3  502    0 -0.46040294383E+02  0.72103500517E+02 -0.14176452642E+03  0.16562993946E+03  0.41800000000E+01 0.  1.
         -5    1    3    3    0  502  0.30531929426E+02 -0.26365271566E+02 -0.22416429856E+02  0.46338914388E+02  0.41800000000E+01 0.  1.
        -11    1    1    2    0    0 -0.36351615917E+02 -0.11767930338E+02 -0.25163114926E+02  0.45750481058E+02  0.00000000000E+00 0.  1.
         11    1    1    2    0    0  0.51859980875E+02 -0.33970298613E+02 -0.72667341513E+02  0.95519533744E+02  0.00000000000E+00 0. -1.
</event>
<event>
 7    1  0.2612321E-009  0.9708953E+02  0.7561462E-02  0.1286538E+00
         -1   -1    0    0    0  501 -0.00000000000E+00  0.00000000000E+00  0.68632383645E+03  0.68632383645E+03  0.00000000000E+00 0.  1.
          1   -1    0    0  501    0  0.00000000000E+00 -0.00000000000E+00 -0.28726694378E+02  0.28726694378E+02  0.00000000000E+00 0. -1.
         25    2    1    2    0    0 -0.33078400745E+02  0.28800619073E+02  0.55784561462E+03  0.57337866872E+03  0.12509081396E+03 0.  0.
          5    1    3    3  502    0 -0.55600781621E+02 -0.36386591567E+01  0.10630766856E+03  0.12009779162E+03  0.41800000000E+01 0.  1.
         -5    1    3    3    0  502  0.22522380876E+02  0.32439278230E+02  0.45153794607E+03  0.45328087711E+03  0.41800000000E+01 0.  1.
        -11    1    1    2    0    0  0.31758368585E+02  0.27659910861E+02  0.56843284454E+02  0.70744778122E+02  0.00000000000E+00 0. -1.
         11    1    1    2    0    0  0.13200321595E+01 -0.56460529934E+02  0.42908242995E+02  0.70927083982E+02  0.00000000000E+00 0.  1.
</event>
<event>
 6    1  0.2612321E-009  0.9922349E+02  0.7561462E-02  0.1281937E+00
         -1   -1    0    0    0  501 -0.00000000000E+00  0.00000000000E+00  0.53800888238E+03  0.53800888238E+03  0.00000000000E+00 0.  1.
          1   -1    0    0  501    0  0.00000000000E+00 -0.00000000000E+00 -0.36117342776E+02  0.36117342776E+02  0.00000000000E+00 0. -1.
          5    1    1    2  502    0  0.20405637409E+02 -0.54666200648E+02  0.19724702071E+03  0.20573926001E+03  0.41800000000E+01 0.  1.
         -5    1    1    2    0  502 -0.14353200439E+02 -0.19462771781E+02 -0.13909295742E+02  0.28209125408E+02  0.41800000000E+01 0.  1.
        -11    1    1    2    0    0  0.27755972782E+02  0.76632727167E+02  0.26047429096E+03  0.27292824176E+03  0.00000000000E+00 0.  1.
         11    1    1    2    0    0 -0.33808409753E+02 -0.25037547377E+01  0.58079523678E+02  0.67249597980E+02  0.00000000000E+00 0. -1.
</event>
<event>
 7    1  0.2612321E-009  0.1363187E+03  0.7561462E-02  0.1218370E+00
         -1   -1    0    0    0  501 -0.00000000000E+00  0.00000000000E+00  0.58378866730E+03  0.58378866730E+03  0.00000000000E+00 0.  1.
          1   -1    0    0  501    0  0.00000000000E+00 -0.00000000000E+00 -0.38465325677E+02  0.38465325677E+02  0.00000000000E+00 0. -1.
         25    2    1    2    0    0  0.99071551964E+02  0.45237292803E+01  0.24844346742E+03  0.29530753092E+03  0.12508694888E+03 0.  0.
          5    1    3    3  502    0  0.87313386947E+00 -0.39204917565E+02  0.12742246644E+03  0.13338570117E+03  0.41800000000E+01 0.  1.
         -5    1    3    3    0  502  0.98198418095E+02  0.43728646846E+02  0.12102100098E+03  0.16192182975E+03  0.41800000000E+01 0.  1.
        -11    1    1    2    0    0 -0.20287199273E+02  0.32705662872E+02  0.16092733913E+03  0.16546552305E+03  0.00000000000E+00 0.  1.
         11    1    1    2    0    0 -0.78784352691E+02 -0.37229392152E+02  0.13595253507E+03  0.16148093900E+03  0.00000000000E+00 0. -1.
</event>
<event>
 7    1  0.2612321E-009  0.1089504E+03  0.7561462E-02  0.1262526E+00
         -1   -1    0    0    0  501 -0.00000000000E+00  0.00000000000E+00  0.21202440036E+02  0.21202440036E+02  0.00000000000E+00 0.  1.
          1   -1    0    0  501    0  0.00000000000E+00 -0.00000000000E+00 -0.94804687388E+03  0.94804687388E+03  0.00000000000E+00 0. -1.
         25    2    1    2    0    0 -0.39127382188E+02  0.55192968500E+02 -0.76684009396E+03  0.77991541086E+03  0.12508837910E+03 0.  0.
          5    1    3    3  502    0 -0.79721035005E+02  0.61140347416E+02 -0.51567821672E+03  0.52539040827E+03  0.41800000000E+01 0.  1.
         -5    1    3    3    0  502  0.40593652817E+02 -0.59473789154E+01 -0.25116187724E+03  0.25452500259E+03  0.41800000000E+01 0.  1.
        -11    1    1    2    0    0  0.30234761665E+02 -0.12868978370E+02 -0.11745065827E+02  0.34895529635E+02  0.00000000000E+00 0.  1.
         11    1    1    2    0    0  0.88926205238E+01 -0.42323990130E+02 -0.14825927406E+03  0.15443837342E+03  0.00000000000E+00 0. -1.
</event>
<event>
 7    1  0.2612321E-009  0.1180641E+03  0.7561462E-02  0.1246325E+00
          1   -1    0    0  501    0  0.00000000000E+00  0.00000000000E+00  0.10883552210E+04  0.10883552210E+04  0.00000000000E+00 0. -1.
         -1   -1    0    0    0  501 -0.00000000000E+00 -0.00000000000E+00 -0.13220456372E+02  0.13220456372E+02  0.00000000000E+00 0.  1.
         25    2    1    2    0    0  0.41129595772E+02 -0.26427118425E+02  0.59906720314E+03  0.61393685716E+03  0.12508762712E+03 0.  0.
          5    1    3    3  502    0  0.34873133305E+02  0.46357198485E+02  0.20300150900E+03  0.21116867744E+03  0.41800000000E+01 0. -1.
         -5    1    3    3    0  502  0.62564624667E+01 -0.72784316911E+02  0.39606569415E+03  0.40276817972E+03  0.41800000000E+01 0. -1.
        -11    1    1    2    0    0 -0.69172390262E+02  0.31982198360E+02  0.31775813419E+03  0.32676889759E+03  0.00000000000E+00 0.  1.
         11    1    1    2    0    0  0.28042794490E+02 -0.55550799348E+01  0.15830942731E+03  0.16086992264E+03  0.00000000000E+00 0. -1.
</event>
<event>
 7    1  0.2612321E-009  0.1143735E+03  0.7561462E-02  0.1252679E+00
         -1   -1    0    0    0  501 -0.00000000000E+00  0.00000000000E+00  0.40622290369E+02  0.40622290369E+02  0.00000000000E+00 0. -1.
          1   -1    0    0  501    0  0.00000000000E+00 -0.00000000000E+00 -0.52406559617E+03  0.52406559617E+03  0.00000000000E+00 0.  1.
         25    2    1    2    0    0  0.75701371682E+02 -0.38751963969E+02 -0.36024885394E+03  0.39071782255E+03  0.12509503472E+03 0.  0.
          5    1    3    3  502    0  0.94259498600E+02 -0.54602706421E+02 -0.19311157752E+03  0.22175631310E+03  0.41800000000E+01 0. -1.
         -5    1    3    3    0  502 -0.18558126918E+02  0.15850742452E+02 -0.16713727641E+03  0.16896150946E+03  0.41800000000E+01 0. -1.
        -11    1    1    2    0    0 -0.12602961454E+02  0.28347028950E+02 -0.10197758500E+03  0.10659182206E+03  0.00000000000E+00 0.  1.
         11    1    1    2    0    0 -0.63098410229E+02  0.10404935019E+02 -0.21216866874E+02  0.67378241934E+02  0.00000000000E+00 0. -1.
</event>
<event>
 7    1  0.2612321E-009  0.1313822E+03  0.7561462E-02  0.1225419E+00
         -2   -1    0    0    0  501 -0.00000000000E+00  0.00000000000E+00  0.11883137540E+03  0.11883137540E+03  0.00000000000E+00 0.  1.
          2   -1    0    0  501    0  0.00000000000E+00 -0.00000000000E+00 -0.18822956984E+03  0.18822956984E+03  0.00000000000E+00 0. -1.
         25    2    1    2    0    0 -0.68402459852E+02  0.72755488569E+02 -0.15305504754E+02  0.16079130790E+03  0.12508928248E+03 0.  0.
          5    1    3    3  502    0  0.72084875330E+01 -0.11382509632E+02 -0.42155334583E+02  0.44452991484E+02  0.41800000000E+01 0.  1.
         -5    1    3    3    0  502 -0.75610947385E+02  0.84137998201E+02  0.26849829829E+02  0.11633831642E+03  0.41800000000E+01 0.  1.
        -11    1    1    2    0    0  0.91120090466E+02 -0.62751842256E+02 -0.39511337942E+02  0.11748110665E+03  0.00000000000E+00 0.  1.
         11    1    1    2    0    0 -0.22717630613E+02 -0.10003646313E+02 -0.14581351743E+02  0.28788530683E+02  0.00000000000E+00 0. -1.
</event>
<event>
 7    1  0.2612321E-009  0.1389630E+03  0.7561462E-02  0.1214731E+00
          1   -1    0    0  501    0  0.00000000000E+00  0.00000000000E+00  0.11674883875E+04  0.11674883875E+04  0.00000000000E+00 0. -1.
         -1   -1    0    0    0  501 -0.00000000000E+00 -0.00000000000E+00 -0.19425422786E+02  0.19425422786E+02  0.00000000000E+00 0.  1.
         25    2    1    2    0    0 -0.51000278002E+02  0.88282723422E+02  0.69485226385E+03  0.71334555974E+03  0.12508937366E+03 0.  0.
          5    1    3    3  502    0 -0.80294607037E+02  0.69924040856E+02  0.32867171843E+03  0.34551290324E+03  0.41800000000E+01 0.  1.
         -5    1    3    3    0  502  0.29294329035E+02  0.18358682567E+02  0.36618054542E+03  0.36783265650E+03  0.41800000000E+01 0.  1.
        -11    1    1    2    0    0  0.35514627919E+02  0.10124014627E+02  0.14663931632E+03  0.15121796705E+03  0.00000000000E+00 0.  1.
         11    1    1    2    0    0  0.15485650083E+02 -0.98406738050E+02  0.30657138455E+03  0.32235028350E+03  0.00000000000E+00 0. -1.
</event>
<event>
 7    1  0.2612321E-009  0.7402296E+02  0.7561462E-02  0.1346924E+00
          1   -1    0    0  501    0  0.00000000000E+00  0.00000000000E+00  0.11227775074E+03  0.11227775074E+03  0.00000000000E+00 0. -1.
         -1   -1    0    0    0  501 -0.00000000000E+00 -0.00000000000E+00 -0.12645782934E+03  0.12645782934E+03  0.00000000000E+00 0.  1.
         25    2    1    2    0    0 -0.13377001242E+02  0.37314558026E+02 -0.41326812169E+02  0.13757509973E+03  0.12509069613E+03 0.  0.
          5    1    3    3  502    0  0.13760764002E+02  0.58602247647E+02 -0.70078942975E+02  0.92477633532E+02  0.41800000000E+01 0. -1.
         -5    1    3    3    0  502 -0.27137765243E+02 -0.21287689620E+02  0.28752130806E+02  0.45097466200E+02  0.41800000000E+01 0. -1.
        -11    1    1    2    0    0 -0.11325954199E+02 -0.52470418654E+01  0.52122503231E+02  0.53596306122E+02  0.00000000000E+00 0. -1.
         11    1    1    2    0    0  0.24702955440E+02 -0.32067516161E+02 -0.24975769656E+02  0.47564174230E+02  0.00000000000E+00 0.  1.
</event>
<event>
 7    1  0.2612321E-009  0.1021655E+03  0.7561462E-02  0.1275807E+00
          1   -1    0    0  501    0  0.00000000000E+00  0.00000000000E+00  0.12069751248E+03  0.12069751248E+03  0.00000000000E+00 0. -1.
         -1   -1    0    0    0  501 -0.00000000000E+00 -0.00000000000E+00 -0.11675632972E+03  0.11675632972E+03  0.00000000000E+00 0.  1.
         25    2    1    2    0    0 -0.14765305678E+02  0.47670280835E+02 -0.41283398302E+00  0.13463808154E+03  0.12504708170E+03 0.  0.
          5    1    3    3  502    0  0.40248801943E+02  0.26734821330E+02  0.40206782617E+02  0.62998210275E+02  0.41800000000E+01 0.  1.
         -5    1    3    3    0  502 -0.55014107621E+02  0.20935459505E+02 -0.40619616600E+02  0.71639871264E+02  0.41800000000E+01 0.  1.
        -11    1    1    2    0    0  0.35365904904E+02  0.90242934180E+01  0.18408820745E+02  0.40878720413E+02  0.00000000000E+00 0. -1.
         11    1    1    2    0    0 -0.20600599226E+02 -0.56694574253E+02 -0.14054804001E+02  0.61937040241E+02  0.00000000000E+00 0.  1.
</event>
<event>
 7    1  0.2612321E-009  0.8585990E+02  0.7561462E-02  0.1313199E+00
          2   -1    0    0  501    0  0.00000000000E+00  0.00000000000E+00  0.43754519487E+03  0.43754519487E+03  0.00000000000E+00 0. -1.
         -2   -1    0    0    0  501 -0.00000000000E+00 -0.00000000000E+00 -0.26768797838E+02  0.26768797838E+02  0.00000000000E+00 0.  1.
         25    2    1    2    0    0 -0.52444313425E+01 -0.96520310047E+00  0.25565746219E+03  0.28466969960E+03  0.12509062403E+03 0.  0.
          5    1    3    3  502    0 -0.21232338301E+02  0.54102823446E+02  0.74342243410E+02  0.94457235031E+02  0.41800000000E+01 0.  1.
         -5    1    3    3    0  502  0.15987906958E+02 -0.55068026546E+02  0.18131521878E+03  0.19021246457E+03  0.41800000000E+01 0.  1.
        -11    1    1    2    0    0 -0.51070913884E+01 -0.26300124447E+02  0.56809683065E+01  0.27387083256E+02  0.00000000000E+00 0.  1.
         11    1    1    2    0    0  0.10351522731E+02  0.27265327548E+02  0.14943796654E+03  0.15225720985E+03  0.00000000000E+00 0. -1.
</event>
<event>
 7    1  0.2612321E-009  0.1971510E+03  0.7561462E-02  0.1152165E+00
         -3   -1    0    0    0  501 -0.00000000000E+00  0.00000000000E+00  0.31106989283E+03  0.31106989283E+03  0.00000000000E+00 0.  1.
          3   -1    0    0  501    0  0.00000000000E+00 -0.00000000000E+00 -0.14370836918E+03  0.14370836918E+03  0.00000000000E+00 0. -1.
         25    2    1    2    0    0 -0.14600118382E+03 -0.10216735310E+03  0.12008431601E+03  0.24864346145E+03  0.12509522075E+03 0.  0.
          5    1    3    3  502    0 -0.12362045344E+03 -0.12930193772E+03  0.11538118359E+03  0.21291147816E+03  0.41800000000E+01 0.  1.
         -5    1    3    3    0  502 -0.22380730386E+02  0.27134584623E+02  0.47031324200E+01  0.35731983290E+02  0.41800000000E+01 0.  1.
        -11    1    1    2    0    0  0.38363505844E+02  0.40961462746E+02  0.59401715138E+02  0.81720032870E+02  0.00000000000E+00 0.  1.
         11    1    1    2    0    0  0.10763767798E+03  0.61205890356E+02 -0.12124507499E+02  0.12441476768E+03  0.00000000000E+00 0. -1.
</event>
<event>
 7    1  0.2612321E-009  0.1568497E+03  0.7561462E-02  0.1192300E+00
         -2   -1    0    0    0  501 -0.00000000000E+00  0.00000000000E+00  0.43446196188E+03  0.43446196188E+03  0.00000000000E+00 0.  1.
          2   -1    0    0  501    0  0.00000000000E+00 -0.00000000000E+00 -0.88603975230E+02  0.88603975230E+02  0.00000000000E+00 0. -1.
         25    2    1    2    0    0  0.14114161936E+03  0.18722081585E+02  0.26053312775E+03  0.32217641752E+03  0.12509460538E+03 0.  0.
          5    1    3    3  502    0 -0.52463087185E+01  0.12323054047E+01  0.11422801571E+03  0.11443143932E+03  0.41800000000E+01 0. -1.
         -5    1    3    3    0  502  0.14638792808E+03  0.17489776180E+02  0.14630511204E+03  0.20774497820E+03  0.41800000000E+01 0. -1.
        -11    1    1    2    0    0 -0.11599459522E+03  0.15390502514E+02  0.13894424236E+02  0.11783322415E+03  0.00000000000E+00 0. -1.
         11    1    1    2    0    0 -0.25147024137E+02 -0.34112584098E+02  0.71430434664E+02  0.83056295446E+02  0.00000000000E+00 0.  1.
</event>
<event>
 7    1  0.2612321E-009  0.7951693E+02  0.7561462E-02  0.1330428E+00
         -1   -1    0    0    0  501 -0.00000000000E+00  0.00000000000E+00  0.32511254126E+02  0.32511254126E+02  0.00000000000E+00 0.  1.
          1   -1    0    0  501    0  0.00000000000E+00 -0.00000000000E+00 -0.42641910088E+03  0.42641910088E+03  0.00000000000E+00 0. -1.
         25    2    1    2    0    0 -0.69049496471E+01  0.44270862727E+02 -0.23943323633E+03  0.27382871231E+03  0.12508517662E+03 0.  0.
          5    1    3    3  502    0 -0.25167985205E+01  0.65722563199E+02 -0.24252880421E+03  0.25132346261E+03  0.41800000000E+01 0.  1.
         -5    1    3    3    0  502 -0.43881511266E+01 -0.21451700472E+02  0.30955678790E+01  0.22505249697E+02  0.41800000000E+01 0.  1.
        -11    1    1    2    0    0 -0.23945332042E+02 -0.24139935756E+02 -0.14229799120E+03  0.14630390878E+03  0.00000000000E+00 0. -1.
         11    1    1    2    0    0  0.30850281689E+02 -0.20130926971E+02 -0.12176619219E+02  0.38797733911E+02  0.00000000000E+00 0.  1.
</event>
<event>
 7    1  0.2612321E-009  0.1187944E+03  0.7561462E-02  0.1245099E+00
          1   -1    0    0  501    0  0.00000000000E+00  0.00000000000E+00  0.45691368215E+03  0.45691368215E+03  0.00000000000E+00 0. -1.
         -1   -1    0    0    0  501 -0.00000000000E+00 -0.00000000000E+00 -0.53830110825E+02  0.53830110825E+02  0.00000000000E+00 0.  1.
         25    2    1    2    0    0  0.75037862787E+02  0.81226103001E+02  0.25740878895E+03  0.30681477406E+03  0.12509060832E+03 0.  0.
          5    1    3    3  502    0  0.78094842662E+02  0.44657994501E+02  0.25427107734E+03  0.26974876106E+03  0.41800000000E+01 0.  1.
         -5    1    3    3    0  502 -0.30569798751E+01  0.36568108501E+02  0.31377116130E+01  0.37066012996E+02  0.41800000000E+01 0.  1.
        -11    1    1    2    0    0 -0.47841128542E+02 -0.50494058607E+02  0.20978521261E+02  0.72653436870E+02  0.00000000000E+00 0.  1.
         11    1    1    2    0    0 -0.27196734244E+02 -0.30732044395E+02  0.12469626112E+03  0.13127558205E+03  0.00000000000E+00 0. -1.
</event>
<event>
 7    1  0.2612321E-009  0.1309453E+03  0.7561462E-02  0.1226060E+00
         -1   -1    0    0    0  501 -0.00000000000E+00  0.00000000000E+00  0.32277547266E+02  0.32277547266E+02  0.00000000000E+00 0.  1.
          1   -1    0    0  501    0  0.00000000000E+00 -0.00000000000E+00 -0.60466399966E+03  0.60466399966E+03  0.00000000000E+00 0. -1.
         25    2    1    2    0    0 -0.55287307261E+02 -0.55788788429E+02 -0.23060294582E+03  0.27385038272E+03  0.12508892132E+03 0.  0.
          5    1    3    3  502    0 -0.86494972364E+02 -0.37010969924E+01 -0.14177366070E+03  0.16616955687E+03  0.41800000000E+01 0.  1.
         -5    1    3    3    0  502  0.31207665103E+02 -0.52087691436E+02 -0.88829285122E+02  0.10768082585E+03  0.41800000000E+01 0.  1.
        -11    1    1    2    0    0  0.45829995649E+02 -0.10806948343E+02 -0.80230741500E+02  0.93027686821E+02  0.00000000000E+00 0.  1.
         11    1    1    2    0    0  0.94573116123E+01  0.66595736772E+02 -0.26155276508E+03  0.27006347739E+03  0.00000000000E+00 0. -1.
</event>
<event>
 7    1  0.2612321E-009  0.1595405E+03  0.7561462E-02  0.1189216E+00
         -1   -1    0    0    0  501 -0.00000000000E+00  0.00000000000E+00  0.42139655889E+03  0.42139655889E+03  0.00000000000E+00 0.  1.
          1   -1    0    0  501    0  0.00000000000E+00 -0.00000000000E+00 -0.74023252959E+02  0.74023252959E+02  0.00000000000E+00 0. -1.
         25    2    1    2    0    0 -0.60371507261E+02 -0.11977364683E+03  0.23898862090E+03  0.30125289489E+03  0.12508916977E+03 0.  0.
          5    1    3    3  502    0 -0.51855909519E+02  0.10134653548E+02  0.74721938247E+02  0.91611063797E+02  0.41800000000E+01 0. -1.
         -5    1    3    3    0  502 -0.85155977417E+01 -0.12990830038E+03  0.16426668266E+03  0.20964183109E+03  0.41800000000E+01 0. -1.
        -11    1    1    2    0    0  0.54642031878E+02  0.88342050960E+02  0.12130591096E+03  0.15970345535E+03  0.00000000000E+00 0.  1.
         11    1    1    2    0    0  0.57294753824E+01  0.31431595869E+02 -0.12921225933E+02  0.34463461617E+02  0.00000000000E+00 0. -1.
</event>
<event>
 7    1  0.2612321E-009  0.1018058E+03  0.7561462E-02  0.1276544E+00
          1   -1    0    0  501    0  0.00000000000E+00  0.00000000000E+00  0.46126663642E+02  0.46126663642E+02  0.00000000000E+00 0. -1.
         -1   -1    0    0    0  501 -0.00000000000E+00 -0.00000000000E+00 -0.32414185614E+03  0.32414185614E+03  0.00000000000E+00 0.  1.
         25    2    1    2    0    0  0.54087769551E+02  0.18510025966E+02 -0.12519843916E+03  0.18598620928E+03  0.12509241783E+03 0.  0.
          5    1    3    3  502    0  0.13019863252E+02  0.62558673874E+02 -0.24467630602E+02  0.68551016501E+02  0.41800000000E+01 0.  1.
         -5    1    3    3    0  502  0.41067906298E+02 -0.44048647908E+02 -0.10073080856E+03  0.11743519278E+03  0.41800000000E+01 0.  1.
        -11    1    1    2    0    0  0.88979739520E-01 -0.24680438082E+02 -0.11574395024E+03  0.11834607707E+03  0.00000000000E+00 0.  1.
         11    1    1    2    0    0 -0.54176749290E+02  0.61704121166E+01 -0.37072803099E+02  0.65936233430E+02  0.00000000000E+00 0. -1.
</event>
<event>
 7    1  0.2612321E-009  0.1419600E+03  0.7561462E-02  0.1210716E+00
         -2   -1    0    0    0  501 -0.00000000000E+00  0.00000000000E+00  0.36997127224E+03  0.36997127224E+03  0.00000000000E+00 0.  1.
          2   -1    0    0  501    0  0.00000000000E+00 -0.00000000000E+00 -0.71454711476E+02  0.71454711476E+02  0.00000000000E+00 0. -1.
         25    2    1    2    0    0 -0.86665409073E+02 -0.84319289010E+02  0.17143081615E+03  0.24424348980E+03  0.12508286036E+03 0.  0.
          5    1    3    3  502    0 -0.46023267328E+02  0.23909956096E+01 -0.17474973928E+01  0.46307495535E+02  0.41800000000E+01 0.  1.
         -5    1    3    3    0  502 -0.40642141745E+02 -0.86710284619E+02  0.17317831354E+03  0.19793599427E+03  0.41800000000E+01 0.  1.
        -11    1    1    2    0    0  0.73157109847E+02  0.19682402192E+02  0.10083374034E+03  0.12612217437E+03  0.00000000000E+00 0.  1.
         11    1    1    2    0    0  0.13508299227E+02  0.64636886818E+02  0.26252004276E+02  0.71060319546E+02  0.00000000000E+00 0. -1.
</event>
<event>
 7    1  0.2687897E-009  0.1205804E+03  0.7561462E-02  0.1242143E+00
          1   -1    0    0  501    0  0.00000000000E+00  0.00000000000E+00  0.58568120576E+02  0.58568120576E+02  0.00000000000E+00 0. -1.
         -1   -1    0    0    0  501 -0.00000000000E+00 -0.00000000000E+00 -0.41556889230E+03  0.41556889230E+03  0.00000000000E+00 0.  1.
         25    2    1    2    0    0 -0.48179506073E+02  0.96682677189E+02 -0.14938552145E+03  0.22278137767E+03  0.12508678325E+03 0.  0.
          5    1    3    3  502    0 -0.13080796072E+02  0.25066410081E+02 -0.13939473068E+03  0.14229474861E+03  0.41800000000E+01 0. -1.
         -5    1    3    3    0  502 -0.35098710001E+02  0.71616267108E+02 -0.99907907766E+01  0.80486629067E+02  0.41800000000E+01 0. -1.
        -11    1    1    2    0    0  0.58957599031E+02 -0.31885010403E+02 -0.60714764403E+02  0.90437464518E+02  0.00000000000E+00 0. -1.
         11    1    1    2    0    0 -0.10778092958E+02 -0.64797666786E+02 -0.14690048587E+03  0.16091817069E+03  0.00000000000E+00 0.  1.
</event>
<event>
 7    1  0.2612321E-009  0.2100411E+03  0.7561462E-02  0.1141533E+00
         -1   -1    0    0    0  501 -0.00000000000E+00  0.00000000000E+00  0.30581431574E+02  0.30581431574E+02  0.00000000000E+00 0.  1.
          1   -1    0    0  501    0  0.00000000000E+00 -0.00000000000E+00 -0.16173858518E+04  0.16173858518E+04  0.00000000000E+00 0. -1.
         25    2    1    2    0    0 -0.17296165020E+03  0.71703834789E+02 -0.10377356311E+04  0.10618851892E+04  0.12509093730E+03 0.  0.
          5    1    3    3  502    0 -0.11321786774E+03 -0.13065186701E+02 -0.40740525049E+03  0.42306677394E+03  0.41800000000E+01 0. -1.
         -5    1    3    3    0  502 -0.59743782461E+02  0.84769021490E+02 -0.63033038062E+03  0.63881841526E+03  0.41800000000E+01 0. -1.
        -11    1    1    2    0    0  0.17491678541E+03 -0.52053209305E+02 -0.51859547066E+03  0.54976966141E+03  0.00000000000E+00 0.  1.
         11    1    1    2    0    0 -0.19551352039E+01 -0.19650625484E+02 -0.30473318428E+02  0.36312432741E+02  0.00000000000E+00 0. -1.
</event>
<event>
 7    1  0.2612321E-009  0.8658294E+02  0.7561462E-02  0.1311344E+00
         -2   -1    0    0    0  501 -0.00000000000E+00  0.00000000000E+00  0.81922540855E+02  0.81922540855E+02  0.00000000000E+00 0.  1.
          2   -1    0    0  501    0  0.00000000000E+00 -0.00000000000E+00 -0.26200324071E+03  0.26200324071E+03  0.00000000000E+00 0. -1.
         25    2    1    2    0    0 -0.28325606348E+02  0.70203088039E+02 -0.16804786418E+03  0.22275078127E+03  0.12508801843E+03 0.  0.
          5    1    3    3  502    0  0.18341307682E+02  0.31003186162E+02 -0.15641494571E+03  0.16056372181E+03  0.41800000000E+01 0.  1.
         -5    1    3    3    0  502 -0.46666914030E+02  0.39199901877E+02 -0.11632918473E+02  0.62187059461E+02  0.41800000000E+01 0.  1.
        -11    1    1    2    0    0  0.16221743176E+02 -0.34737591246E+02  0.41068379241E+02  0.56182354620E+02  0.00000000000E+00 0.  1.
         11    1    1    2    0    0  0.12103863171E+02 -0.35465496794E+02 -0.53101214916E+02  0.64992645677E+02  0.00000000000E+00 0. -1.
</event>
<event>
 7    1  0.2612321E-009  0.1182540E+03  0.7561462E-02  0.1246005E+00
          1   -1    0    0  501    0  0.00000000000E+00  0.00000000000E+00  0.10758239144E+03  0.10758239144E+03  0.00000000000E+00 0. -1.
         -1   -1    0    0    0  501 -0.00000000000E+00 -0.00000000000E+00 -0.19820546613E+03  0.19820546613E+03  0.00000000000E+00 0.  1.
         25    2    1    2    0    0  0.57519384452E+01 -0.96142230640E+02 -0.63074291831E+02  0.17000593723E+03  0.12508892475E+03 0.  0.
          5    1    3    3  502    0 -0.26530673119E+02 -0.12122573203E+02  0.28882932400E+02  0.41261720532E+02  0.41800000000E+01 0.  1.
         -5    1    3    3    0  502  0.32282611565E+02 -0.84019657437E+02 -0.91957224231E+02  0.12874421670E+03  0.41800000000E+01 0.  1.
        -11    1    1    2    0    0  0.27028346576E+02  0.69905684815E+02 -0.48078905591E+02  0.89044468952E+02  0.00000000000E+00 0.  1.
         11    1    1    2    0    0 -0.32780285021E+02  0.26236545825E+02  0.20530122728E+02  0.46737451386E+02  0.00000000000E+00 0. -1.
</event>
<event>
 7    1  0.2612321E-009  0.9494221E+02  0.7561462E-02  0.1291306E+00
         -1   -1    0    0    0  501 -0.00000000000E+00  0.00000000000E+00  0.20742521357E+02  0.20742521357E+02  0.00000000000E+00 0.  1.
          1   -1    0    0  501    0  0.00000000000E+00 -0.00000000000E+00 -0.57967682464E+03  0.57967682464E+03  0.00000000000E+00 0. -1.
         25    2    1    2    0    0  0.35323321505E+02 -0.35997960921E+02 -0.40737868074E+03  0.42912578745E+03  0.12509181310E+03 0.  0.
          5    1    3    3  502    0  0.78973706444E+01  0.46429270437E+02 -0.16373187993E+03  0.17042196608E+03  0.41800000000E+01 0. -1.
         -5    1    3    3    0  502  0.27425950860E+02 -0.82427231358E+02 -0.24364680081E+03  0.25870382138E+03  0.41800000000E+01 0. -1.
        -11    1    1    2    0    0 -0.80881077710E+01  0.24973452485E+02 -0.13508116919E+03  0.13760818684E+03  0.00000000000E+00 0. -1.
         11    1    1    2    0    0 -0.27235213734E+02  0.11024508436E+02 -0.16474453355E+02  0.33685371703E+02  0.00000000000E+00 0.  1.
</event>
<event>
 7    1  0.2612321E-009  0.1390644E+03  0.7561462E-02  0.1214593E+00
          2   -1    0    0  501    0  0.00000000000E+00  0.00000000000E+00  0.55967034454E+03  0.55967034454E+03  0.00000000000E+00 0. -1.
         -2   -1    0    0    0  501 -0.00000000000E+00 -0.00000000000E+00 -0.53325386489E+02  0.53325386489E+02  0.00000000000E+00 0.  1.
         25    2    1    2    0    0 -0.63561807018E+02 -0.11211132775E+03  0.33472155676E+03  0.37986361317E+03  0.12509512753E+03 0.  0.
          5    1    3    3  502    0 -0.53764139723E+02 -0.10298557524E+03  0.34395609890E+03  0.36307007836E+03  0.41800000000E+01 0.  1.
         -5    1    3    3    0  502 -0.97976672944E+01 -0.91257525058E+01 -0.92345421373E+01  0.16793534818E+02  0.41800000000E+01 0.  1.
        -11    1    1    2    0    0  0.73731212496E+02  0.60868761823E+02  0.14704959198E+03  0.17539920286E+03  0.00000000000E+00 0. -1.
         11    1    1    2    0    0 -0.10169405478E+02  0.51242565922E+02  0.24573809310E+02  0.57732914997E+02  0.00000000000E+00 0.  1.
</event>
<event>
 7    1  0.2612321E-009  0.1146892E+03  0.7561462E-02  0.1252125E+00
         -1   -1    0    0    0  501 -0.00000000000E+00  0.00000000000E+00  0.74809336518E+02  0.74809336518E+02  0.00000000000E+00 0.  1.
          1   -1    0    0  501    0  0.00000000000E+00 -0.00000000000E+00 -0.24876147140E+03  0.24876147140E+03  0.00000000000E+00 0. -1.
         25    2    1    2    0    0 -0.24941878705E+02  0.67625852409E+02 -0.48180325446E+02  0.15219634171E+03  0.12508808673E+03 0.  0.
          5    1    3    3  502    0 -0.14812018459E+02  0.98154036480E+02 -0.61812921059E+02  0.11701247958E+03  0.41800000000E+01 0. -1.
         -5    1    3    3    0  502 -0.10129860247E+02 -0.30528184071E+02  0.13632595612E+02  0.35183862130E+02  0.41800000000E+01 0. -1.
        -11    1    1    2    0    0  0.42781715383E+02 -0.20980648734E+02 -0.15146091956E+02  0.49998668922E+02  0.00000000000E+00 0.  1.
         11    1    1    2    0    0 -0.17839836678E+02 -0.46645203675E+02 -0.11062571748E+03  0.12137579729E+03  0.00000000000E+00 0. -1.
</event>
<event>
 7    1  0.2612321E-009  0.2923961E+03  0.7561462E-02  0.1089105E+00
         -2   -1    0    0    0  501 -0.00000000000E+00  0.00000000000E+00  0.73908385985E+03  0.73908385985E+03  0.00000000000E+00 0. -1.
          2   -1    0    0  501    0  0.00000000000E+00 -0.00000000000E+00 -0.16421974877E+03  0.16421974877E+03  0.00000000000E+00 0.  1.
         25    2    1    2    0    0  0.14756470297E+03  0.23687829100E+03  0.61573439604E+02  0.31196921425E+03  0.12508731295E+03 0.  0.
          5    1    3    3  502    0  0.31001712558E+02  0.16628818552E+03  0.27317662722E+02  0.17139601490E+03  0.41800000000E+01 0. -1.
         -5    1    3    3    0  502  0.11656299041E+03  0.70590105479E+02  0.34255776882E+02  0.14057319935E+03  0.41800000000E+01 0. -1.
        -11    1    1    2    0    0 -0.49658412204E+02 -0.71189934237E+02  0.83589182533E+02  0.12050359362E+03  0.00000000000E+00 0.  1.
         11    1    1    2    0    0 -0.97906290766E+02 -0.16568835677E+03  0.42970148894E+03  0.47083080075E+03  0.00000000000E+00 0. -1.
</event>
<event>
 7    1  0.2612321E-009  0.1134618E+03  0.7561462E-02  0.1254290E+00
          2   -1    0    0  501    0  0.00000000000E+00  0.00000000000E+00  0.22966168019E+03  0.22966168019E+03  0.00000000000E+00 0. -1.
         -2   -1    0    0    0  501 -0.00000000000E+00 -0.00000000000E+00 -0.70628385205E+02  0.70628385205E+02  0.00000000000E+00 0.  1.
         25    2    1    2    0    0 -0.47306442100E+02  0.37625379731E+02  0.12099177349E+03  0.18422807314E+03  0.12508958796E+03 0.  0.
          5    1    3    3  502    0 -0.53193557936E+02 -0.21642125632E+02  0.10346750869E+02  0.58501827846E+02  0.41800000000E+01 0. -1.
         -5    1    3    3    0  502  0.58871158367E+01  0.59267505362E+02  0.11064502262E+03  0.12572624529E+03  0.41800000000E+01 0. -1.
        -11    1    1    2    0    0 -0.62737188672E+01  0.25833839088E+02  0.99665557310E+01  0.28391530842E+02  0.00000000000E+00 0.  1.
         11    1    1    2    0    0  0.53580160967E+02 -0.63459218818E+02  0.28074965769E+02  0.87670461418E+02  0.00000000000E+00 0. -1.
</event>
<event>
 7    1  0.2612321E-009  0.1894435E+03  0.7561462E-02  0.1158964E+00
         -2   -1    0    0    0  501 -0.00000000000E+00  0.00000000000E+00  0.99752465313E+02  0.99752465313E+02  0.00000000000E+00 0.  1.
          2   -1    0    0  501    0  0.00000000000E+00 -0.00000000000E+00 -0.43631655920E+03  0.43631655920E+03  0.00000000000E+00 0. -1.
         25    2    1    2    0    0  0.10945829429E+03 -0.12647186872E+03 -0.25244021220E+03  0.32764117658E+03  0.12508568299E+03 0.  0.
          5    1    3    3  502    0 -0.20898210098E+02 -0.57463528496E+02 -0.76004812552E+02  0.97637063780E+02  0.41800000000E+01 0.  1.
         -5    1    3    3    0  502  0.13035650439E+03 -0.69008340226E+02 -0.17643539965E+03  0.23000411280E+03  0.41800000000E+01 0.  1.
        -11    1    1    2    0    0 -0.10035057166E+03  0.98452883260E+02 -0.25581996882E+02  0.14289032864E+03  0.00000000000E+00 0.  1.
         11    1    1    2    0    0 -0.91077226261E+01  0.28018985462E+02 -0.58541884801E+02  0.65537519283E+02  0.00000000000E+00 0. -1.
</event>
<event>
 7    1  0.3721235E-009  0.1057178E+03  0.7561462E-02  0.1268712E+00
          2   -1    0    0  501    0  0.00000000000E+00  0.00000000000E+00  0.66815580376E+02  0.66815580376E+02  0.00000000000E+00 0. -1.
         -2   -1    0    0    0  501 -0.00000000000E+00 -0.00000000000E+00 -0.27305849197E+03  0.27305849197E+03  0.00000000000E+00 0.  1.
         25    2    1    2    0    0 -0.39170077356E+02  0.56721791010E+02 -0.16603160869E+03  0.21900914388E+03  0.12508738339E+03 0.  0.
          5    1    3    3  502    0 -0.65304502130E+02 -0.13898724378E+02 -0.87296446642E+02  0.10998179183E+03  0.41800000000E+01 0. -1.
         -5    1    3    3    0  502  0.26134424774E+02  0.70620515389E+02 -0.78735162050E+02  0.10902735205E+03  0.41800000000E+01 0. -1.
        -11    1    1    2    0    0  0.24218392812E+02 -0.39296366455E+02  0.24458932445E+02  0.52239585980E+02  0.00000000000E+00 0. -1.
         11    1    1    2    0    0  0.14951684543E+02 -0.17425424555E+02 -0.64670235351E+02  0.68625342491E+02  0.00000000000E+00 0.  1.
</event>
<event>
 7    1  0.2612321E-009  0.1002019E+03  0.7561462E-02  0.1279872E+00
          4   -1    0    0  501    0  0.00000000000E+00  0.00000000000E+00  0.15250937612E+03  0.15250937612E+03  0.00000000000E+00 0. -1.
         -4   -1    0    0    0  501 -0.00000000000E+00 -0.00000000000E+00 -0.85940698577E+02  0.85940698577E+02  0.00000000000E+00 0.  1.
         25    2    1    2    0    0  0.64469504190E+01 -0.18481543609E+02  0.72167754810E+02  0.14573526894E+03  0.12508978037E+03 0.  0.
          5    1    3    3  502    0 -0.51406594015E+02 -0.38200807580E+02  0.27049656185E+02  0.69649809100E+02  0.41800000000E+01 0.  1.
         -5    1    3    3    0  502  0.57853544433E+02  0.19719263971E+02  0.45118098625E+02  0.76085459837E+02  0.41800000000E+01 0.  1.
        -11    1    1    2    0    0 -0.17793884829E+02  0.43764779969E+02 -0.29854776694E+02  0.55886366803E+02  0.00000000000E+00 0.  1.
         11    1    1    2    0    0  0.11346934410E+02 -0.25283236360E+02  0.24255699426E+02  0.36828438957E+02  0.00000000000E+00 0. -1.
</event>
<event>
 7    1  0.2612321E-009  0.9214659E+02  0.7561462E-02  0.1297735E+00
         -1   -1    0    0    0  501 -0.00000000000E+00  0.00000000000E+00  0.45532988170E+02  0.45532988170E+02  0.00000000000E+00 0.  1.
          1   -1    0    0  501    0  0.00000000000E+00 -0.00000000000E+00 -0.49363365469E+03  0.49363365469E+03  0.00000000000E+00 0. -1.
         25    2    1    2    0    0 -0.73457648605E+02  0.22707420461E+02 -0.36044807113E+03  0.38920677559E+03  0.12508976416E+03 0.  0.
          5    1    3    3  502    0 -0.64125857475E+01  0.33080269996E+02 -0.14973964136E+02  0.37109534097E+02  0.41800000000E+01 0.  1.
         -5    1    3    3    0  502 -0.67045062857E+02 -0.10372849534E+02 -0.34547410699E+03  0.35209724149E+03  0.41800000000E+01 0.  1.
        -11    1    1    2    0    0  0.20545972111E+02 -0.21071699313E+02  0.16053506104E+02  0.33524148612E+02  0.00000000000E+00 0.  1.
         11    1    1    2    0    0  0.52911676493E+02 -0.16357211478E+01 -0.10370610149E+03  0.11643571866E+03  0.00000000000E+00 0. -1.
</event>
<event>
 7    1  0.2612321E-009  0.1015716E+03  0.7561462E-02  0.1277025E+00
          2   -1    0    0  501    0  0.00000000000E+00  0.00000000000E+00  0.38706287269E+03  0.38706287269E+03  0.00000000000E+00 0. -1.
         -2   -1    0    0    0  501 -0.00000000000E+00 -0.00000000000E+00 -0.74217205298E+02  0.74217205298E+02  0.00000000000E+00 0.  1.
         25    2    1    2    0    0  0.43925756735E+02  0.70018266183E+02  0.30218576851E+03  0.33733717835E+03  0.12509237986E+03 0.  0.
          5    1    3    3  502    0  0.10379918089E+02  0.82086131109E+02  0.90755776948E+02  0.12288189073E+03  0.41800000000E+01 0.  1.
         -5    1    3    3    0  502  0.33545838646E+02 -0.12067864926E+02  0.21142999156E+03  0.21445528762E+03  0.41800000000E+01 0.  1.
        -11    1    1    2    0    0 -0.31632041170E+02 -0.34446616033E+02 -0.39511936278E+02  0.61223757587E+02  0.00000000000E+00 0.  1.
         11    1    1    2    0    0 -0.12293715565E+02 -0.35571650150E+02  0.50171835156E+02  0.62719142052E+02  0.00000000000E+00 0. -1.
</event>
<event>
 7    1  0.2612321E-009  0.8409074E+02  0.7561462E-02  0.1317828E+00
          1   -1    0    0  501    0  0.00000000000E+00  0.00000000000E+00  0.10914753826E+03  0.10914753826E+03  0.00000000000E+00 0. -1.
         -1   -1    0    0    0  501 -0.00000000000E+00 -0.00000000000E+00 -0.13856475866E+03  0.13856475866E+03  0.00000000000E+00 0.  1.
         25    2    1    2    0    0 -0.12507458842E+02  0.53435339911E+02 -0.34193190656E+02  0.14081915219E+03  0.12509631193E+03 0.  0.
          5    1    3    3  502    0 -0.46220689476E+01 -0.56278307521E+01 -0.70446312748E+02  0.70944988407E+02  0.41800000000E+01 0. -1.
         -5    1    3    3    0  502 -0.78853898939E+01  0.59063170663E+02  0.36253122092E+02  0.69874163780E+02  0.41800000000E+01 0. -1.
        -11    1    1    2    0    0  0.37977767649E+02 -0.62400493380E+02  0.20207894257E+02  0.75792423104E+02  0.00000000000E+00 0. -1.
         11    1    1    2    0    0 -0.25470308808E+02  0.89651534694E+01 -0.15431924002E+02  0.31100721630E+02  0.00000000000E+00 0.  1.
</event>
<event>
 7    1  0.3044111E-009  0.9258829E+02  0.7561462E-02  0.1296702E+00
          1   -1    0    0  501    0  0.00000000000E+00  0.00000000000E+00  0.12312720882E+03  0.12312720882E+03  0.00000000000E+00 0. -1.
         -1   -1    0    0    0  501 -0.00000000000E+00 -0.00000000000E+00 -0.14962840495E+03  0.14962840495E+03  0.00000000000E+00 0.  1.
         25    2    1    2    0    0 -0.35767398929E+02  0.35839709004E+02 -0.77892303729E+02  0.15581170128E+03  0.12508510586E+03 0.  0.
          5    1    3    3  502    0  0.12218927625E+02 -0.41471921927E+02 -0.19493974746E+02  0.47609977442E+02  0.41800000000E+01 0. -1.
         -5    1    3    3    0  502 -0.47986326554E+02  0.77311630931E+02 -0.58398328983E+02  0.10820172384E+03  0.41800000000E+01 0. -1.
        -11    1    1    2    0    0  0.25792557302E+02 -0.26675420633E+02  0.78395078175E+02  0.86733052294E+02  0.00000000000E+00 0. -1.
         11    1    1    2    0    0  0.99748416262E+01 -0.91642883710E+01 -0.27003970573E+02  0.30210860191E+02  0.00000000000E+00 0.  1.
</event>
<event>
 7    1  0.2612321E-009  0.1520064E+03  0.7561462E-02  0.1198029E+00
          1   -1    0    0  501    0  0.00000000000E+00  0.00000000000E+00  0.39349028102E+02  0.39349028102E+02  0.00000000000E+00 0. -1.
         -1   -1    0    0    0  501 -0.00000000000E+00 -0.00000000000E+00 -0.66033819633E+03  0.66033819633E+03  0.00000000000E+00 0.  1.
         25    2    1    2    0    0  0.82934633473E+02  0.85329437150E+02 -0.33003176681E+03  0.37246135966E+03  0.12508889265E+03 0.  0.
          5    1    3    3  502    0 -0.26260861644E+02  0.75216794374E+01 -0.18445665497E+02  0.33225344114E+02  0.41800000000E+01 0. -1.
         -5    1    3    3    0  502  0.10919549512E+03  0.77807757713E+02 -0.31158610131E+03  0.33923601555E+03  0.41800000000E+01 0. -1.
        -11    1    1    2    0    0 -0.25436436460E+02 -0.80624087946E+02 -0.11994579622E+03  0.14674552766E+03  0.00000000000E+00 0. -1.
         11    1    1    2    0    0 -0.57498197014E+02 -0.47053492046E+01 -0.17101160520E+03  0.18048033711E+03  0.00000000000E+00 0.  1.
</event>
<event>
 7    1  0.2612321E-009  0.7829674E+02  0.7561462E-02  0.1333956E+00
          3   -1    0    0  501    0  0.00000000000E+00  0.00000000000E+00  0.10360527150E+03  0.10360527150E+03  0.00000000000E+00 0. -1.
         -3   -1    0    0    0  501 -0.00000000000E+00 -0.00000000000E+00 -0.14281971663E+03  0.14281971663E+03  0.00000000000E+00 0.  1.
         25    2    1    2    0    0  0.18744536093E+02  0.87607452396E+01 -0.72395958959E+02  0.14599822574E+03  0.12508476628E+03 0.  0.
          5    1    3    3  502    0  0.35154022751E+02  0.38218503337E+02 -0.92758123506E+02  0.10638609491E+03  0.41800000000E+01 0. -1.
         -5    1    3    3    0  502 -0.16409486658E+02 -0.29457758098E+02  0.20362164546E+02  0.39612130838E+02  0.41800000000E+01 0. -1.
        -11    1    1    2    0    0  0.70764085859E+01  0.26154186207E+02  0.47514660355E+02  0.54696983128E+02  0.00000000000E+00 0. -1.
         11    1    1    2    0    0 -0.25820944679E+02 -0.34914931446E+02 -0.14333146524E+02  0.45729779261E+02  0.00000000000E+00 0.  1.
</event>
<event>
 7    1  0.2612321E-009  0.1316827E+03  0.7561462E-02  0.1224980E+00
          1   -1    0    0  501    0  0.00000000000E+00  0.00000000000E+00  0.15988313453E+04  0.15988313453E+04  0.00000000000E+00 0. -1.
         -1   -1    0    0    0  501 -0.00000000000E+00 -0.00000000000E+00 -0.12738665191E+02  0.12738665191E+02  0.00000000000E+00 0.  1.
         25    2    1    2    0    0 -0.41378533781E+02 -0.65562526592E+02  0.11593550465E+04  0.11686580131E+04  0.12508716938E+03 0.  0.
          5    1    3    3  502    0 -0.51470976137E+02  0.22389240300E+02  0.55357352242E+03  0.55642758431E+03  0.41800000000E+01 0. -1.
         -5    1    3    3    0  502  0.10092442356E+02 -0.87951766891E+02  0.60578152405E+03  0.61223042882E+03  0.41800000000E+01 0. -1.
        -11    1    1    2    0    0  0.12686178830E+02  0.83603009024E+02  0.29442214803E+03  0.30632467009E+03  0.00000000000E+00 0. -1.
         11    1    1    2    0    0  0.28692354951E+02 -0.18040482433E+02  0.13231548562E+03  0.13658732728E+03  0.00000000000E+00 0.  1.
</event>
<event>
 7    1  0.2612321E-009  0.9821274E+02  0.7561462E-02  0.1284100E+00
          1   -1    0    0  501    0  0.00000000000E+00  0.00000000000E+00  0.45453313072E+03  0.45453313072E+03  0.00000000000E+00 0. -1.
         -1   -1    0    0    0  501 -0.00000000000E+00 -0.00000000000E+00 -0.29240226128E+02  0.29240226128E+02  0.00000000000E+00 0.  1.
         25    2    1    2    0    0 -0.85239178455E+01 -0.35893623944E+01  0.32226035530E+03  0.34581218717E+03  0.12509512979E+03 0.  0.
          5    1    3    3  502    0 -0.56794676530E+02  0.30263927843E+02  0.19742123117E+03  0.20768763932E+03  0.41800000000E+01 0.  1.
         -5    1    3    3    0  502  0.48270758684E+02 -0.33853290238E+02  0.12483912413E+03  0.13812454784E+03  0.41800000000E+01 0.  1.
        -11    1    1    2    0    0 -0.11704217280E+02 -0.30790093616E+02  0.90251405920E+02  0.96074631603E+02  0.00000000000E+00 0. -1.
         11    1    1    2    0    0  0.20228135126E+02  0.34379456010E+02  0.12781143371E+02  0.41886538077E+02  0.00000000000E+00 0.  1.
</event>
<event>
 7    1  0.2612321E-009  0.1746790E+03  0.7561462E-02  0.1173054E+00
          1   -1    0    0  501    0  0.00000000000E+00  0.00000000000E+00  0.12185964630E+04  0.12185964630E+04  0.00000000000E+00 0. -1.
         -1   -1    0    0    0  501 -0.00000000000E+00 -0.00000000000E+00 -0.27071250595E+02  0.27071250595E+02  0.00000000000E+00 0.  1.
         25    2    1    2    0    0 -0.90483360143E+01 -0.14770314165E+03  0.74768060670E+03  0.77237270514E+03  0.12504085562E+03 0.  0.
          5    1    3    3  502    0  0.16954330723E+02  0.18314886087E+02  0.83423933390E+02  0.87177459500E+02  0.41800000000E+01 0. -1.
         -5    1    3    3    0  502 -0.26002666738E+02 -0.16601802774E+03  0.66425667331E+03  0.68519524564E+03  0.41800000000E+01 0. -1.
        -11    1    1    2    0    0 -0.15534240273E+02  0.17267091698E+02  0.25944046461E+02  0.34821812465E+02  0.00000000000E+00 0.  1.
         11    1    1    2    0    0  0.24582576287E+02  0.13043604995E+03  0.41790055923E+03  0.43847319597E+03  0.00000000000E+00 0. -1.
</event>
<event>
 7    1  0.2612321E-009  0.1051927E+03  0.7561462E-02  0.1269740E+00
         -1   -1    0    0    0  501 -0.00000000000E+00  0.00000000000E+00  0.17264112962E+03  0.17264112962E+03  0.00000000000E+00 0.  1.
          1   -1    0    0  501    0  0.00000000000E+00 -0.00000000000E+00 -0.13517298920E+03  0.13517298920E+03  0.00000000000E+00 0. -1.
         25    2    1    2    0    0 -0.96543394682E+02  0.26046926827E+02  0.53077442539E+02  0.16871194906E+03  0.12508971738E+03 0.  0.
          5    1    3    3  502    0 -0.61959904907E+02 -0.68267496691E+01  0.89071686628E+02  0.10879739007E+03  0.41800000000E+01 0.  1.
         -5    1    3    3    0  502 -0.34583489775E+02  0.32873676496E+02 -0.35994244090E+02  0.59914558990E+02  0.41800000000E+01 0.  1.
        -11    1    1    2    0    0  0.33545439530E+02 -0.81208524859E+01 -0.53325455407E+02  0.63520460898E+02  0.00000000000E+00 0. -1.
         11    1    1    2    0    0  0.62997955153E+02 -0.17926074341E+02  0.37716153290E+02  0.75581708856E+02  0.00000000000E+00 0.  1.
</event>
<event>
 7    1  0.2612321E-009  0.6748602E+02  0.7561462E-02  0.1368857E+00
         -1   -1    0    0    0  501 -0.00000000000E+00  0.00000000000E+00  0.90679948148E+02  0.90679948148E+02  0.00000000000E+00 0.  1.
          1   -1    0    0  501    0  0.00000000000E+00 -0.00000000000E+00 -0.18033838711E+03  0.18033838711E+03  0.00000000000E+00 0. -1.
         25    2    1    2    0    0  0.16457723085E+02  0.50976963563E+02 -0.24506050841E+01  0.13609788082E+03  0.12508844965E+03 0.  0.
          5    1    3    3  502    0  0.45385517270E+01  0.16364617198E+02 -0.62910173516E+02  0.65295953011E+02  0.41800000000E+01 0. -1.
         -5    1    3    3    0  502  0.11919171358E+02  0.34612346364E+02  0.60459568431E+02  0.70801927810E+02  0.41800000000E+01 0. -1.
        -11    1    1    2    0    0 -0.23242892298E+02  0.53935279352E+01  0.70525749893E+01  0.24880936477E+02  0.00000000000E+00 0.  1.
         11    1    1    2    0    0  0.67851692130E+01 -0.56370491498E+02 -0.94260408863E+02  0.11003951796E+03  0.00000000000E+00 0. -1.
</event>
<event>
 7    1  0.2612321E-009  0.1343858E+03  0.7561462E-02  0.1221089E+00
          1   -1    0    0  501    0  0.00000000000E+00  0.00000000000E+00  0.62240505161E+02  0.62240505161E+02  0.00000000000E+00 0. -1.
         -1   -1    0    0    0  501 -0.00000000000E+00 -0.00000000000E+00 -0.31948405122E+03  0.31948405122E+03  0.00000000000E+00 0.  1.
         25    2    1    2    0    0  0.86508758810E+02 -0.27859117351E+02 -0.13650466886E+03  0.20625555155E+03  0.12509169498E+03 0.  0.
          5    1    3    3  502    0  0.71383498294E+02  0.35775579959E+02 -0.10899043641E+03  0.13517353135E+03  0.41800000000E+01 0. -1.
         -5    1    3    3    0  502  0.15125260515E+02 -0.63634697310E+02 -0.27514232447E+02  0.71082020192E+02  0.41800000000E+01 0. -1.
        -11    1    1    2    0    0 -0.10324766431E+03  0.25688817337E+02 -0.11707327647E+03  0.15819654733E+03  0.00000000000E+00 0.  1.
         11    1    1    2    0    0  0.16738905503E+02  0.21703000135E+01 -0.36656007279E+01  0.17272457505E+02  0.00000000000E+00 0. -1.
</event>
<event>
 7    1  0.2612321E-009  0.1313042E+03  0.7561462E-02  0.1225533E+00
         -2   -1    0    0    0  501 -0.00000000000E+00  0.00000000000E+00  0.25523664654E+02  0.25523664654E+02  0.00000000000E+00 0.  1.
          2   -1    0    0  501    0  0.00000000000E+00 -0.00000000000E+00 -0.10688754658E+04  0.10688754658E+04  0.00000000000E+00 0. -1.
         25    2    1    2    0    0  0.13953305500E+02 -0.11411621324E+03 -0.71196520897E+03  0.73195565018E+03  0.12508960865E+03 0.  0.
          5    1    3    3  502    0  0.84275741424E+01 -0.21898303323E+02 -0.13492658756E+02  0.27387660263E+02  0.41800000000E+01 0. -1.
         -5    1    3    3    0  502  0.55257313574E+01 -0.92217909915E+02 -0.69847255021E+03  0.70456798992E+03  0.41800000000E+01 0. -1.
        -11    1    1    2    0    0  0.37632870887E+02  0.32391561927E+02 -0.12693112400E+03  0.13629730920E+03  0.00000000000E+00 0. -1.
         11    1    1    2    0    0 -0.51586176387E+02  0.81724651311E+02 -0.20445546823E+03  0.22614617112E+03  0.00000000000E+00 0.  1.
</event>
<event>
 7    1  0.3556982E-009  0.1268876E+03  0.7561462E-02  0.1232148E+00
          1   -1    0    0  501    0  0.00000000000E+00  0.00000000000E+00  0.63917217408E+03  0.63917217408E+03  0.00000000000E+00 0. -1.
         -1   -1    0    0    0  501 -0.00000000000E+00 -0.00000000000E+00 -0.32464960235E+02  0.32464960235E+02  0.00000000000E+00 0.  1.
         25    2    1    2    0    0  0.90229598599E+02  0.11014806230E+02  0.27800824579E+03  0.31811633968E+03  0.12508682755E+03 0.  0.
          5    1    3    3  502    0  0.59710414832E+02 -0.44471469099E+02  0.76415559589E+02  0.10677010513E+03  0.41800000000E+01 0. -1.
         -5    1    3    3    0  502  0.30519183767E+02  0.55486275329E+02  0.20159268620E+03  0.21134623454E+03  0.41800000000E+01 0. -1.
        -11    1    1    2    0    0 -0.47489476375E+02 -0.41642870507E+02  0.95712223456E+02  0.11467435960E+03  0.00000000000E+00 0.  1.
         11    1    1    2    0    0 -0.42740122225E+02  0.30628064277E+02  0.23298674460E+03  0.23884643504E+03  0.00000000000E+00 0. -1.
</event>
<event>
 7    1  0.2612321E-009  0.9861071E+02  0.7561462E-02  0.1283245E+00
          2   -1    0    0  501    0  0.00000000000E+00  0.00000000000E+00  0.23415950604E+04  0.23415950604E+04  0.00000000000E+00 0. -1.
         -2   -1    0    0    0  501 -0.00000000000E+00 -0.00000000000E+00 -0.84616432035E+01  0.84616432035E+01  0.00000000000E+00 0.  1.
         25    2    1    2    0    0  0.73613133953E+02  0.19609284972E+02  0.16721461678E+04  0.16785483833E+04  0.12509376895E+03 0.  0.
          5    1    3    3  502    0  0.36630484183E+01 -0.22067696395E+01  0.12537319878E+04  0.12537462492E+04  0.41800000000E+01 0.  1.
         -5    1    3    3    0  502  0.69950085535E+02  0.21816054612E+02  0.41841417997E+03  0.42480213407E+03  0.41800000000E+01 0.  1.
        -11    1    1    2    0    0  0.11287685043E+02 -0.30246952012E+02  0.15350243061E+03  0.15686072211E+03  0.00000000000E+00 0. -1.
         11    1    1    2    0    0 -0.84900818996E+02  0.10637667039E+02  0.50748481885E+03  0.51464759826E+03  0.00000000000E+00 0.  1.
</event>
<event>
 7    1  0.2612321E-009  0.1189526E+03  0.7561462E-02  0.1244835E+00
         -1   -1    0    0    0  501 -0.00000000000E+00  0.00000000000E+00  0.24604635735E+03  0.24604635735E+03  0.00000000000E+00 0.  1.
          1   -1    0    0  501    0  0.00000000000E+00 -0.00000000000E+00 -0.59338971063E+02  0.59338971063E+02  0.00000000000E+00 0. -1.
         25    2    1    2    0    0 -0.49243854323E+02 -0.20770109114E+02  0.12177845294E+03  0.18257359784E+03  0.12508705930E+03 0.  0.
          5    1    3    3  502    0 -0.71516050497E+02  0.30857568642E+02  0.56485083478E+02  0.96305618096E+02  0.41800000000E+01 0. -1.
         -5    1    3    3    0  502  0.22272196175E+02 -0.51627677756E+02  0.65293369464E+02  0.86267979743E+02  0.41800000000E+01 0. -1.
        -11    1    1    2    0    0  0.15162523620E+02 -0.35010850233E+02  0.31016684056E+02  0.49170076738E+02  0.00000000000E+00 0.  1.
         11    1    1    2    0    0  0.34081330703E+02  0.55780959347E+02  0.33912249290E+02  0.73641653838E+02  0.00000000000E+00 0. -1.
</event>
<event>
 7    1  0.2612321E-009  0.9715723E+02  0.7561462E-02  0.1286390E+00
         -2   -1    0    0    0  501 -0.00000000000E+00  0.00000000000E+00  0.19828956141E+03  0.19828956141E+03  0.00000000000E+00 0. -1.
          2   -1    0    0  501    0  0.00000000000E+00 -0.00000000000E+00 -0.77602213815E+02  0.77602213815E+02  0.00000000000E+00 0.  1.
         25    2    1    2    0    0  0.12779547511E+02 -0.59759458051E+02  0.74456102350E+02  0.15787882683E+03  0.12508998011E+03 0.  0.
          5    1    3    3  502    0  0.51505318453E+02 -0.41320093519E+02  0.90316145915E+02  0.11195814651E+03  0.41800000000E+01 0.  1.
         -5    1    3    3    0  502 -0.38725770942E+02 -0.18439364533E+02 -0.15860043566E+02  0.45920680323E+02  0.41800000000E+01 0.  1.
        -11    1    1    2    0    0  0.23449589122E+02  0.16730149940E+02 -0.16947886147E+02  0.33421729337E+02  0.00000000000E+00 0.  1.
         11    1    1    2    0    0 -0.36229136633E+02  0.43029308111E+02  0.63179131397E+02  0.84591219058E+02  0.00000000000E+00 0. -1.
</event>
<event>
 7    1  0.4156214E-009  0.1037893E+03  0.7561462E-02  0.1272523E+00
          1   -1    0    0  501    0  0.00000000000E+00  0.00000000000E+00  0.60686071177E+03  0.60686071177E+03  0.00000000000E+00 0. -1.
         -1   -1    0    0    0  501 -0.00000000000E+00 -0.00000000000E+00 -0.34672566296E+02  0.34672566296E+02  0.00000000000E+00 0.  1.
         25    2    1    2    0    0 -0.17629964140E+02 -0.94143018527E+02  0.29899615626E+03  0.33796328072E+03  0.12508698605E+03 0.  0.
          5    1    3    3  502    0 -0.29618908215E+02 -0.52199085405E+02  0.28599138559E+03  0.29225086702E+03  0.41800000000E+01 0.  1.
         -5    1    3    3    0  502  0.11988944074E+02 -0.41943933122E+02  0.13004770671E+02  0.45712413697E+02  0.41800000000E+01 0.  1.
        -11    1    1    2    0    0  0.26363226102E+02  0.35049813106E+02  0.29969492557E+02  0.53119483933E+02  0.00000000000E+00 0.  1.
         11    1    1    2    0    0 -0.87332619614E+01  0.59093205422E+02  0.24322249665E+03  0.25045051341E+03  0.00000000000E+00 0. -1.
</event>
<event>
 7    1  0.2612321E-009  0.1642204E+03  0.7561462E-02  0.1184013E+00
         -2   -1    0    0    0  501 -0.00000000000E+00  0.00000000000E+00  0.71750577942E+02  0.71750577942E+02  0.00000000000E+00 0.  1.
          2   -1    0    0  501    0  0.00000000000E+00 -0.00000000000E+00 -0.48020575741E+03  0.48020575741E+03  0.00000000000E+00 0. -1.
         25    2    1    2    0    0  0.12530068557E+03 -0.38459905686E+02 -0.32059306756E+03  0.36824864923E+03  0.12509087316E+03 0.  0.
          5    1    3    3  502    0 -0.45600337584E+01 -0.43375369477E+02 -0.13277146515E+03  0.13981398694E+03  0.41800000000E+01 0. -1.
         -5    1    3    3    0  502  0.12986071933E+03  0.49154637911E+01 -0.18782160240E+03  0.22843466230E+03  0.41800000000E+01 0. -1.
        -11    1    1    2    0    0 -0.60692794315E+02 -0.23505331903E+02 -0.11607371858E+02  0.66112381526E+02  0.00000000000E+00 0.  1.
         11    1    1    2    0    0 -0.64607891252E+02  0.61965237589E+02 -0.76254740051E+02  0.11759530459E+03  0.00000000000E+00 0. -1.
</event>
<event>
 7    1  0.2612321E-009  0.1037148E+03  0.7561462E-02  0.1272673E+00
         -2   -1    0    0    0  501 -0.00000000000E+00  0.00000000000E+00  0.11600893349E+02  0.11600893349E+02  0.00000000000E+00 0.  1.
          2   -1    0    0  501    0  0.00000000000E+00 -0.00000000000E+00 -0.10799127747E+04  0.10799127747E+04  0.00000000000E+00 0. -1.
         25    2    1    2    0    0  0.12083586640E+02 -0.55453194656E+01 -0.75724556584E+03  0.76762538157E+03  0.12510441968E+03 0.  0.
          5    1    3    3  502    0 -0.52395095563E+02  0.68388047213E+01 -0.46800103920E+03  0.47099305768E+03  0.41800000000E+01 0. -1.
         -5    1    3    3    0  502  0.64478682203E+02 -0.12384124187E+02 -0.28924452664E+03  0.29663232390E+03  0.41800000000E+01 0. -1.
        -11    1    1    2    0    0  0.28213508751E+02  0.30252295119E+02 -0.17578608638E+03  0.18058779472E+03  0.00000000000E+00 0.  1.
         11    1    1    2    0    0 -0.40297095391E+02 -0.24706975653E+02 -0.13528022910E+03  0.14330049173E+03  0.00000000000E+00 0. -1.
</event>
<event>
 7    1  0.2612321E-009  0.9679698E+02  0.7561462E-02  0.1287179E+00
          3   -1    0    0  501    0  0.00000000000E+00  0.00000000000E+00  0.92307786400E+02  0.92307786400E+02  0.00000000000E+00 0. -1.
         -3   -1    0    0    0  501 -0.00000000000E+00 -0.00000000000E+00 -0.23132043259E+03  0.23132043259E+03  0.00000000000E+00 0.  1.
         25    2    1    2    0    0 -0.88776296355E+01 -0.62905758169E+02  0.69287442413E+01  0.14046790287E+03  0.12508907835E+03 0.  0.
          5    1    3    3  502    0  0.32420948527E+02  0.17201938640E+02 -0.25175876496E+02  0.44702592248E+02  0.41800000000E+01 0.  1.
         -5    1    3    3    0  502 -0.41298578162E+02 -0.80107696809E+02  0.32104620737E+02  0.95765310624E+02  0.41800000000E+01 0.  1.
        -11    1    1    2    0    0  0.14740166155E+02  0.36127447278E+02 -0.47202628942E+01  0.39303254660E+02  0.00000000000E+00 0. -1.
         11    1    1    2    0    0 -0.58625365192E+01  0.26778310891E+02 -0.14122112753E+03  0.14385706146E+03  0.00000000000E+00 0.  1.
</event>
<event>
 7    1  0.2612321E-009  0.1070797E+03  0.7561462E-02  0.1266075E+00
          2   -1    0    0  501    0  0.00000000000E+00  0.00000000000E+00  0.22329163509E+03  0.22329163509E+03  0.00000000000E+00 0. -1.
         -2   -1    0    0    0  501 -0.00000000000E+00 -0.00000000000E+00 -0.74143298169E+02  0.74143298169E+02  0.00000000000E+00 0.  1.
         25    2    1    2    0    0  0.12458682388E+02 -0.35823598797E+02  0.14910924257E+03  0.19829231712E+03  0.12509087821E+03 0.  0.
          5    1    3    3  502    0 -0.89970859798E+01 -0.72066839952E+02  0.44089015123E+02  0.85064038414E+02  0.41800000000E+01 0.  1.
         -5    1    3    3    0  502  0.21455768368E+02  0.36243241156E+02  0.10502022745E+03  0.11322827871E+03  0.41800000000E+01 0.  1.
        -11    1    1    2    0    0 -0.14753463319E+02  0.66605952022E+02  0.15489297627E+01  0.68237941851E+02  0.00000000000E+00 0. -1.
         11    1    1    2    0    0  0.22947809308E+01 -0.30782353225E+02 -0.15098354154E+01  0.30904674283E+02  0.00000000000E+00 0.  1.
</event>
<event>
 7    1  0.2612321E-009  0.2084473E+03  0.7561462E-02  0.1142802E+00
         -1   -1    0    0    0  501 -0.00000000000E+00  0.00000000000E+00  0.13167944528E+03  0.13167944528E+03  0.00000000000E+00 0.  1.
          1   -1    0    0  501    0  0.00000000000E+00 -0.00000000000E+00 -0.36523169852E+03  0.36523169852E+03  0.00000000000E+00 0. -1.
         25    2    1    2    0    0  0.18453710828E+03  0.31834861348E+02 -0.84771202028E+02  0.24062618325E+03  0.12508957048E+03 0.  0.
          5    1    3    3  502    0  0.62118833779E+02  0.55659456434E+02  0.97565678350E+01  0.84079650430E+02  0.41800000000E+01 0.  1.
         -5    1    3    3    0  502  0.12241827450E+03 -0.23824595086E+02 -0.94527769863E+02  0.15654653282E+03  0.41800000000E+01 0.  1.
        -11    1    1    2    0    0 -0.51654002770E+02  0.32430100017E+02 -0.40308957609E+02  0.73107177847E+02  0.00000000000E+00 0. -1.
         11    1    1    2    0    0 -0.13288310551E+03 -0.64264961365E+02 -0.10847209360E+03  0.18317778271E+03  0.00000000000E+00 0.  1.
</event>
<event>
 7    1  0.2612321E-009  0.1248002E+03  0.7561462E-02  0.1235382E+00
          2   -1    0    0  501    0  0.00000000000E+00  0.00000000000E+00  0.50948498263E+03  0.50948498263E+03  0.00000000000E+00 0. -1.
         -2   -1    0    0    0  501 -0.00000000000E+00 -0.00000000000E+00 -0.37231084185E+02  0.37231084185E+02  0.00000000000E+00 0.  1.
         25    2    1    2    0    0  0.12583964991E+02  0.80428269474E+02  0.30746755346E+03  0.34177641775E+03  0.12509100926E+03 0.  0.
          5    1    3    3  502    0  0.56066053746E+02  0.67656782644E+02  0.11955327606E+03  0.14842944734E+03  0.41800000000E+01 0. -1.
         -5    1    3    3    0  502 -0.43482088755E+02  0.12771486830E+02  0.18791427740E+03  0.19334697042E+03  0.41800000000E+01 0. -1.
        -11    1    1    2    0    0 -0.43197947420E+02 -0.72669807143E+02  0.88575616490E+02  0.12244428679E+03  0.00000000000E+00 0.  1.
         11    1    1    2    0    0  0.30613982429E+02 -0.77584623310E+01  0.76210728498E+02  0.82495362270E+02  0.00000000000E+00 0. -1.
</event>
<event>
 7    1  0.2612321E-009  0.8024658E+02  0.7561462E-02  0.1328353E+00
         -2   -1    0    0    0  501 -0.00000000000E+00  0.00000000000E+00  0.75645117451E+02  0.75645117451E+02  0.00000000000E+00 0.  1.
          2   -1    0    0  501    0  0.00000000000E+00 -0.00000000000E+00 -0.17717213158E+03  0.17717213158E+03  0.00000000000E+00 0. -1.
         25    2    1    2    0    0 -0.20114995735E+02 -0.24592445446E+02 -0.85753631030E+02  0.15495353798E+03  0.12509001668E+03 0.  0.
          5    1    3    3  502    0  0.34893655461E+01 -0.42025949397E+02  0.18741030599E+02  0.46336321849E+02  0.41800000000E+01 0.  1.
         -5    1    3    3    0  502 -0.23604361281E+02  0.17433503951E+02 -0.10449466163E+03  0.10861721613E+03  0.41800000000E+01 0.  1.
        -11    1    1    2    0    0  0.34906795629E+02 -0.20868054579E+02  0.12219058715E+02  0.42464873470E+02  0.00000000000E+00 0.  1.
         11    1    1    2    0    0 -0.14791799894E+02  0.45460500025E+02 -0.27992441817E+02  0.55398837582E+02  0.00000000000E+00 0. -1.
</event>
<event>
 7    1  0.2612321E-009  0.1437062E+03  0.7561462E-02  0.1208427E+00
          1   -1    0    0  501    0  0.00000000000E+00  0.00000000000E+00  0.12629875247E+03  0.12629875247E+03  0.00000000000E+00 0. -1.
         -1   -1    0    0    0  501 -0.00000000000E+00 -0.00000000000E+00 -0.18358592325E+03  0.18358592325E+03  0.00000000000E+00 0.  1.
         25    2    1    2    0    0  0.15788568603E+02 -0.10556636966E+03 -0.35070739309E+02  0.16813911619E+03  0.12508904163E+03 0.  0.
          5    1    3    3  502    0 -0.49119595592E+02 -0.22274489835E+02  0.66900385454E+01  0.54507949734E+02  0.41800000000E+01 0.  1.
         -5    1    3    3    0  502  0.64908164195E+02 -0.83291879821E+02 -0.41760777854E+02  0.11363116646E+03  0.41800000000E+01 0.  1.
        -11    1    1    2    0    0  0.10618568248E+02 -0.65345967535E+01 -0.23462424797E+02  0.26569537514E+02  0.00000000000E+00 0.  1.
         11    1    1    2    0    0 -0.26407136850E+02  0.11210096641E+03  0.12459933253E+01  0.11517602201E+03  0.00000000000E+00 0. -1.
</event>
<event>
 7    1  0.2612321E-009  0.8575029E+02  0.7561462E-02  0.1313482E+00
         -1   -1    0    0    0  501 -0.00000000000E+00  0.00000000000E+00  0.46907854216E+02  0.46907854216E+02  0.00000000000E+00 0.  1.
          1   -1    0    0  501    0  0.00000000000E+00 -0.00000000000E+00 -0.27816438865E+03  0.27816438865E+03  0.00000000000E+00 0. -1.
         25    2    1    2    0    0  0.12106778278E+00 -0.38935206345E+02 -0.13650102886E+03  0.18919879574E+03  0.12509072099E+03 0.  0.
          5    1    3    3  502    0  0.11924948061E+02  0.27176604955E+02  0.69365389172E+01  0.30762968246E+02  0.41800000000E+01 0. -1.
         -5    1    3    3    0  502 -0.11803880278E+02 -0.66111811300E+02 -0.14343756778E+03  0.15843582749E+03  0.41800000000E+01 0. -1.
        -11    1    1    2    0    0  0.29955532109E+02  0.31061065741E+02 -0.82277930678E+01  0.43929719868E+02  0.00000000000E+00 0.  1.
         11    1    1    2    0    0 -0.30076599892E+02  0.78741406034E+01 -0.86527712506E+02  0.91943727262E+02  0.00000000000E+00 0. -1.
</event>
<event>
 7    1  0.2612321E-009  0.9826185E+02  0.7561462E-02  0.1283994E+00
         -2   -1    0    0    0  501 -0.00000000000E+00  0.00000000000E+00  0.93838126263E+03  0.93838126263E+03  0.00000000000E+00 0.  1.
          2   -1    0    0  501    0  0.00000000000E+00 -0.00000000000E+00 -0.14945496171E+02  0.14945496171E+02  0.00000000000E+00 0. -1.
         25    2    1    2    0    0 -0.33031813875E+02  0.35721100022E+02  0.45120795296E+03  0.47074841956E+03  0.12509340503E+03 0.  0.
          5    1    3    3  502    0 -0.29491080137E+02  0.64743309610E+02  0.13056819444E+03  0.14875128822E+03  0.41800000000E+01 0. -1.
         -5    1    3    3    0  502 -0.35407337380E+01 -0.29022209588E+02  0.32063975852E+03  0.32199713134E+03  0.41800000000E+01 0. -1.
        -11    1    1    2    0    0  0.44659404804E+02 -0.56435311113E+02  0.40332860407E+03  0.40969912087E+03  0.00000000000E+00 0.  1.
         11    1    1    2    0    0 -0.11627590929E+02  0.20714211091E+02  0.68899209424E+02  0.72879218377E+02  0.00000000000E+00 0. -1.
</event>
<event>
 7    1  0.2612321E-009  0.1581900E+03  0.7561462E-02  0.1190756E+00
          2   -1    0    0  501    0  0.00000000000E+00  0.00000000000E+00  0.75742188196E+03  0.75742188196E+03  0.00000000000E+00 0. -1.
         -2   -1    0    0    0  501 -0.00000000000E+00 -0.00000000000E+00 -0.35696582750E+02  0.35696582750E+02  0.00000000000E+00 0.  1.
         25    2    1    2    0    0 -0.15564664098E+02 -0.12207462457E+03  0.35778713400E+03  0.39849972116E+03  0.12508365911E+03 0.  0.
          5    1    3    3  502    0  0.33237524512E+02 -0.11471601799E+03  0.29664483556E+03  0.31981264622E+03  0.41800000000E+01 0. -1.
         -5    1    3    3    0  502 -0.48802188611E+02 -0.73586065843E+01  0.61142298440E+02  0.78687074940E+02  0.41800000000E+01 0. -1.
        -11    1    1    2    0    0 -0.32057987037E+00 -0.12163384069E+02  0.10011472909E+02  0.15756911921E+02  0.00000000000E+00 0.  1.
         11    1    1    2    0    0  0.15885243969E+02  0.13423800864E+03  0.35392669230E+03  0.37886183163E+03  0.00000000000E+00 0. -1.
</event>
<event>
 7    1  0.2612321E-009  0.2315371E+03  0.7561462E-02  0.1125563E+00
          1   -1    0    0  501    0  0.00000000000E+00  0.00000000000E+00  0.17002445378E+04  0.17002445378E+04  0.00000000000E+00 0. -1.
         -1   -1    0    0    0  501 -0.00000000000E+00 -0.00000000000E+00 -0.33141647185E+02  0.33141647185E+02  0.00000000000E+00 0.  1.
         25    2    1    2    0    0  0.20498821033E+03 -0.13479859611E+01  0.69741432397E+03  0.73760126229E+03  0.12508756696E+03 0.  0.
          5    1    3    3  502    0  0.40514695767E+02 -0.50508945997E+02  0.13933513908E+03  0.15370213916E+03  0.41800000000E+01 0. -1.
         -5    1    3    3    0  502  0.16447351457E+03  0.49160960036E+02  0.55807918489E+03  0.58389912313E+03  0.41800000000E+01 0. -1.
        -11    1    1    2    0    0 -0.11964266613E+03  0.48349607033E+02  0.55446530976E+03  0.56928361278E+03  0.00000000000E+00 0.  1.
         11    1    1    2    0    0 -0.85345544206E+02 -0.47001621072E+02  0.41522325686E+03  0.42650130989E+03  0.00000000000E+00 0. -1.
</event>
<event>
 7    1  0.2612321E-009  0.6277689E+02  0.7561462E-02  0.1386535E+00
          2   -1    0    0  501    0  0.00000000000E+00  0.00000000000E+00  0.26477732545E+03  0.26477732545E+03  0.00000000000E+00 0. -1.
         -2   -1    0    0    0  501 -0.00000000000E+00 -0.00000000000E+00 -0.49642827713E+02  0.49642827713E+02  0.00000000000E+00 0.  1.
         25    2    1    2    0    0 -0.34307087971E+02 -0.12962787035E+02  0.10519704635E+03  0.16750872462E+03  0.12509094345E+03 0.  0.
          5    1    3    3  502    0 -0.28066572216E+02 -0.17828484924E+02  0.13359493653E+03  0.13773404378E+03  0.41800000000E+01 0.  1.
         -5    1    3    3    0  502 -0.62405157545E+01  0.48656978887E+01 -0.28397890177E+02  0.29774680844E+02  0.41800000000E+01 0.  1.
        -11    1    1    2    0    0  0.47364139038E+02 -0.17068158938E+02  0.25685436045E+02  0.56519247528E+02  0.00000000000E+00 0.  1.
         11    1    1    2    0    0 -0.13057051067E+02  0.30030945973E+02  0.84252015343E+02  0.90392181011E+02  0.00000000000E+00 0. -1.
</event>
<event>
 7    1  0.2612321E-009  0.9179943E+02  0.7561462E-02  0.1298552E+00
          1   -1    0    0  501    0  0.00000000000E+00  0.00000000000E+00  0.83351249521E+02  0.83351249521E+02  0.00000000000E+00 0. -1.
         -1   -1    0    0    0  501 -0.00000000000E+00 -0.00000000000E+00 -0.20619140769E+03  0.20619140769E+03  0.00000000000E+00 0.  1.
         25    2    1    2    0    0  0.19639650812E+01 -0.34642393818E+02 -0.14047708532E+03  0.19127093801E+03  0.12508720005E+03 0.  0.
          5    1    3    3  502    0  0.51061038446E+02  0.33966592564E+01 -0.11119843424E+03  0.12247992129E+03  0.41800000000E+01 0.  1.
         -5    1    3    3    0  502 -0.49097073365E+02 -0.38039053074E+02 -0.29278651077E+02  0.68791016715E+02  0.41800000000E+01 0.  1.
        -11    1    1    2    0    0 -0.10993143847E+02  0.50540426017E+02 -0.20768751872E+02  0.55736208410E+02  0.00000000000E+00 0.  1.
         11    1    1    2    0    0  0.90291787657E+01 -0.15898032199E+02  0.38405679026E+02  0.42535510793E+02  0.00000000000E+00 0. -1.
</event>
<event>
 7    1  0.2612321E-009  0.3618120E+03  0.7561462E-02  0.1057869E+00
          1   -1    0    0  501    0  0.00000000000E+00  0.00000000000E+00  0.25634095415E+03  0.25634095415E+03  0.00000000000E+00 0. -1.
         -1   -1    0    0    0  501 -0.00000000000E+00 -0.00000000000E+00 -0.55835014959E+03  0.55835014959E+03  0.00000000000E+00 0.  1.
         25    2    1    2    0    0 -0.34610704255E+03  0.28916963422E+02 -0.42665201142E+02  0.37160599935E+03  0.12507767061E+03 0.  0.
          5    1    3    3  502    0 -0.35264393780E+03  0.37229499239E+02 -0.49909766454E+02  0.35812321856E+03  0.41800000000E+01 0.  1.
         -5    1    3    3    0  502  0.65368952524E+01 -0.83125358167E+01  0.72445653112E+01  0.13482780789E+02  0.41800000000E+01 0.  1.
        -11    1    1    2    0    0  0.15682712678E+03  0.29411589908E+02 -0.13680734614E+03  0.21018096792E+03  0.00000000000E+00 0. -1.
         11    1    1    2    0    0  0.18927991577E+03 -0.58328553331E+02 -0.12253664815E+03  0.23290413648E+03  0.00000000000E+00 0.  1.
</event>
<event>
 7    1  0.2612321E-009  0.9536531E+02  0.7561462E-02  0.1290355E+00
         -1   -1    0    0    0  501 -0.00000000000E+00  0.00000000000E+00  0.14912336289E+02  0.14912336289E+02  0.00000000000E+00 0.  1.
          1   -1    0    0  501    0  0.00000000000E+00 -0.00000000000E+00 -0.70494614023E+03  0.70494614023E+03  0.00000000000E+00 0. -1.
         25    2    1    2    0    0  0.15541531968E+02  0.83441333199E+01 -0.38662435009E+03  0.40674067838E+03  0.12509367526E+03 0.  0.
          5    1    3    3  502    0  0.51274693628E+02  0.44958067070E+02 -0.15327945179E+03  0.16781652107E+03  0.41800000000E+01 0.  1.
         -5    1    3    3    0  502 -0.35733161659E+02 -0.36613933751E+02 -0.23334489830E+03  0.23892415732E+03  0.41800000000E+01 0.  1.
        -11    1    1    2    0    0  0.42226291293E+00  0.29761002982E+02 -0.69765971354E+02  0.75849761789E+02  0.00000000000E+00 0. -1.
         11    1    1    2    0    0 -0.15963794881E+02 -0.38105136302E+02 -0.23364348250E+03  0.23726803635E+03  0.00000000000E+00 0.  1.
</event>
<event>
 7    1  0.2612321E-009  0.9174485E+02  0.7561462E-02  0.1298680E+00
          2   -1    0    0  501    0  0.00000000000E+00  0.00000000000E+00  0.21833769788E+03  0.21833769788E+03  0.00000000000E+00 0. -1.
         -2   -1    0    0    0  501 -0.00000000000E+00 -0.00000000000E+00 -0.62355553134E+02  0.62355553134E+02  0.00000000000E+00 0.  1.
         25    2    1    2    0    0  0.19761314868E+01 -0.38286794850E+02  0.11116997785E+03  0.17168619264E+03  0.12509037138E+03 0.  0.
          5    1    3    3  502    0  0.36941615048E+02 -0.30874672758E+02  0.12431243492E+03  0.13337534336E+03  0.41800000000E+01 0.  1.
         -5    1    3    3    0  502 -0.34965483561E+02 -0.74121220928E+01 -0.13142457071E+02  0.38310849278E+02  0.41800000000E+01 0.  1.
        -11    1    1    2    0    0  0.27371848657E+02  0.57787016219E+02  0.32111859054E+02  0.71552280427E+02  0.00000000000E+00 0.  1.
         11    1    1    2    0    0 -0.29347980144E+02 -0.19500221368E+02  0.12700307841E+02  0.37454777949E+02  0.00000000000E+00 0. -1.
</event>
<event>
 7    1  0.2612321E-009  0.1236929E+03  0.7561462E-02  0.1237126E+00
          1   -1    0    0  501    0  0.00000000000E+00  0.00000000000E+00  0.17087907621E+03  0.17087907621E+03  0.00000000000E+00 0. -1.
         -1   -1    0    0    0  501 -0.00000000000E+00 -0.00000000000E+00 -0.11681671770E+03  0.11681671770E+03  0.00000000000E+00 0.  1.
         25    2    1    2    0    0 -0.49937977993E+02  0.72420870914E+02  0.45154208054E+02  0.15945264003E+03  0.12509059804E+03 0.  0.
          5    1    3    3  502    0 -0.62763639588E+02  0.85564928783E+02 -0.45538517166E+01  0.10629600866E+03  0.41800000000E+01 0.  1.
         -5    1    3    3    0  502  0.12825661594E+02 -0.13144057869E+02  0.49708059770E+02  0.53156631371E+02  0.41800000000E+01 0.  1.
        -11    1    1    2    0    0 -0.39681046603E+01 -0.68163622054E+02 -0.13688621253E+02  0.69637659193E+02  0.00000000000E+00 0.  1.
         11    1    1    2    0    0  0.53906082654E+02 -0.42572488599E+01  0.22596771710E+02  0.58605494680E+02  0.00000000000E+00 0. -1.
</event>
<event>
 7    1  0.2612321E-009  0.9133809E+02  0.7561462E-02  0.1299643E+00
         -1   -1    0    0    0  501 -0.00000000000E+00  0.00000000000E+00  0.18462622861E+03  0.18462622861E+03  0.00000000000E+00 0.  1.
          1   -1    0    0  501    0  0.00000000000E+00 -0.00000000000E+00 -0.76574495373E+02  0.76574495373E+02  0.00000000000E+00 0. -1.
         25    2    1    2    0    0 -0.48479516941E+02  0.47594515230E+01  0.46854161088E+02  0.14217855505E+03  0.12508602305E+03 0.  0.
          5    1    3    3  502    0 -0.77544582403E+02  0.52364023832E+01  0.70081649137E+02  0.10473534320E+03  0.41800000000E+01 0.  1.
         -5    1    3    3    0  502  0.29065065462E+02 -0.47695086027E+00 -0.23227488049E+02  0.37443211848E+02  0.41800000000E+01 0.  1.
        -11    1    1    2    0    0  0.19993455715E+02  0.26491250651E+02 -0.11328409838E+02  0.35069324230E+02  0.00000000000E+00 0.  1.
         11    1    1    2    0    0  0.28486061225E+02 -0.31250702174E+02  0.72525981989E+02  0.83952844705E+02  0.00000000000E+00 0. -1.
</event>
<event>
 7    1  0.2612321E-009  0.1173978E+03  0.7561462E-02  0.1247453E+00
         -1   -1    0    0    0  501 -0.00000000000E+00  0.00000000000E+00  0.31513127519E+02  0.31513127519E+02  0.00000000000E+00 0.  1.
          1   -1    0    0  501    0  0.00000000000E+00 -0.00000000000E+00 -0.57869896610E+03  0.57869896610E+03  0.00000000000E+00 0. -1.
         25    2    1    2    0    0 -0.23854196297E+02 -0.68497439677E+02 -0.38419795139E+03  0.41050692545E+03  0.12508776147E+03 0.  0.
          5    1    3    3  502    0 -0.65637626842E+02 -0.56388347745E+02 -0.32837846945E+03  0.33961424502E+03  0.41800000000E+01 0. -1.
         -5    1    3    3    0  502  0.41783430545E+02 -0.12109091931E+02 -0.55819481937E+02  0.70892680435E+02  0.41800000000E+01 0. -1.
        -11    1    1    2    0    0  0.44487301696E+02  0.14720836782E+02 -0.32374934777E+02  0.56955767482E+02  0.00000000000E+00 0.  1.
         11    1    1    2    0    0 -0.20633105399E+02  0.53776602895E+02 -0.13061295241E+03  0.14274940068E+03  0.00000000000E+00 0. -1.
</event>
<event>
 7    1  0.2612321E-009  0.1047670E+03  0.7561462E-02  0.1270579E+00
          2   -1    0    0  501    0  0.00000000000E+00  0.00000000000E+00  0.30097007559E+03  0.30097007559E+03  0.00000000000E+00 0. -1.
         -2   -1    0    0    0  501 -0.00000000000E+00 -0.00000000000E+00 -0.51303703434E+02  0.51303703434E+02  0.00000000000E+00 0.  1.
         25    2    1    2    0    0  0.55300797883E+02 -0.15043448192E+02  0.14907155426E+03  0.20286389066E+03  0.12508775425E+03 0.  0.
          5    1    3    3  502    0 -0.87976509660E+01  0.32297440866E+02  0.10794615465E+03  0.11309450938E+03  0.41800000000E+01 0. -1.
         -5    1    3    3    0  502  0.64098448849E+02 -0.47340889057E+02  0.41125399608E+02  0.89769381275E+02  0.41800000000E+01 0. -1.
        -11    1    1    2    0    0  0.14276551830E+02 -0.14559915157E+02 -0.35626751836E+01  0.20700331302E+02  0.00000000000E+00 0.  1.
         11    1    1    2    0    0 -0.69577349713E+02  0.29603363349E+02  0.10415749309E+03  0.12870955707E+03  0.00000000000E+00 0. -1.
</event>
<event>
 7    1  0.2612321E-009  0.1245570E+03  0.7561462E-02  0.1235763E+00
          1   -1    0    0  501    0  0.00000000000E+00  0.00000000000E+00  0.99956415238E+02  0.99956415238E+02  0.00000000000E+00 0. -1.
         -1   -1    0    0    0  501 -0.00000000000E+00 -0.00000000000E+00 -0.23541713292E+03  0.23541713292E+03  0.00000000000E+00 0.  1.
         25    2    1    2    0    0 -0.70680567174E+02  0.50058324084E+02 -0.26648176050E+01  0.15217120030E+03  0.12508954617E+03 0.  0.
          5    1    3    3  502    0 -0.65383965241E+02  0.84344657144E+02  0.22453499625E+02  0.10913622746E+03  0.41800000000E+01 0. -1.
         -5    1    3    3    0  502 -0.52966019327E+01 -0.34286333060E+02 -0.25118317230E+02  0.43034972838E+02  0.41800000000E+01 0. -1.
        -11    1    1    2    0    0  0.63956916755E+02 -0.76296182567E+01 -0.12344459507E+03  0.13923816404E+03  0.00000000000E+00 0.  1.
         11    1    1    2    0    0  0.67236504195E+01 -0.42428705828E+02 -0.93513050148E+01  0.43964183817E+02  0.00000000000E+00 0. -1.
</event>
<event>
 7    1  0.2612321E-009  0.8418397E+02  0.7561462E-02  0.1317580E+00
          2   -1    0    0  501    0  0.00000000000E+00  0.00000000000E+00  0.31411673550E+03  0.31411673550E+03  0.00000000000E+00 0. -1.
         -2   -1    0    0    0  501 -0.00000000000E+00 -0.00000000000E+00 -0.45781767030E+02  0.45781767030E+02  0.00000000000E+00 0.  1.
         25    2    1    2    0    0 -0.79064286652E+01  0.40944142210E+02  0.10781689029E+03  0.17032602597E+03  0.12509012309E+03 0.  0.
          5    1    3    3  502    0 -0.24396139552E+02  0.63413850941E+02  0.12129091255E+03  0.13908790740E+03  0.41800000000E+01 0. -1.
         -5    1    3    3    0  502  0.16489710887E+02 -0.22469708731E+02 -0.13474022268E+02  0.31238118568E+02  0.41800000000E+01 0. -1.
        -11    1    1    2    0    0 -0.18788194897E+02 -0.41345636476E+02  0.15602420205E+03  0.16249926014E+03  0.00000000000E+00 0. -1.
         11    1    1    2    0    0  0.26694623562E+02  0.40149426589E+00  0.44938761431E+01  0.27073216424E+02  0.00000000000E+00 0.  1.
</event>
<event>
 7    1  0.2612321E-009  0.1070375E+03  0.7561462E-02  0.1266156E+00
         -1   -1    0    0    0  501 -0.00000000000E+00  0.00000000000E+00  0.43809972779E+03  0.43809972779E+03  0.00000000000E+00 0.  1.
          1   -1    0    0  501    0  0.00000000000E+00 -0.00000000000E+00 -0.34036416194E+02  0.34036416194E+02  0.00000000000E+00 0. -1.
         25    2    1    2    0    0  0.10386486295E+02  0.45512822706E+02  0.28278397175E+03  0.31271898567E+03  0.12508834156E+03 0.  0.
          5    1    3    3  502    0  0.55419836156E+02  0.61391199863E+02  0.14697138619E+03  0.16869587553E+03  0.41800000000E+01 0.  1.
         -5    1    3    3    0  502 -0.45033349861E+02 -0.15878377158E+02  0.13581258556E+03  0.14402311015E+03  0.41800000000E+01 0.  1.
        -11    1    1    2    0    0  0.29708369163E+02 -0.19503177746E+02  0.79412349013E+01  0.36414617289E+02  0.00000000000E+00 0. -1.
         11    1    1    2    0    0 -0.40094855458E+02 -0.26009644959E+02  0.11333810494E+03  0.12300254102E+03  0.00000000000E+00 0.  1.
</event>
<event>
 7    1  0.2612321E-009  0.1849140E+03  0.7561462E-02  0.1163130E+00
          2   -1    0    0  501    0  0.00000000000E+00  0.00000000000E+00  0.15634659270E+03  0.15634659270E+03  0.00000000000E+00 0. -1.
         -2   -1    0    0    0  501 -0.00000000000E+00 -0.00000000000E+00 -0.31656334956E+03  0.31656334956E+03  0.00000000000E+00 0.  1.
         25    2    1    2    0    0  0.11902050270E+03 -0.13126538529E+03 -0.16674933296E+03  0.27356117701E+03  0.12503557928E+03 0.  0.
          5    1    3    3  502    0  0.46966530167E+02 -0.19706623884E+02 -0.12378086870E+03  0.13391557728E+03  0.41800000000E+01 0. -1.
         -5    1    3    3    0  502  0.72053972532E+02 -0.11155876141E+03 -0.42968464260E+02  0.13964559973E+03  0.41800000000E+01 0. -1.
        -11    1    1    2    0    0 -0.70918348566E+01  0.42255788526E+02 -0.29318340459E+02  0.51917346550E+02  0.00000000000E+00 0.  1.
         11    1    1    2    0    0 -0.11192866784E+03  0.89009596764E+02  0.35850916563E+02  0.14743141870E+03  0.00000000000E+00 0. -1.
</event>
<event>
 7    1  0.2612321E-009  0.9820577E+02  0.7561462E-02  0.1284115E+00
          1   -1    0    0  501    0  0.00000000000E+00  0.00000000000E+00  0.51499026846E+02  0.51499026846E+02  0.00000000000E+00 0. -1.
         -1   -1    0    0    0  501 -0.00000000000E+00 -0.00000000000E+00 -0.34233116536E+03  0.34233116536E+03  0.00000000000E+00 0.  1.
         25    2    1    2    0    0 -0.39961340826E+02 -0.50275401996E+02 -0.21606178509E+03  0.25779538566E+03  0.12510492030E+03 0.  0.
          5    1    3    3  502    0 -0.29906134204E+02  0.46470985192E+01 -0.19592502817E+03  0.19829286788E+03  0.41800000000E+01 0. -1.
         -5    1    3    3    0  502 -0.10055206622E+02 -0.54922500515E+02 -0.20136756920E+02  0.59502517781E+02  0.41800000000E+01 0. -1.
        -11    1    1    2    0    0  0.66399555672E+02  0.50511255480E+02 -0.70553158719E+02  0.10926132037E+03  0.00000000000E+00 0.  1.
         11    1    1    2    0    0 -0.26438214846E+02 -0.23585348485E+00 -0.42171947075E+01  0.26773486181E+02  0.00000000000E+00 0. -1.
</event>
<event>
 7    1  0.2612321E-009  0.1738660E+03  0.7561462E-02  0.1173875E+00
         -2   -1    0    0    0  501 -0.00000000000E+00  0.00000000000E+00  0.26561345202E+02  0.26561345202E+02  0.00000000000E+00 0. -1.
          2   -1    0    0  501    0  0.00000000000E+00 -0.00000000000E+00 -0.16124476592E+04  0.16124476592E+04  0.00000000000E+00 0.  1.
         25    2    1    2    0    0  0.14195243348E+03  0.86840982988E+02 -0.10596947060E+04  0.10799489682E+04  0.12508019118E+03 0.  0.
          5    1    3    3  502    0  0.38463344635E+02  0.55948546544E+02 -0.72616290541E+03  0.72934196803E+03  0.41800000000E+01 0. -1.
         -5    1    3    3    0  502  0.10348908884E+03  0.30892436443E+02 -0.33353180061E+03  0.35060700015E+03  0.41800000000E+01 0. -1.
        -11    1    1    2    0    0 -0.11297143659E+03 -0.46996400635E+02 -0.46320252559E+03  0.47909058316E+03  0.00000000000E+00 0. -1.
         11    1    1    2    0    0 -0.28980996883E+02 -0.39844582353E+02 -0.62989082423E+02  0.79969453092E+02  0.00000000000E+00 0.  1.
</event>
<event>
 7    1  0.2612321E-009  0.3564843E+03  0.7561462E-02  0.1059985E+00
          1   -1    0    0  501    0  0.00000000000E+00  0.00000000000E+00  0.49987177763E+03  0.49987177763E+03  0.00000000000E+00 0. -1.
         -1   -1    0    0    0  501 -0.00000000000E+00 -0.00000000000E+00 -0.28187093253E+03  0.28187093253E+03  0.00000000000E+00 0.  1.
         25    2    1    2    0    0  0.16426975442E+03 -0.30649018157E+03  0.20242710460E+03  0.42135979813E+03  0.12508622302E+03 0.  0.
          5    1    3    3  502    0  0.13790911227E+03 -0.14730444850E+03  0.73551345300E+02  0.21481339946E+03  0.41800000000E+01 0.  1.
         -5    1    3    3    0  502  0.26360642158E+02 -0.15918573307E+03  0.12887575930E+03  0.20654639866E+03  0.41800000000E+01 0.  1.
        -11    1    1    2    0    0 -0.15688091849E+03  0.26801750519E+03 -0.14653258113E+02  0.31090146936E+03  0.00000000000E+00 0.  1.
         11    1    1    2    0    0 -0.73888359321E+01  0.38472676375E+02  0.30226998611E+02  0.49481442673E+02  0.00000000000E+00 0. -1.
</event>
<event>
 7    1  0.2612321E-009  0.1389236E+03  0.7561462E-02  0.1214785E+00
          2   -1    0    0  501    0  0.00000000000E+00  0.00000000000E+00  0.34001993792E+03  0.34001993792E+03  0.00000000000E+00 0. -1.
         -2   -1    0    0    0  501 -0.00000000000E+00 -0.00000000000E+00 -0.10457518343E+03  0.10457518343E+03  0.00000000000E+00 0.  1.
         25    2    1    2    0    0  0.62025505158E+02  0.11424813396E+03  0.21954536452E+03  0.28416132242E+03  0.12509072975E+03 0.  0.
          5    1    3    3  502    0  0.44943600786E+02  0.12042464541E+03  0.22946510150E+03  0.26304700660E+03  0.41800000000E+01 0.  1.
         -5    1    3    3    0  502  0.17081904372E+02 -0.61765114536E+01 -0.99197369765E+01  0.21114315816E+02  0.41800000000E+01 0.  1.
        -11    1    1    2    0    0 -0.51736895857E+02 -0.10357393207E+03  0.47800256394E+02  0.12525625856E+03  0.00000000000E+00 0. -1.
         11    1    1    2    0    0 -0.10288609302E+02 -0.10674201882E+02 -0.31900866435E+02  0.35177540370E+02  0.00000000000E+00 0.  1.
</event>
<event>
 7    1  0.2612321E-009  0.1208627E+03  0.7561462E-02  0.1241681E+00
         -1   -1    0    0    0  501 -0.00000000000E+00  0.00000000000E+00  0.92172558723E+02  0.92172558723E+02  0.00000000000E+00 0.  1.
          1   -1    0    0  501    0  0.00000000000E+00 -0.00000000000E+00 -0.18712086517E+03  0.18712086517E+03  0.00000000000E+00 0. -1.
         25    2    1    2    0    0 -0.25881109444E+02  0.67618462006E+02 -0.24856427050E+02  0.14665526623E+03  0.12509131432E+03 0.  0.
          5    1    3    3  502    0 -0.67895834439E+02  0.74653249984E+02 -0.10659334246E+02  0.10155809113E+03  0.41800000000E+01 0. -1.
         -5    1    3    3    0  502  0.42014724995E+02 -0.70347879787E+01 -0.14197092804E+02  0.45097175104E+02  0.41800000000E+01 0. -1.
        -11    1    1    2    0    0  0.13489441113E+02  0.11570173318E+02 -0.45422445987E+02  0.48775327078E+02  0.00000000000E+00 0. -1.
         11    1    1    2    0    0  0.12391668331E+02 -0.79188635323E+02 -0.24669433410E+02  0.83862830582E+02  0.00000000000E+00 0.  1.
</event>
<event>
 7    1  0.2612321E-009  0.1476021E+03  0.7561462E-02  0.1203451E+00
          2   -1    0    0  501    0  0.00000000000E+00  0.00000000000E+00  0.58668914703E+03  0.58668914703E+03  0.00000000000E+00 0. -1.
         -2   -1    0    0    0  501 -0.00000000000E+00 -0.00000000000E+00 -0.46903710805E+02  0.46903710805E+02  0.00000000000E+00 0.  1.
         25    2    1    2    0    0 -0.11502017139E+03  0.41080926277E+02  0.33656008012E+03  0.37925831824E+03  0.12508757769E+03 0.  0.
          5    1    3    3  502    0 -0.81292788303E+02  0.84697043227E+02  0.25455798027E+03  0.28035574594E+03  0.41800000000E+01 0. -1.
         -5    1    3    3    0  502 -0.33727383086E+02 -0.43616116950E+02  0.82002099847E+02  0.98902572297E+02  0.41800000000E+01 0. -1.
        -11    1    1    2    0    0  0.15072048351E+02 -0.85598876353E+01 -0.74728724428E+01  0.18875437488E+02  0.00000000000E+00 0.  1.
         11    1    1    2    0    0  0.99948123039E+02 -0.32521038642E+02  0.21069822855E+03  0.23545910212E+03  0.00000000000E+00 0. -1.
</event>
<event>
 7    1  0.2851048E-009  0.7885729E+02  0.7561462E-02  0.1332326E+00
         -2   -1    0    0    0  501 -0.00000000000E+00  0.00000000000E+00  0.44346600924E+02  0.44346600924E+02  0.00000000000E+00 0.  1.
          2   -1    0    0  501    0  0.00000000000E+00 -0.00000000000E+00 -0.32992186411E+03  0.32992186411E+03  0.00000000000E+00 0. -1.
         25    2    1    2    0    0 -0.34012273829E+02  0.41063593510E+02 -0.15928717229E+03  0.20943728360E+03  0.12509404072E+03 0.  0.
          5    1    3    3  502    0 -0.61261368328E+01  0.29334541605E+02  0.14099663515E+02  0.33381398935E+02  0.41800000000E+01 0. -1.
         -5    1    3    3    0  502 -0.27886136996E+02  0.11729051905E+02 -0.17338683580E+03  0.17605588466E+03  0.41800000000E+01 0. -1.
        -11    1    1    2    0    0  0.54106485685E+02 -0.33812491385E+01 -0.36354516396E+02  0.65273237251E+02  0.00000000000E+00 0.  1.
         11    1    1    2    0    0 -0.20094211856E+02 -0.37682344371E+02 -0.89933574507E+02  0.99557944189E+02  0.00000000000E+00 0. -1.
</event>
<event>
 7    1  0.2612321E-009  0.2217634E+03  0.7561462E-02  0.1132575E+00
         -1   -1    0    0    0  501 -0.00000000000E+00  0.00000000000E+00  0.21831599580E+03  0.21831599580E+03  0.00000000000E+00 0.  1.
          1   -1    0    0  501    0  0.00000000000E+00 -0.00000000000E+00 -0.27251803822E+03  0.27251803822E+03  0.00000000000E+00 0. -1.
         25    2    1    2    0    0 -0.12638457187E+02  0.21485673522E+03 -0.60758759619E+02  0.25624755783E+03  0.12509211308E+03 0.  0.
          5    1    3    3  502    0  0.16100475894E+02  0.12432346897E+03 -0.92677525525E+02  0.15595559111E+03  0.41800000000E+01 0. -1.
         -5    1    3    3    0  502 -0.28738933081E+02  0.90533266243E+02  0.31918765906E+02  0.10029196672E+03  0.41800000000E+01 0. -1.
        -11    1    1    2    0    0  0.32724828365E+02 -0.76421110664E+02 -0.32643639455E+02  0.89312416514E+02  0.00000000000E+00 0. -1.
         11    1    1    2    0    0 -0.20086371178E+02 -0.13843562455E+03  0.39200356663E+02  0.14527405968E+03  0.00000000000E+00 0.  1.
</event>
<event>
 7    1  0.2612321E-009  0.1255068E+03  0.7561462E-02  0.1234279E+00
          2   -1    0    0  501    0  0.00000000000E+00  0.00000000000E+00  0.94890851071E+03  0.94890851071E+03  0.00000000000E+00 0.  1.
         -2   -1    0    0    0  501 -0.00000000000E+00 -0.00000000000E+00 -0.17256937292E+02  0.17256937292E+02  0.00000000000E+00 0. -1.
         25    2    1    2    0    0  0.57908059004E+02 -0.36517280605E+02  0.56685320318E+03  0.58451904918E+03  0.12511238878E+03 0.  0.
          5    1    3    3  502    0  0.78476204613E+02  0.17856294424E+02  0.39229979947E+03  0.40049215598E+03  0.41800000000E+01 0.  1.
         -5    1    3    3    0  502 -0.20568145608E+02 -0.54373575029E+02  0.17455340371E+03  0.18402689320E+03  0.41800000000E+01 0.  1.
        -11    1    1    2    0    0  0.15633046630E+02 -0.15536154676E+02  0.73005938217E+02  0.76260286284E+02  0.00000000000E+00 0.  1.
         11    1    1    2    0    0 -0.73541105634E+02  0.52053435281E+02  0.29179243203E+03  0.30538611254E+03  0.00000000000E+00 0. -1.
</event>
<event>
 7    1  0.2612321E-009  0.1238622E+03  0.7561462E-02  0.1236858E+00
         -1   -1    0    0    0  501 -0.00000000000E+00  0.00000000000E+00  0.26508651075E+02  0.26508651075E+02  0.00000000000E+00 0.  1.
          1   -1    0    0  501    0  0.00000000000E+00 -0.00000000000E+00 -0.80494464791E+03  0.80494464791E+03  0.00000000000E+00 0. -1.
         25    2    1    2    0    0 -0.79418428403E+02  0.54426439396E+01 -0.59602460930E+03  0.61419032349E+03  0.12509000535E+03 0.  0.
          5    1    3    3  502    0 -0.69518608432E+02  0.59214943568E+02 -0.41949826588E+03  0.42934311913E+03  0.41800000000E+01 0.  1.
         -5    1    3    3    0  502 -0.98998199704E+01 -0.53772299628E+02 -0.17652634341E+03  0.18484720437E+03  0.41800000000E+01 0.  1.
        -11    1    1    2    0    0  0.57857494358E+02  0.25933348740E+02 -0.16221859893E+03  0.17416917658E+03  0.00000000000E+00 0. -1.
         11    1    1    2    0    0  0.21560934045E+02 -0.31375992680E+02 -0.20192788606E+02  0.43093798918E+02  0.00000000000E+00 0.  1.
</event>
<event>
 7    1  0.2612321E-009  0.1366606E+03  0.7561462E-02  0.1217894E+00
          1   -1    0    0  501    0  0.00000000000E+00  0.00000000000E+00  0.16053255448E+03  0.16053255448E+03  0.00000000000E+00 0. -1.
         -1   -1    0    0    0  501 -0.00000000000E+00 -0.00000000000E+00 -0.19159736221E+03  0.19159736221E+03  0.00000000000E+00 0.  1.
         25    2    1    2    0    0  0.11093894929E+03 -0.24958927030E+02 -0.94349091979E+02  0.19359635863E+03  0.12508956955E+03 0.  0.
          5    1    3    3  502    0 -0.16141118640E+02 -0.18766212762E+02 -0.54830437059E+02  0.60303861240E+02  0.41800000000E+01 0. -1.
         -5    1    3    3    0  502  0.12708006793E+03 -0.61927142678E+01 -0.39518654920E+02  0.13329249739E+03  0.41800000000E+01 0. -1.
        -11    1    1    2    0    0 -0.10217748107E+03  0.88236269457E+01  0.11032082657E+02  0.10314941046E+03  0.00000000000E+00 0.  1.
         11    1    1    2    0    0 -0.87614682165E+01  0.16135300084E+02  0.52252201591E+02  0.55384147598E+02  0.00000000000E+00 0. -1.
</event>
<event>
 7    1  0.2612321E-009  0.4381900E+03  0.7561462E-02  0.1031304E+00
          2   -1    0    0  501    0  0.00000000000E+00  0.00000000000E+00  0.27816011227E+04  0.27816011227E+04  0.00000000000E+00 0.  1.
         -2   -1    0    0    0  501 -0.00000000000E+00 -0.00000000000E+00 -0.73360561556E+02  0.73360561556E+02  0.00000000000E+00 0. -1.
         25    2    1    2    0    0  0.32445024451E+03  0.28205758974E+03  0.10968436127E+04  0.11847098483E+04  0.12508824405E+03 0.  0.
          5    1    3    3  502    0  0.21385784239E+03  0.25400949352E+03  0.77217185893E+03  0.84054913698E+03  0.41800000000E+01 0. -1.
         -5    1    3    3    0  502  0.11059240213E+03  0.28048096222E+02  0.32467175379E+03  0.34416071132E+03  0.41800000000E+01 0. -1.
        -11    1    1    2    0    0 -0.27155724941E+03 -0.22912010920E+03  0.14408213934E+04  0.14839830363E+04  0.00000000000E+00 0.  1.
         11    1    1    2    0    0 -0.52892995103E+02 -0.52937480538E+02  0.17057555495E+03  0.18626879965E+03  0.00000000000E+00 0. -1.
</event>
<event>
 7    1  0.2612321E-009  0.1532590E+03  0.7561462E-02  0.1196525E+00
         -1   -1    0    0    0  501 -0.00000000000E+00  0.00000000000E+00  0.48825643719E+03  0.48825643719E+03  0.00000000000E+00 0.  1.
          1   -1    0    0  501    0  0.00000000000E+00 -0.00000000000E+00 -0.53767741369E+02  0.53767741369E+02  0.00000000000E+00 0. -1.
         25    2    1    2    0    0 -0.71157195405E+01 -0.12059987366E+03  0.21480454944E+03  0.27637513242E+03  0.12508899379E+03 0.  0.
          5    1    3    3  502    0 -0.23610799161E+02  0.15727119540E+02  0.75316751796E+02  0.80590927698E+02  0.41800000000E+01 0.  1.
         -5    1    3    3    0  502  0.16495079621E+02 -0.13632699320E+03  0.13948779765E+03  0.19578420472E+03  0.41800000000E+01 0.  1.
        -11    1    1    2    0    0 -0.16394179366E+02  0.11516723203E+03  0.13806907477E+03  0.18054176763E+03  0.00000000000E+00 0. -1.
         11    1    1    2    0    0  0.23509898906E+02  0.54326416265E+01  0.81615071603E+02  0.85107278505E+02  0.00000000000E+00 0.  1.
</event>
<event>
 7    1  0.2612321E-009  0.7375523E+02  0.7561462E-02  0.1347770E+00
          2   -1    0    0  501    0  0.00000000000E+00  0.00000000000E+00  0.15202157741E+03  0.15202157741E+03  0.00000000000E+00 0. -1.
         -2   -1    0    0    0  501 -0.00000000000E+00 -0.00000000000E+00 -0.88119065871E+02  0.88119065871E+02  0.00000000000E+00 0.  1.
         25    2    1    2    0    0  0.31009077339E+02 -0.26563535792E+02  0.42883016521E+02  0.13840223917E+03  0.12509613260E+03 0.  0.
          5    1    3    3  502    0  0.66782083005E+02 -0.19591243405E+02  0.65203785000E+02  0.95460302781E+02  0.41800000000E+01 0. -1.
         -5    1    3    3    0  502 -0.35773005667E+02 -0.69722923864E+01 -0.22320768479E+02  0.42941936391E+02  0.41800000000E+01 0. -1.
        -11    1    1    2    0    0 -0.16182209697E+02  0.10756674552E+02 -0.35906197911E+02  0.40826768259E+02  0.00000000000E+00 0.  1.
         11    1    1    2    0    0 -0.14826867642E+02  0.15806861240E+02  0.56925692934E+02  0.60911635853E+02  0.00000000000E+00 0. -1.
</event>
<event>
 7    1  0.2612321E-009  0.1024904E+03  0.7561462E-02  0.1275144E+00
          2   -1    0    0  501    0  0.00000000000E+00  0.00000000000E+00  0.64326288250E+03  0.64326288250E+03  0.00000000000E+00 0. -1.
         -2   -1    0    0    0  501 -0.00000000000E+00 -0.00000000000E+00 -0.28059011455E+02  0.28059011455E+02  0.00000000000E+00 0.  1.
         25    2    1    2    0    0  0.10770801734E+02  0.24575538831E+02  0.52631491798E+03  0.54164103737E+03  0.12509057997E+03 0.  0.
          5    1    3    3  502    0 -0.15486906722E+02 -0.47837180305E+02  0.22774577011E+03  0.23326776096E+03  0.41800000000E+01 0. -1.
         -5    1    3    3    0  502  0.26257708456E+02  0.72412719136E+02  0.29856914787E+03  0.30837327641E+03  0.41800000000E+01 0. -1.
        -11    1    1    2    0    0 -0.42459191342E+01 -0.50487221389E+02  0.89620151722E+02  0.10295027415E+03  0.00000000000E+00 0. -1.
         11    1    1    2    0    0 -0.65248825997E+01  0.25911682558E+02 -0.73119865383E+00  0.26730582437E+02  0.00000000000E+00 0.  1.
</event>
<event>
 7    1  0.2612321E-009  0.1036797E+03  0.7561462E-02  0.1272743E+00
         -2   -1    0    0    0  501 -0.00000000000E+00  0.00000000000E+00  0.12488902532E+03  0.12488902532E+03  0.00000000000E+00 0.  1.
          2   -1    0    0  501    0  0.00000000000E+00 -0.00000000000E+00 -0.97594507787E+02  0.97594507787E+02  0.00000000000E+00 0. -1.
         25    2    1    2    0    0  0.50325074522E+01  0.97116918721E+01  0.34963792966E+02  0.13034570599E+03  0.12509153912E+03 0.  0.
          5    1    3    3  502    0  0.20873458502E+01 -0.56228790326E+02  0.30298327400E+02  0.64042914654E+02  0.41800000000E+01 0. -1.
         -5    1    3    3    0  502  0.29451616019E+01  0.65940482198E+02  0.46654655661E+01  0.66302791331E+02  0.41800000000E+01 0. -1.
        -11    1    1    2    0    0  0.17997880002E+02 -0.41679076616E+02 -0.21694948489E+02  0.50316397944E+02  0.00000000000E+00 0. -1.
         11    1    1    2    0    0 -0.23030387454E+02  0.31967384744E+02  0.14025673052E+02  0.41821429174E+02  0.00000000000E+00 0.  1.
</event>
<event>
 7    1  0.2612321E-009  0.1827982E+03  0.7561462E-02  0.1165122E+00
          1   -1    0    0  501    0  0.00000000000E+00  0.00000000000E+00  0.55113447303E+02  0.55113447303E+02  0.00000000000E+00 0. -1.
         -1   -1    0    0    0  501 -0.00000000000E+00 -0.00000000000E+00 -0.78391637840E+03  0.78391637840E+03  0.00000000000E+00 0.  1.
         25    2    1    2    0    0 -0.12235662756E+03  0.12737577787E+03 -0.36643195794E+03  0.42558075113E+03  0.12510340857E+03 0.  0.
          5    1    3    3  502    0 -0.99218699192E+02  0.10663535898E+03 -0.36630933340E+03  0.39422766290E+03  0.41800000000E+01 0. -1.
         -5    1    3    3    0  502 -0.23137928366E+02  0.20740418890E+02 -0.12262453410E+00  0.31353088230E+02  0.41800000000E+01 0. -1.
        -11    1    1    2    0    0  0.36740803799E+01 -0.42405334611E+02 -0.35342274956E+02  0.55324385846E+02  0.00000000000E+00 0. -1.
         11    1    1    2    0    0  0.11868254718E+03 -0.84970443255E+02 -0.32702869820E+03  0.35812468873E+03  0.00000000000E+00 0.  1.
</event>
<event>
 7    1  0.2612321E-009  0.9235666E+02  0.7561462E-02  0.1297243E+00
          1   -1    0    0  501    0  0.00000000000E+00  0.00000000000E+00  0.61850893580E+02  0.61850893580E+02  0.00000000000E+00 0. -1.
         -1   -1    0    0    0  501 -0.00000000000E+00 -0.00000000000E+00 -0.27349980638E+03  0.27349980638E+03  0.00000000000E+00 0.  1.
         25    2    1    2    0    0 -0.36864786023E+02 -0.38100228713E+02 -0.17896039479E+03  0.22468807028E+03  0.12508903287E+03 0.  0.
          5    1    3    3  502    0 -0.50278725842E+01 -0.47832947250E+02 -0.18447281929E+03  0.19068551021E+03  0.41800000000E+01 0.  1.
         -5    1    3    3    0  502 -0.31836913439E+02  0.97327185372E+01  0.55124245021E+01  0.34002560070E+02  0.41800000000E+01 0.  1.
        -11    1    1    2    0    0 -0.19390379896E+02 -0.15770400994E+02  0.26461404003E+01  0.25133532164E+02  0.00000000000E+00 0. -1.
         11    1    1    2    0    0  0.56255165919E+02  0.53870629706E+02 -0.35334658412E+02  0.85529097520E+02  0.00000000000E+00 0.  1.
</event>
<event>
 7    1  0.2612321E-009  0.9953920E+02  0.7561462E-02  0.1281268E+00
         -2   -1    0    0    0  501 -0.00000000000E+00  0.00000000000E+00  0.84298436387E+02  0.84298436387E+02  0.00000000000E+00 0.  1.
          2   -1    0    0  501    0  0.00000000000E+00 -0.00000000000E+00 -0.21802332522E+03  0.21802332522E+03  0.00000000000E+00 0. -1.
         25    2    1    2    0    0 -0.30846540368E+02  0.34767550321E+02 -0.14930425418E+03  0.20024947479E+03  0.12509116767E+03 0.  0.
          5    1    3    3  502    0 -0.39469489048E+01  0.70252049912E+02 -0.37520823456E+02  0.79851196080E+02  0.41800000000E+01 0. -1.
         -5    1    3    3    0  502 -0.26899591464E+02 -0.35484499592E+02 -0.11178343073E+03  0.12039827871E+03  0.41800000000E+01 0. -1.
        -11    1    1    2    0    0 -0.19492492197E+02 -0.26433764390E+02  0.34518163141E+02  0.47646665555E+02  0.00000000000E+00 0.  1.
         11    1    1    2    0    0  0.50339032565E+02 -0.83337859309E+01 -0.18938797789E+02  0.54425621257E+02  0.00000000000E+00 0. -1.
</event>
<event>
 7    1  0.2612321E-009  0.1391235E+03  0.7561462E-02  0.1214513E+00
          1   -1    0    0  501    0  0.00000000000E+00  0.00000000000E+00  0.10324723187E+03  0.10324723187E+03  0.00000000000E+00 0. -1.
         -1   -1    0    0    0  501 -0.00000000000E+00 -0.00000000000E+00 -0.27896249738E+03  0.27896249738E+03  0.00000000000E+00 0.  1.
         25    2    1    2    0    0  0.11051242721E+03 -0.11171746754E+02 -0.19056043646E+02  0.16837107501E+03  0.12509149294E+03 0.  0.
          5    1    3    3  502    0  0.76324354467E+02 -0.66947082579E+02 -0.14761731809E+02  0.10267765130E+03  0.41800000000E+01 0.  1.
         -5    1    3    3    0  502  0.34188072745E+02  0.55775335824E+02 -0.42943118378E+01  0.65693423708E+02  0.41800000000E+01 0.  1.
        -11    1    1    2    0    0 -0.38929068753E+02  0.33162067768E+01  0.24958724801E+01  0.39149699881E+02  0.00000000000E+00 0. -1.
         11    1    1    2    0    0 -0.71583358459E+02  0.78555399773E+01 -0.15915509435E+03  0.17468895435E+03  0.00000000000E+00 0.  1.
</event>
<event>
 7    1  0.2612321E-009  0.9218831E+02  0.7561462E-02  0.1297637E+00
          1   -1    0    0  501    0  0.00000000000E+00  0.00000000000E+00  0.15940414850E+03  0.15940414850E+03  0.00000000000E+00 0. -1.
         -1   -1    0    0    0  501 -0.00000000000E+00 -0.00000000000E+00 -0.97614814779E+02  0.97614814779E+02  0.00000000000E+00 0.  1.
         25    2    1    2    0    0  0.12785175873E+02  0.40475227044E+02 -0.13925377929E+02  0.13282817643E+03  0.12509078135E+03 0.  0.
          5    1    3    3  502    0  0.15658626730E+02 -0.42269287837E+02  0.10368356121E+02  0.46442012166E+02  0.41800000000E+01 0. -1.
         -5    1    3    3    0  502 -0.28734508572E+01  0.82744514881E+02 -0.24293734050E+02  0.86386164268E+02  0.41800000000E+01 0. -1.
        -11    1    1    2    0    0 -0.20900854506E+02 -0.74339095826E+01  0.85865994869E+02  0.88685273894E+02  0.00000000000E+00 0. -1.
         11    1    1    2    0    0  0.81156786324E+01 -0.33041317461E+02 -0.10151283217E+02  0.35505512955E+02  0.00000000000E+00 0.  1.
</event>
<event>
 6    1  0.2612321E-009  0.1022418E+03  0.7561462E-02  0.1275651E+00
         -2   -1    0    0    0  501 -0.00000000000E+00  0.00000000000E+00  0.74085909915E+02  0.74085909915E+02  0.00000000000E+00 0.  1.
          2   -1    0    0  501    0  0.00000000000E+00 -0.00000000000E+00 -0.50866794410E+03  0.50866794410E+03  0.00000000000E+00 0. -1.
          5    1    1    2  502    0 -0.42132507147E+02 -0.15285259974E+02 -0.32615913145E+03  0.32925072325E+03  0.41800000000E+01 0.  1.
         -5    1    1    2    0  502  0.46358573547E+02  0.44551660183E+02 -0.13582224777E+03  0.15033004742E+03  0.41800000000E+01 0.  1.
        -11    1    1    2    0    0  0.34030452335E+02  0.14427739990E+02 -0.39563460570E+01  0.37173700939E+02  0.00000000000E+00 0. -1.
         11    1    1    2    0    0 -0.38256518736E+02 -0.43694140199E+02  0.31355691100E+02  0.65999382405E+02  0.00000000000E+00 0.  1.
</event>
<event>
 7    1  0.2612321E-009  0.1761869E+03  0.7561462E-02  0.1171545E+00
          3   -1    0    0  501    0  0.00000000000E+00  0.00000000000E+00  0.30302610238E+02  0.30302610238E+02  0.00000000000E+00 0. -1.
         -3   -1    0    0    0  501 -0.00000000000E+00 -0.00000000000E+00 -0.13379324598E+04  0.13379324598E+04  0.00000000000E+00 0.  1.
         25    2    1    2    0    0 -0.26455253061E+02 -0.15291748641E+03 -0.91396553873E+03  0.93544866806E+03  0.12509023351E+03 0.  0.
          5    1    3    3  502    0 -0.29495986945E+02 -0.16480274312E+03 -0.65208331312E+03  0.67324592612E+03  0.41800000000E+01 0.  1.
         -5    1    3    3    0  502  0.30407338835E+01  0.11885256710E+02 -0.26188222561E+03  0.26220274194E+03  0.41800000000E+01 0.  1.
        -11    1    1    2    0    0 -0.22179979303E+02  0.18133079433E+02 -0.12562248487E+03  0.12884785119E+03  0.00000000000E+00 0.  1.
         11    1    1    2    0    0  0.48635232364E+02  0.13478440698E+03 -0.26804182597E+03  0.30393855080E+03  0.00000000000E+00 0. -1.
</event>
<event>
 6    1  0.2612321E-009  0.1098993E+03  0.7561462E-02  0.1260756E+00
          2   -1    0    0  501    0  0.00000000000E+00  0.00000000000E+00  0.29122518570E+03  0.29122518570E+03  0.00000000000E+00 0. -1.
         -2   -1    0    0    0  501 -0.00000000000E+00 -0.00000000000E+00 -0.14692421259E+03  0.14692421259E+03  0.00000000000E+00 0.  1.
          5    1    1    2  502    0 -0.50850402279E+02 -0.10954395468E+02  0.14371483191E+02  0.54127387902E+02  0.41800000000E+01 0.  1.
         -5    1    1    2    0  502 -0.37912532579E+02  0.37388405989E+02  0.21966401637E+03  0.22606416239E+03  0.41800000000E+01 0.  1.
        -11    1    1    2    0    0  0.30704364667E+02  0.22667643126E+02 -0.69474317464E+02  0.79267022409E+02  0.00000000000E+00 0.  1.
         11    1    1    2    0    0  0.58058570192E+02 -0.49101653647E+02 -0.20260208996E+02  0.78690825591E+02  0.00000000000E+00 0. -1.
</event>
<event>
 7    1  0.2612321E-009  0.1105923E+03  0.7561462E-02  0.1259477E+00
         -1   -1    0    0    0  501 -0.00000000000E+00  0.00000000000E+00  0.22555568481E+02  0.22555568481E+02  0.00000000000E+00 0.  1.
          1   -1    0    0  501    0  0.00000000000E+00 -0.00000000000E+00 -0.78507063127E+03  0.78507063127E+03  0.00000000000E+00 0. -1.
         25    2    1    2    0    0  0.15800734315E+02 -0.41192264632E+02 -0.61483339827E+03  0.62897795407E+03  0.12508674276E+03 0.  0.
          5    1    3    3  502    0 -0.40980970662E+02  0.14620017725E+02 -0.11897202725E+03  0.12674778319E+03  0.41800000000E+01 0. -1.
         -5    1    3    3    0  502  0.56781704978E+02 -0.55812282357E+02 -0.49586137102E+03  0.50223017089E+03  0.41800000000E+01 0. -1.
        -11    1    1    2    0    0 -0.96773296540E+01 -0.27307732217E+02 -0.64571072253E+02  0.70772779513E+02  0.00000000000E+00 0.  1.
         11    1    1    2    0    0 -0.61234046614E+01  0.68499996849E+02 -0.83110592272E+02  0.10787546617E+03  0.00000000000E+00 0. -1.
</event>
<event>
 7    1  0.2612321E-009  0.7249044E+02  0.7561462E-02  0.1351823E+00
          1   -1    0    0  501    0  0.00000000000E+00  0.00000000000E+00  0.33397401451E+03  0.33397401451E+03  0.00000000000E+00 0. -1.
         -1   -1    0    0    0  501 -0.00000000000E+00 -0.00000000000E+00 -0.38588925621E+02  0.38588925621E+02  0.00000000000E+00 0.  1.
         25    2    1    2    0    0 -0.21545458253E+02 -0.25173345788E+02  0.19075252868E+03  0.23050353016E+03  0.12508975221E+03 0.  0.
          5    1    3    3  502    0 -0.40977258461E+02 -0.39632193339E+01  0.40793034366E+01  0.41580715903E+02  0.41800000000E+01 0.  1.
         -5    1    3    3    0  502  0.19431800208E+02 -0.21210126454E+02  0.18667322525E+03  0.18892281426E+03  0.41800000000E+01 0.  1.
        -11    1    1    2    0    0 -0.14301293231E+02 -0.14977275310E+02 -0.37521266241E+01  0.21045764847E+02  0.00000000000E+00 0.  1.
         11    1    1    2    0    0  0.35846751484E+02  0.40150621097E+02  0.10838468683E+03  0.12101364512E+03  0.00000000000E+00 0. -1.
</event>
<event>
 7    1  0.2612321E-009  0.1618850E+03  0.7561462E-02  0.1186585E+00
          2   -1    0    0  501    0  0.00000000000E+00  0.00000000000E+00  0.11482152996E+03  0.11482152996E+03  0.00000000000E+00 0. -1.
         -2   -1    0    0    0  501 -0.00000000000E+00 -0.00000000000E+00 -0.24619746705E+03  0.24619746705E+03  0.00000000000E+00 0.  1.
         25    2    1    2    0    0  0.26627894337E+02 -0.12368828710E+03 -0.92801777736E+02  0.20066524242E+03  0.12508610012E+03 0.  0.
          5    1    3    3  502    0 -0.37333041354E+01 -0.14033541287E+03 -0.87269188722E+02  0.16535219794E+03  0.41800000000E+01 0. -1.
         -5    1    3    3    0  502  0.30361198472E+02  0.16647125771E+02 -0.55325890140E+01  0.35313044478E+02  0.41800000000E+01 0. -1.
        -11    1    1    2    0    0  0.27265086013E+02  0.31505551493E+02  0.10300224988E+02  0.42919451592E+02  0.00000000000E+00 0.  1.
         11    1    1    2    0    0 -0.53892980349E+02  0.92182735605E+02 -0.48874384346E+02  0.11743430299E+03  0.00000000000E+00 0. -1.
</event>
<event>
 7    1  0.2612321E-009  0.2093177E+03  0.7561462E-02  0.1142107E+00
          1   -1    0    0  501    0  0.00000000000E+00  0.00000000000E+00  0.38707299812E+03  0.38707299812E+03  0.00000000000E+00 0. -1.
         -1   -1    0    0    0  501 -0.00000000000E+00 -0.00000000000E+00 -0.16580296976E+03  0.16580296976E+03  0.00000000000E+00 0.  1.
         25    2    1    2    0    0  0.35758048736E+02  0.18020562837E+03 -0.35173333187E+02  0.22502878482E+03  0.12509230226E+03 0.  0.
          5    1    3    3  502    0  0.75037632673E+02  0.15018689899E+03 -0.72505714433E+01  0.16809757325E+03  0.41800000000E+01 0.  1.
         -5    1    3    3    0  502 -0.39279583937E+02  0.30018729384E+02 -0.27922761743E+02  0.56931211576E+02  0.41800000000E+01 0.  1.
        -11    1    1    2    0    0  0.25525054129E+02 -0.33708512028E+02  0.32568376524E+02  0.53371259314E+02  0.00000000000E+00 0.  1.
         11    1    1    2    0    0 -0.61283102864E+02 -0.14649711635E+03  0.22387498502E+03  0.27447592374E+03  0.00000000000E+00 0. -1.
</event>
<event>
 6    1  0.2612321E-009  0.1281349E+03  0.7561462E-02  0.1230250E+00
         -2   -1    0    0    0  501 -0.00000000000E+00  0.00000000000E+00  0.19617525491E+02  0.19617525491E+02  0.00000000000E+00 0.  1.
          2   -1    0    0  501    0  0.00000000000E+00 -0.00000000000E+00 -0.12428677322E+04  0.12428677322E+04  0.00000000000E+00 0. -1.
          5    1    1    2  502    0  0.57682322812E+02 -0.41296232839E+02 -0.59394158918E+03  0.59817782721E+03  0.41800000000E+01 0.  1.
         -5    1    1    2    0  502  0.80077387435E+01  0.70366497190E+02 -0.41630215538E+03  0.42230382994E+03  0.41800000000E+01 0.  1.
        -11    1    1    2    0    0 -0.10055997034E+01 -0.47100711002E+02 -0.10021551486E+03  0.11073679437E+03  0.00000000000E+00 0.  1.
         11    1    1    2    0    0 -0.64684461852E+02  0.18030446651E+02 -0.11279094725E+03  0.13126680614E+03  0.00000000000E+00 0. -1.
</event>
<event>
 7    1  0.2612321E-009  0.1124429E+03  0.7561462E-02  0.1256112E+00
         -1   -1    0    0    0  501 -0.00000000000E+00  0.00000000000E+00  0.30044005210E+03  0.30044005210E+03  0.00000000000E+00 0.  1.
          1   -1    0    0  501    0  0.00000000000E+00 -0.00000000000E+00 -0.56019157504E+02  0.56019157504E+02  0.00000000000E+00 0. -1.
         25    2    1    2    0    0  0.29192057506E+02 -0.65600762877E+02  0.13618026877E+03  0.19836319144E+03  0.12508898354E+03 0.  0.
          5    1    3    3  502    0 -0.34079481827E+02 -0.72100861412E+02  0.66451940186E+02  0.10389070244E+03  0.41800000000E+01 0.  1.
         -5    1    3    3    0  502  0.63271539333E+02  0.65000985356E+01  0.69728328588E+02  0.94472489002E+02  0.41800000000E+01 0.  1.
        -11    1    1    2    0    0 -0.37410417587E+02  0.41753178548E+02  0.11832269127E+03  0.13093176289E+03  0.00000000000E+00 0.  1.
         11    1    1    2    0    0  0.82183600808E+01  0.23847584329E+02 -0.10082065456E+02  0.27164255274E+02  0.00000000000E+00 0. -1.
</event>
<event>
 7    1  0.2612321E-009  0.1864762E+03  0.7561462E-02  0.1161679E+00
          1   -1    0    0  501    0  0.00000000000E+00  0.00000000000E+00  0.40523442878E+03  0.40523442878E+03  0.00000000000E+00 0. -1.
         -1   -1    0    0    0  501 -0.00000000000E+00 -0.00000000000E+00 -0.97811381753E+02  0.97811381753E+02  0.00000000000E+00 0.  1.
         25    2    1    2    0    0  0.13163738923E+02 -0.16636042040E+03  0.16541460784E+03  0.26619610708E+03  0.12509716798E+03 0.  0.
          5    1    3    3  502    0  0.61260642138E+02 -0.51421359112E+02  0.40628252362E+02  0.89806178730E+02  0.41800000000E+01 0.  1.
         -5    1    3    3    0  502 -0.48096903215E+02 -0.11493906129E+03  0.12478635548E+03  0.17638992835E+03  0.41800000000E+01 0.  1.
        -11    1    1    2    0    0 -0.15374719963E+02  0.64365779382E+02  0.54626546120E+01  0.66401627727E+02  0.00000000000E+00 0.  1.
         11    1    1    2    0    0  0.22109810403E+01  0.10199464102E+03  0.13654578458E+03  0.17044807573E+03  0.00000000000E+00 0. -1.
</event>
<event>
 7    1  0.2612321E-009  0.1368772E+03  0.7561462E-02  0.1217594E+00
          2   -1    0    0  501    0  0.00000000000E+00  0.00000000000E+00  0.97370889941E+03  0.97370889941E+03  0.00000000000E+00 0. -1.
         -2   -1    0    0    0  501 -0.00000000000E+00 -0.00000000000E+00 -0.36327605377E+02  0.36327605377E+02  0.00000000000E+00 0.  1.
         25    2    1    2    0    0  0.17291082555E+02 -0.12339694988E+03  0.77831842625E+03  0.79809234481E+03  0.12508408941E+03 0.  0.
          5    1    3    3  502    0 -0.76114900268E+01 -0.57685120363E+00 -0.99179756021E+00  0.87592008848E+01  0.41800000000E+01 0.  1.
         -5    1    3    3    0  502  0.24902572582E+02 -0.12282009868E+03  0.77931022381E+03  0.78933314392E+03  0.41800000000E+01 0.  1.
        -11    1    1    2    0    0 -0.40232624849E+02  0.94917946394E+02  0.12429234957E+03  0.16148271986E+03  0.00000000000E+00 0.  1.
         11    1    1    2    0    0  0.22941542294E+02  0.28479003489E+02  0.34770518211E+02  0.50461440122E+02  0.00000000000E+00 0. -1.
</event>
<event>
 7    1  0.2612321E-009  0.8379725E+02  0.7561462E-02  0.1318608E+00
          1   -1    0    0  501    0  0.00000000000E+00  0.00000000000E+00  0.76244689938E+03  0.76244689938E+03  0.00000000000E+00 0. -1.
         -1   -1    0    0    0  501 -0.00000000000E+00 -0.00000000000E+00 -0.21602971639E+02  0.21602971639E+02  0.00000000000E+00 0.  1.
         25    2    1    2    0    0 -0.16196300471E+02  0.53610609831E+02  0.53691014424E+03  0.55412664454E+03  0.12508963813E+03 0.  0.
          5    1    3    3  502    0 -0.26342212708E+02  0.25794148270E+02  0.33993403219E+02  0.50321706228E+02  0.41800000000E+01 0. -1.
         -5    1    3    3    0  502  0.10145912237E+02  0.27816461562E+02  0.50291674102E+03  0.50380493831E+03  0.41800000000E+01 0. -1.
        -11    1    1    2    0    0 -0.16995505246E+02 -0.63674542087E+02  0.16557537679E+03  0.17820914653E+03  0.00000000000E+00 0.  1.
         11    1    1    2    0    0  0.33191805717E+02  0.10063932255E+02  0.38358406710E+02  0.51714079945E+02  0.00000000000E+00 0. -1.
</event>
<event>
 7    1  0.2612321E-009  0.1428186E+03  0.7561462E-02  0.1209586E+00
         -2   -1    0    0    0  501 -0.00000000000E+00  0.00000000000E+00  0.22585978390E+03  0.22585978390E+03  0.00000000000E+00 0.  1.
          2   -1    0    0  501    0  0.00000000000E+00 -0.00000000000E+00 -0.14087682648E+03  0.14087682648E+03  0.00000000000E+00 0. -1.
         25    2    1    2    0    0 -0.10528558390E+03 -0.89318656197E+02  0.77683586152E+02  0.20186457596E+03  0.12510671824E+03 0.  0.
          5    1    3    3  502    0 -0.84900987401E+00 -0.15400737728E+02 -0.30385621170E+02  0.34331645958E+02  0.41800000000E+01 0. -1.
         -5    1    3    3    0  502 -0.10443657402E+03 -0.73917918469E+02  0.10806920732E+03  0.16753293000E+03  0.41800000000E+01 0. -1.
        -11    1    1    2    0    0  0.56216930035E+02  0.67759788593E+02  0.45451559650E+02  0.99083684062E+02  0.00000000000E+00 0.  1.
         11    1    1    2    0    0  0.49068653862E+02  0.21558867604E+02 -0.38152188385E+02  0.65788350358E+02  0.00000000000E+00 0. -1.
</event>
<event>
 7    1  0.2612321E-009  0.6575899E+02  0.7561462E-02  0.1375139E+00
          3   -1    0    0  501    0  0.00000000000E+00  0.00000000000E+00  0.11997462373E+03  0.11997462373E+03  0.00000000000E+00 0.  1.
         -3   -1    0    0    0  501 -0.00000000000E+00 -0.00000000000E+00 -0.11026884262E+03  0.11026884262E+03  0.00000000000E+00 0. -1.
         25    2    1    2    0    0 -0.18845010846E+00 -0.23205570807E+02  0.35725631491E+02  0.13214737434E+03  0.12509226103E+03 0.  0.
          5    1    3    3  502    0  0.24580093882E+02 -0.24791578732E+02 -0.39465053824E+02  0.52856090138E+02  0.41800000000E+01 0. -1.
         -5    1    3    3    0  502 -0.24768543990E+02  0.15860079249E+01  0.75190685315E+02  0.79291284204E+02  0.41800000000E+01 0. -1.
        -11    1    1    2    0    0 -0.11863885410E+02 -0.21679512619E+02  0.20670260943E+02  0.32218204976E+02  0.00000000000E+00 0.  1.
         11    1    1    2    0    0  0.12052335519E+02  0.44885083426E+02 -0.46690111323E+02  0.65877887041E+02  0.00000000000E+00 0. -1.
</event>
<event>
 7    1  0.2612321E-009  0.9013971E+02  0.7561462E-02  0.1302514E+00
         -1   -1    0    0    0  501 -0.00000000000E+00  0.00000000000E+00  0.53335381709E+02  0.53335381709E+02  0.00000000000E+00 0.  1.
          1   -1    0    0  501    0  0.00000000000E+00 -0.00000000000E+00 -0.28982262382E+03  0.28982262382E+03  0.00000000000E+00 0. -1.
         25    2    1    2    0    0 -0.50815689322E+02 -0.44976151039E+01 -0.12949310541E+03  0.18713501240E+03  0.12509430721E+03 0.  0.
          5    1    3    3  502    0 -0.26042714887E+02  0.21020075380E+02  0.15978375165E+02  0.37320871381E+02  0.41800000000E+01 0.  1.
         -5    1    3    3    0  502 -0.24772974435E+02 -0.25517690484E+02 -0.14547148058E+03  0.14981414102E+03  0.41800000000E+01 0.  1.
        -11    1    1    2    0    0 -0.17154636308E+02 -0.29969982412E+02 -0.18290290619E+02  0.39077053671E+02  0.00000000000E+00 0.  1.
         11    1    1    2    0    0  0.67970325631E+02  0.34467597516E+02 -0.88703846080E+02  0.11694593945E+03  0.00000000000E+00 0. -1.
</event>
<event>
 7    1  0.2612321E-009  0.8804298E+02  0.7561462E-02  0.1307661E+00
         -2   -1    0    0    0  501 -0.00000000000E+00  0.00000000000E+00  0.33465863919E+02  0.33465863919E+02  0.00000000000E+00 0.  1.
          2   -1    0    0  501    0  0.00000000000E+00 -0.00000000000E+00 -0.37786380501E+03  0.37786380501E+03  0.00000000000E+00 0. -1.
         25    2    1    2    0    0 -0.27551474836E+02 -0.29020461361E+01 -0.18664276253E+03  0.22638548858E+03  0.12508942001E+03 0.  0.
          5    1    3    3  502    0 -0.17317007820E+02 -0.43988604679E+02 -0.17633075992E+03  0.18260581972E+03  0.41800000000E+01 0. -1.
         -5    1    3    3    0  502 -0.10234467016E+02  0.41086558543E+02 -0.10312002614E+02  0.43779668865E+02  0.41800000000E+01 0. -1.
        -11    1    1    2    0    0 -0.66561188199E+01  0.37109920338E+02 -0.11268779997E+03  0.11882756568E+03  0.00000000000E+00 0.  1.
         11    1    1    2    0    0  0.34207593656E+02 -0.34207874202E+02 -0.45067378594E+02  0.66116614663E+02  0.00000000000E+00 0. -1.
</event>
<event>
 7    1  0.3117745E-009  0.9082110E+02  0.7561462E-02  0.1300875E+00
          1   -1    0    0  501    0  0.00000000000E+00  0.00000000000E+00  0.43715579660E+03  0.43715579660E+03  0.00000000000E+00 0. -1.
         -1   -1    0    0    0  501 -0.00000000000E+00 -0.00000000000E+00 -0.59728374192E+02  0.59728374192E+02  0.00000000000E+00 0.  1.
         25    2    1    2    0    0  0.29666649320E+02  0.57148967326E+02  0.35691248991E+03  0.38364144619E+03  0.12509244277E+03 0.  0.
          5    1    3    3  502    0  0.50765759751E+02  0.44809852549E+02  0.76961976254E+02  0.10259485093E+03  0.41800000000E+01 0. -1.
         -5    1    3    3    0  502 -0.21099110432E+02  0.12339114776E+02  0.27995051365E+03  0.28104659526E+03  0.41800000000E+01 0. -1.
        -11    1    1    2    0    0 -0.42309100266E+02 -0.14825259918E+02 -0.23728662899E+02  0.50723739412E+02  0.00000000000E+00 0.  1.
         11    1    1    2    0    0  0.12642450946E+02 -0.42323707408E+02  0.44243595399E+02  0.62518985184E+02  0.00000000000E+00 0. -1.
</event>
<event>
 7    1  0.2612321E-009  0.1942059E+03  0.7561462E-02  0.1154722E+00
          1   -1    0    0  501    0  0.00000000000E+00  0.00000000000E+00  0.27576474331E+03  0.27576474331E+03  0.00000000000E+00 0. -1.
         -1   -1    0    0    0  501 -0.00000000000E+00 -0.00000000000E+00 -0.15236214646E+03  0.15236214646E+03  0.00000000000E+00 0.  1.
         25    2    1    2    0    0  0.14120158697E+03 -0.99683054383E+02  0.51678903674E+02  0.21952782730E+03  0.12508860213E+03 0.  0.
          5    1    3    3  502    0  0.10851235779E+03 -0.64241335390E+01  0.19043147905E+01  0.10879935707E+03  0.41800000000E+01 0. -1.
         -5    1    3    3    0  502  0.32689229180E+02 -0.93258920844E+02  0.49774588884E+02  0.11072847023E+03  0.41800000000E+01 0. -1.
        -11    1    1    2    0    0 -0.11747311259E+03  0.54105597895E+02  0.12115633584E+02  0.12990048684E+03  0.00000000000E+00 0.  1.
         11    1    1    2    0    0 -0.23728474379E+02  0.45577456487E+02  0.59608059591E+02  0.78698575619E+02  0.00000000000E+00 0. -1.
</event>
<event>
 7    1  0.2612321E-009  0.2009957E+03  0.7561462E-02  0.1148902E+00
         -1   -1    0    0    0  501 -0.00000000000E+00  0.00000000000E+00  0.68309972319E+03  0.68309972319E+03  0.00000000000E+00 0.  1.
          1   -1    0    0  501    0  0.00000000000E+00 -0.00000000000E+00 -0.68229178650E+02  0.68229178650E+02  0.00000000000E+00 0. -1.
         25    2    1    2    0    0 -0.18743331173E+03  0.18332246466E+02  0.37844044480E+03  0.44083230298E+03  0.12509449023E+03 0.  0.
          5    1    3    3  502    0 -0.70425645326E+02 -0.26488824741E+02  0.25097982007E+03  0.26204917828E+03  0.41800000000E+01 0. -1.
         -5    1    3    3    0  502 -0.11700766640E+03  0.44821071207E+02  0.12746062473E+03  0.17878312470E+03  0.41800000000E+01 0. -1.
        -11    1    1    2    0    0  0.17165501548E+03 -0.38239559268E+02  0.20596107052E+03  0.27082775117E+03  0.00000000000E+00 0.  1.
         11    1    1    2    0    0  0.15778296253E+02  0.19907312803E+02  0.30469029221E+02  0.39668847693E+02  0.00000000000E+00 0. -1.
</event>
<event>
 7    1  0.2612321E-009  0.1807850E+03  0.7561462E-02  0.1167045E+00
          2   -1    0    0  501    0  0.00000000000E+00  0.00000000000E+00  0.50417074352E+03  0.50417074352E+03  0.00000000000E+00 0. -1.
         -2   -1    0    0    0  501 -0.00000000000E+00 -0.00000000000E+00 -0.90645297480E+02  0.90645297480E+02  0.00000000000E+00 0.  1.
         25    2    1    2    0    0 -0.15779478524E+03  0.83306848716E+02  0.15459360940E+03  0.26718158254E+03  0.12509032212E+03 0.  0.
          5    1    3    3  502    0 -0.90171179526E+02  0.53339199621E+02  0.10773016349E+02  0.10540133830E+03  0.41800000000E+01 0.  1.
         -5    1    3    3    0  502 -0.67623605715E+02  0.29967649095E+02  0.14382059305E+03  0.16178024424E+03  0.41800000000E+01 0.  1.
        -11    1    1    2    0    0  0.96894369922E+02 -0.71948010815E+02  0.98909314595E+02  0.15603873781E+03  0.00000000000E+00 0.  1.
         11    1    1    2    0    0  0.60900415319E+02 -0.11358837900E+02  0.16002252205E+03  0.17159572066E+03  0.00000000000E+00 0. -1.
</event>
<event>
 7    1  0.2612321E-009  0.7762684E+02  0.7561462E-02  0.1335924E+00
          2   -1    0    0  501    0  0.00000000000E+00  0.00000000000E+00  0.12676216990E+04  0.12676216990E+04  0.00000000000E+00 0. -1.
         -2   -1    0    0    0  501 -0.00000000000E+00 -0.00000000000E+00 -0.10919228885E+02  0.10919228885E+02  0.00000000000E+00 0.  1.
         25    2    1    2    0    0  0.18721186646E+02 -0.14953994049E+02  0.91243213491E+03  0.92127809481E+03  0.12508725910E+03 0.  0.
          5    1    3    3  502    0 -0.21311817857E+02 -0.11154156365E+02  0.33690307462E+02  0.41606706208E+02  0.41800000000E+01 0. -1.
         -5    1    3    3    0  502  0.40033004502E+02 -0.37998376840E+01  0.87874182745E+03  0.87967138860E+03  0.41800000000E+01 0. -1.
        -11    1    1    2    0    0 -0.52933576916E+02  0.18361269817E+02  0.15319800664E+03  0.16312182267E+03  0.00000000000E+00 0. -1.
         11    1    1    2    0    0  0.34212390270E+02 -0.34072757682E+01  0.19107232856E+03  0.19414101040E+03  0.00000000000E+00 0.  1.
</event>
<event>
 7    1  0.2612321E-009  0.1244685E+03  0.7561462E-02  0.1235902E+00
          2   -1    0    0  501    0  0.00000000000E+00  0.00000000000E+00  0.12761329588E+03  0.12761329588E+03  0.00000000000E+00 0. -1.
         -2   -1    0    0    0  501 -0.00000000000E+00 -0.00000000000E+00 -0.18612105184E+03  0.18612105184E+03  0.00000000000E+00 0.  1.
         25    2    1    2    0    0  0.61936829505E+02 -0.15496457735E+02 -0.12232997320E+03  0.18624932760E+03  0.12509148107E+03 0.  0.
          5    1    3    3  502    0  0.87112734085E+02 -0.46170395670E+02 -0.72704477410E+02  0.12257139679E+03  0.41800000000E+01 0. -1.
         -5    1    3    3    0  502 -0.25175904580E+02  0.30673937935E+02 -0.49625495785E+02  0.63677930806E+02  0.41800000000E+01 0. -1.
        -11    1    1    2    0    0 -0.22954398938E+02  0.52067564963E+02  0.33498593115E+02  0.66030988880E+02  0.00000000000E+00 0.  1.
         11    1    1    2    0    0 -0.38982430568E+02 -0.36571107228E+02  0.30323624118E+02  0.61454031247E+02  0.00000000000E+00 0. -1.
</event>
<event>
 7    1  0.2612321E-009  0.1365981E+03  0.7561462E-02  0.1217981E+00
         -2   -1    0    0    0  501 -0.00000000000E+00  0.00000000000E+00  0.10626950275E+04  0.10626950275E+04  0.00000000000E+00 0.  1.
          2   -1    0    0  501    0  0.00000000000E+00 -0.00000000000E+00 -0.31548325584E+02  0.31548325584E+02  0.00000000000E+00 0. -1.
         25    2    1    2    0    0 -0.29263610972E+02 -0.12935858091E+03  0.71414246424E+03  0.73704659296E+03  0.12509284389E+03 0.  0.
          5    1    3    3  502    0 -0.62793104608E+01 -0.52545420225E+01 -0.23675619927E+01  0.94930343683E+01  0.41800000000E+01 0. -1.
         -5    1    3    3    0  502 -0.22984300511E+02 -0.12410403888E+03  0.71651002623E+03  0.72755355859E+03  0.41800000000E+01 0. -1.
        -11    1    1    2    0    0  0.36165184643E+02  0.78931854820E+02  0.28291752751E+03  0.29594000348E+03  0.00000000000E+00 0.  1.
         11    1    1    2    0    0 -0.69015736712E+01  0.50426726087E+02  0.34086710144E+02  0.61256756619E+02  0.00000000000E+00 0. -1.
</event>
<event>
 7    1  0.2612321E-009  0.1820633E+03  0.7561462E-02  0.1165821E+00
          2   -1    0    0  501    0  0.00000000000E+00  0.00000000000E+00  0.15765088070E+04  0.15765088070E+04  0.00000000000E+00 0. -1.
         -2   -1    0    0    0  501 -0.00000000000E+00 -0.00000000000E+00 -0.23871847553E+02  0.23871847553E+02  0.00000000000E+00 0.  1.
         25    2    1    2    0    0 -0.97686034541E+02  0.10789772193E+03  0.10884399002E+04  0.11052308431E+04  0.12509724395E+03 0.  0.
          5    1    3    3  502    0 -0.11132863911E+03  0.33895046732E+02  0.67862997933E+03  0.68854851777E+03  0.41800000000E+01 0. -1.
         -5    1    3    3    0  502  0.13642604571E+02  0.74002675198E+02  0.40980992085E+03  0.41668232530E+03  0.41800000000E+01 0. -1.
        -11    1    1    2    0    0  0.81674589114E+02 -0.21519336519E+02  0.23005627719E+03  0.24507082859E+03  0.00000000000E+00 0.  1.
         11    1    1    2    0    0  0.16011445427E+02 -0.86378385411E+02  0.23414078212E+03  0.25007898293E+03  0.00000000000E+00 0. -1.
</event>
<event>
 7    1  0.2612321E-009  0.1118812E+03  0.7561462E-02  0.1257125E+00
         -1   -1    0    0    0  501 -0.00000000000E+00  0.00000000000E+00  0.11556872896E+04  0.11556872896E+04  0.00000000000E+00 0.  1.
          1   -1    0    0  501    0  0.00000000000E+00 -0.00000000000E+00 -0.14363345842E+02  0.14363345842E+02  0.00000000000E+00 0. -1.
         25    2    1    2    0    0 -0.26239643105E+02 -0.28369898411E+02  0.89642412918E+03  0.90593439172E+03  0.12509009841E+03 0.  0.
          5    1    3    3  502    0  0.48892363363E+02 -0.17899941044E+02  0.45890115449E+03  0.46186427993E+03  0.41800000000E+01 0.  1.
         -5    1    3    3    0  502 -0.75132006467E+02 -0.10469957367E+02  0.43752297469E+03  0.44407011179E+03  0.41800000000E+01 0.  1.
        -11    1    1    2    0    0  0.42818874219E+02 -0.17896581383E+02  0.85129419428E+02  0.96957525065E+02  0.00000000000E+00 0. -1.
         11    1    1    2    0    0 -0.16579231115E+02  0.46266479794E+02  0.15977039520E+03  0.16715871870E+03  0.00000000000E+00 0.  1.
</event>
<event>
 7    1  0.2612321E-009  0.1303358E+03  0.7561462E-02  0.1226958E+00
         -1   -1    0    0    0  501 -0.00000000000E+00  0.00000000000E+00  0.17842172164E+02  0.17842172164E+02  0.00000000000E+00 0.  1.
          1   -1    0    0  501    0  0.00000000000E+00 -0.00000000000E+00 -0.13296307965E+04  0.13296307965E+04  0.00000000000E+00 0. -1.
         25    2    1    2    0    0  0.89060661093E+02  0.12833811189E+02 -0.97794294671E+03  0.99000836459E+03  0.12509055472E+03 0.  0.
          5    1    3    3  502    0  0.43541910886E+02 -0.43004106115E+02 -0.70580487600E+03  0.70846541661E+03  0.41800000000E+01 0.  1.
         -5    1    3    3    0  502  0.45518750207E+02  0.55837917304E+02 -0.27213807071E+03  0.28154294799E+03  0.41800000000E+01 0.  1.
        -11    1    1    2    0    0  0.56756364423E+01 -0.30307797216E+02 -0.96772309340E+02  0.10156601438E+03  0.00000000000E+00 0. -1.
         11    1    1    2    0    0 -0.94736297535E+02  0.17473986027E+02 -0.23707336829E+03  0.25589858970E+03  0.00000000000E+00 0.  1.
</event>
<event>
 7    1  0.2612321E-009  0.5746118E+02  0.7561462E-02  0.1408806E+00
         -1   -1    0    0    0  501 -0.00000000000E+00  0.00000000000E+00  0.83200627401E+02  0.83200627401E+02  0.00000000000E+00 0.  1.
          1   -1    0    0  501    0  0.00000000000E+00 -0.00000000000E+00 -0.15092001597E+03  0.15092001597E+03  0.00000000000E+00 0. -1.
         25    2    1    2    0    0  0.12248593994E+02 -0.21714649781E+02 -0.24303293266E+02  0.12984513564E+03  0.12509018793E+03 0.  0.
          5    1    3    3  502    0  0.69217589950E+01 -0.12660440847E+02 -0.75722186805E+02  0.77197924095E+02  0.41800000000E+01 0.  1.
         -5    1    3    3    0  502  0.53268349992E+01 -0.90542089346E+01  0.51418893539E+02  0.52647211544E+02  0.41800000000E+01 0.  1.
        -11    1    1    2    0    0  0.54280860899E+01 -0.31787370283E+02  0.14025651963E+01  0.32277983476E+02  0.00000000000E+00 0.  1.
         11    1    1    2    0    0 -0.17676680084E+02  0.53502020065E+02 -0.44818660496E+02  0.71997524253E+02  0.00000000000E+00 0. -1.
</event>
<event>
 7    1  0.2612321E-009  0.1385040E+03  0.7561462E-02  0.1215356E+00
          1   -1    0    0  501    0  0.00000000000E+00  0.00000000000E+00  0.59133863289E+02  0.59133863289E+02  0.00000000000E+00 0. -1.
         -1   -1    0    0    0  501 -0.00000000000E+00 -0.00000000000E+00 -0.43187189959E+03  0.43187189959E+03  0.00000000000E+00 0.  1.
         25    2    1    2    0    0 -0.49538779799E+02 -0.87244955295E+02 -0.10712047790E+03  0.19283963010E+03  0.12508618318E+03 0.  0.
          5    1    3    3  502    0  0.49768356281E+00  0.31124318795E+02 -0.26345998057E+02  0.40994571873E+02  0.41800000000E+01 0. -1.
         -5    1    3    3    0  502 -0.50036463362E+02 -0.11836927409E+03 -0.80774479841E+02  0.15184505823E+03  0.41800000000E+01 0. -1.
        -11    1    1    2    0    0  0.22211736334E+02  0.86898887319E+02 -0.25229218498E+03  0.26776131993E+03  0.00000000000E+00 0. -1.
         11    1    1    2    0    0  0.27327043466E+02  0.34606797563E+00 -0.13325373423E+02  0.30404812851E+02  0.00000000000E+00 0.  1.
</event>
<event>
 7    1  0.2612321E-009  0.1628414E+03  0.7561462E-02  0.1185526E+00
         -2   -1    0    0    0  501 -0.00000000000E+00  0.00000000000E+00  0.70472239011E+02  0.70472239011E+02  0.00000000000E+00 0. -1.
          2   -1    0    0  501    0  0.00000000000E+00 -0.00000000000E+00 -0.40333596976E+03  0.40333596976E+03  0.00000000000E+00 0.  1.
         25    2    1    2    0    0 -0.10452698747E+03 -0.76246512580E+02 -0.16268236893E+03  0.24259544439E+03  0.12509026617E+03 0.  0.
          5    1    3    3  502    0 -0.34548405386E+02 -0.96596861304E+02 -0.12040793694E+03  0.15824060669E+03  0.41800000000E+01 0. -1.
         -5    1    3    3    0  502 -0.69978582084E+02  0.20350348724E+02 -0.42274431987E+02  0.84354837700E+02  0.41800000000E+01 0. -1.
        -11    1    1    2    0    0  0.11191701538E+03  0.49701656246E+02 -0.16076958820E+03  0.20209535733E+03  0.00000000000E+00 0.  1.
         11    1    1    2    0    0 -0.73900279109E+01  0.26544856334E+02 -0.94117736219E+01  0.29117407045E+02  0.00000000000E+00 0. -1.
</event>
<event>
 7    1  0.2612321E-009  0.1578032E+03  0.7561462E-02  0.1191199E+00
          2   -1    0    0  501    0  0.00000000000E+00  0.00000000000E+00  0.13718393093E+03  0.13718393093E+03  0.00000000000E+00 0.  1.
         -2   -1    0    0    0  501 -0.00000000000E+00 -0.00000000000E+00 -0.24712706522E+03  0.24712706522E+03  0.00000000000E+00 0. -1.
         25    2    1    2    0    0 -0.10180188016E+03  0.75355884479E+02 -0.13743364231E+03  0.22489477054E+03  0.12509004616E+03 0.  0.
          5    1    3    3  502    0 -0.47163208219E+02 -0.20795148000E+02 -0.91435019586E+02  0.10504590233E+03  0.41800000000E+01 0. -1.
         -5    1    3    3    0  502 -0.54638671939E+02  0.96151032479E+02 -0.45998622722E+02  0.11984886821E+03  0.41800000000E+01 0. -1.
        -11    1    1    2    0    0  0.36141837465E+02 -0.79605083067E+02 -0.16822744010E+01  0.87441590291E+02  0.00000000000E+00 0. -1.
         11    1    1    2    0    0  0.65660042693E+02  0.42491985880E+01  0.29172782427E+02  0.71974635321E+02  0.00000000000E+00 0.  1.
</event>
<event>
 7    1  0.2612321E-009  0.9822867E+02  0.7561462E-02  0.1284066E+00
         -2   -1    0    0    0  501 -0.00000000000E+00  0.00000000000E+00  0.44735757415E+02  0.44735757415E+02  0.00000000000E+00 0.  1.
          2   -1    0    0  501    0  0.00000000000E+00 -0.00000000000E+00 -0.35344009076E+03  0.35344009076E+03  0.00000000000E+00 0. -1.
         25    2    1    2    0    0 -0.16216983528E+02  0.44535509360E+02 -0.23988311987E+03  0.27466068368E+03  0.12509267688E+03 0.  0.
          5    1    3    3  502    0  0.32914851841E+02  0.13426994115E+02 -0.95245086245E+01  0.37038632632E+02  0.41800000000E+01 0. -1.
         -5    1    3    3    0  502 -0.49131835370E+02  0.31108515245E+02 -0.23035861125E+03  0.23762205105E+03  0.41800000000E+01 0. -1.
        -11    1    1    2    0    0  0.18652239280E+02  0.25881837083E+02 -0.25101338745E+02  0.40593752324E+02  0.00000000000E+00 0.  1.
         11    1    1    2    0    0 -0.24352557515E+01 -0.70417346443E+02 -0.43719874728E+02  0.82921412173E+02  0.00000000000E+00 0. -1.
</event>
<event>
 7    1  0.2612321E-009  0.1094282E+03  0.7561462E-02  0.1261632E+00
          1   -1    0    0  501    0  0.00000000000E+00  0.00000000000E+00  0.97278675472E+02  0.97278675472E+02  0.00000000000E+00 0. -1.
         -1   -1    0    0    0  501 -0.00000000000E+00 -0.00000000000E+00 -0.23845348138E+03  0.23845348138E+03  0.00000000000E+00 0.  1.
         25    2    1    2    0    0 -0.30606249136E+02 -0.77651171513E+02 -0.37470098763E+01  0.15042662047E+03  0.12509069166E+03 0.  0.
          5    1    3    3  502    0 -0.27377325439E+02 -0.93859406922E+02  0.38274745902E+02  0.10507870760E+03  0.41800000000E+01 0.  1.
         -5    1    3    3    0  502 -0.32289236973E+01  0.16208235409E+02 -0.42021755779E+02  0.45347912874E+02  0.41800000000E+01 0.  1.
        -11    1    1    2    0    0 -0.14427787494E+02  0.47775493320E+02 -0.16023064787E+02  0.52415621899E+02  0.00000000000E+00 0. -1.
         11    1    1    2    0    0  0.45034036630E+02  0.29875678193E+02 -0.12140473124E+03  0.13288991448E+03  0.00000000000E+00 0.  1.
</event>
<event>
 7    1  0.2612321E-009  0.1508306E+03  0.7561462E-02  0.1199456E+00
         -1   -1    0    0    0  501 -0.00000000000E+00  0.00000000000E+00  0.57398614088E+02  0.57398614088E+02  0.00000000000E+00 0.  1.
          1   -1    0    0  501    0  0.00000000000E+00 -0.00000000000E+00 -0.45729103068E+03  0.45729103068E+03  0.00000000000E+00 0. -1.
         25    2    1    2    0    0 -0.10981654952E+03  0.50384636009E+02 -0.20633102711E+03  0.26984680266E+03  0.12508604264E+03 0.  0.
          5    1    3    3  502    0 -0.31591423634E+02  0.78361095906E+02 -0.13949225228E+03  0.16313810176E+03  0.41800000000E+01 0.  1.
         -5    1    3    3    0  502 -0.78225125885E+02 -0.27976459897E+02 -0.66838774833E+02  0.10670870091E+03  0.41800000000E+01 0.  1.
        -11    1    1    2    0    0  0.64991802856E+02  0.18964207006E+01 -0.14965927324E+03  0.16317300303E+03  0.00000000000E+00 0. -1.
         11    1    1    2    0    0  0.44824746664E+02 -0.52281056709E+02 -0.43902116235E+02  0.81669839072E+02  0.00000000000E+00 0.  1.
</event>
<event>
 7    1  0.2612321E-009  0.7449475E+02  0.7561462E-02  0.1345443E+00
          2   -1    0    0  501    0  0.00000000000E+00  0.00000000000E+00  0.25054476418E+03  0.25054476418E+03  0.00000000000E+00 0. -1.
         -2   -1    0    0    0  501 -0.00000000000E+00 -0.00000000000E+00 -0.72667899768E+02  0.72667899768E+02  0.00000000000E+00 0.  1.
         25    2    1    2    0    0  0.13977610338E+02 -0.63823593465E+02  0.15210783685E+03  0.20749360525E+03  0.12509187629E+03 0.  0.
          5    1    3    3  502    0  0.20282815334E+02 -0.49645400510E+02 -0.74660422494E+00  0.53796730454E+02  0.41800000000E+01 0. -1.
         -5    1    3    3    0  502 -0.63052049965E+01 -0.14178192955E+02  0.15285444108E+03  0.15369687480E+03  0.41800000000E+01 0. -1.
        -11    1    1    2    0    0 -0.17220233411E+02  0.21327495116E+01  0.47233840537E+02  0.50320182343E+02  0.00000000000E+00 0. -1.
         11    1    1    2    0    0  0.32426230729E+01  0.61690843954E+02 -0.21464812976E+02  0.65398876353E+02  0.00000000000E+00 0.  1.
</event>
<event>
 7    1  0.2612321E-009  0.1641045E+03  0.7561462E-02  0.1184139E+00
          1   -1    0    0  501    0  0.00000000000E+00  0.00000000000E+00  0.11481797018E+03  0.11481797018E+03  0.00000000000E+00 0. -1.
         -1   -1    0    0    0  501 -0.00000000000E+00 -0.00000000000E+00 -0.29226483510E+03  0.29226483510E+03  0.00000000000E+00 0.  1.
         25    2    1    2    0    0  0.11365226290E+03  0.78753461623E+02 -0.37419301043E+02  0.19017599959E+03  0.12509101546E+03 0.  0.
          5    1    3    3  502    0  0.66532637620E+01  0.58709883159E+02 -0.53790325144E+02  0.80012422650E+02  0.41800000000E+01 0. -1.
         -5    1    3    3    0  502  0.10699899913E+03  0.20043578464E+02  0.16371024101E+02  0.11016357694E+03  0.41800000000E+01 0. -1.
        -11    1    1    2    0    0 -0.41636335440E+02 -0.77537175019E+02 -0.10441308434E+03  0.13655654550E+03  0.00000000000E+00 0.  1.
         11    1    1    2    0    0 -0.72015927456E+02 -0.12162866035E+01 -0.35614479538E+02  0.80350260194E+02  0.00000000000E+00 0. -1.
</event>
<event>
 7    1  0.2612321E-009  0.1221029E+03  0.7561462E-02  0.1239668E+00
          1   -1    0    0  501    0  0.00000000000E+00  0.00000000000E+00  0.74445810541E+02  0.74445810541E+02  0.00000000000E+00 0. -1.
         -1   -1    0    0    0  501 -0.00000000000E+00 -0.00000000000E+00 -0.23095823029E+03  0.23095823029E+03  0.00000000000E+00 0.  1.
         25    2    1    2    0    0  0.57196027631E+01 -0.65615692046E+02 -0.49103687379E+02  0.14963603681E+03  0.12506653629E+03 0.  0.
          5    1    3    3  502    0 -0.52512476752E+02 -0.57764991376E+02 -0.45866547722E+02  0.90639765243E+02  0.41800000000E+01 0.  1.
         -5    1    3    3    0  502  0.58232079515E+02 -0.78507006696E+01 -0.32371396564E+01  0.58996271567E+02  0.41800000000E+01 0.  1.
        -11    1    1    2    0    0 -0.27569328484E+02  0.77492961482E+02 -0.58607487156E+02  0.10099536872E+03  0.00000000000E+00 0. -1.
         11    1    1    2    0    0  0.21849725721E+02 -0.11877269437E+02 -0.48801245219E+02  0.54772635305E+02  0.00000000000E+00 0.  1.
</event>
<event>
 7    1  0.2612321E-009  0.6828245E+02  0.7561462E-02  0.1366033E+00
         -2   -1    0    0    0  501 -0.00000000000E+00  0.00000000000E+00  0.22463126782E+02  0.22463126782E+02  0.00000000000E+00 0.  1.
          2   -1    0    0  501    0  0.00000000000E+00 -0.00000000000E+00 -0.60990025730E+03  0.60990025730E+03  0.00000000000E+00 0. -1.
         25    2    1    2    0    0  0.11590038490E+02  0.17796222036E+02 -0.44521646865E+03  0.46295747427E+03  0.12514345572E+03 0.  0.
          5    1    3    3  502    0  0.23466895811E+02 -0.57199821981E+00 -0.43925819132E+03  0.43990482314E+03  0.41800000000E+01 0. -1.
         -5    1    3    3    0  502 -0.11876857321E+02  0.18368220256E+02 -0.59582773323E+01  0.23052651126E+02  0.41800000000E+01 0. -1.
        -11    1    1    2    0    0 -0.49954190065E+02 -0.14126407749E+02 -0.65759113656E+02  0.83780890003E+02  0.00000000000E+00 0.  1.
         11    1    1    2    0    0  0.38364151575E+02 -0.36698142870E+01 -0.76461548208E+02  0.85625019809E+02  0.00000000000E+00 0. -1.
</event>
<event>
 7    1  0.2612321E-009  0.1534519E+03  0.7561462E-02  0.1196294E+00
          1   -1    0    0  501    0  0.00000000000E+00  0.00000000000E+00  0.13691741107E+04  0.13691741107E+04  0.00000000000E+00 0. -1.
         -1   -1    0    0    0  501 -0.00000000000E+00 -0.00000000000E+00 -0.18801607917E+02  0.18801607917E+02  0.00000000000E+00 0.  1.
         25    2    1    2    0    0 -0.11297164172E+02 -0.11482355166E+03  0.83086541463E+03  0.84811306862E+03  0.12508543479E+03 0.  0.
          5    1    3    3  502    0 -0.63287119678E+02 -0.75553103931E+02  0.60543203181E+03  0.61341580398E+03  0.41800000000E+01 0. -1.
         -5    1    3    3    0  502  0.51989955506E+02 -0.39270447732E+02  0.22543338282E+03  0.23469726464E+03  0.41800000000E+01 0. -1.
        -11    1    1    2    0    0 -0.24764922145E+02  0.10157561706E+03  0.42866314905E+03  0.44122896856E+03  0.00000000000E+00 0. -1.
         11    1    1    2    0    0  0.36062086317E+02  0.13247934607E+02  0.90843939091E+02  0.98633681420E+02  0.00000000000E+00 0.  1.
</event>
<event>
 7    1  0.2612321E-009  0.1080640E+03  0.7561462E-02  0.1264198E+00
          1   -1    0    0  501    0  0.00000000000E+00  0.00000000000E+00  0.31752266320E+03  0.31752266320E+03  0.00000000000E+00 0. -1.
         -1   -1    0    0    0  501 -0.00000000000E+00 -0.00000000000E+00 -0.62957073182E+02  0.62957073182E+02  0.00000000000E+00 0.  1.
         25    2    1    2    0    0  0.47939591473E+02  0.68816416110E+02  0.18620399888E+03  0.23948506721E+03  0.12508902693E+03 0.  0.
          5    1    3    3  502    0  0.47381900297E+02  0.74290119714E+02  0.20299197349E+03  0.22133070294E+03  0.41800000000E+01 0. -1.
         -5    1    3    3    0  502  0.55769117616E+00 -0.54737036041E+01 -0.16787974605E+02  0.18154364267E+02  0.41800000000E+01 0. -1.
        -11    1    1    2    0    0  0.23032810997E+01 -0.70689921741E+02  0.53131119278E+02  0.88460646478E+02  0.00000000000E+00 0.  1.
         11    1    1    2    0    0 -0.50242872572E+02  0.18735056311E+01  0.15230471854E+02  0.52534022696E+02  0.00000000000E+00 0. -1.
</event>
<event>
 7    1  0.2839738E-009  0.1439225E+03  0.7561462E-02  0.1208146E+00
          1   -1    0    0  501    0  0.00000000000E+00  0.00000000000E+00  0.54350969475E+03  0.54350969475E+03  0.00000000000E+00 0. -1.
         -1   -1    0    0    0  501 -0.00000000000E+00 -0.00000000000E+00 -0.59096073951E+02  0.59096073951E+02  0.00000000000E+00 0.  1.
         25    2    1    2    0    0 -0.66022794449E+02 -0.10200759322E+03  0.37982179320E+03  0.41794270686E+03  0.12508778186E+03 0.  0.
          5    1    3    3  502    0 -0.52586950834E+02  0.96279582955E+01  0.69038824876E+02  0.87418057169E+02  0.41800000000E+01 0. -1.
         -5    1    3    3    0  502 -0.13435843615E+02 -0.11163555152E+03  0.31078296832E+03  0.33052464969E+03  0.41800000000E+01 0. -1.
        -11    1    1    2    0    0  0.41313458808E+02  0.57621500567E+02  0.28676707119E+01  0.70959585269E+02  0.00000000000E+00 0.  1.
         11    1    1    2    0    0  0.24709335640E+02  0.44386092657E+02  0.10172415689E+03  0.11370347657E+03  0.00000000000E+00 0. -1.
</event>
<event>
 7    1  0.2612321E-009  0.1677528E+03  0.7561462E-02  0.1180212E+00
          1   -1    0    0  501    0  0.00000000000E+00  0.00000000000E+00  0.13156502309E+03  0.13156502309E+03  0.00000000000E+00 0. -1.
         -1   -1    0    0    0  501 -0.00000000000E+00 -0.00000000000E+00 -0.22043331802E+03  0.22043331802E+03  0.00000000000E+00 0.  1.
         25    2    1    2    0    0 -0.66260269719E+02  0.11290539323E+03 -0.30675989472E+02  0.18364842255E+03  0.12509066956E+03 0.  0.
          5    1    3    3  502    0  0.19586565904E+02  0.84861103382E+02  0.28112338058E+01  0.87237697509E+02  0.41800000000E+01 0. -1.
         -5    1    3    3    0  502 -0.85846835623E+02  0.28044289851E+02 -0.33487223278E+02  0.96410725039E+02  0.41800000000E+01 0. -1.
        -11    1    1    2    0    0  0.11235308163E+02 -0.10097950473E+03 -0.35079236701E+02  0.10748788477E+03  0.00000000000E+00 0. -1.
         11    1    1    2    0    0  0.55024961555E+02 -0.11925888507E+02 -0.23113068748E+02  0.60862033796E+02  0.00000000000E+00 0.  1.
</event>
<event>
 7    1  0.2612321E-009  0.1073460E+03  0.7561462E-02  0.1265565E+00
          2   -1    0    0  501    0  0.00000000000E+00  0.00000000000E+00  0.21023602251E+03  0.21023602251E+03  0.00000000000E+00 0. -1.
         -2   -1    0    0    0  501 -0.00000000000E+00 -0.00000000000E+00 -0.11131891149E+03  0.11131891149E+03  0.00000000000E+00 0.  1.
         25    2    1    2    0    0 -0.46654331935E+02  0.24706595075E+02  0.14247587609E+03  0.19680940492E+03  0.12509006384E+03 0.  0.
          5    1    3    3  502    0 -0.33909309072E+02 -0.40797702585E+02  0.19207731538E+02  0.56574756992E+02  0.41800000000E+01 0. -1.
         -5    1    3    3    0  502 -0.12745022864E+02  0.65504297660E+02  0.12326814455E+03  0.14023464793E+03  0.41800000000E+01 0. -1.
        -11    1    1    2    0    0  0.23062780437E+02  0.28351720045E+02  0.17468328050E+02  0.40507460497E+02  0.00000000000E+00 0. -1.
         11    1    1    2    0    0  0.23591551498E+02 -0.53058315120E+02 -0.61027093116E+02  0.84238068589E+02  0.00000000000E+00 0.  1.
</event>
<event>
 7    1  0.2612321E-009  0.1202926E+03  0.7561462E-02  0.1242615E+00
         -1   -1    0    0    0  501 -0.00000000000E+00  0.00000000000E+00  0.16922046967E+02  0.16922046967E+02  0.00000000000E+00 0.  1.
          1   -1    0    0  501    0  0.00000000000E+00 -0.00000000000E+00 -0.19668829533E+04  0.19668829533E+04  0.00000000000E+00 0. -1.
         25    2    1    2    0    0  0.30492805793E+02 -0.90445930029E+02 -0.16340685636E+04  0.16416270516E+04  0.12509607669E+03 0.  0.
          5    1    3    3  502    0  0.29619434123E+02 -0.42469025278E+01 -0.11167594904E+04  0.11171681068E+04  0.41800000000E+01 0.  1.
         -5    1    3    3    0  502  0.87337166975E+00 -0.86199027501E+02 -0.51730907319E+03  0.52445894475E+03  0.41800000000E+01 0.  1.
        -11    1    1    2    0    0 -0.51759502485E+02  0.88740993894E+02 -0.29475567271E+03  0.31214566582E+03  0.00000000000E+00 0. -1.
         11    1    1    2    0    0  0.21266696692E+02  0.17049361350E+01 -0.21136670001E+02  0.30032282866E+02  0.00000000000E+00 0.  1.
</event>
<event>
 7    1  0.2612321E-009  0.1402876E+03  0.7561462E-02  0.1212943E+00
          1   -1    0    0  501    0  0.00000000000E+00  0.00000000000E+00  0.28887559042E+03  0.28887559042E+03  0.00000000000E+00 0. -1.
         -1   -1    0    0    0  501 -0.00000000000E+00 -0.00000000000E+00 -0.10945641646E+03  0.10945641646E+03  0.00000000000E+00 0.  1.
         25    2    1    2    0    0  0.50568327565E+02 -0.77849809978E+02  0.21236494297E+03  0.26336867892E+03  0.12508574406E+03 0.  0.
          5    1    3    3  502    0  0.86681906846E+02 -0.72940603945E+02  0.18731056624E+03  0.21894475400E+03  0.41800000000E+01 0.  1.
         -5    1    3    3    0  502 -0.36113579281E+02 -0.49092060331E+01  0.25054376738E+02  0.44423924929E+02  0.41800000000E+01 0.  1.
        -11    1    1    2    0    0 -0.47057674702E+02 -0.52520507890E+01 -0.16750103003E+02  0.50225240034E+02  0.00000000000E+00 0.  1.
         11    1    1    2    0    0 -0.35106528628E+01  0.83101860767E+02 -0.16195666014E+02  0.84738087918E+02  0.00000000000E+00 0. -1.
</event>
<event>
 6    1  0.2612321E-009  0.1161685E+03  0.7561462E-02  0.1249555E+00
          1   -1    0    0  501    0  0.00000000000E+00  0.00000000000E+00  0.45246576521E+03  0.45246576521E+03  0.00000000000E+00 0. -1.
         -1   -1    0    0    0  501 -0.00000000000E+00 -0.00000000000E+00 -0.36497010205E+02  0.36497010205E+02  0.00000000000E+00 0.  1.
          5    1    1    2  502    0  0.81605417655E+02  0.27307121248E+02  0.21846612307E+03  0.23484046157E+03  0.41800000000E+01 0. -1.
         -5    1    1    2    0  502 -0.30469297053E+02 -0.37958514639E+02  0.10598691354E+03  0.11670443496E+03  0.41800000000E+01 0. -1.
        -11    1    1    2    0    0 -0.70265095366E+02 -0.78674088915E+01  0.83913164389E+02  0.10972920717E+03  0.00000000000E+00 0. -1.
         11    1    1    2    0    0  0.19128974764E+02  0.18518802283E+02  0.76025539983E+01  0.27688671706E+02  0.00000000000E+00 0.  1.
</event>
<event>
 7    1  0.2612321E-009  0.1032575E+03  0.7561462E-02  0.1273591E+00
         -2   -1    0    0    0  501 -0.00000000000E+00  0.00000000000E+00  0.21126598996E+02  0.21126598996E+02  0.00000000000E+00 0.  1.
          2   -1    0    0  501    0  0.00000000000E+00 -0.00000000000E+00 -0.69188911531E+03  0.69188911531E+03  0.00000000000E+00 0. -1.
         25    2    1    2    0    0 -0.10440341476E+02 -0.62588345923E+02 -0.43235011310E+03  0.45454244768E+03  0.12512359756E+03 0.  0.
          5    1    3    3  502    0  0.84939632282E+01 -0.82590549087E+02 -0.41132292223E+03  0.41963956553E+03  0.41800000000E+01 0. -1.
         -5    1    3    3    0  502 -0.18934304704E+02  0.20002203164E+02 -0.21027190874E+02  0.34902882146E+02  0.41800000000E+01 0. -1.
        -11    1    1    2    0    0  0.37104358679E+02  0.13169329332E+02 -0.13708026886E+03  0.14262245538E+03  0.00000000000E+00 0.  1.
         11    1    1    2    0    0 -0.26664017203E+02  0.49419016591E+02 -0.10133213435E+03  0.11585081125E+03  0.00000000000E+00 0. -1.
</event>
<event>
 7    1  0.2612321E-009  0.1505240E+03  0.7561462E-02  0.1199831E+00
          2   -1    0    0  501    0  0.00000000000E+00  0.00000000000E+00  0.39808722992E+03  0.39808722992E+03  0.00000000000E+00 0. -1.
         -2   -1    0    0    0  501 -0.00000000000E+00 -0.00000000000E+00 -0.57408802486E+02  0.57408802486E+02  0.00000000000E+00 0.  1.
         25    2    1    2    0    0 -0.87534457627E+02  0.52126319075E+02  0.16912670544E+03  0.23373196601E+03  0.12508938815E+03 0.  0.
          5    1    3    3  502    0 -0.10935441465E+03  0.53968802076E+01  0.11319386882E+03  0.15753678509E+03  0.41800000000E+01 0.  1.
         -5    1    3    3    0  502  0.21819957024E+02  0.46729438868E+02  0.55932836628E+02  0.76195180915E+02  0.41800000000E+01 0.  1.
        -11    1    1    2    0    0 -0.11690091214E+02 -0.37700336203E+02  0.38270089355E+02  0.54977934862E+02  0.00000000000E+00 0.  1.
         11    1    1    2    0    0  0.99224548842E+02 -0.14425982873E+02  0.13328163263E+03  0.16678613153E+03  0.00000000000E+00 0. -1.
</event>
<event>
 7    1  0.2612321E-009  0.2108500E+03  0.7561462E-02  0.1140895E+00
         -4   -1    0    0    0  501 -0.00000000000E+00  0.00000000000E+00  0.22274605799E+03  0.22274605799E+03  0.00000000000E+00 0.  1.
          4   -1    0    0  501    0  0.00000000000E+00 -0.00000000000E+00 -0.22426792470E+03  0.22426792470E+03  0.00000000000E+00 0. -1.
         25    2    1    2    0    0 -0.55808519725E+02  0.18595261735E+03  0.67872447560E+01  0.23105456570E+03  0.12508868401E+03 0.  0.
          5    1    3    3  502    0  0.12774535939E+02  0.10226371825E+03 -0.43158809182E+02  0.11180881919E+03  0.41800000000E+01 0. -1.
         -5    1    3    3    0  502 -0.68583055664E+02  0.83688899097E+02  0.49946053938E+02  0.11924574651E+03  0.41800000000E+01 0. -1.
        -11    1    1    2    0    0  0.24834983983E+02 -0.17599730885E+03  0.11079905930E+02  0.17808591597E+03  0.00000000000E+00 0.  1.
         11    1    1    2    0    0  0.30973535742E+02 -0.99553085021E+01 -0.19389017396E+02  0.37873501017E+02  0.00000000000E+00 0. -1.
</event>
<event>
 7    1  0.2612321E-009  0.2896284E+03  0.7561462E-02  0.1090543E+00
         -1   -1    0    0    0  501 -0.00000000000E+00  0.00000000000E+00  0.17201665137E+03  0.17201665137E+03  0.00000000000E+00 0.  1.
          1   -1    0    0  501    0  0.00000000000E+00 -0.00000000000E+00 -0.50649958067E+03  0.50649958067E+03  0.00000000000E+00 0. -1.
         25    2    1    2    0    0  0.22665283055E+03 -0.14919065558E+03 -0.20070891438E+03  0.35994711914E+03  0.12509397649E+03 0.  0.
          5    1    3    3  502    0 -0.43605092225E+01 -0.34088845988E+02 -0.50695796002E+02  0.61388920774E+02  0.41800000000E+01 0.  1.
         -5    1    3    3    0  502  0.23101333977E+03 -0.11510180960E+03 -0.15001311838E+03  0.29855819836E+03  0.41800000000E+01 0.  1.
        -11    1    1    2    0    0 -0.17391658242E+03  0.62063198826E+02 -0.10636137336E+03  0.21309988276E+03  0.00000000000E+00 0.  1.
         11    1    1    2    0    0 -0.52736248132E+02  0.87127456757E+02 -0.27412641566E+02  0.10546923014E+03  0.00000000000E+00 0. -1.
</event>
<event>
 7    1  0.2612321E-009  0.1468527E+03  0.7561462E-02  0.1204395E+00
         -1   -1    0    0    0  501 -0.00000000000E+00  0.00000000000E+00  0.18881231813E+03  0.18881231813E+03  0.00000000000E+00 0.  1.
          1   -1    0    0  501    0  0.00000000000E+00 -0.00000000000E+00 -0.16125262919E+03  0.16125262919E+03  0.00000000000E+00 0. -1.
         25    2    1    2    0    0  0.85216315018E+02 -0.88383706724E+02 -0.45327616183E+02  0.18104175136E+03  0.12509205805E+03 0.  0.
          5    1    3    3  502    0  0.20743187833E+02  0.10145028331E+02 -0.57973162724E+02  0.62542477066E+02  0.41800000000E+01 0. -1.
         -5    1    3    3    0  502  0.64473127185E+02 -0.98528735056E+02  0.12645546541E+02  0.11849927429E+03  0.41800000000E+01 0. -1.
        -11    1    1    2    0    0 -0.10329861582E+03  0.62147844959E+02  0.59904833288E+02  0.13461629810E+03  0.00000000000E+00 0.  1.
         11    1    1    2    0    0  0.18082300803E+02  0.26235861765E+02  0.12982471838E+02  0.34406897854E+02  0.00000000000E+00 0. -1.
</event>
<event>
 7    1  0.2612321E-009  0.1123775E+03  0.7561462E-02  0.1256229E+00
          2   -1    0    0  501    0  0.00000000000E+00  0.00000000000E+00  0.11078486411E+04  0.11078486411E+04  0.00000000000E+00 0. -1.
         -2   -1    0    0    0  501 -0.00000000000E+00 -0.00000000000E+00 -0.13938586839E+02  0.13938586839E+02  0.00000000000E+00 0.  1.
         25    2    1    2    0    0  0.50000428220E+02  0.20334810975E+02  0.77002501313E+03  0.78198475884E+03  0.12509234525E+03 0.  0.
          5    1    3    3  502    0 -0.23898868030E+02 -0.29982851868E+02  0.12601676165E+03  0.13178704001E+03  0.41800000000E+01 0.  1.
         -5    1    3    3    0  502  0.73899296250E+02  0.50317662843E+02  0.64400825148E+03  0.65019771882E+03  0.41800000000E+01 0.  1.
        -11    1    1    2    0    0 -0.37795498650E+02 -0.51116221492E+02  0.15202581569E+03  0.16478233053E+03  0.00000000000E+00 0.  1.
         11    1    1    2    0    0 -0.12204929570E+02  0.30781410517E+02  0.17185922545E+03  0.17502013859E+03  0.00000000000E+00 0. -1.
</event>
<event>
 7    1  0.2612321E-009  0.9749753E+02  0.7561462E-02  0.1285648E+00
         -2   -1    0    0    0  501 -0.00000000000E+00  0.00000000000E+00  0.17822538214E+03  0.17822538214E+03  0.00000000000E+00 0.  1.
          2   -1    0    0  501    0  0.00000000000E+00 -0.00000000000E+00 -0.10372256148E+03  0.10372256148E+03  0.00000000000E+00 0. -1.
         25    2    1    2    0    0 -0.58477350261E+02  0.52561953774E+02  0.26035054931E+02  0.15003187930E+03  0.12509748696E+03 0.  0.
          5    1    3    3  502    0 -0.22628099035E+01 -0.13480292460E+00 -0.44939099138E+02  0.45189971364E+02  0.41800000000E+01 0.  1.
         -5    1    3    3    0  502 -0.56214540358E+02  0.52696756698E+02  0.70974154069E+02  0.10484190794E+03  0.41800000000E+01 0.  1.
        -11    1    1    2    0    0  0.45948552877E+02 -0.74663269259E+02  0.57623524337E+02  0.10491112355E+03  0.00000000000E+00 0.  1.
         11    1    1    2    0    0  0.12528797384E+02  0.22101315485E+02 -0.91557586086E+01  0.27004940766E+02  0.00000000000E+00 0. -1.
</event>
<event>
 7    1  0.2612321E-009  0.1163072E+03  0.7561462E-02  0.1249316E+00
          3   -1    0    0  501    0  0.00000000000E+00  0.00000000000E+00  0.45729050120E+02  0.45729050120E+02  0.00000000000E+00 0. -1.
         -3   -1    0    0    0  501 -0.00000000000E+00 -0.00000000000E+00 -0.57697868010E+03  0.57697868010E+03  0.00000000000E+00 0.  1.
         25    2    1    2    0    0 -0.28764195776E+02  0.65310305536E+02 -0.46967387632E+03  0.49125726202E+03  0.12508929781E+03 0.  0.
          5    1    3    3  502    0 -0.62663631007E+02  0.48514541685E+02 -0.15350208380E+03  0.17280264331E+03  0.41800000000E+01 0. -1.
         -5    1    3    3    0  502  0.33899435231E+02  0.16795763851E+02 -0.31617179252E+03  0.31845461871E+03  0.41800000000E+01 0. -1.
        -11    1    1    2    0    0  0.49502971950E+02 -0.30808760020E+01 -0.34862655641E+02  0.60625413707E+02  0.00000000000E+00 0.  1.
         11    1    1    2    0    0 -0.20738776174E+02 -0.62229429534E+02 -0.26713098021E+02  0.70825054488E+02  0.00000000000E+00 0. -1.
</event>
<event>
 7    1  0.2612321E-009  0.1110054E+03  0.7561462E-02  0.1258719E+00
         -2   -1    0    0    0  501 -0.00000000000E+00  0.00000000000E+00  0.91218850886E+03  0.91218850886E+03  0.00000000000E+00 0.  1.
          2   -1    0    0  501    0  0.00000000000E+00 -0.00000000000E+00 -0.24338415687E+02  0.24338415687E+02  0.00000000000E+00 0. -1.
         25    2    1    2    0    0 -0.88335144605E+02 -0.15348685662E+02  0.33024679772E+03  0.36434547836E+03  0.12508397291E+03 0.  0.
          5    1    3    3  502    0 -0.78999814064E+02 -0.51699959508E+01  0.33854216069E+03  0.34770097274E+03  0.41800000000E+01 0.  1.
         -5    1    3    3    0  502 -0.93353305405E+01 -0.10178689711E+02 -0.82953629752E+01  0.16644505623E+02  0.41800000000E+01 0.  1.
        -11    1    1    2    0    0  0.80675472661E+02 -0.27147607964E+02  0.36362417031E+03  0.37345422978E+03  0.00000000000E+00 0.  1.
         11    1    1    2    0    0  0.76596719433E+01  0.42496293626E+02  0.19397912515E+03  0.19872721640E+03  0.00000000000E+00 0. -1.
</event>
<event>
 7    1  0.2612321E-009  0.1463095E+03  0.7561462E-02  0.1205083E+00
          2   -1    0    0  501    0  0.00000000000E+00  0.00000000000E+00  0.13443219332E+04  0.13443219332E+04  0.00000000000E+00 0.  1.
         -2   -1    0    0    0  501 -0.00000000000E+00 -0.00000000000E+00 -0.25231853430E+02  0.25231853430E+02  0.00000000000E+00 0. -1.
         25    2    1    2    0    0  0.11007250273E+03 -0.24872258492E+02  0.10487339243E+04  0.10621783550E+04  0.12508168854E+03 0.  0.
          5    1    3    3  502    0  0.12712914532E+03 -0.50840157541E+02  0.83644973604E+03  0.84759198588E+03  0.41800000000E+01 0. -1.
         -5    1    3    3    0  502 -0.17056642590E+02  0.25967899049E+02  0.21228418825E+03  0.21458636913E+03  0.41800000000E+01 0. -1.
        -11    1    1    2    0    0 -0.58161551711E+02 -0.13533083904E+02  0.50415002561E+02  0.78151026485E+02  0.00000000000E+00 0. -1.
         11    1    1    2    0    0 -0.51910951016E+02  0.38405342396E+02  0.21994115291E+03  0.22922440512E+03  0.00000000000E+00 0.  1.
</event>
<event>
 7    1  0.2612321E-009  0.1185920E+03  0.7561462E-02  0.1245438E+00
         -1   -1    0    0    0  501 -0.00000000000E+00  0.00000000000E+00  0.10154757461E+03  0.10154757461E+03  0.00000000000E+00 0.  1.
          1   -1    0    0  501    0  0.00000000000E+00 -0.00000000000E+00 -0.17386898727E+03  0.17386898727E+03  0.00000000000E+00 0. -1.
         25    2    1    2    0    0 -0.52041412183E+02 -0.24314316281E+02  0.18508302087E+02  0.13888629059E+03  0.12508936769E+03 0.  0.
          5    1    3    3  502    0  0.26854611062E+02 -0.46074104118E+02 -0.47447364542E+01  0.53702682704E+02  0.41800000000E+01 0. -1.
         -5    1    3    3    0  502 -0.78896023245E+02  0.21759787837E+02  0.23253038541E+02  0.85183607883E+02  0.41800000000E+01 0. -1.
        -11    1    1    2    0    0  0.11632906800E+02 -0.31074594296E+02 -0.25765124878E+02  0.42009482159E+02  0.00000000000E+00 0.  1.
         11    1    1    2    0    0  0.40408505383E+02  0.55388910577E+02 -0.65064589874E+02  0.94520789130E+02  0.00000000000E+00 0. -1.
</event>
<event>
 7    1  0.2612321E-009  0.1049006E+03  0.7561462E-02  0.1270316E+00
          1   -1    0    0  501    0  0.00000000000E+00  0.00000000000E+00  0.27687183248E+02  0.27687183248E+02  0.00000000000E+00 0. -1.
         -1   -1    0    0    0  501 -0.00000000000E+00 -0.00000000000E+00 -0.53959689261E+03  0.53959689261E+03  0.00000000000E+00 0.  1.
         25    2    1    2    0    0 -0.29588409865E+02  0.35735381401E+02 -0.23892760035E+03  0.27365173064E+03  0.12508549074E+03 0.  0.
          5    1    3    3  502    0 -0.62497277910E+02  0.13320465056E+02 -0.22044013211E+03  0.22955319379E+03  0.41800000000E+01 0. -1.
         -5    1    3    3    0  502  0.32908868045E+02  0.22414916345E+02 -0.18487468244E+02  0.44098536856E+02  0.41800000000E+01 0. -1.
        -11    1    1    2    0    0  0.60037776326E+02 -0.43694941172E+02 -0.16076194044E+03  0.17708242139E+03  0.00000000000E+00 0.  1.
         11    1    1    2    0    0 -0.30449366461E+02  0.79595597712E+01 -0.11222016857E+03  0.11654992382E+03  0.00000000000E+00 0. -1.
</event>
<event>
 7    1  0.2612321E-009  0.1157097E+03  0.7561462E-02  0.1250347E+00
         -2   -1    0    0    0  501 -0.00000000000E+00  0.00000000000E+00  0.21408439498E+03  0.21408439498E+03  0.00000000000E+00 0.  1.
          2   -1    0    0  501    0  0.00000000000E+00 -0.00000000000E+00 -0.93126086636E+02  0.93126086636E+02  0.00000000000E+00 0. -1.
         25    2    1    2    0    0  0.28979230247E+02 -0.43738763377E+02 -0.12754018529E+02  0.13624040090E+03  0.12508359861E+03 0.  0.
          5    1    3    3  502    0  0.52006990389E+02 -0.72775342891E+02  0.13602010431E+02  0.90572979801E+02  0.41800000000E+01 0. -1.
         -5    1    3    3    0  502 -0.23027760142E+02  0.29036579514E+02 -0.26356028961E+02  0.45667421096E+02  0.41800000000E+01 0. -1.
        -11    1    1    2    0    0  0.32179805407E+02  0.60608436632E+01  0.27576146673E+02  0.42810250727E+02  0.00000000000E+00 0.  1.
         11    1    1    2    0    0 -0.61159035654E+02  0.37677919714E+02  0.10613618020E+03  0.12815983000E+03  0.00000000000E+00 0. -1.
</event>
<event>
 7    1  0.2852963E-009  0.1474642E+03  0.7561462E-02  0.1203624E+00
          1   -1    0    0  501    0  0.00000000000E+00  0.00000000000E+00  0.81815139343E+03  0.81815139343E+03  0.00000000000E+00 0. -1.
         -1   -1    0    0    0  501 -0.00000000000E+00 -0.00000000000E+00 -0.35342727284E+02  0.35342727284E+02  0.00000000000E+00 0.  1.
         25    2    1    2    0    0 -0.86064713540E+02  0.91648678932E+02  0.50657364834E+03  0.53671964292E+03  0.12507797024E+03 0.  0.
          5    1    3    3  502    0 -0.10826095383E+03  0.57937984188E+02  0.45386885328E+03  0.47020384145E+03  0.41800000000E+01 0. -1.
         -5    1    3    3    0  502  0.22196240295E+02  0.33710694744E+02  0.52704795064E+02  0.66515801477E+02  0.41800000000E+01 0. -1.
        -11    1    1    2    0    0  0.97244467199E+01 -0.35275375111E+02  0.16299112920E+02  0.40057184564E+02  0.00000000000E+00 0.  1.
         11    1    1    2    0    0  0.76340266820E+02 -0.56373303821E+02  0.25993590489E+03  0.27671729323E+03  0.00000000000E+00 0. -1.
</event>
<event>
 7    1  0.2612321E-009  0.1039942E+03  0.7561462E-02  0.1272114E+00
          3   -1    0    0  501    0  0.00000000000E+00  0.00000000000E+00  0.38836937900E+02  0.38836937900E+02  0.00000000000E+00 0. -1.
         -3   -1    0    0    0  501 -0.00000000000E+00 -0.00000000000E+00 -0.37405523706E+03  0.37405523706E+03  0.00000000000E+00 0.  1.
         25    2    1    2    0    0  0.84649527414E-01 -0.42735855794E+02 -0.24336425398E+03  0.27693599475E+03  0.12506408171E+03 0.  0.
          5    1    3    3  502    0  0.15433225674E+02 -0.76866143583E+02 -0.21754549389E+03  0.23127927447E+03  0.41800000000E+01 0.  1.
         -5    1    3    3    0  502 -0.15348576146E+02  0.34130287790E+02 -0.25818760089E+02  0.45656720282E+02  0.41800000000E+01 0.  1.
        -11    1    1    2    0    0 -0.33311171090E+02 -0.49753630682E+01 -0.62096543196E+02  0.70642544079E+02  0.00000000000E+00 0.  1.
         11    1    1    2    0    0  0.33226521563E+02  0.47711218862E+02 -0.29757501976E+02  0.65313636128E+02  0.00000000000E+00 0. -1.
</event>
<event>
 7    1  0.2612321E-009  0.1518345E+03  0.7561462E-02  0.1198237E+00
         -2   -1    0    0    0  501 -0.00000000000E+00  0.00000000000E+00  0.68595498034E+02  0.68595498034E+02  0.00000000000E+00 0.  1.
          2   -1    0    0  501    0  0.00000000000E+00 -0.00000000000E+00 -0.49199150862E+03  0.49199150862E+03  0.00000000000E+00 0. -1.
         25    2    1    2    0    0  0.12032204077E+03 -0.62903985781E+02 -0.30560782037E+03  0.35704253330E+03  0.12509566653E+03 0.  0.
          5    1    3    3  502    0  0.10984685786E+03 -0.64118786875E+01 -0.26381348844E+03  0.28587142818E+03  0.41800000000E+01 0. -1.
         -5    1    3    3    0  502  0.10475182919E+02 -0.56492107093E+02 -0.41794331937E+02  0.71171105114E+02  0.41800000000E+01 0. -1.
        -11    1    1    2    0    0 -0.62425553941E+02  0.36527336911E+02 -0.11974451939E+03  0.13989262329E+03  0.00000000000E+00 0. -1.
         11    1    1    2    0    0 -0.57896486833E+02  0.26376648870E+02  0.19563291794E+01  0.63651850068E+02  0.00000000000E+00 0.  1.
</event>
<event>
 7    1  0.2612321E-009  0.8839760E+02  0.7561462E-02  0.1306779E+00
          2   -1    0    0  501    0  0.00000000000E+00  0.00000000000E+00  0.73899794162E+03  0.73899794162E+03  0.00000000000E+00 0. -1.
         -2   -1    0    0    0  501 -0.00000000000E+00 -0.00000000000E+00 -0.23465436273E+02  0.23465436273E+02  0.00000000000E+00 0.  1.
         25    2    1    2    0    0  0.13005536769E+02  0.35029989582E+02  0.57549317142E+03  0.59011448328E+03  0.12508584599E+03 0.  0.
          5    1    3    3  502    0 -0.37827622857E+02  0.50954236970E+02  0.17748361380E+03  0.18853426448E+03  0.41800000000E+01 0.  1.
         -5    1    3    3    0  502  0.50833159626E+02 -0.15924247388E+02  0.39800955762E+03  0.40158021879E+03  0.41800000000E+01 0.  1.
        -11    1    1    2    0    0 -0.27299368365E+02 -0.68182235021E+01  0.13780004181E+03  0.14064350397E+03  0.00000000000E+00 0. -1.
         11    1    1    2    0    0  0.14293831596E+02 -0.28211766080E+02  0.22392921175E+01  0.31705390649E+02  0.00000000000E+00 0.  1.
</event>
<event>
 7    1  0.2612321E-009  0.1229108E+03  0.7561462E-02  0.1238371E+00
         -1   -1    0    0    0  501 -0.00000000000E+00  0.00000000000E+00  0.51114135180E+02  0.51114135180E+02  0.00000000000E+00 0.  1.
          1   -1    0    0  501    0  0.00000000000E+00 -0.00000000000E+00 -0.33072426236E+03  0.33072426236E+03  0.00000000000E+00 0. -1.
         25    2    1    2    0    0 -0.38778811218E+02 -0.52795770207E+02 -0.19504016323E+03  0.24078923722E+03  0.12509037508E+03 0.  0.
          5    1    3    3  502    0  0.16519719781E+02 -0.74834285148E+02 -0.78081094280E+02  0.10948607701E+03  0.41800000000E+01 0.  1.
         -5    1    3    3    0  502 -0.55298530998E+02  0.22038514941E+02 -0.11695906895E+03  0.13130316021E+03  0.41800000000E+01 0.  1.
        -11    1    1    2    0    0  0.65551678884E+02  0.23317701642E+02 -0.36307461838E+02  0.78479102948E+02  0.00000000000E+00 0.  1.
         11    1    1    2    0    0 -0.26772867666E+02  0.29478068565E+02 -0.48262502110E+02  0.62570057370E+02  0.00000000000E+00 0. -1.
</event>
<event>
 7    1  0.2612321E-009  0.2644902E+03  0.7561462E-02  0.1104475E+00
          2   -1    0    0  501    0  0.00000000000E+00  0.00000000000E+00  0.31793841091E+03  0.31793841091E+03  0.00000000000E+00 0. -1.
         -2   -1    0    0    0  501 -0.00000000000E+00 -0.00000000000E+00 -0.23726310976E+03  0.23726310976E+03  0.00000000000E+00 0.  1.
         25    2    1    2    0    0  0.25064685285E+03 -0.19816566946E+02  0.27859961691E+02  0.28220949361E+03  0.12509788026E+03 0.  0.
          5    1    3    3  502    0  0.89165187658E+02  0.49157475043E+02  0.31070052818E+02  0.10653501126E+03  0.41800000000E+01 0. -1.
         -5    1    3    3    0  502  0.16148166519E+03 -0.68974041989E+02 -0.32100911273E+01  0.17567448234E+03  0.41800000000E+01 0. -1.
        -11    1    1    2    0    0 -0.74317309974E+02  0.63924047911E+01  0.60414930253E+02  0.95989005611E+02  0.00000000000E+00 0. -1.
         11    1    1    2    0    0 -0.17632954288E+03  0.13424162155E+02 -0.75995907928E+01  0.17700302145E+03  0.00000000000E+00 0.  1.
</event>
<event>
 7    1  0.2612321E-009  0.1311178E+03  0.7561462E-02  0.1225807E+00
         -2   -1    0    0    0  501 -0.00000000000E+00  0.00000000000E+00  0.20541750777E+03  0.20541750777E+03  0.00000000000E+00 0.  1.
          2   -1    0    0  501    0  0.00000000000E+00 -0.00000000000E+00 -0.98062232671E+02  0.98062232671E+02  0.00000000000E+00 0. -1.
         25    2    1    2    0    0 -0.33917649830E+02 -0.69925573875E+02  0.11969555038E+02  0.14775001677E+03  0.12508718701E+03 0.  0.
          5    1    3    3  502    0 -0.31113165901E+02 -0.10609328842E+03  0.11436016806E+02  0.11122980635E+03  0.41800000000E+01 0. -1.
         -5    1    3    3    0  502 -0.28044839285E+01  0.36167714548E+02  0.53353823224E+00  0.36520210415E+02  0.41800000000E+01 0. -1.
        -11    1    1    2    0    0 -0.27551918536E+02  0.34430140653E+02  0.64933275913E+02  0.78491229581E+02  0.00000000000E+00 0.  1.
         11    1    1    2    0    0  0.61469568366E+02  0.35495433222E+02  0.30452444143E+02  0.77238494088E+02  0.00000000000E+00 0. -1.
</event>
<event>
 7    1  0.2612321E-009  0.1075885E+03  0.7561462E-02  0.1265102E+00
          1   -1    0    0  501    0  0.00000000000E+00  0.00000000000E+00  0.23925142871E+02  0.23925142871E+02  0.00000000000E+00 0. -1.
         -1   -1    0    0    0  501 -0.00000000000E+00 -0.00000000000E+00 -0.65704172260E+03  0.65704172260E+03  0.00000000000E+00 0.  1.
         25    2    1    2    0    0  0.33740481573E+02 -0.20314760175E+02 -0.48582757271E+03  0.50321637659E+03  0.12508869528E+03 0.  0.
          5    1    3    3  502    0  0.34662893377E+02 -0.63507946890E+02 -0.17560463583E+03  0.18997167162E+03  0.41800000000E+01 0. -1.
         -5    1    3    3    0  502 -0.92241180455E+00  0.43193186715E+02 -0.31022293688E+03  0.31324470497E+03  0.41800000000E+01 0. -1.
        -11    1    1    2    0    0 -0.36003464782E+02  0.54347873636E+02 -0.91187434144E+02  0.11209410774E+03  0.00000000000E+00 0. -1.
         11    1    1    2    0    0  0.22629832093E+01 -0.34033113462E+02 -0.56101572873E+02  0.65656381135E+02  0.00000000000E+00 0.  1.
</event>
<event>
 7    1  0.2612321E-009  0.2525650E+03  0.7561462E-02  0.1111694E+00
         -1   -1    0    0    0  501 -0.00000000000E+00  0.00000000000E+00  0.10070494668E+03  0.10070494668E+03  0.00000000000E+00 0.  1.
          1   -1    0    0  501    0  0.00000000000E+00 -0.00000000000E+00 -0.10631768014E+04  0.10631768014E+04  0.00000000000E+00 0. -1.
         25    2    1    2    0    0  0.84381988269E+02  0.23283890356E+03 -0.80799661163E+03  0.85430673759E+03  0.12508877865E+03 0.  0.
          5    1    3    3  502    0 -0.11773174644E+01  0.16657686888E+02 -0.44356037519E+01  0.17776714812E+02  0.41800000000E+01 0. -1.
         -5    1    3    3    0  502  0.85559305733E+02  0.21618121667E+03 -0.80356100787E+03  0.83653002278E+03  0.41800000000E+01 0. -1.
        -11    1    1    2    0    0 -0.69979935364E+02 -0.10168158578E+03 -0.27511043527E+02  0.12646419950E+03  0.00000000000E+00 0. -1.
         11    1    1    2    0    0 -0.14402052904E+02 -0.13115731778E+03 -0.12696419961E+03  0.18311081103E+03  0.00000000000E+00 0.  1.
</event>
<event>
 7    1  0.2612321E-009  0.1469339E+03  0.7561462E-02  0.1204292E+00
         -2   -1    0    0    0  501 -0.00000000000E+00  0.00000000000E+00  0.18561822438E+03  0.18561822438E+03  0.00000000000E+00 0.  1.
          2   -1    0    0  501    0  0.00000000000E+00 -0.00000000000E+00 -0.14502341259E+03  0.14502341259E+03  0.00000000000E+00 0. -1.
         25    2    1    2    0    0  0.11990297005E+03 -0.24192612965E+02  0.36211627748E+02  0.17866281323E+03  0.12508842512E+03 0.  0.
          5    1    3    3  502    0  0.12902374515E+01  0.37508883180E+02 -0.63392424781E+01  0.38291505916E+02  0.41800000000E+01 0.  1.
         -5    1    3    3    0  502  0.11861273260E+03 -0.61701496145E+02  0.42550870226E+02  0.14037130732E+03  0.41800000000E+01 0.  1.
        -11    1    1    2    0    0 -0.36364961748E+02  0.83433800996E+01  0.44408383474E+02  0.58001094448E+02  0.00000000000E+00 0.  1.
         11    1    1    2    0    0 -0.83538008302E+02  0.15849232865E+02 -0.40025199430E+02  0.93977729292E+02  0.00000000000E+00 0. -1.
</event>
<event>
 7    1  0.2612321E-009  0.1555018E+03  0.7561462E-02  0.1193871E+00
          2   -1    0    0  501    0  0.00000000000E+00  0.00000000000E+00  0.73292019852E+02  0.73292019852E+02  0.00000000000E+00 0. -1.
         -2   -1    0    0    0  501 -0.00000000000E+00 -0.00000000000E+00 -0.46750373306E+03  0.46750373306E+03  0.00000000000E+00 0.  1.
         25    2    1    2    0    0 -0.12133293482E+02 -0.14743663089E+03 -0.24925695642E+03  0.31569259563E+03  0.12509199685E+03 0.  0.
          5    1    3    3  502    0 -0.14492578706E+01 -0.13057693098E+03 -0.98652775178E+02  0.16371401193E+03  0.41800000000E+01 0.  1.
         -5    1    3    3    0  502 -0.10684035611E+02 -0.16859699919E+02 -0.15060418124E+03  0.15197858370E+03  0.41800000000E+01 0.  1.
        -11    1    1    2    0    0  0.32676012301E+02  0.45767933267E+02 -0.94005672459E+02  0.10954219256E+03  0.00000000000E+00 0.  1.
         11    1    1    2    0    0 -0.20542718820E+02  0.10166869763E+03 -0.50949084335E+02  0.11556096473E+03  0.00000000000E+00 0. -1.
</event>
<event>
 7    1  0.2612321E-009  0.1014521E+03  0.7561462E-02  0.1277272E+00
         -1   -1    0    0    0  501 -0.00000000000E+00  0.00000000000E+00  0.13542533036E+03  0.13542533036E+03  0.00000000000E+00 0.  1.
          1   -1    0    0  501    0  0.00000000000E+00 -0.00000000000E+00 -0.10623108696E+03  0.10623108696E+03  0.00000000000E+00 0. -1.
         25    2    1    2    0    0  0.38115951257E+02 -0.33288100539E+02  0.25234783452E+02  0.13728198632E+03  0.12509446868E+03 0.  0.
          5    1    3    3  502    0  0.64770349372E+02 -0.44400290478E+02 -0.22092100384E+02  0.81683029154E+02  0.41800000000E+01 0. -1.
         -5    1    3    3    0  502 -0.26654398116E+02  0.11112189939E+02  0.47326883837E+02  0.55598957165E+02  0.41800000000E+01 0. -1.
        -11    1    1    2    0    0 -0.26530929195E+01  0.53968881995E+02  0.23482521916E+02  0.58916109524E+02  0.00000000000E+00 0. -1.
         11    1    1    2    0    0 -0.35462858337E+02 -0.20680781456E+02 -0.19523061962E+02  0.45458321476E+02  0.00000000000E+00 0.  1.
</event>
<event>
 7    1  0.2612321E-009  0.9299943E+02  0.7561462E-02  0.1295746E+00
         -2   -1    0    0    0  501 -0.00000000000E+00  0.00000000000E+00  0.27385296381E+03  0.27385296381E+03  0.00000000000E+00 0. -1.
          2   -1    0    0  501    0  0.00000000000E+00 -0.00000000000E+00 -0.44936890670E+02  0.44936890670E+02  0.00000000000E+00 0.  1.
         25    2    1    2    0    0 -0.18079957702E+02  0.23921773937E+02  0.17174016898E+03  0.21457399671E+03  0.12509267879E+03 0.  0.
          5    1    3    3  502    0  0.38165991184E+02 -0.17023387589E+01  0.13958072402E+03  0.14477496937E+03  0.41800000000E+01 0. -1.
         -5    1    3    3    0  502 -0.56245948886E+02  0.25624112696E+02  0.32159444962E+02  0.69799027341E+02  0.41800000000E+01 0. -1.
        -11    1    1    2    0    0  0.45258781040E+02 -0.34024981596E+02  0.46665283954E+02  0.73373737538E+02  0.00000000000E+00 0. -1.
         11    1    1    2    0    0 -0.27178823338E+02  0.10103207659E+02  0.10510620209E+02  0.30842120229E+02  0.00000000000E+00 0.  1.
</event>
<event>
 7    1  0.2612321E-009  0.5000114E+02  0.7561462E-02  0.1445335E+00
         -2   -1    0    0    0  501 -0.00000000000E+00  0.00000000000E+00  0.14740370066E+03  0.14740370066E+03  0.00000000000E+00 0. -1.
          2   -1    0    0  501    0  0.00000000000E+00 -0.00000000000E+00 -0.91613680613E+02  0.91613680613E+02  0.00000000000E+00 0.  1.
         25    2    1    2    0    0  0.37009517652E+02 -0.26137611918E+02  0.37100046456E+02  0.13811730416E+03  0.12508835720E+03 0.  0.
          5    1    3    3  502    0  0.20087041615E+02 -0.25763292412E+02  0.82850804978E+02  0.89156966987E+02  0.41800000000E+01 0. -1.
         -5    1    3    3    0  502  0.16922476037E+02 -0.37431950565E+00 -0.45750758522E+02  0.48960337168E+02  0.41800000000E+01 0. -1.
        -11    1    1    2    0    0 -0.23009752526E+02  0.27158396511E+02 -0.32267923528E+02  0.48044209861E+02  0.00000000000E+00 0.  1.
         11    1    1    2    0    0 -0.13999765126E+02 -0.10207845929E+01  0.50957897121E+02  0.52855867260E+02  0.00000000000E+00 0. -1.
</event>
<event>
 7    1  0.2612321E-009  0.1020098E+03  0.7561462E-02  0.1276125E+00
          1   -1    0    0  501    0  0.00000000000E+00  0.00000000000E+00  0.27158838962E+03  0.27158838962E+03  0.00000000000E+00 0. -1.
         -1   -1    0    0    0  501 -0.00000000000E+00 -0.00000000000E+00 -0.58606007002E+02  0.58606007002E+02  0.00000000000E+00 0.  1.
         25    2    1    2    0    0  0.45300477095E+02  0.13549030705E+02  0.17738147537E+03  0.22214338812E+03  0.12509111728E+03 0.  0.
          5    1    3    3  502    0 -0.38742105619E+02 -0.19183851673E+02  0.58694869289E+02  0.73017333515E+02  0.41800000000E+01 0. -1.
         -5    1    3    3    0  502  0.84042582714E+02  0.32732882378E+02  0.11868660608E+03  0.14912605460E+03  0.41800000000E+01 0. -1.
        -11    1    1    2    0    0 -0.93280928688E+01 -0.29505649813E+02 -0.22229040201E+02  0.38101534296E+02  0.00000000000E+00 0.  1.
         11    1    1    2    0    0 -0.35972384227E+02  0.15956619108E+02  0.57829947452E+02  0.69949474213E+02  0.00000000000E+00 0. -1.
</event>
<event>
 7    1  0.2612321E-009  0.1285461E+03  0.7561462E-02  0.1229629E+00
          2   -1    0    0  501    0  0.00000000000E+00  0.00000000000E+00  0.16326894264E+03  0.16326894264E+03  0.00000000000E+00 0.  1.
         -2   -1    0    0    0  501 -0.00000000000E+00 -0.00000000000E+00 -0.12473441283E+03  0.12473441283E+03  0.00000000000E+00 0. -1.
         25    2    1    2    0    0  0.89922950830E+02  0.17629325873E+02  0.39566753631E+02  0.16002806377E+03  0.12508606231E+03 0.  0.
          5    1    3    3  502    0 -0.26277165278E+02 -0.70787961406E+01 -0.12519617101E+02  0.30245858927E+02  0.41800000000E+01 0.  1.
         -5    1    3    3    0  502  0.11620011611E+03  0.24708122014E+02  0.52086370732E+02  0.12978220484E+03  0.41800000000E+01 0.  1.
        -11    1    1    2    0    0 -0.18099875954E+02  0.22133788505E+02  0.28842748348E+02  0.40612981119E+02  0.00000000000E+00 0.  1.
         11    1    1    2    0    0 -0.71823074876E+02 -0.39763114378E+02 -0.29874972170E+02  0.87362310591E+02  0.00000000000E+00 0. -1.
</event>
<event>
 7    1  0.2612321E-009  0.2221815E+03  0.7561462E-02  0.1132267E+00
          2   -1    0    0  501    0  0.00000000000E+00  0.00000000000E+00  0.73466000129E+02  0.73466000129E+02  0.00000000000E+00 0. -1.
         -2   -1    0    0    0  501 -0.00000000000E+00 -0.00000000000E+00 -0.85910009715E+03  0.85910009715E+03  0.00000000000E+00 0.  1.
         25    2    1    2    0    0 -0.23754997518E+02 -0.20991615289E+03 -0.55618999577E+03  0.60796717848E+03  0.12509071733E+03 0.  0.
          5    1    3    3  502    0  0.12801146650E+02 -0.12050101872E+03 -0.44205345227E+03  0.45838094630E+03  0.41800000000E+01 0.  1.
         -5    1    3    3    0  502 -0.36556144168E+02 -0.89415134173E+02 -0.11413654350E+03  0.14958623218E+03  0.41800000000E+01 0.  1.
        -11    1    1    2    0    0  0.52351416669E+02  0.10033734452E+03 -0.14162739410E+03  0.18129140159E+03  0.00000000000E+00 0.  1.
         11    1    1    2    0    0 -0.28596419151E+02  0.10957880837E+03 -0.87816707154E+02  0.14330751721E+03  0.00000000000E+00 0. -1.
</event>
<event>
 7    1  0.2612321E-009  0.8800300E+02  0.7561462E-02  0.1307761E+00
          1   -1    0    0  501    0  0.00000000000E+00  0.00000000000E+00  0.78590679874E+02  0.78590679874E+02  0.00000000000E+00 0. -1.
         -1   -1    0    0    0  501 -0.00000000000E+00 -0.00000000000E+00 -0.18697966972E+03  0.18697966972E+03  0.00000000000E+00 0.  1.
         25    2    1    2    0    0  0.29063279366E+02  0.12717067300E+02 -0.12618451408E+02  0.12966423903E+03  0.12508873474E+03 0.  0.
          5    1    3    3  502    0  0.56906139093E+02  0.80135658296E+01 -0.54281089754E+02  0.79160817383E+02  0.41800000000E+01 0.  1.
         -5    1    3    3    0  502 -0.27842859727E+02  0.47035014703E+01  0.41662638347E+02  0.50503421645E+02  0.41800000000E+01 0.  1.
        -11    1    1    2    0    0  0.19425127219E+02 -0.32183564448E+02 -0.65500660925E+02  0.75521215362E+02  0.00000000000E+00 0.  1.
         11    1    1    2    0    0 -0.48488406585E+02  0.19466497148E+02 -0.30269877517E+02  0.60384895208E+02  0.00000000000E+00 0. -1.
</event>
<event>
 6    1  0.2612321E-009  0.1182597E+03  0.7561462E-02  0.1245996E+00
          2   -1    0    0  501    0  0.00000000000E+00  0.00000000000E+00  0.32205081838E+02  0.32205081838E+02  0.00000000000E+00 0. -1.
         -2   -1    0    0    0  501 -0.00000000000E+00 -0.00000000000E+00 -0.47733050265E+03  0.47733050265E+03  0.00000000000E+00 0.  1.
          5    1    1    2  502    0  0.39529461567E+02 -0.75513294950E+02 -0.23545549485E+03  0.25044280485E+03  0.41800000000E+01 0.  1.
         -5    1    1    2    0  502 -0.41084198152E+02  0.18737783464E+02 -0.58122321539E+02  0.73720367118E+02  0.41800000000E+01 0.  1.
        -11    1    1    2    0    0 -0.38243166139E+02  0.22229306553E+01 -0.43541589345E+02  0.57994406452E+02  0.00000000000E+00 0.  1.
         11    1    1    2    0    0  0.39797902724E+02  0.54552580831E+02 -0.10800601507E+03  0.12737800606E+03  0.00000000000E+00 0. -1.
</event>
<event>
 7    1  0.2612321E-009  0.2019079E+03  0.7561462E-02  0.1148139E+00
          1   -1    0    0  501    0  0.00000000000E+00  0.00000000000E+00  0.53109699791E+03  0.53109699791E+03  0.00000000000E+00 0. -1.
         -1   -1    0    0    0  501 -0.00000000000E+00 -0.00000000000E+00 -0.10978054078E+03  0.10978054078E+03  0.00000000000E+00 0.  1.
         25    2    1    2    0    0  0.17061572296E+02 -0.18178005204E+03  0.37070522002E+03  0.43174621069E+03  0.12508935098E+03 0.  0.
          5    1    3    3  502    0  0.11437319727E+01 -0.19737049737E+03  0.34484603672E+03  0.39735712249E+03  0.41800000000E+01 0.  1.
         -5    1    3    3    0  502  0.15917840323E+02  0.15590445333E+02  0.25859183305E+02  0.34389088203E+02  0.41800000000E+01 0.  1.
        -11    1    1    2    0    0  0.39919136683E+01  0.60707697416E+02 -0.23959364454E+02  0.65386627420E+02  0.00000000000E+00 0.  1.
         11    1    1    2    0    0 -0.21053485964E+02  0.12107235462E+03  0.74570601559E+02  0.14374470057E+03  0.00000000000E+00 0. -1.
</event>
<event>
 7    1  0.2612321E-009  0.8890919E+02  0.7561462E-02  0.1305515E+00
         -1   -1    0    0    0  501 -0.00000000000E+00  0.00000000000E+00  0.18787919968E+03  0.18787919968E+03  0.00000000000E+00 0.  1.
          1   -1    0    0  501    0  0.00000000000E+00 -0.00000000000E+00 -0.68551336232E+02  0.68551336232E+02  0.00000000000E+00 0. -1.
         25    2    1    2    0    0  0.13746153949E+02  0.35983519685E+02  0.96188813698E+02  0.16242851720E+03  0.12508782868E+03 0.  0.
          5    1    3    3  502    0  0.48242350015E+02  0.42181270770E+02  0.47275051201E+01  0.64392589972E+02  0.41800000000E+01 0.  1.
         -5    1    3    3    0  502 -0.34496196065E+02 -0.61977510847E+01  0.91461308578E+02  0.98035927232E+02  0.41800000000E+01 0.  1.
        -11    1    1    2    0    0 -0.40764291003E+02 -0.12872342236E+02  0.36308782953E+02  0.56087006830E+02  0.00000000000E+00 0.  1.
         11    1    1    2    0    0  0.27018137054E+02 -0.23111177449E+02 -0.13169733204E+02  0.37915011877E+02  0.00000000000E+00 0. -1.
</event>
<event>
 7    1  0.2612321E-009  0.1328086E+03  0.7561462E-02  0.1223347E+00
         -2   -1    0    0    0  501 -0.00000000000E+00  0.00000000000E+00  0.20039444262E+02  0.20039444262E+02  0.00000000000E+00 0.  1.
          2   -1    0    0  501    0  0.00000000000E+00 -0.00000000000E+00 -0.12157285058E+04  0.12157285058E+04  0.00000000000E+00 0. -1.
         25    2    1    2    0    0  0.33184817728E+02 -0.88263744557E+02 -0.86047087475E+03  0.87461385529E+03  0.12509016284E+03 0.  0.
          5    1    3    3  502    0  0.31942107126E+02 -0.11973389941E+03 -0.64450883989E+03  0.65632737408E+03  0.41800000000E+01 0. -1.
         -5    1    3    3    0  502  0.12427106019E+01  0.31470154853E+02 -0.21596203486E+03  0.21828648121E+03  0.41800000000E+01 0. -1.
        -11    1    1    2    0    0  0.14691765098E+02  0.89270751185E+01 -0.46002825525E+01  0.17796157771E+02  0.00000000000E+00 0.  1.
         11    1    1    2    0    0 -0.47876582826E+02  0.79336669438E+02 -0.33061790421E+03  0.34335793697E+03  0.00000000000E+00 0. -1.
</event>
<event>
 7    1  0.2612321E-009  0.1483228E+03  0.7561462E-02  0.1202549E+00
         -2   -1    0    0    0  501 -0.00000000000E+00  0.00000000000E+00  0.29664820881E+03  0.29664820881E+03  0.00000000000E+00 0.  1.
          2   -1    0    0  501    0  0.00000000000E+00 -0.00000000000E+00 -0.84761843672E+02  0.84761843672E+02  0.00000000000E+00 0. -1.
         25    2    1    2    0    0 -0.94182381273E+02  0.59866395145E+02  0.79855965354E+02  0.18568437110E+03  0.12508958492E+03 0.  0.
          5    1    3    3  502    0  0.17911789103E+02 -0.92826030780E+01  0.44826963780E+02  0.49334855736E+02  0.41800000000E+01 0. -1.
         -5    1    3    3    0  502 -0.11209417038E+03  0.69148998223E+02  0.35029001574E+02  0.13634951536E+03  0.41800000000E+01 0. -1.
        -11    1    1    2    0    0  0.46957156560E+02  0.20355748838E+02  0.52029945470E+02  0.72982506730E+02  0.00000000000E+00 0.  1.
         11    1    1    2    0    0  0.47225224713E+02 -0.80222143983E+02  0.80000454313E+02  0.12274317466E+03  0.00000000000E+00 0. -1.
</event>
<event>
 7    1  0.2612321E-009  0.2085847E+03  0.7561462E-02  0.1142692E+00
          1   -1    0    0  501    0  0.00000000000E+00  0.00000000000E+00  0.19595014886E+04  0.19595014886E+04  0.00000000000E+00 0. -1.
         -1   -1    0    0    0  501 -0.00000000000E+00 -0.00000000000E+00 -0.24345583193E+02  0.24345583193E+02  0.00000000000E+00 0.  1.
         25    2    1    2    0    0  0.94984877546E+02 -0.15491937147E+03  0.12443400805E+04  0.12637455107E+04  0.12509333002E+03 0.  0.
          5    1    3    3  502    0 -0.27628023202E+02 -0.82177779947E+01  0.14517669101E+03  0.14806952270E+03  0.41800000000E+01 0.  1.
         -5    1    3    3    0  502  0.12261290075E+03 -0.14670159348E+03  0.10991633895E+04  0.11156759880E+04  0.41800000000E+01 0.  1.
        -11    1    1    2    0    0 -0.29008662852E+02  0.11734637442E+03  0.33148524207E+03  0.35283727102E+03  0.00000000000E+00 0.  1.
         11    1    1    2    0    0 -0.65976214694E+02  0.37572997053E+02  0.35933058282E+03  0.36726429007E+03  0.00000000000E+00 0. -1.
</event>
<event>
 7    1  0.2612321E-009  0.2119865E+03  0.7561462E-02  0.1140003E+00
         -4   -1    0    0    0  501 -0.00000000000E+00  0.00000000000E+00  0.69146064152E+03  0.69146064152E+03  0.00000000000E+00 0.  1.
          4   -1    0    0  501    0  0.00000000000E+00 -0.00000000000E+00 -0.10649648448E+03  0.10649648448E+03  0.00000000000E+00 0. -1.
         25    2    1    2    0    0 -0.37100400633E+02 -0.17810128759E+03  0.54750539690E+03  0.59034352762E+03  0.12508721996E+03 0.  0.
          5    1    3    3  502    0 -0.80735734056E+02 -0.84764502274E+02  0.31140570094E+03  0.33270747298E+03  0.41800000000E+01 0. -1.
         -5    1    3    3    0  502  0.43635333423E+02 -0.93336785319E+02  0.23609969596E+03  0.25763605464E+03  0.41800000000E+01 0. -1.
        -11    1    1    2    0    0  0.48350257491E+02  0.33829974093E+02  0.17390284265E+02  0.61519399651E+02  0.00000000000E+00 0. -1.
         11    1    1    2    0    0 -0.11249856858E+02  0.14427131350E+03  0.20068475883E+02  0.14609419873E+03  0.00000000000E+00 0.  1.
</event>
<event>
 7    1  0.2612321E-009  0.1258286E+03  0.7561462E-02  0.1233780E+00
         -1   -1    0    0    0  501 -0.00000000000E+00  0.00000000000E+00  0.18202785778E+03  0.18202785778E+03  0.00000000000E+00 0.  1.
          1   -1    0    0  501    0  0.00000000000E+00 -0.00000000000E+00 -0.16820199361E+03  0.16820199361E+03  0.00000000000E+00 0. -1.
         25    2    1    2    0    0 -0.11554277440E+03 -0.42149242885E+02 -0.54037250179E+02  0.18356024325E+03  0.12509055561E+03 0.  0.
          5    1    3    3  502    0 -0.87022713489E+02 -0.39196654010E+02 -0.94114370968E+02  0.13410562095E+03  0.41800000000E+01 0. -1.
         -5    1    3    3    0  502 -0.28520060911E+02 -0.29525888758E+01  0.40077120789E+02  0.49454622293E+02  0.41800000000E+01 0. -1.
        -11    1    1    2    0    0  0.91896448665E+02  0.18570310202E+02  0.31012839987E+01  0.93805285889E+02  0.00000000000E+00 0. -1.
         11    1    1    2    0    0  0.23646325735E+02  0.23578932683E+02  0.64761830345E+02  0.72864322250E+02  0.00000000000E+00 0.  1.
</event>
<event>
 7    1  0.2612321E-009  0.1241330E+03  0.7561462E-02  0.1236431E+00
         -2   -1    0    0    0  501 -0.00000000000E+00  0.00000000000E+00  0.27848740354E+02  0.27848740354E+02  0.00000000000E+00 0. -1.
          2   -1    0    0  501    0  0.00000000000E+00 -0.00000000000E+00 -0.75762419422E+03  0.75762419422E+03  0.00000000000E+00 0.  1.
         25    2    1    2    0    0  0.30075155554E+02  0.90648741006E+02 -0.35331432790E+03  0.38678174734E+03  0.12508955413E+03 0.  0.
          5    1    3    3  502    0  0.38403461434E+02  0.12444427827E+02 -0.26647415523E+03  0.26954709689E+03  0.41800000000E+01 0. -1.
         -5    1    3    3    0  502 -0.83283058803E+01  0.78204313179E+02 -0.86840172664E+02  0.11723465045E+03  0.41800000000E+01 0. -1.
        -11    1    1    2    0    0 -0.44654705685E+02 -0.10140737278E+03 -0.34532845499E+03  0.36266960146E+03  0.00000000000E+00 0.  1.
         11    1    1    2    0    0  0.14579550132E+02  0.10758631770E+02 -0.31132670981E+02  0.36021585778E+02  0.00000000000E+00 0. -1.
</event>
<event>
 7    1  0.2612321E-009  0.3488597E+03  0.7561462E-02  0.1063084E+00
          1   -1    0    0  501    0  0.00000000000E+00  0.00000000000E+00  0.14974803787E+03  0.14974803787E+03  0.00000000000E+00 0. -1.
         -1   -1    0    0    0  501 -0.00000000000E+00 -0.00000000000E+00 -0.93772043186E+03  0.93772043186E+03  0.00000000000E+00 0.  1.
         25    2    1    2    0    0  0.18452329957E+03  0.27877220700E+03 -0.58515826383E+03  0.68543444202E+03  0.12508952433E+03 0.  0.
          5    1    3    3  502    0  0.89716520771E+02  0.23398782981E+03 -0.43900142550E+03  0.50550873641E+03  0.41800000000E+01 0.  1.
         -5    1    3    3    0  502  0.94806778804E+02  0.44784377191E+02 -0.14615683833E+03  0.17992570561E+03  0.41800000000E+01 0.  1.
        -11    1    1    2    0    0  0.65678921081E+01 -0.15542682996E+02  0.29630533100E+01  0.17131604898E+02  0.00000000000E+00 0.  1.
         11    1    1    2    0    0 -0.19109119168E+03 -0.26322952400E+03 -0.20577718348E+03  0.38490242281E+03  0.00000000000E+00 0. -1.
</event>
<event>
 7    1  0.2612321E-009  0.1222325E+03  0.7561462E-02  0.1239459E+00
          2   -1    0    0  501    0  0.00000000000E+00  0.00000000000E+00  0.77750675939E+02  0.77750675939E+02  0.00000000000E+00 0.  1.
         -2   -1    0    0    0  501 -0.00000000000E+00 -0.00000000000E+00 -0.29731580131E+03  0.29731580131E+03  0.00000000000E+00 0. -1.
         25    2    1    2    0    0 -0.90218537584E+02  0.17006025385E+00 -0.18732121629E+03  0.24264322083E+03  0.12508829322E+03 0.  0.
          5    1    3    3  502    0 -0.19716403443E+02  0.38472591021E+02 -0.14594652382E+03  0.15227191810E+03  0.41800000000E+01 0. -1.
         -5    1    3    3    0  502 -0.70502134140E+02 -0.38302530767E+02 -0.41374692464E+02  0.90371302735E+02  0.41800000000E+01 0. -1.
        -11    1    1    2    0    0  0.85490211003E+02  0.29658172464E+02 -0.32336431703E+01  0.90546340729E+02  0.00000000000E+00 0.  1.
         11    1    1    2    0    0  0.47283265812E+01 -0.29828232718E+02 -0.29010265915E+02  0.41876915691E+02  0.00000000000E+00 0. -1.
</event>
<event>
 7    1  0.2612321E-009  0.9778577E+02  0.7561462E-02  0.1285022E+00
         -1   -1    0    0    0  501 -0.00000000000E+00  0.00000000000E+00  0.15823984266E+03  0.15823984266E+03  0.00000000000E+00 0.  1.
          1   -1    0    0  501    0  0.00000000000E+00 -0.00000000000E+00 -0.14051514226E+03  0.14051514226E+03  0.00000000000E+00 0. -1.
         25    2    1    2    0    0 -0.49998877976E+02 -0.16055205610E+02 -0.71435584218E+02  0.15332369734E+03  0.12508979194E+03 0.  0.
          5    1    3    3  502    0  0.34205393154E+02 -0.49620205372E+01 -0.57407696502E+02  0.67139754142E+02  0.41800000000E+01 0.  1.
         -5    1    3    3    0  502 -0.84204271130E+02 -0.11093185072E+02 -0.14027887716E+02  0.86183943199E+02  0.41800000000E+01 0.  1.
        -11    1    1    2    0    0  0.60649920017E+02  0.57842892675E+01  0.10646393145E+03  0.12266392909E+03  0.00000000000E+00 0.  1.
         11    1    1    2    0    0 -0.10651042041E+02  0.10270916342E+02 -0.17303646831E+02  0.22767358493E+02  0.00000000000E+00 0. -1.
</event>
<event>
 7    1  0.2612321E-009  0.1884695E+03  0.7561462E-02  0.1159849E+00
         -3   -1    0    0    0  501 -0.00000000000E+00  0.00000000000E+00  0.53205443040E+02  0.53205443040E+02  0.00000000000E+00 0.  1.
          3   -1    0    0  501    0  0.00000000000E+00 -0.00000000000E+00 -0.82673364078E+03  0.82673364078E+03  0.00000000000E+00 0. -1.
         25    2    1    2    0    0 -0.17065492590E+03  0.41045370268E+02 -0.47268949541E+03  0.51951174321E+03  0.12509702675E+03 0.  0.
          5    1    3    3  502    0 -0.14177667636E+03  0.15425425672E+02 -0.20947139729E+03  0.25344488237E+03  0.41800000000E+01 0.  1.
         -5    1    3    3    0  502 -0.28878249546E+02  0.25619944596E+02 -0.26321809812E+03  0.26606686084E+03  0.41800000000E+01 0.  1.
        -11    1    1    2    0    0  0.12584572191E+03 -0.68100670838E+02 -0.19003925263E+03  0.23788603286E+03  0.00000000000E+00 0.  1.
         11    1    1    2    0    0  0.44809203994E+02  0.27055300570E+02 -0.11079944970E+03  0.12254130775E+03  0.00000000000E+00 0. -1.
</event>
<event>
 7    1  0.2612321E-009  0.7535447E+02  0.7561462E-02  0.1342777E+00
         -2   -1    0    0    0  501 -0.00000000000E+00  0.00000000000E+00  0.17405968493E+03  0.17405968493E+03  0.00000000000E+00 0.  1.
          2   -1    0    0  501    0  0.00000000000E+00 -0.00000000000E+00 -0.10148791902E+03  0.10148791902E+03  0.00000000000E+00 0. -1.
         25    2    1    2    0    0  0.33721965485E+02  0.26017704796E+02 -0.23406737545E+02  0.13420273269E+03  0.12509358969E+03 0.  0.
          5    1    3    3  502    0  0.36262736726E+02  0.28093328839E+02  0.45703570618E+02  0.64888442479E+02  0.41800000000E+01 0. -1.
         -5    1    3    3    0  502 -0.25407712411E+01 -0.20756240431E+01 -0.69110308163E+02  0.69314290215E+02  0.41800000000E+01 0. -1.
        -11    1    1    2    0    0 -0.57515238930E+02 -0.41519505321E+02  0.48192441830E+02  0.85757702166E+02  0.00000000000E+00 0.  1.
         11    1    1    2    0    0  0.23793273444E+02  0.15501800525E+02  0.47786061626E+02  0.55587169081E+02  0.00000000000E+00 0. -1.
</event>
<event>
 7    1  0.2612321E-009  0.1026637E+03  0.7561462E-02  0.1274792E+00
          2   -1    0    0  501    0  0.00000000000E+00  0.00000000000E+00  0.33722371147E+03  0.33722371147E+03  0.00000000000E+00 0. -1.
         -2   -1    0    0    0  501 -0.00000000000E+00 -0.00000000000E+00 -0.54709014007E+02  0.54709014007E+02  0.00000000000E+00 0.  1.
         25    2    1    2    0    0 -0.63706783167E+02 -0.13492226455E+02  0.21699792657E+03  0.25879474303E+03  0.12508406968E+03 0.  0.
          5    1    3    3  502    0 -0.63196903259E+02 -0.61828398612E+02  0.10908746429E+03  0.14047827847E+03  0.41800000000E+01 0.  1.
         -5    1    3    3    0  502 -0.50987990802E+00  0.48336172157E+02  0.10791046228E+03  0.11831646456E+03  0.41800000000E+01 0.  1.
        -11    1    1    2    0    0  0.32812224540E+02 -0.35682217607E+01 -0.21395368612E+02  0.39333650782E+02  0.00000000000E+00 0.  1.
         11    1    1    2    0    0  0.30894558628E+02  0.17060448216E+02  0.86912139504E+02  0.93804331666E+02  0.00000000000E+00 0. -1.
</event>
<event>
 7    1  0.2612321E-009  0.1028361E+03  0.7561462E-02  0.1274443E+00
          3   -1    0    0  501    0  0.00000000000E+00  0.00000000000E+00  0.25506723663E+03  0.25506723663E+03  0.00000000000E+00 0. -1.
         -3   -1    0    0    0  501 -0.00000000000E+00 -0.00000000000E+00 -0.62889371200E+02  0.62889371200E+02  0.00000000000E+00 0.  1.
         25    2    1    2    0    0 -0.24504968433E+02 -0.34348759112E+02  0.44522326022E+02  0.13932038847E+03  0.12509037693E+03 0.  0.
          5    1    3    3  502    0  0.11396263395E+01 -0.65533117184E+02 -0.14912200529E+02  0.67347860550E+02  0.41800000000E+01 0.  1.
         -5    1    3    3    0  502 -0.25644594772E+02  0.31184358072E+02  0.59434526551E+02  0.71972527923E+02  0.41800000000E+01 0.  1.
        -11    1    1    2    0    0  0.27847692611E+02 -0.26513980835E+02  0.70543441312E+02  0.80342157524E+02  0.00000000000E+00 0.  1.
         11    1    1    2    0    0 -0.33427241782E+01  0.60862739947E+02  0.77112098093E+02  0.98294061830E+02  0.00000000000E+00 0. -1.
</event>
<event>
 7    1  0.2612321E-009  0.9244410E+02  0.7561462E-02  0.1297039E+00
          2   -1    0    0  501    0  0.00000000000E+00  0.00000000000E+00  0.22301515654E+03  0.22301515654E+03  0.00000000000E+00 0. -1.
         -2   -1    0    0    0  501 -0.00000000000E+00 -0.00000000000E+00 -0.62827713921E+02  0.62827713921E+02  0.00000000000E+00 0.  1.
         25    2    1    2    0    0 -0.31371394767E+02 -0.33386787616E+02  0.73327912595E+02  0.15206196196E+03  0.12508803105E+03 0.  0.
          5    1    3    3  502    0  0.32506617768E+02  0.12170314960E+02  0.64017418537E+02  0.72941751015E+02  0.41800000000E+01 0.  1.
         -5    1    3    3    0  502 -0.63878012535E+02 -0.45557102575E+02  0.93104940579E+01  0.79120210945E+02  0.41800000000E+01 0.  1.
        -11    1    1    2    0    0 -0.78708887005E+01  0.31064155575E+02  0.88816889567E+02  0.94421250378E+02  0.00000000000E+00 0. -1.
         11    1    1    2    0    0  0.39242283468E+02  0.23226320405E+01 -0.19573595412E+01  0.39359658125E+02  0.00000000000E+00 0.  1.
</event>
<event>
 7    1  0.2612321E-009  0.1106148E+03  0.7561462E-02  0.1259436E+00
         -1   -1    0    0    0  501 -0.00000000000E+00  0.00000000000E+00  0.36555542859E+02  0.36555542859E+02  0.00000000000E+00 0.  1.
          1   -1    0    0  501    0  0.00000000000E+00 -0.00000000000E+00 -0.42738045291E+03  0.42738045291E+03  0.00000000000E+00 0. -1.
         25    2    1    2    0    0  0.16836895180E+02 -0.61728640782E+02 -0.24631136114E+03  0.28356700051E+03  0.12508817297E+03 0.  0.
          5    1    3    3  502    0 -0.47130062729E+02  0.27906358199E+01 -0.62047597000E+02  0.78079492535E+02  0.41800000000E+01 0.  1.
         -5    1    3    3    0  502  0.63966957909E+02 -0.64519276602E+02 -0.18426376414E+03  0.20548750797E+03  0.41800000000E+01 0.  1.
        -11    1    1    2    0    0  0.15939568537E+02  0.38988130424E+01  0.46575339902E+01  0.17057643775E+02  0.00000000000E+00 0.  1.
         11    1    1    2    0    0 -0.32776463717E+02  0.57829827740E+02 -0.14917108290E+03  0.16331135148E+03  0.00000000000E+00 0. -1.
</event>
<event>
 7    1  0.2612321E-009  0.1060345E+03  0.7561462E-02  0.1268095E+00
          3   -1    0    0  501    0  0.00000000000E+00  0.00000000000E+00  0.56766780443E+02  0.56766780443E+02  0.00000000000E+00 0. -1.
         -3   -1    0    0    0  501 -0.00000000000E+00 -0.00000000000E+00 -0.42450042731E+03  0.42450042731E+03  0.00000000000E+00 0.  1.
         25    2    1    2    0    0  0.78964624398E+02 -0.51444062660E+02 -0.10850471441E+03  0.19053261567E+03  0.12508997200E+03 0.  0.
          5    1    3    3  502    0  0.27164802493E+02 -0.56977873052E+02  0.71058137358E+01  0.63658224141E+02  0.41800000000E+01 0. -1.
         -5    1    3    3    0  502  0.51799821905E+02  0.55338103922E+01 -0.11561052814E+03  0.12687439152E+03  0.41800000000E+01 0. -1.
        -11    1    1    2    0    0 -0.34174852121E+02  0.10211876750E+02 -0.20838860252E+03  0.21141904504E+03  0.00000000000E+00 0.  1.
         11    1    1    2    0    0 -0.44789772277E+02  0.41232185910E+02 -0.50840329939E+02  0.79315547050E+02  0.00000000000E+00 0. -1.
</event>
<event>
 7    1  0.2612321E-009  0.8584439E+02  0.7561462E-02  0.1313239E+00
          1   -1    0    0  501    0  0.00000000000E+00  0.00000000000E+00  0.91291293116E+02  0.91291293116E+02  0.00000000000E+00 0. -1.
         -1   -1    0    0    0  501 -0.00000000000E+00 -0.00000000000E+00 -0.17743556940E+03  0.17743556940E+03  0.00000000000E+00 0.  1.
         25    2    1    2    0    0 -0.28456687490E+02 -0.18634596298E+02 -0.10804079332E+03  0.16875471173E+03  0.12509319913E+03 0.  0.
          5    1    3    3  502    0 -0.28522611267E+02 -0.71208702218E+02 -0.66830051654E+02  0.10182311540E+03  0.41800000000E+01 0. -1.
         -5    1    3    3    0  502  0.65923776833E-01  0.52574105920E+02 -0.41210741664E+02  0.66931596333E+02  0.41800000000E+01 0. -1.
        -11    1    1    2    0    0  0.19316228182E+02  0.24550408895E+02 -0.32157556443E+02  0.44832440091E+02  0.00000000000E+00 0.  1.
         11    1    1    2    0    0  0.91404593085E+01 -0.59158125973E+01  0.54054073482E+02  0.55139710691E+02  0.00000000000E+00 0. -1.
</event>
<event>
 6    1  0.2612321E-009  0.3011512E+03  0.7561462E-02  0.1084667E+00
          2   -1    0    0  501    0  0.00000000000E+00  0.00000000000E+00  0.64028777726E+03  0.64028777726E+03  0.00000000000E+00 0.  1.
         -2   -1    0    0    0  501 -0.00000000000E+00 -0.00000000000E+00 -0.18230220257E+03  0.18230220257E+03  0.00000000000E+00 0. -1.
          5    1    1    2  502    0  0.79483190412E+02 -0.31154309881E+02  0.75425700101E+02  0.11399419818E+03  0.41800000000E+01 0.  1.
         -5    1    1    2    0  502  0.15608893888E+03 -0.14424192805E+03 -0.60483440190E+01  0.21265828343E+03  0.41800000000E+01 0.  1.
        -11    1    1    2    0    0 -0.13603430991E+03  0.14799391420E+03  0.21807257727E+03  0.29658587470E+03  0.00000000000E+00 0. -1.
         11    1    1    2    0    0 -0.99537819374E+02  0.27402323729E+02  0.17053564134E+03  0.19935162352E+03  0.00000000000E+00 0.  1.
</event>
<event>
 7    1  0.2612321E-009  0.1187282E+03  0.7561462E-02  0.1245210E+00
          1   -1    0    0  501    0  0.00000000000E+00  0.00000000000E+00  0.31872887494E+03  0.31872887494E+03  0.00000000000E+00 0. -1.
         -1   -1    0    0    0  501 -0.00000000000E+00 -0.00000000000E+00 -0.59226857781E+02  0.59226857781E+02  0.00000000000E+00 0.  1.
         25    2    1    2    0    0 -0.81611931238E+02  0.25288896456E+02  0.11705799826E+03  0.19143415477E+03  0.12507767607E+03 0.  0.
          5    1    3    3  502    0  0.30202105488E+02 -0.42915579571E+01  0.66891783718E+01  0.31508763113E+02  0.41800000000E+01 0. -1.
         -5    1    3    3    0  502 -0.11181403673E+03  0.29580454413E+02  0.11036881989E+03  0.15992539165E+03  0.41800000000E+01 0. -1.
        -11    1    1    2    0    0  0.86178530312E+01 -0.14882460407E+02 -0.80104775007E+01  0.18971630621E+02  0.00000000000E+00 0.  1.
         11    1    1    2    0    0  0.72994078206E+02 -0.10406436048E+02  0.15045449640E+03  0.16754994733E+03  0.00000000000E+00 0. -1.
</event>
<event>
 7    1  0.2612321E-009  0.8619930E+02  0.7561462E-02  0.1312326E+00
          2   -1    0    0  501    0  0.00000000000E+00  0.00000000000E+00  0.82333800863E+02  0.82333800863E+02  0.00000000000E+00 0.  1.
         -2   -1    0    0    0  501 -0.00000000000E+00 -0.00000000000E+00 -0.27566543535E+03  0.27566543535E+03  0.00000000000E+00 0. -1.
         25    2    1    2    0    0  0.82887622623E+00 -0.37570764016E+02  0.10698138867E+02  0.13105409863E+03  0.12509387375E+03 0.  0.
          5    1    3    3  502    0  0.10183356895E+02  0.21376633920E+02  0.52717438084E+02  0.57941883931E+02  0.41800000000E+01 0.  1.
         -5    1    3    3    0  502 -0.93544806687E+01 -0.58947397936E+02 -0.42019299216E+02  0.73112214702E+02  0.41800000000E+01 0.  1.
        -11    1    1    2    0    0 -0.35339509300E+02  0.40663630066E+02 -0.17018795565E+03  0.17851148976E+03  0.00000000000E+00 0.  1.
         11    1    1    2    0    0  0.34510633074E+02 -0.30928660504E+01 -0.33841817702E+02  0.48433647817E+02  0.00000000000E+00 0. -1.
</event>
<event>
 7    1  0.2612321E-009  0.1356848E+03  0.7561462E-02  0.1219256E+00
         -1   -1    0    0    0  501 -0.00000000000E+00  0.00000000000E+00  0.49924268968E+03  0.49924268968E+03  0.00000000000E+00 0.  1.
          1   -1    0    0  501    0  0.00000000000E+00 -0.00000000000E+00 -0.53648682584E+02  0.53648682584E+02  0.00000000000E+00 0. -1.
         25    2    1    2    0    0  0.60074515153E+02 -0.10711430176E+03  0.18586749661E+03  0.25549251266E+03  0.12508907513E+03 0.  0.
          5    1    3    3  502    0 -0.97819570487E+01 -0.23801118096E+02  0.13112700383E+03  0.13369346821E+03  0.41800000000E+01 0. -1.
         -5    1    3    3    0  502  0.69856472202E+02 -0.83313183665E+02  0.54740492778E+02  0.12179904446E+03  0.41800000000E+01 0. -1.
        -11    1    1    2    0    0 -0.18355920982E+02  0.89239997923E+02  0.21576623939E+03  0.23421312330E+03  0.00000000000E+00 0. -1.
         11    1    1    2    0    0 -0.41718594172E+02  0.17874303839E+02  0.43960271089E+02  0.63185736299E+02  0.00000000000E+00 0.  1.
</event>
<event>
 7    1  0.2612321E-009  0.1646622E+03  0.7561462E-02  0.1183532E+00
         -1   -1    0    0    0  501 -0.00000000000E+00  0.00000000000E+00  0.12332332941E+03  0.12332332941E+03  0.00000000000E+00 0.  1.
          1   -1    0    0  501    0  0.00000000000E+00 -0.00000000000E+00 -0.39754127637E+03  0.39754127637E+03  0.00000000000E+00 0. -1.
         25    2    1    2    0    0  0.10432822289E+03  0.11126166256E+03 -0.82200185949E+00  0.19726204414E+03  0.12509237676E+03 0.  0.
          5    1    3    3  502    0  0.57901052551E+02  0.11515675261E+03 -0.41288774675E+02  0.13540991423E+03  0.41800000000E+01 0. -1.
         -5    1    3    3    0  502  0.46427170344E+02 -0.38950900469E+01  0.40466772816E+02  0.61852129913E+02  0.41800000000E+01 0. -1.
        -11    1    1    2    0    0 -0.84523104203E+02 -0.99487412517E+02 -0.15346336757E+03  0.20147681152E+03  0.00000000000E+00 0.  1.
         11    1    1    2    0    0 -0.19805118692E+02 -0.11774250045E+02 -0.11993257753E+03  0.12212575012E+03  0.00000000000E+00 0. -1.
</event>
<event>
 7    1  0.2612321E-009  0.8669829E+02  0.7561462E-02  0.1311050E+00
         -2   -1    0    0    0  501 -0.00000000000E+00  0.00000000000E+00  0.67813152310E+02  0.67813152310E+02  0.00000000000E+00 0.  1.
          2   -1    0    0  501    0  0.00000000000E+00 -0.00000000000E+00 -0.23784322691E+03  0.23784322691E+03  0.00000000000E+00 0. -1.
         25    2    1    2    0    0  0.34257051580E+02  0.64932853903E+01 -0.26956713126E+02  0.13262472114E+03  0.12508774495E+03 0.  0.
          5    1    3    3  502    0  0.43531504078E+02  0.33293095969E+02 -0.64915338116E+02  0.85058189548E+02  0.41800000000E+01 0.  1.
         -5    1    3    3    0  502 -0.92744524984E+01 -0.26799810579E+02  0.37958624989E+02  0.47566531587E+02  0.41800000000E+01 0.  1.
        -11    1    1    2    0    0  0.27621765589E+02 -0.88655851015E+00 -0.79377710971E+02  0.84050989996E+02  0.00000000000E+00 0. -1.
         11    1    1    2    0    0 -0.61878817169E+02 -0.56067268801E+01 -0.63695650500E+02  0.88980668087E+02  0.00000000000E+00 0.  1.
</event>
<event>
 6    1  0.2612321E-009  0.1106093E+03  0.7561462E-02  0.1259446E+00
          1   -1    0    0  501    0  0.00000000000E+00  0.00000000000E+00  0.48841320703E+03  0.48841320703E+03  0.00000000000E+00 0. -1.
         -1   -1    0    0    0  501 -0.00000000000E+00 -0.00000000000E+00 -0.54196168208E+02  0.54196168208E+02  0.00000000000E+00 0.  1.
          5    1    1    2  502    0  0.10605316463E+03  0.17541483035E+02  0.34988051243E+02  0.11312211757E+03  0.41800000000E+01 0.  1.
         -5    1    1    2    0  502 -0.30593801397E+02  0.64920780686E+01  0.44557484678E+02  0.54598256404E+02  0.41800000000E+01 0.  1.
        -11    1    1    2    0    0 -0.15180272787E+02  0.38701723706E+01  0.17412187168E+01  0.15762320853E+02  0.00000000000E+00 0.  1.
         11    1    1    2    0    0 -0.60279090443E+02 -0.27903733474E+02  0.35293028418E+03  0.35912668041E+03  0.00000000000E+00 0. -1.
</event>
<event>
 7    1  0.2612321E-009  0.1326763E+03  0.7561462E-02  0.1223538E+00
         -4   -1    0    0    0  501 -0.00000000000E+00  0.00000000000E+00  0.11965982523E+03  0.11965982523E+03  0.00000000000E+00 0.  1.
          4   -1    0    0  501    0  0.00000000000E+00 -0.00000000000E+00 -0.18830619475E+03  0.18830619475E+03  0.00000000000E+00 0. -1.
         25    2    1    2    0    0  0.10575993180E+03  0.19735231528E+02 -0.15243565093E+02  0.16568971027E+03  0.12508425670E+03 0.  0.
          5    1    3    3  502    0  0.56912384851E+02 -0.39473667134E+02  0.30981442308E+02  0.75990210646E+02  0.41800000000E+01 0. -1.
         -5    1    3    3    0  502  0.48847546953E+02  0.59208898662E+02 -0.46225007402E+02  0.89699499627E+02  0.41800000000E+01 0. -1.
        -11    1    1    2    0    0 -0.84531360545E+02  0.71546700804E+01 -0.64164258642E+02  0.10636631190E+03  0.00000000000E+00 0. -1.
         11    1    1    2    0    0 -0.21228571259E+02 -0.26889901608E+02  0.10761454218E+02  0.35909997815E+02  0.00000000000E+00 0.  1.
</event>
<event>
 7    1  0.2612321E-009  0.1964814E+03  0.7561462E-02  0.1152742E+00
          3   -1    0    0  501    0  0.00000000000E+00  0.00000000000E+00  0.93566148804E+02  0.93566148804E+02  0.00000000000E+00 0. -1.
         -3   -1    0    0    0  501 -0.00000000000E+00 -0.00000000000E+00 -0.60484372178E+03  0.60484372178E+03  0.00000000000E+00 0.  1.
         25    2    1    2    0    0  0.12402992918E+03 -0.10734256245E+03 -0.71313628076E+02  0.21826665891E+03  0.12509537080E+03 0.  0.
          5    1    3    3  502    0  0.14803052569E+03 -0.82067296830E+02 -0.47496475957E+02  0.17584500383E+03  0.41800000000E+01 0.  1.
         -5    1    3    3    0  502 -0.24000596504E+02 -0.25275265620E+02 -0.23817152119E+02  0.42421655080E+02  0.41800000000E+01 0.  1.
        -11    1    1    2    0    0 -0.65808004192E+02 -0.70677396241E+00 -0.11119795173E+03  0.12921368896E+03  0.00000000000E+00 0. -1.
         11    1    1    2    0    0 -0.58221924990E+02  0.10804933641E+03 -0.32876599317E+03  0.35092952272E+03  0.00000000000E+00 0.  1.
</event>
<event>
 7    1  0.2612321E-009  0.1513348E+03  0.7561462E-02  0.1198842E+00
         -1   -1    0    0    0  501 -0.00000000000E+00  0.00000000000E+00  0.32979934727E+02  0.32979934727E+02  0.00000000000E+00 0.  1.
          1   -1    0    0  501    0  0.00000000000E+00 -0.00000000000E+00 -0.88419085149E+03  0.88419085149E+03  0.00000000000E+00 0. -1.
         25    2    1    2    0    0  0.54950021353E+02 -0.11815431603E+03 -0.48781931589E+03  0.52018778317E+03  0.12509075728E+03 0.  0.
          5    1    3    3  502    0  0.48328528871E+02 -0.34721398544E+02 -0.61381840914E+02  0.85594538458E+02  0.41800000000E+01 0. -1.
         -5    1    3    3    0  502  0.66214924813E+01 -0.83432917481E+02 -0.42643747498E+03  0.43459324471E+03  0.41800000000E+01 0. -1.
        -11    1    1    2    0    0  0.23835985911E+02  0.11097864691E+02 -0.73767038383E+02  0.78312788080E+02  0.00000000000E+00 0.  1.
         11    1    1    2    0    0 -0.78786007263E+02  0.10705645133E+03 -0.28962456249E+03  0.31867021497E+03  0.00000000000E+00 0. -1.
</event>
<event>
 7    1  0.2612321E-009  0.1064731E+03  0.7561462E-02  0.1267244E+00
         -2   -1    0    0    0  501 -0.00000000000E+00  0.00000000000E+00  0.75208580865E+02  0.75208580865E+02  0.00000000000E+00 0.  1.
          2   -1    0    0  501    0  0.00000000000E+00 -0.00000000000E+00 -0.18747712201E+03  0.18747712201E+03  0.00000000000E+00 0. -1.
         25    2    1    2    0    0 -0.31539686770E+01 -0.35557720433E+02 -0.24986778868E+02  0.13246086838E+03  0.12508894249E+03 0.  0.
          5    1    3    3  502    0 -0.52762468214E+02  0.68921261019E+01  0.15427817733E+02  0.55559602359E+02  0.41800000000E+01 0.  1.
         -5    1    3    3    0  502  0.49608499537E+02 -0.42449846535E+02 -0.40414596601E+02  0.76901266021E+02  0.41800000000E+01 0.  1.
        -11    1    1    2    0    0  0.44579288162E+02  0.26090193830E+02 -0.62316289986E+02  0.80940293703E+02  0.00000000000E+00 0. -1.
         11    1    1    2    0    0 -0.41425319485E+02  0.94675266028E+01 -0.24965472292E+02  0.49284540793E+02  0.00000000000E+00 0.  1.
</event>
<event>
 6    1  0.2612321E-009  0.1129824E+03  0.7561462E-02  0.1255145E+00
         -1   -1    0    0    0  501 -0.00000000000E+00  0.00000000000E+00  0.17138896660E+02  0.17138896660E+02  0.00000000000E+00 0.  1.
          1   -1    0    0  501    0  0.00000000000E+00 -0.00000000000E+00 -0.89843971088E+03  0.89843971088E+03  0.00000000000E+00 0. -1.
          5    1    1    2  502    0 -0.16479048932E+02 -0.45883445689E+02 -0.29139239725E+03  0.29547225118E+03  0.41800000000E+01 0.  1.
         -5    1    1    2    0  502  0.58724674115E+02  0.57310262943E+02 -0.34975920691E+03  0.35927987532E+03  0.41800000000E+01 0.  1.
        -11    1    1    2    0    0 -0.64214573682E+02  0.90378110014E+01 -0.11399740866E+03  0.13115106817E+03  0.00000000000E+00 0.  1.
         11    1    1    2    0    0  0.21968948500E+02 -0.20464628256E+02 -0.12615180140E+03  0.12967541288E+03  0.00000000000E+00 0. -1.
</event>
<event>
 7    1  0.2612321E-009  0.1019697E+03  0.7561462E-02  0.1276208E+00
         -1   -1    0    0    0  501 -0.00000000000E+00  0.00000000000E+00  0.14148063604E+02  0.14148063604E+02  0.00000000000E+00 0.  1.
          1   -1    0    0  501    0  0.00000000000E+00 -0.00000000000E+00 -0.16570644411E+04  0.16570644411E+04  0.00000000000E+00 0. -1.
         25    2    1    2    0    0  0.72616380298E+02 -0.37868672261E+02 -0.12546512022E+04  0.12635289733E+04  0.12509457292E+03 0.  0.
          5    1    3    3  502    0  0.38277752020E+02 -0.19704283810E+02 -0.11641588240E+04  0.11649620960E+04  0.41800000000E+01 0. -1.
         -5    1    3    3    0  502  0.34338628279E+02 -0.18164388451E+02 -0.90492378222E+02  0.98566877378E+02  0.41800000000E+01 0. -1.
        -11    1    1    2    0    0 -0.57700275873E+02 -0.20604233305E+02 -0.23785594560E+03  0.24562024982E+03  0.00000000000E+00 0.  1.
         11    1    1    2    0    0 -0.14916104425E+02  0.58472905566E+02 -0.15040922967E+03  0.16206328155E+03  0.00000000000E+00 0. -1.
</event>
<event>
 7    1  0.2612321E-009  0.1642138E+03  0.7561462E-02  0.1184020E+00
          2   -1    0    0  501    0  0.00000000000E+00  0.00000000000E+00  0.52389886084E+03  0.52389886084E+03  0.00000000000E+00 0. -1.
         -2   -1    0    0    0  501 -0.00000000000E+00 -0.00000000000E+00 -0.68844918865E+02  0.68844918865E+02  0.00000000000E+00 0.  1.
         25    2    1    2    0    0  0.47281948499E+02  0.14532509461E+03  0.19477560328E+03  0.27737970380E+03  0.12508796373E+03 0.  0.
          5    1    3    3  502    0 -0.14297302225E+01 -0.12682733196E+01  0.91272800514E+02  0.91388452003E+02  0.41800000000E+01 0. -1.
         -5    1    3    3    0  502  0.48711678722E+02  0.14659336793E+03  0.10350280277E+03  0.18599125180E+03  0.41800000000E+01 0. -1.
        -11    1    1    2    0    0  0.19778766355E+02 -0.34285515624E+02  0.25354403238E+02  0.47005765004E+02  0.00000000000E+00 0.  1.
         11    1    1    2    0    0 -0.67060714854E+02 -0.11103957899E+03  0.23492393545E+03  0.26835831089E+03  0.00000000000E+00 0. -1.
</event>
<event>
 7    1  0.2612321E-009  0.9009331E+02  0.7561462E-02  0.1302626E+00
         -1   -1    0    0    0  501 -0.00000000000E+00  0.00000000000E+00  0.27314869960E+02  0.27314869960E+02  0.00000000000E+00 0.  1.
          1   -1    0    0  501    0  0.00000000000E+00 -0.00000000000E+00 -0.48227759954E+03  0.48227759954E+03  0.00000000000E+00 0. -1.
         25    2    1    2    0    0 -0.18456313243E+02  0.64352790278E+01 -0.34737887135E+03  0.36973189735E+03  0.12509015686E+03 0.  0.
          5    1    3    3  502    0 -0.56600567369E+02 -0.37464793680E+02 -0.19956264695E+03  0.21083158551E+03  0.41800000000E+01 0.  1.
         -5    1    3    3    0  502  0.38144254127E+02  0.43900072708E+02 -0.14781622440E+03  0.15890031184E+03  0.41800000000E+01 0.  1.
        -11    1    1    2    0    0  0.14181242452E+02 -0.28268864484E+02 -0.17082086949E+01  0.31672611412E+02  0.00000000000E+00 0.  1.
         11    1    1    2    0    0  0.42750707902E+01  0.21833585456E+02 -0.10587564954E+03  0.10818796074E+03  0.00000000000E+00 0. -1.
</event>
<event>
 7    1  0.2612321E-009  0.1094614E+03  0.7561462E-02  0.1261571E+00
          2   -1    0    0  501    0  0.00000000000E+00  0.00000000000E+00  0.12831774590E+04  0.12831774590E+04  0.00000000000E+00 0. -1.
         -2   -1    0    0    0  501 -0.00000000000E+00 -0.00000000000E+00 -0.11965817545E+02  0.11965817545E+02  0.00000000000E+00 0.  1.
         25    2    1    2    0    0  0.12762135546E+02 -0.59030631494E+01  0.96368132262E+03  0.97186804795E+03  0.12509233705E+03 0.  0.
          5    1    3    3  502    0 -0.55482011615E+02 -0.10741914834E+02  0.38676219320E+03  0.39089142845E+03  0.41800000000E+01 0. -1.
         -5    1    3    3    0  502  0.68244147161E+02  0.48388516846E+01  0.57691912942E+03  0.58097661949E+03  0.41800000000E+01 0. -1.
        -11    1    1    2    0    0  0.36988999498E+02  0.19937644555E+02  0.84993431311E+02  0.94813391039E+02  0.00000000000E+00 0.  1.
         11    1    1    2    0    0 -0.49751135044E+02 -0.14034581406E+02  0.22253688751E+03  0.22846183755E+03  0.00000000000E+00 0. -1.
</event>
<event>
 7    1  0.2612321E-009  0.1375744E+03  0.7561462E-02  0.1216631E+00
         -1   -1    0    0    0  501 -0.00000000000E+00  0.00000000000E+00  0.83128752849E+02  0.83128752849E+02  0.00000000000E+00 0.  1.
          1   -1    0    0  501    0  0.00000000000E+00 -0.00000000000E+00 -0.27886740940E+03  0.27886740940E+03  0.00000000000E+00 0. -1.
         25    2    1    2    0    0  0.70466798121E+02  0.56983057350E+02 -0.36097150081E+02  0.15863385172E+03  0.12509618781E+03 0.  0.
          5    1    3    3  502    0 -0.34193673987E+02  0.31222120454E+02 -0.80734895528E+01  0.47187729125E+02  0.41800000000E+01 0.  1.
         -5    1    3    3    0  502  0.10466047211E+03  0.25760936896E+02 -0.28023660528E+02  0.11144612259E+03  0.41800000000E+01 0.  1.
        -11    1    1    2    0    0 -0.54023246166E+02 -0.77517086903E+02 -0.14552421782E+03  0.17350708303E+03  0.00000000000E+00 0. -1.
         11    1    1    2    0    0 -0.16443551954E+02  0.20534029553E+02 -0.14117288651E+02  0.29855227506E+02  0.00000000000E+00 0.  1.
</event>
<event>
 7    1  0.2612321E-009  0.1049971E+03  0.7561462E-02  0.1270125E+00
         -1   -1    0    0    0  501 -0.00000000000E+00  0.00000000000E+00  0.23384389680E+03  0.23384389680E+03  0.00000000000E+00 0.  1.
          1   -1    0    0  501    0  0.00000000000E+00 -0.00000000000E+00 -0.96844206239E+02  0.96844206239E+02  0.00000000000E+00 0. -1.
         25    2    1    2    0    0  0.62497093934E+02  0.58229854742E+02  0.14338647724E+03  0.20857674327E+03  0.12509185922E+03 0.  0.
          5    1    3    3  502    0  0.30092339432E+02  0.14138105000E+02 -0.18054014793E+02  0.38063824763E+02  0.41800000000E+01 0.  1.
         -5    1    3    3    0  502  0.32404754502E+02  0.44091749742E+02  0.16144049203E+03  0.17051291850E+03  0.41800000000E+01 0.  1.
        -11    1    1    2    0    0  0.20104717346E+02  0.73427547303E+00 -0.44520948018E+01  0.20604853025E+02  0.00000000000E+00 0.  1.
         11    1    1    2    0    0 -0.82601811280E+02 -0.58964130215E+02 -0.19346918782E+01  0.10150650674E+03  0.00000000000E+00 0. -1.
</event>
<event>
 7    1  0.2612321E-009  0.1509561E+03  0.7561462E-02  0.1199303E+00
         -1   -1    0    0    0  501 -0.00000000000E+00  0.00000000000E+00  0.13067715201E+03  0.13067715201E+03  0.00000000000E+00 0.  1.
          1   -1    0    0  501    0  0.00000000000E+00 -0.00000000000E+00 -0.19992315940E+03  0.19992315940E+03  0.00000000000E+00 0. -1.
         25    2    1    2    0    0  0.68138375290E+02 -0.10269161059E+03 -0.49777975844E+02  0.18251838518E+03  0.12508680576E+03 0.  0.
          5    1    3    3  502    0 -0.29341454284E+02 -0.96648462638E+01 -0.35048007636E+02  0.46905921077E+02  0.41800000000E+01 0.  1.
         -5    1    3    3    0  502  0.97479829574E+02 -0.93026764330E+02 -0.14729968208E+02  0.13561246410E+03  0.41800000000E+01 0.  1.
        -11    1    1    2    0    0 -0.43804589618E+02  0.17232386227E+02  0.19633772146E+02  0.51002766742E+02  0.00000000000E+00 0.  1.
         11    1    1    2    0    0 -0.24333785671E+02  0.85459224367E+02 -0.39101803697E+02  0.97079159488E+02  0.00000000000E+00 0. -1.
</event>
<event>
 7    1  0.2612321E-009  0.1393404E+03  0.7561462E-02  0.1214219E+00
          1   -1    0    0  501    0  0.00000000000E+00  0.00000000000E+00  0.15758729757E+03  0.15758729757E+03  0.00000000000E+00 0. -1.
         -1   -1    0    0    0  501 -0.00000000000E+00 -0.00000000000E+00 -0.15937282990E+03  0.15937282990E+03  0.00000000000E+00 0.  1.
         25    2    1    2    0    0  0.17339187607E+02 -0.11289196728E+03 -0.15911606114E+02  0.17013285145E+03  0.12508702663E+03 0.  0.
          5    1    3    3  502    0  0.36432848185E+02  0.45681368124E-01 -0.38653909439E+02  0.53281813300E+02  0.41800000000E+01 0.  1.
         -5    1    3    3    0  502 -0.19093660578E+02 -0.11293764865E+03  0.22742303325E+02  0.11685103815E+03  0.41800000000E+01 0.  1.
        -11    1    1    2    0    0 -0.33625773794E+02  0.10297018050E+03  0.39313105186E+02  0.11523485139E+03  0.00000000000E+00 0. -1.
         11    1    1    2    0    0  0.16286586187E+02  0.99217867748E+01 -0.25187031409E+02  0.31592424624E+02  0.00000000000E+00 0.  1.
</event>
<event>
 7    1  0.2612321E-009  0.1386160E+03  0.7561462E-02  0.1215203E+00
         -2   -1    0    0    0  501 -0.00000000000E+00  0.00000000000E+00  0.35289353845E+02  0.35289353845E+02  0.00000000000E+00 0.  1.
          2   -1    0    0  501    0  0.00000000000E+00 -0.00000000000E+00 -0.57793610232E+03  0.57793610232E+03  0.00000000000E+00 0. -1.
         25    2    1    2    0    0 -0.56506065640E+02  0.69711224047E+02 -0.35252124154E+03  0.38466960797E+03  0.12508753471E+03 0.  0.
          5    1    3    3  502    0  0.31003665728E+02  0.53296459555E+02 -0.18283881033E+03  0.19300062915E+03  0.41800000000E+01 0.  1.
         -5    1    3    3    0  502 -0.87509731367E+02  0.16414764492E+02 -0.16968243122E+03  0.19166897882E+03  0.41800000000E+01 0.  1.
        -11    1    1    2    0    0  0.33579543694E+01 -0.72972916355E+02 -0.99354153883E+02  0.12331897775E+03  0.00000000000E+00 0.  1.
         11    1    1    2    0    0  0.53148111270E+02  0.32616923079E+01 -0.90771353050E+02  0.10523687045E+03  0.00000000000E+00 0. -1.
</event>
<event>
 6    1  0.2612321E-009  0.1896411E+03  0.7561462E-02  0.1158785E+00
          1   -1    0    0  501    0  0.00000000000E+00  0.00000000000E+00  0.29461935729E+03  0.29461935729E+03  0.00000000000E+00 0. -1.
         -1   -1    0    0    0  501 -0.00000000000E+00 -0.00000000000E+00 -0.15210762588E+03  0.15210762588E+03  0.00000000000E+00 0.  1.
          5    1    1    2  502    0  0.10192958927E+03  0.36838421463E+02  0.96627866603E+01  0.10889238867E+03  0.41800000000E+01 0.  1.
         -5    1    1    2    0  502  0.74772613483E+02 -0.28466338985E+02  0.11767007706E+03  0.14235517418E+03  0.41800000000E+01 0.  1.
        -11    1    1    2    0    0 -0.79945246623E+02  0.31666417941E+02 -0.13181888603E+02  0.86992911607E+02  0.00000000000E+00 0. -1.
         11    1    1    2    0    0 -0.96756956129E+02 -0.40038500419E+02  0.28360756291E+02  0.10848650871E+03  0.00000000000E+00 0.  1.
</event>
<event>
 7    1  0.2612321E-009  0.1467195E+03  0.7561462E-02  0.1204563E+00
          4   -1    0    0  501    0  0.00000000000E+00  0.00000000000E+00  0.27369524785E+03  0.27369524785E+03  0.00000000000E+00 0. -1.
         -4   -1    0    0    0  501 -0.00000000000E+00 -0.00000000000E+00 -0.98868926135E+02  0.98868926135E+02  0.00000000000E+00 0.  1.
         25    2    1    2    0    0 -0.37211480719E+02 -0.10911836584E+03  0.14363417470E+03  0.22264288459E+03  0.12509023085E+03 0.  0.
          5    1    3    3  502    0  0.28198494952E+02 -0.55087280162E+02  0.79087324786E+01  0.62528265630E+02  0.41800000000E+01 0.  1.
         -5    1    3    3    0  502 -0.65409975671E+02 -0.54031085680E+02  0.13572544222E+03  0.16011461896E+03  0.41800000000E+01 0.  1.
        -11    1    1    2    0    0 -0.16953306855E+02  0.85868558442E+02  0.15087608407E+02  0.88817002143E+02  0.00000000000E+00 0.  1.
         11    1    1    2    0    0  0.54164787574E+02  0.23249807401E+02  0.16104538603E+02  0.61104287253E+02  0.00000000000E+00 0. -1.
</event>
<event>
 7    1  0.2612321E-009  0.1161280E+03  0.7561462E-02  0.1249625E+00
         -1   -1    0    0    0  501 -0.00000000000E+00  0.00000000000E+00  0.19056040166E+02  0.19056040166E+02  0.00000000000E+00 0.  1.
          1   -1    0    0  501    0  0.00000000000E+00 -0.00000000000E+00 -0.86648540061E+03  0.86648540061E+03  0.00000000000E+00 0. -1.
         25    2    1    2    0    0 -0.54605222849E+02  0.41336060014E+02 -0.48070839420E+03  0.50141659248E+03  0.12509052218E+03 0.  0.
          5    1    3    3  502    0  0.89298412684E+01  0.52398509507E+02 -0.36508505323E+03  0.36895787612E+03  0.41800000000E+01 0. -1.
         -5    1    3    3    0  502 -0.63535064117E+02 -0.11062449492E+02 -0.11562334098E+03  0.13245871636E+03  0.41800000000E+01 0. -1.
        -11    1    1    2    0    0  0.25822753479E+02  0.28690922578E+02 -0.12493234026E+03  0.13075960110E+03  0.00000000000E+00 0.  1.
         11    1    1    2    0    0  0.28782469370E+02 -0.70026982592E+02 -0.24178862598E+03  0.25336524719E+03  0.00000000000E+00 0. -1.
</event>
<event>
 7    1  0.2612321E-009  0.1284453E+03  0.7561462E-02  0.1229781E+00
         -4   -1    0    0    0  501 -0.00000000000E+00  0.00000000000E+00  0.10499300424E+03  0.10499300424E+03  0.00000000000E+00 0. -1.
          4   -1    0    0  501    0  0.00000000000E+00 -0.00000000000E+00 -0.24172573382E+03  0.24172573382E+03  0.00000000000E+00 0.  1.
         25    2    1    2    0    0  0.11115454492E+03  0.12169965136E+02 -0.39780894051E+02  0.17243338834E+03  0.12508922005E+03 0.  0.
          5    1    3    3  502    0  0.30923760208E+02  0.47798452120E+02 -0.59402913036E+02  0.82384157747E+02  0.41800000000E+01 0.  1.
         -5    1    3    3    0  502  0.80230784714E+02 -0.35628486984E+02  0.19622018985E+02  0.90049230589E+02  0.41800000000E+01 0.  1.
        -11    1    1    2    0    0 -0.30093283249E+02 -0.54535536114E+01 -0.87146741204E+02  0.92357465568E+02  0.00000000000E+00 0.  1.
         11    1    1    2    0    0 -0.81061261674E+02 -0.67164115243E+01 -0.98050943288E+01  0.81927884158E+02  0.00000000000E+00 0. -1.
</event>
<event>
 7    1  0.2612321E-009  0.1112433E+03  0.7561462E-02  0.1258285E+00
          1   -1    0    0  501    0  0.00000000000E+00  0.00000000000E+00  0.42369222983E+03  0.42369222983E+03  0.00000000000E+00 0. -1.
         -1   -1    0    0    0  501 -0.00000000000E+00 -0.00000000000E+00 -0.44789850810E+02  0.44789850810E+02  0.00000000000E+00 0.  1.
         25    2    1    2    0    0 -0.81254450210E+02 -0.15434320534E+02  0.24861593849E+03  0.29034142131E+03  0.12509097541E+03 0.  0.
          5    1    3    3  502    0 -0.36551726797E+02 -0.58920734486E+02  0.60510904386E+02  0.92123415231E+02  0.41800000000E+01 0. -1.
         -5    1    3    3    0  502 -0.44702723413E+02  0.43486413953E+02  0.18810503410E+03  0.19821800608E+03  0.41800000000E+01 0. -1.
        -11    1    1    2    0    0  0.54352926835E+02 -0.78782163481E+01  0.13151526065E+03  0.14252217628E+03  0.00000000000E+00 0. -1.
         11    1    1    2    0    0  0.26901523375E+02  0.23312536882E+02 -0.12288201191E+01  0.35618483048E+02  0.00000000000E+00 0.  1.
</event>
<event>
 7    1  0.2612321E-009  0.9922960E+02  0.7561462E-02  0.1281924E+00
         -1   -1    0    0    0  501 -0.00000000000E+00  0.00000000000E+00  0.23569825167E+03  0.23569825167E+03  0.00000000000E+00 0.  1.
          1   -1    0    0  501    0  0.00000000000E+00 -0.00000000000E+00 -0.66232597887E+02  0.66232597887E+02  0.00000000000E+00 0. -1.
         25    2    1    2    0    0  0.40202814904E+02 -0.29080201969E+02  0.56242154104E+02  0.14585131655E+03  0.12508997629E+03 0.  0.
          5    1    3    3  502    0  0.46265587956E+02  0.40463039164E+02  0.41788196467E+02  0.74441170942E+02  0.41800000000E+01 0. -1.
         -5    1    3    3    0  502 -0.60627730520E+01 -0.69543241133E+02  0.14453957637E+02  0.71410145607E+02  0.41800000000E+01 0. -1.
        -11    1    1    2    0    0 -0.50207790239E+02  0.23113246869E+02  0.12672067601E+03  0.13825040365E+03  0.00000000000E+00 0.  1.
         11    1    1    2    0    0  0.10004975335E+02  0.59669550995E+01 -0.13497176332E+02  0.17829129355E+02  0.00000000000E+00 0. -1.
</event>
<event>
 7    1  0.2612321E-009  0.8860709E+02  0.7561462E-02  0.1306260E+00
          1   -1    0    0  501    0  0.00000000000E+00  0.00000000000E+00  0.23803347558E+03  0.23803347558E+03  0.00000000000E+00 0. -1.
         -1   -1    0    0    0  501 -0.00000000000E+00 -0.00000000000E+00 -0.53397847058E+02  0.53397847058E+02  0.00000000000E+00 0.  1.
         25    2    1    2    0    0 -0.16238617856E+02  0.21375006713E+02  0.12915135209E+03  0.18178946313E+03  0.12508698388E+03 0.  0.
          5    1    3    3  502    0 -0.42355047674E+02  0.48067982550E+02  0.21402173864E+02  0.67675744961E+02  0.41800000000E+01 0.  1.
         -5    1    3    3    0  502  0.26116429818E+02 -0.26692975837E+02  0.10774917823E+03  0.11411371817E+03  0.41800000000E+01 0.  1.
        -11    1    1    2    0    0 -0.29632543502E+01 -0.44939505970E+02  0.63830434204E+02  0.78119551995E+02  0.00000000000E+00 0. -1.
         11    1    1    2    0    0  0.19201872206E+02  0.23564499257E+02 -0.83461577728E+01  0.31522307514E+02  0.00000000000E+00 0.  1.
</event>
<event>
 7    1  0.2612321E-009  0.1028217E+03  0.7561462E-02  0.1274472E+00
         -2   -1    0    0    0  501 -0.00000000000E+00  0.00000000000E+00  0.51057673552E+02  0.51057673552E+02  0.00000000000E+00 0.  1.
          2   -1    0    0  501    0  0.00000000000E+00 -0.00000000000E+00 -0.34442590614E+03  0.34442590614E+03  0.00000000000E+00 0. -1.
         25    2    1    2    0    0  0.47297789631E+02 -0.36757437361E+02 -0.23094480858E+03  0.26939051694E+03  0.12509019107E+03 0.  0.
          5    1    3    3  502    0  0.53459097990E+02 -0.56469945528E+02 -0.23531916716E+03  0.24786954782E+03  0.41800000000E+01 0.  1.
         -5    1    3    3    0  502 -0.61613083590E+01  0.19712508167E+02  0.43743585733E+01  0.21520969120E+02  0.41800000000E+01 0.  1.
        -11    1    1    2    0    0  0.21805710050E+02  0.30249005451E+02 -0.35979074135E+02  0.51816841830E+02  0.00000000000E+00 0. -1.
         11    1    1    2    0    0 -0.69103499682E+02  0.65084319097E+01 -0.26444349869E+02  0.74276220920E+02  0.00000000000E+00 0.  1.
</event>
<event>
 7    1  0.2612321E-009  0.1093990E+03  0.7561462E-02  0.1261687E+00
         -3   -1    0    0    0  501 -0.00000000000E+00  0.00000000000E+00  0.70150588999E+02  0.70150588999E+02  0.00000000000E+00 0.  1.
          3   -1    0    0  501    0  0.00000000000E+00 -0.00000000000E+00 -0.20686418132E+03  0.20686418132E+03  0.00000000000E+00 0. -1.
         25    2    1    2    0    0  0.10426023801E+02 -0.15273405974E+02 -0.24688587339E+02  0.12883736824E+03  0.12509021627E+03 0.  0.
          5    1    3    3  502    0  0.22380454066E+01 -0.68764611789E+02  0.66756752204E+00  0.68931115819E+02  0.41800000000E+01 0. -1.
         -5    1    3    3    0  502  0.81879783945E+01  0.53491205814E+02 -0.25356154861E+02  0.59906252420E+02  0.41800000000E+01 0. -1.
        -11    1    1    2    0    0 -0.52372802147E+02  0.69796803023E+01 -0.74199924156E+02  0.91089269877E+02  0.00000000000E+00 0.  1.
         11    1    1    2    0    0  0.41946778346E+02  0.82937256721E+01 -0.37825080828E+02  0.57088132206E+02  0.00000000000E+00 0. -1.
</event>
<event>
 7    1  0.2612321E-009  0.1402819E+03  0.7561462E-02  0.1212950E+00
          2   -1    0    0  501    0  0.00000000000E+00  0.00000000000E+00  0.10707009724E+03  0.10707009724E+03  0.00000000000E+00 0. -1.
         -2   -1    0    0    0  501 -0.00000000000E+00 -0.00000000000E+00 -0.23896134247E+03  0.23896134247E+03  0.00000000000E+00 0.  1.
         25    2    1    2    0    0  0.10475640584E+03 -0.51348417318E+01 -0.12691948718E+03  0.20677616230E+03  0.12509018309E+03 0.  0.
          5    1    3    3  502    0 -0.25112397871E+02 -0.58102448177E+01 -0.14569747568E+01  0.26153138380E+02  0.41800000000E+01 0. -1.
         -5    1    3    3    0  502  0.12986880371E+03  0.67540308585E+00 -0.12546251243E+03  0.18062302392E+03  0.41800000000E+01 0. -1.
        -11    1    1    2    0    0 -0.66732300217E+02  0.35741887990E+02  0.27597628701E+02  0.80574881689E+02  0.00000000000E+00 0. -1.
         11    1    1    2    0    0 -0.38024105618E+02 -0.30607046258E+02 -0.32569386747E+02  0.58680395719E+02  0.00000000000E+00 0.  1.
</event>
<event>
 7    1  0.2612321E-009  0.1530721E+03  0.7561462E-02  0.1196748E+00
         -3   -1    0    0    0  501 -0.00000000000E+00  0.00000000000E+00  0.73704564085E+02  0.73704564085E+02  0.00000000000E+00 0.  1.
          3   -1    0    0  501    0  0.00000000000E+00 -0.00000000000E+00 -0.35913619360E+03  0.35913619360E+03  0.00000000000E+00 0. -1.
         25    2    1    2    0    0 -0.74839571353E+02  0.78443559757E+02 -0.22153941652E+03  0.27655438489E+03  0.12509301028E+03 0.  0.
          5    1    3    3  502    0 -0.91083411792E+02  0.10057217593E+03 -0.19846506897E+03  0.24045125592E+03  0.41800000000E+01 0. -1.
         -5    1    3    3    0  502  0.16243840439E+02 -0.22128616176E+02 -0.23074347555E+02  0.36103128966E+02  0.41800000000E+01 0. -1.
        -11    1    1    2    0    0 -0.13149600164E+01 -0.65338591916E+02 -0.28697104269E+02  0.71374957140E+02  0.00000000000E+00 0. -1.
         11    1    1    2    0    0  0.76154531369E+02 -0.13104967841E+02 -0.35195108723E+02  0.84911415653E+02  0.00000000000E+00 0.  1.
</event>
<event>
 7    1  0.2612321E-009  0.2911747E+03  0.7561462E-02  0.1089737E+00
         -2   -1    0    0    0  501 -0.00000000000E+00  0.00000000000E+00  0.46744446217E+02  0.46744446217E+02  0.00000000000E+00 0. -1.
          2   -1    0    0  501    0  0.00000000000E+00 -0.00000000000E+00 -0.19413791086E+04  0.19413791086E+04  0.00000000000E+00 0.  1.
         25    2    1    2    0    0  0.44075147948E+02 -0.26670710416E+03 -0.12161828585E+04  0.12521276105E+04  0.12509000661E+03 0.  0.
          5    1    3    3  502    0  0.85952974433E+02 -0.14884431157E+03 -0.65856342582E+03  0.68063632076E+03  0.41800000000E+01 0.  1.
         -5    1    3    3    0  502 -0.41877826486E+02 -0.11786279259E+03 -0.55761943265E+03  0.57149128978E+03  0.41800000000E+01 0.  1.
        -11    1    1    2    0    0  0.28561195170E+02  0.77872815447E+02 -0.20189804572E+03  0.21827216525E+03  0.00000000000E+00 0.  1.
         11    1    1    2    0    0 -0.72636343118E+02  0.18883428871E+03 -0.47655375821E+03  0.51772377905E+03  0.00000000000E+00 0. -1.
</event>
<event>
 7    1  0.2612321E-009  0.1401531E+03  0.7561462E-02  0.1213123E+00
          2   -1    0    0  501    0  0.00000000000E+00  0.00000000000E+00  0.12351190642E+03  0.12351190642E+03  0.00000000000E+00 0. -1.
         -2   -1    0    0    0  501 -0.00000000000E+00 -0.00000000000E+00 -0.32355310658E+03  0.32355310658E+03  0.00000000000E+00 0.  1.
         25    2    1    2    0    0  0.36428908544E+02  0.91122247302E+02 -0.25858500244E+03  0.30356058719E+03  0.12510994075E+03 0.  0.
          5    1    3    3  502    0 -0.17810310036E+02 -0.20695576986E+02 -0.89557091055E+02  0.93720109948E+02  0.41800000000E+01 0. -1.
         -5    1    3    3    0  502  0.54239218580E+02  0.11181782429E+03 -0.16902791139E+03  0.20984047724E+03  0.41800000000E+01 0. -1.
        -11    1    1    2    0    0 -0.60332246752E+02 -0.83946769985E+02  0.34857695703E+02  0.10909674211E+03  0.00000000000E+00 0.  1.
         11    1    1    2    0    0  0.23903338209E+02 -0.71754773166E+01  0.23686106582E+02  0.34407683695E+02  0.00000000000E+00 0. -1.
</event>
<event>
 7    1  0.2612321E-009  0.1793191E+03  0.7561462E-02  0.1168464E+00
          1   -1    0    0  501    0  0.00000000000E+00  0.00000000000E+00  0.29089890609E+03  0.29089890609E+03  0.00000000000E+00 0. -1.
         -1   -1    0    0    0  501 -0.00000000000E+00 -0.00000000000E+00 -0.13378157861E+03  0.13378157861E+03  0.00000000000E+00 0.  1.
         25    2    1    2    0    0  0.15635662165E+03 -0.82344763561E+01  0.27493266243E+02  0.20228396923E+03  0.12509086611E+03 0.  0.
          5    1    3    3  502    0 -0.21559945329E+00 -0.40245788515E+02  0.32891053372E+01  0.40596312520E+02  0.41800000000E+01 0. -1.
         -5    1    3    3    0  502  0.15657222110E+03  0.32011312158E+02  0.24204160906E+02  0.16168765671E+03  0.41800000000E+01 0. -1.
        -11    1    1    2    0    0 -0.10109630792E+03 -0.59060445271E+01  0.13070489984E+03  0.16534544348E+03  0.00000000000E+00 0. -1.
         11    1    1    2    0    0 -0.55260313727E+02  0.14140520883E+02 -0.10808386095E+01  0.57051071998E+02  0.00000000000E+00 0.  1.
</event>
<event>
 7    1  0.2612321E-009  0.1140542E+03  0.7561462E-02  0.1253241E+00
         -2   -1    0    0    0  501 -0.00000000000E+00  0.00000000000E+00  0.86871591897E+02  0.86871591897E+02  0.00000000000E+00 0.  1.
          2   -1    0    0  501    0  0.00000000000E+00 -0.00000000000E+00 -0.24115188528E+03  0.24115188528E+03  0.00000000000E+00 0. -1.
         25    2    1    2    0    0 -0.53059020270E+02 -0.15321465924E+02  0.32106673463E+01  0.13677964455E+03  0.12509338843E+03 0.  0.
          5    1    3    3  502    0 -0.74459405843E+02  0.26535446388E+02  0.27375729423E+02  0.83757005646E+02  0.41800000000E+01 0.  1.
         -5    1    3    3    0  502  0.21400385573E+02 -0.41856912312E+02 -0.24165062076E+02  0.53022638902E+02  0.41800000000E+01 0.  1.
        -11    1    1    2    0    0  0.64063635944E+02 -0.18098130913E+02 -0.13186483398E+03  0.14771603242E+03  0.00000000000E+00 0. -1.
         11    1    1    2    0    0 -0.11004615674E+02  0.33419596837E+02 -0.25626126746E+02  0.43527800207E+02  0.00000000000E+00 0.  1.
</event>
<event>
 7    1  0.2612321E-009  0.6583084E+02  0.7561462E-02  0.1374873E+00
          2   -1    0    0  501    0  0.00000000000E+00  0.00000000000E+00  0.75287370396E+03  0.75287370396E+03  0.00000000000E+00 0. -1.
         -2   -1    0    0    0  501 -0.00000000000E+00 -0.00000000000E+00 -0.20790323972E+02  0.20790323972E+02  0.00000000000E+00 0.  1.
         25    2    1    2    0    0 -0.29503148130E+02  0.18326685187E+02  0.24523812761E+03  0.27748068522E+03  0.12508992085E+03 0.  0.
          5    1    3    3  502    0 -0.82300411465E+01  0.89386493576E+01 -0.12932927582E+02  0.18230909068E+02  0.41800000000E+01 0. -1.
         -5    1    3    3    0  502 -0.21273106983E+02  0.93880358293E+01  0.25817105519E+03  0.25924977615E+03  0.41800000000E+01 0. -1.
        -11    1    1    2    0    0  0.22075201577E+02 -0.54215592991E+02  0.27116777572E+03  0.27741414462E+03  0.00000000000E+00 0.  1.
         11    1    1    2    0    0  0.74279465523E+01  0.35888907804E+02  0.21567747666E+03  0.21876919809E+03  0.00000000000E+00 0. -1.
</event>
<event>
 7    1  0.2612321E-009  0.2132998E+03  0.7561462E-02  0.1138979E+00
         -1   -1    0    0    0  501 -0.00000000000E+00  0.00000000000E+00  0.82936782380E+03  0.82936782380E+03  0.00000000000E+00 0.  1.
          1   -1    0    0  501    0  0.00000000000E+00 -0.00000000000E+00 -0.72801188486E+02  0.72801188486E+02  0.00000000000E+00 0. -1.
         25    2    1    2    0    0 -0.23040609813E+02  0.20628071452E+03  0.23759732087E+03  0.33938442480E+03  0.12508676200E+03 0.  0.
          5    1    3    3  502    0  0.19370599585E+02  0.13125703318E+03  0.21065808883E+03  0.24899383863E+03  0.41800000000E+01 0.  1.
         -5    1    3    3    0  502 -0.42411209398E+02  0.75023681341E+02  0.26939232041E+02  0.90390586166E+02  0.41800000000E+01 0.  1.
        -11    1    1    2    0    0  0.10883234554E+02 -0.10598536878E+03  0.35058803859E+03  0.36641959008E+03  0.00000000000E+00 0.  1.
         11    1    1    2    0    0  0.12157375260E+02 -0.10029534574E+03  0.16838127585E+03  0.19636499740E+03  0.00000000000E+00 0. -1.
</event>
<event>
 7    1  0.2612321E-009  0.1099397E+03  0.7561462E-02  0.1260682E+00
         -2   -1    0    0    0  501 -0.00000000000E+00  0.00000000000E+00  0.68802584697E+02  0.68802584697E+02  0.00000000000E+00 0.  1.
          2   -1    0    0  501    0  0.00000000000E+00 -0.00000000000E+00 -0.26454627939E+03  0.26454627939E+03  0.00000000000E+00 0. -1.
         25    2    1    2    0    0 -0.15716565566E+02 -0.68668424630E+02 -0.63282879620E+02  0.15688222327E+03  0.12507975915E+03 0.  0.
          5    1    3    3  502    0 -0.62074593213E+02 -0.35521182177E+02 -0.31572780564E-01  0.71641349113E+02  0.41800000000E+01 0. -1.
         -5    1    3    3    0  502  0.46358027648E+02 -0.33147242453E+02 -0.63251306840E+02  0.85240874154E+02  0.41800000000E+01 0. -1.
        -11    1    1    2    0    0 -0.17546935705E+02  0.34482233034E+01  0.68014013904E+01  0.19132283122E+02  0.00000000000E+00 0.  1.
         11    1    1    2    0    0  0.33263501271E+02  0.65220201326E+02 -0.13926221646E+03  0.15733435769E+03  0.00000000000E+00 0. -1.
</event>
<event>
 7    1  0.2612321E-009  0.9430432E+02  0.7561462E-02  0.1292751E+00
         -1   -1    0    0    0  501 -0.00000000000E+00  0.00000000000E+00  0.15794680852E+03  0.15794680852E+03  0.00000000000E+00 0.  1.
          1   -1    0    0  501    0  0.00000000000E+00 -0.00000000000E+00 -0.79377916519E+02  0.79377916519E+02  0.00000000000E+00 0. -1.
         25    2    1    2    0    0 -0.18811607372E+02  0.18933248313E+02  0.60447643036E+02  0.14147266040E+03  0.12509297194E+03 0.  0.
          5    1    3    3  502    0 -0.58121354495E+02  0.11317369959E+01 -0.96255551194E+01  0.59071959409E+02  0.41800000000E+01 0. -1.
         -5    1    3    3    0  502  0.39309747124E+02  0.17801511317E+02  0.70073198156E+02  0.82400700991E+02  0.41800000000E+01 0. -1.
        -11    1    1    2    0    0  0.15244222895E+01 -0.50744061962E+02 -0.77482169483E+01  0.51354829895E+02  0.00000000000E+00 0. -1.
         11    1    1    2    0    0  0.17287185082E+02  0.31810813649E+02  0.25869465911E+02  0.44497234741E+02  0.00000000000E+00 0.  1.
</event>
<event>
 7    1  0.2612321E-009  0.1248329E+03  0.7561462E-02  0.1235331E+00
          2   -1    0    0  501    0  0.00000000000E+00  0.00000000000E+00  0.42367248505E+03  0.42367248505E+03  0.00000000000E+00 0. -1.
         -2   -1    0    0    0  501 -0.00000000000E+00 -0.00000000000E+00 -0.45644838235E+02  0.45644838235E+02  0.00000000000E+00 0.  1.
         25    2    1    2    0    0  0.10569935893E+02  0.82418674864E+02  0.24243755272E+03  0.28518412306E+03  0.12509778400E+03 0.  0.
          5    1    3    3  502    0  0.50682221214E+02  0.90976852612E+02  0.13824771911E+03  0.17313399290E+03  0.41800000000E+01 0.  1.
         -5    1    3    3    0  502 -0.40112285321E+02 -0.85581777488E+01  0.10418983361E+03  0.11205013015E+03  0.41800000000E+01 0.  1.
        -11    1    1    2    0    0  0.21350281932E+02 -0.63758776064E+02  0.32634629529E+02  0.74739782635E+02  0.00000000000E+00 0.  1.
         11    1    1    2    0    0 -0.31920217825E+02 -0.18659898799E+02  0.10295546457E+03  0.10939341760E+03  0.00000000000E+00 0. -1.
</event>
<event>
 7    1  0.2612321E-009  0.1210952E+03  0.7561462E-02  0.1241301E+00
         -2   -1    0    0    0  501 -0.00000000000E+00  0.00000000000E+00  0.27323179953E+03  0.27323179953E+03  0.00000000000E+00 0. -1.
          2   -1    0    0  501    0  0.00000000000E+00 -0.00000000000E+00 -0.54792468516E+02  0.54792468516E+02  0.00000000000E+00 0.  1.
         25    2    1    2    0    0 -0.50580086826E+02  0.14355063983E+02  0.98970740894E+02  0.16794771227E+03  0.12508722340E+03 0.  0.
          5    1    3    3  502    0  0.41972416558E+02  0.21318251991E+01  0.31433486895E+02  0.52647553873E+02  0.41800000000E+01 0.  1.
         -5    1    3    3    0  502 -0.92552503384E+02  0.12223238784E+02  0.67537253999E+02  0.11530015840E+03  0.41800000000E+01 0.  1.
        -11    1    1    2    0    0  0.31783297350E+02  0.38782601902E+02  0.54116583707E+02  0.73775828242E+02  0.00000000000E+00 0.  1.
         11    1    1    2    0    0  0.18796789477E+02 -0.53137665886E+02  0.65352006417E+02  0.86300727536E+02  0.00000000000E+00 0. -1.
</event>
<event>
 7    1  0.2612321E-009  0.1371916E+03  0.7561462E-02  0.1217159E+00
         -2   -1    0    0    0  501 -0.00000000000E+00  0.00000000000E+00  0.71129513831E+02  0.71129513831E+02  0.00000000000E+00 0.  1.
          2   -1    0    0  501    0  0.00000000000E+00 -0.00000000000E+00 -0.40355085273E+03  0.40355085273E+03  0.00000000000E+00 0. -1.
         25    2    1    2    0    0 -0.10024826218E+03 -0.72900065675E+00 -0.29471898011E+03  0.33549704003E+03  0.12509492844E+03 0.  0.
          5    1    3    3  502    0 -0.44080803221E+02 -0.55767803811E+02 -0.20010955186E+03  0.21240167208E+03  0.41800000000E+01 0.  1.
         -5    1    3    3    0  502 -0.56167458954E+02  0.55038803155E+02 -0.94609428246E+02  0.12309536795E+03  0.41800000000E+01 0.  1.
        -11    1    1    2    0    0  0.64656969783E+02 -0.35396762061E+02  0.35697088096E+01  0.73798355855E+02  0.00000000000E+00 0.  1.
         11    1    1    2    0    0  0.35591292393E+02  0.36125762718E+02 -0.41272067595E+02  0.65384970671E+02  0.00000000000E+00 0. -1.
</event>
<event>
 7    1  0.2612321E-009  0.1875676E+03  0.7561462E-02  0.1160674E+00
         -1   -1    0    0    0  501 -0.00000000000E+00  0.00000000000E+00  0.66794129389E+02  0.66794129389E+02  0.00000000000E+00 0.  1.
          1   -1    0    0  501    0  0.00000000000E+00 -0.00000000000E+00 -0.57928217782E+03  0.57928217782E+03  0.00000000000E+00 0. -1.
         25    2    1    2    0    0 -0.14704310484E+03 -0.73283925045E+02 -0.28233512957E+03  0.34979123945E+03  0.12509427428E+03 0.  0.
          5    1    3    3  502    0 -0.14186037626E+03 -0.97704820792E+02 -0.27297137163E+03  0.32280247907E+03  0.41800000000E+01 0.  1.
         -5    1    3    3    0  502 -0.51827285762E+01  0.24420895747E+02 -0.93637579401E+01  0.26988760389E+02  0.41800000000E+01 0.  1.
        -11    1    1    2    0    0  0.10272508030E+03  0.14259060129E+02 -0.87594555694E+02  0.13575186594E+03  0.00000000000E+00 0.  1.
         11    1    1    2    0    0  0.44318024534E+02  0.59024864916E+02 -0.14255836316E+03  0.16053320181E+03  0.00000000000E+00 0. -1.
</event>
<event>
 7    1  0.2612321E-009  0.9961091E+02  0.7561462E-02  0.1281116E+00
          1   -1    0    0  501    0  0.00000000000E+00  0.00000000000E+00  0.10721834054E+03  0.10721834054E+03  0.00000000000E+00 0. -1.
         -1   -1    0    0    0  501 -0.00000000000E+00 -0.00000000000E+00 -0.20644975123E+03  0.20644975123E+03  0.00000000000E+00 0.  1.
         25    2    1    2    0    0  0.37547403095E+02 -0.20666451892E+02  0.42942675598E+02  0.13902799315E+03  0.12509116587E+03 0.  0.
          5    1    3    3  502    0 -0.27446267229E+02 -0.32989608134E+02 -0.20081860641E+02  0.47564328614E+02  0.41800000000E+01 0. -1.
         -5    1    3    3    0  502  0.64993670324E+02  0.12323156242E+02  0.63024536239E+02  0.91463664535E+02  0.41800000000E+01 0. -1.
        -11    1    1    2    0    0 -0.17559778758E+02 -0.30330637710E+02 -0.98613858735E+02  0.10465651699E+03  0.00000000000E+00 0.  1.
         11    1    1    2    0    0 -0.19987624337E+02  0.50997089602E+02 -0.43560227550E+02  0.69983581637E+02  0.00000000000E+00 0. -1.
</event>
<event>
 7    1  0.2612321E-009  0.1018321E+03  0.7561462E-02  0.1276490E+00
         -2   -1    0    0    0  501 -0.00000000000E+00  0.00000000000E+00  0.15715162029E+02  0.15715162029E+02  0.00000000000E+00 0.  1.
          2   -1    0    0  501    0  0.00000000000E+00 -0.00000000000E+00 -0.86926092303E+03  0.86926092303E+03  0.00000000000E+00 0. -1.
         25    2    1    2    0    0  0.16591271110E+02  0.36864766620E+02 -0.55663304820E+03  0.57194683650E+03  0.12509417307E+03 0.  0.
          5    1    3    3  502    0 -0.33445625986E+02  0.43564480350E+02 -0.11601793189E+03  0.12842938436E+03  0.41800000000E+01 0.  1.
         -5    1    3    3    0  502  0.50036897096E+02 -0.66997137302E+01 -0.44061511631E+03  0.44351745214E+03  0.41800000000E+01 0.  1.
        -11    1    1    2    0    0 -0.39979827122E+02  0.13661603468E+02 -0.15285502963E+03  0.15858652550E+03  0.00000000000E+00 0. -1.
         11    1    1    2    0    0  0.23388556012E+02 -0.50526370088E+02 -0.14405768317E+03  0.15444272306E+03  0.00000000000E+00 0.  1.
</event>
<event>
 7    1  0.2612321E-009  0.2927347E+03  0.7561462E-02  0.1088930E+00
          2   -1    0    0  501    0  0.00000000000E+00  0.00000000000E+00  0.44987656485E+03  0.44987656485E+03  0.00000000000E+00 0. -1.
         -2   -1    0    0    0  501 -0.00000000000E+00 -0.00000000000E+00 -0.22216764979E+03  0.22216764979E+03  0.00000000000E+00 0.  1.
         25    2    1    2    0    0  0.91713020493E+01 -0.29126003337E+03  0.57290154818E+02  0.32225354532E+03  0.12509462744E+03 0.  0.
          5    1    3    3  502    0 -0.33524285477E+01 -0.25837172189E+03  0.42488689442E+01  0.25846220369E+03  0.41800000000E+01 0.  1.
         -5    1    3    3    0  502  0.12523730597E+02 -0.32888311481E+02  0.53041285874E+02  0.63791341633E+02  0.41800000000E+01 0.  1.
        -11    1    1    2    0    0 -0.10822688121E+02  0.17691938138E+03  0.50979262088E+02  0.18443558022E+03  0.00000000000E+00 0.  1.
         11    1    1    2    0    0  0.16513860715E+01  0.11434065199E+03  0.11943949815E+03  0.16535508910E+03  0.00000000000E+00 0. -1.
</event>
<event>
 7    1  0.2612321E-009  0.1000989E+03  0.7561462E-02  0.1280088E+00
          1   -1    0    0  501    0  0.00000000000E+00  0.00000000000E+00  0.17812990467E+03  0.17812990467E+03  0.00000000000E+00 0. -1.
         -1   -1    0    0    0  501 -0.00000000000E+00 -0.00000000000E+00 -0.79003933092E+02  0.79003933092E+02  0.00000000000E+00 0.  1.
         25    2    1    2    0    0 -0.30963222556E+02  0.39259714770E+02  0.62418927939E+02  0.14846006091E+03  0.12507685943E+03 0.  0.
          5    1    3    3  502    0  0.29059498707E+02  0.42100461724E+02 -0.12008160488E+02  0.52712158567E+02  0.41800000000E+01 0.  1.
         -5    1    3    3    0  502 -0.60022721262E+02 -0.28407469537E+01  0.74427088427E+02  0.95747902341E+02  0.41800000000E+01 0.  1.
        -11    1    1    2    0    0  0.10716409538E+02 -0.59233830506E+02  0.49070033610E+02  0.77661807269E+02  0.00000000000E+00 0. -1.
         11    1    1    2    0    0  0.20246813018E+02  0.19974115736E+02 -0.12362989968E+02  0.31011969589E+02  0.00000000000E+00 0.  1.
</event>
<event>
 7    1  0.2612321E-009  0.9479063E+02  0.7561462E-02  0.1291648E+00
          4   -1    0    0  501    0  0.00000000000E+00  0.00000000000E+00  0.66291892799E+03  0.66291892799E+03  0.00000000000E+00 0. -1.
         -4   -1    0    0    0  501 -0.00000000000E+00 -0.00000000000E+00 -0.20579921511E+02  0.20579921511E+02  0.00000000000E+00 0.  1.
         25    2    1    2    0    0  0.36754093532E+02 -0.24333312383E+02  0.38841286884E+03  0.41043175116E+03  0.12508673871E+03 0.  0.
          5    1    3    3  502    0 -0.21509079390E+02  0.82792909054E+01  0.29281352792E+03  0.29374890925E+03  0.41800000000E+01 0.  1.
         -5    1    3    3    0  502  0.58263172922E+02 -0.32612603289E+02  0.95599340915E+02  0.11668284191E+03  0.41800000000E+01 0.  1.
        -11    1    1    2    0    0  0.16166122305E+02  0.40758013405E+02  0.13322259291E+03  0.14025269491E+03  0.00000000000E+00 0.  1.
         11    1    1    2    0    0 -0.52920215837E+02 -0.16424701022E+02  0.12070354473E+03  0.13281440343E+03  0.00000000000E+00 0. -1.
</event>
<event>
 7    1  0.2612321E-009  0.1571060E+03  0.7561462E-02  0.1192003E+00
          1   -1    0    0  501    0  0.00000000000E+00  0.00000000000E+00  0.17223629858E+03  0.17223629858E+03  0.00000000000E+00 0. -1.
         -1   -1    0    0    0  501 -0.00000000000E+00 -0.00000000000E+00 -0.19524888380E+03  0.19524888380E+03  0.00000000000E+00 0.  1.
         25    2    1    2    0    0  0.97050148865E+01 -0.14034186271E+03 -0.55349844679E+02  0.19623751345E+03  0.12512206295E+03 0.  0.
          5    1    3    3  502    0  0.52100935499E+02 -0.65976847259E+02  0.14827407231E+02  0.85467983826E+02  0.41800000000E+01 0.  1.
         -5    1    3    3    0  502 -0.42395920612E+02 -0.74365015455E+02 -0.70177251910E+02  0.11076952963E+03  0.41800000000E+01 0.  1.
        -11    1    1    2    0    0  0.10300224933E+02  0.82342545640E+02 -0.25619617653E+02  0.86849031456E+02  0.00000000000E+00 0.  1.
         11    1    1    2    0    0 -0.20005239820E+02  0.57999317075E+02  0.57956877117E+02  0.84398637469E+02  0.00000000000E+00 0. -1.
</event>
<event>
 7    1  0.2612321E-009  0.1059454E+03  0.7561462E-02  0.1268268E+00
         -2   -1    0    0    0  501 -0.00000000000E+00  0.00000000000E+00  0.10279416229E+03  0.10279416229E+03  0.00000000000E+00 0. -1.
          2   -1    0    0  501    0  0.00000000000E+00 -0.00000000000E+00 -0.17229947936E+03  0.17229947936E+03  0.00000000000E+00 0.  1.
         25    2    1    2    0    0 -0.61712508017E+02  0.48530775581E+02 -0.13632149733E+02  0.14831457724E+03  0.12509080098E+03 0.  0.
          5    1    3    3  502    0  0.26173717342E+01  0.36372461652E+02  0.46555917026E+02  0.59285178683E+02  0.41800000000E+01 0. -1.
         -5    1    3    3    0  502 -0.64329879752E+02  0.12158313929E+02 -0.60188066758E+02  0.89029398552E+02  0.41800000000E+01 0. -1.
        -11    1    1    2    0    0  0.43867362239E+02  0.12810151327E+02 -0.40519529484E+02  0.61075999513E+02  0.00000000000E+00 0.  1.
         11    1    1    2    0    0  0.17845145778E+02 -0.61340926907E+02 -0.15353637852E+02  0.65703064898E+02  0.00000000000E+00 0. -1.
</event>
<event>
 7    1  0.2612321E-009  0.6070376E+03  0.7561462E-02  0.9890912E-01
          1   -1    0    0  501    0  0.00000000000E+00  0.00000000000E+00  0.15688648579E+04  0.15688648579E+04  0.00000000000E+00 0. -1.
         -1   -1    0    0    0  501 -0.00000000000E+00 -0.00000000000E+00 -0.24441908924E+03  0.24441908924E+03  0.00000000000E+00 0.  1.
         25    2    1    2    0    0  0.59180443076E+03 -0.80189489371E+02  0.84271771415E+03  0.10404248249E+04  0.12509129459E+03 0.  0.
          5    1    3    3  502    0  0.56102938456E+03 -0.44480260262E+02  0.77405596229E+03  0.95703321209E+03  0.41800000000E+01 0.  1.
         -5    1    3    3    0  502  0.30775046196E+02 -0.35709229109E+02  0.68661751861E+02  0.83391612771E+02  0.41800000000E+01 0.  1.
        -11    1    1    2    0    0 -0.10706036535E+03 -0.20108463936E+02  0.98109631274E+02  0.14660072271E+03  0.00000000000E+00 0.  1.
         11    1    1    2    0    0 -0.48474406541E+03  0.10029795331E+03  0.38361842325E+03  0.62625839958E+03  0.00000000000E+00 0. -1.
</event>
<event>
 7    1  0.2612321E-009  0.1688488E+03  0.7561462E-02  0.1179054E+00
          2   -1    0    0  501    0  0.00000000000E+00  0.00000000000E+00  0.27368381020E+03  0.27368381020E+03  0.00000000000E+00 0. -1.
         -2   -1    0    0    0  501 -0.00000000000E+00 -0.00000000000E+00 -0.13837888666E+03  0.13837888666E+03  0.00000000000E+00 0.  1.
         25    2    1    2    0    0 -0.14216444023E+03  0.54755387526E+02  0.12677933761E+02  0.19752690981E+03  0.12508904654E+03 0.  0.
          5    1    3    3  502    0 -0.55359066299E+01  0.47470002359E+02 -0.26942368883E+02  0.55021914064E+02  0.41800000000E+01 0.  1.
         -5    1    3    3    0  502 -0.13662853360E+03  0.72853851676E+01  0.39620302645E+02  0.14250499574E+03  0.41800000000E+01 0.  1.
        -11    1    1    2    0    0  0.87131439037E+02 -0.27117604338E+02  0.17823385587E+02  0.92978089932E+02  0.00000000000E+00 0.  1.
         11    1    1    2    0    0  0.55033001192E+02 -0.27637783188E+02  0.10480360419E+03  0.12155769713E+03  0.00000000000E+00 0. -1.
</event>
<event>
 7    1  0.2612321E-009  0.1011859E+03  0.7561462E-02  0.1277822E+00
         -3   -1    0    0    0  501 -0.00000000000E+00  0.00000000000E+00  0.80948859571E+02  0.80948859571E+02  0.00000000000E+00 0.  1.
          3   -1    0    0  501    0  0.00000000000E+00 -0.00000000000E+00 -0.27060789949E+03  0.27060789949E+03  0.00000000000E+00 0. -1.
         25    2    1    2    0    0 -0.10047941342E+02  0.26339705081E+02  0.11835783588E+02  0.12877090508E+03  0.12508844485E+03 0.  0.
          5    1    3    3  502    0  0.35018214804E+01  0.65565336042E+02 -0.27621684608E+02  0.71354788939E+02  0.41800000000E+01 0.  1.
         -5    1    3    3    0  502 -0.13549762823E+02 -0.39225630961E+02  0.39457468196E+02  0.57416116146E+02  0.41800000000E+01 0.  1.
        -11    1    1    2    0    0  0.43507807522E+02 -0.39645655127E+02 -0.11839171326E+03  0.13221688642E+03  0.00000000000E+00 0.  1.
         11    1    1    2    0    0 -0.33459866180E+02  0.13305950046E+02 -0.83103110244E+02  0.90568967553E+02  0.00000000000E+00 0. -1.
</event>
<event>
 7    1  0.2612321E-009  0.3457383E+03  0.7561462E-02  0.1064378E+00
         -1   -1    0    0    0  501 -0.00000000000E+00  0.00000000000E+00  0.38617941455E+03  0.38617941455E+03  0.00000000000E+00 0.  1.
          1   -1    0    0  501    0  0.00000000000E+00 -0.00000000000E+00 -0.35353694824E+03  0.35353694824E+03  0.00000000000E+00 0. -1.
         25    2    1    2    0    0 -0.22897166970E+03  0.25225443458E+03 -0.75930302030E+02  0.37077405530E+03  0.12509062325E+03 0.  0.
          5    1    3    3  502    0 -0.25266729722E+02  0.61331598589E+02  0.28962767210E+02  0.72500254488E+02  0.41800000000E+01 0.  1.
         -5    1    3    3    0  502 -0.20370493998E+03  0.19092283599E+03 -0.10489306924E+03  0.29827380081E+03  0.41800000000E+01 0.  1.
        -11    1    1    2    0    0  0.10391025073E+03 -0.15835009813E+03  0.23337820615E+02  0.19083172602E+03  0.00000000000E+00 0.  1.
         11    1    1    2    0    0  0.12506141897E+03 -0.93904336452E+02  0.85234947729E+02  0.17811058147E+03  0.00000000000E+00 0. -1.
</event>
<event>
 7    1  0.2612321E-009  0.9419631E+02  0.7561462E-02  0.1292997E+00
          2   -1    0    0  501    0  0.00000000000E+00  0.00000000000E+00  0.47222385781E+02  0.47222385781E+02  0.00000000000E+00 0. -1.
         -2   -1    0    0    0  501 -0.00000000000E+00 -0.00000000000E+00 -0.25292373694E+03  0.25292373694E+03  0.00000000000E+00 0.  1.
         25    2    1    2    0    0 -0.35065553775E+01 -0.11982218330E+02 -0.14232563352E+03  0.18989246920E+03  0.12508674756E+03 0.  0.
          5    1    3    3  502    0  0.59737599147E+02 -0.16212360536E+02 -0.65754942590E+02  0.90402468224E+02  0.41800000000E+01 0.  1.
         -5    1    3    3    0  502 -0.63244154524E+02  0.42301422053E+01 -0.76570690932E+02  0.99490000977E+02  0.41800000000E+01 0.  1.
        -11    1    1    2    0    0 -0.68289110317E+01 -0.24228857801E+02  0.10546193359E+02  0.27292742086E+02  0.00000000000E+00 0. -1.
         11    1    1    2    0    0  0.10335466409E+02  0.36211076132E+02 -0.73921910992E+02  0.82960911430E+02  0.00000000000E+00 0.  1.
</event>
<event>
 7    1  0.2612321E-009  0.1596270E+03  0.7561462E-02  0.1189119E+00
          1   -1    0    0  501    0  0.00000000000E+00  0.00000000000E+00  0.44724811134E+02  0.44724811134E+02  0.00000000000E+00 0. -1.
         -1   -1    0    0    0  501 -0.00000000000E+00 -0.00000000000E+00 -0.79008415703E+03  0.79008415703E+03  0.00000000000E+00 0.  1.
         25    2    1    2    0    0 -0.46853806649E+02 -0.11723086366E+03 -0.58044119341E+03  0.60703824870E+03  0.12508038132E+03 0.  0.
          5    1    3    3  502    0 -0.76557732419E+02 -0.27221406381E+02 -0.22935106589E+03  0.24335462844E+03  0.41800000000E+01 0.  1.
         -5    1    3    3    0  502  0.29703925770E+02 -0.90009457278E+02 -0.35109012751E+03  0.36368362026E+03  0.41800000000E+01 0.  1.
        -11    1    1    2    0    0  0.60796844598E+02  0.65188441624E+02 -0.53376144677E+02  0.10389803682E+03  0.00000000000E+00 0. -1.
         11    1    1    2    0    0 -0.13943037949E+02  0.52042422034E+02 -0.11154200782E+03  0.12387268265E+03  0.00000000000E+00 0.  1.
</event>
<event>
 7    1  0.2612321E-009  0.1011985E+03  0.7561462E-02  0.1277796E+00
         -1   -1    0    0    0  501 -0.00000000000E+00  0.00000000000E+00  0.21282827095E+02  0.21282827095E+02  0.00000000000E+00 0.  1.
          1   -1    0    0  501    0  0.00000000000E+00 -0.00000000000E+00 -0.90497158379E+03  0.90497158379E+03  0.00000000000E+00 0. -1.
         25    2    1    2    0    0  0.14748270297E+02 -0.79285373831E+02 -0.58534609093E+03  0.60397177981E+03  0.12509269626E+03 0.  0.
          5    1    3    3  502    0 -0.47601408299E+01 -0.63390385741E+01 -0.44032758978E+03  0.44041877920E+03  0.41800000000E+01 0.  1.
         -5    1    3    3    0  502  0.19508411127E+02 -0.72946335257E+02 -0.14501850115E+03  0.16355300061E+03  0.41800000000E+01 0.  1.
        -11    1    1    2    0    0 -0.21847990290E+02  0.96629475497E+02 -0.27528909864E+03  0.29257251759E+03  0.00000000000E+00 0.  1.
         11    1    1    2    0    0  0.70997199932E+01 -0.17344101666E+02 -0.23053567119E+02  0.29710113488E+02  0.00000000000E+00 0. -1.
</event>
<event>
 7    1  0.2612321E-009  0.9461496E+02  0.7561462E-02  0.1292046E+00
          2   -1    0    0  501    0  0.00000000000E+00  0.00000000000E+00  0.67262948629E+02  0.67262948629E+02  0.00000000000E+00 0.  1.
         -2   -1    0    0    0  501 -0.00000000000E+00 -0.00000000000E+00 -0.18714113184E+03  0.18714113184E+03  0.00000000000E+00 0. -1.
         25    2    1    2    0    0  0.10204948822E+01  0.34516805944E+02 -0.78436717017E+02  0.15162849953E+03  0.12508569859E+03 0.  0.
          5    1    3    3  502    0 -0.10745180196E+02  0.69925483386E+02 -0.87897551140E+02  0.11290918484E+03  0.41800000000E+01 0. -1.
         -5    1    3    3    0  502  0.11765675079E+02 -0.35408677442E+02  0.94608341227E+01  0.38719314696E+02  0.41800000000E+01 0. -1.
        -11    1    1    2    0    0 -0.36377760951E+02 -0.25189927745E+02  0.40231784314E+01  0.44430394059E+02  0.00000000000E+00 0.  1.
         11    1    1    2    0    0  0.35357266069E+02 -0.93268781995E+01 -0.45464644629E+02  0.58345186880E+02  0.00000000000E+00 0. -1.
</event>
<event>
 7    1  0.2612321E-009  0.1012909E+03  0.7561462E-02  0.1277605E+00
          2   -1    0    0  501    0  0.00000000000E+00  0.00000000000E+00  0.10707523105E+03  0.10707523105E+03  0.00000000000E+00 0. -1.
         -2   -1    0    0    0  501 -0.00000000000E+00 -0.00000000000E+00 -0.14787712555E+03  0.14787712555E+03  0.00000000000E+00 0.  1.
         25    2    1    2    0    0  0.11263758535E+02 -0.12677924959E+02 -0.86842179786E+02  0.15322196717E+03  0.12509118672E+03 0.  0.
          5    1    3    3  502    0  0.20196046214E+02  0.54378236933E+02 -0.34855963440E+02  0.67803270732E+02  0.41800000000E+01 0.  1.
         -5    1    3    3    0  502 -0.89322876799E+01 -0.67056161893E+02 -0.51986216345E+02  0.85418696436E+02  0.41800000000E+01 0.  1.
        -11    1    1    2    0    0 -0.77622741606E+01  0.44227295409E+02 -0.10789443003E+01  0.44916262981E+02  0.00000000000E+00 0.  1.
         11    1    1    2    0    0 -0.35014843740E+01 -0.31549370450E+02  0.47119229584E+02  0.56814126458E+02  0.00000000000E+00 0. -1.
</event>
<event>
 7    1  0.2612321E-009  0.1297877E+03  0.7561462E-02  0.1227771E+00
         -1   -1    0    0    0  501 -0.00000000000E+00  0.00000000000E+00  0.37837885313E+03  0.37837885313E+03  0.00000000000E+00 0. -1.
          1   -1    0    0  501    0  0.00000000000E+00 -0.00000000000E+00 -0.86049418396E+02  0.86049418396E+02  0.00000000000E+00 0.  1.
         25    2    1    2    0    0 -0.25418892554E+02 -0.10512842285E+03  0.27594060050E+03  0.32169755874E+03  0.12509196181E+03 0.  0.
          5    1    3    3  502    0 -0.38185856591E+02 -0.93230630538E+02  0.28448175366E+03  0.30182354229E+03  0.41800000000E+01 0. -1.
         -5    1    3    3    0  502  0.12766964037E+02 -0.11897792308E+02 -0.85411531667E+01  0.19874016452E+02  0.41800000000E+01 0. -1.
        -11    1    1    2    0    0  0.56223272218E+02  0.40783564666E+02 -0.33430656701E+00  0.69458384999E+02  0.00000000000E+00 0.  1.
         11    1    1    2    0    0 -0.30804379663E+02  0.64344858179E+02  0.16723140805E+02  0.73272327785E+02  0.00000000000E+00 0. -1.
</event>
<event>
 7    1  0.2612321E-009  0.1694116E+03  0.7561462E-02  0.1178463E+00
         -2   -1    0    0    0  501 -0.00000000000E+00  0.00000000000E+00  0.34089278165E+03  0.34089278165E+03  0.00000000000E+00 0.  1.
          2   -1    0    0  501    0  0.00000000000E+00 -0.00000000000E+00 -0.96466994140E+02  0.96466994140E+02  0.00000000000E+00 0. -1.
         25    2    1    2    0    0  0.14170093156E+03 -0.27507655875E+02  0.13295334937E+03  0.23272366353E+03  0.12509150778E+03 0.  0.
          5    1    3    3  502    0 -0.20325250840E+02  0.83250374366E+01  0.29926070776E+02  0.37355912278E+02  0.41800000000E+01 0. -1.
         -5    1    3    3    0  502  0.16202618240E+03 -0.35832693312E+02  0.10302727860E+03  0.19536775125E+03  0.41800000000E+01 0. -1.
        -11    1    1    2    0    0 -0.15924842626E+02 -0.10503512043E+02  0.60945946418E+02  0.63861825551E+02  0.00000000000E+00 0.  1.
         11    1    1    2    0    0 -0.12577608893E+03  0.38011167918E+02  0.50526491722E+02  0.14077428671E+03  0.00000000000E+00 0. -1.
</event>
<event>
 7    1  0.2612321E-009  0.1600425E+03  0.7561462E-02  0.1188649E+00
         -4   -1    0    0    0  501 -0.00000000000E+00  0.00000000000E+00  0.51523832030E+03  0.51523832030E+03  0.00000000000E+00 0.  1.
          4   -1    0    0  501    0  0.00000000000E+00 -0.00000000000E+00 -0.60516723577E+02  0.60516723577E+02  0.00000000000E+00 0. -1.
         25    2    1    2    0    0  0.13315703008E+03 -0.37300786781E+02  0.22277277451E+03  0.29051057617E+03  0.12508614013E+03 0.  0.
          5    1    3    3  502    0  0.99941170812E+02 -0.68188775765E+02  0.21132457616E+03  0.24354362166E+03  0.41800000000E+01 0.  1.
         -5    1    3    3    0  502  0.33215859266E+02  0.30887988984E+02  0.11448198346E+02  0.46966954507E+02  0.41800000000E+01 0.  1.
        -11    1    1    2    0    0 -0.49978213125E+02  0.48383228338E+02  0.16089826293E+03  0.17529121366E+03  0.00000000000E+00 0.  1.
         11    1    1    2    0    0 -0.83178816954E+02 -0.11082441557E+02  0.71050559280E+02  0.10995325404E+03  0.00000000000E+00 0. -1.
</event>
<event>
 7    1  0.2612321E-009  0.9975018E+02  0.7561462E-02  0.1280822E+00
          2   -1    0    0  501    0  0.00000000000E+00  0.00000000000E+00  0.10369447306E+03  0.10369447306E+03  0.00000000000E+00 0. -1.
         -2   -1    0    0    0  501 -0.00000000000E+00 -0.00000000000E+00 -0.14625413782E+03  0.14625413782E+03  0.00000000000E+00 0.  1.
         25    2    1    2    0    0  0.99841985608E+01 -0.29464349611E+02 -0.18699824399E+02  0.13024511837E+03  0.12508507228E+03 0.  0.
          5    1    3    3  502    0 -0.32674097079E+02 -0.20858135412E+02  0.40785007157E+02  0.56422935421E+02  0.41800000000E+01 0. -1.
         -5    1    3    3    0  502  0.42658295639E+02 -0.86062141987E+01 -0.59484831556E+02  0.73822182946E+02  0.41800000000E+01 0. -1.
        -11    1    1    2    0    0  0.37693541410E+02 -0.24367094392E+02 -0.14607869522E+02  0.47201146227E+02  0.00000000000E+00 0.  1.
         11    1    1    2    0    0 -0.47677739971E+02  0.53831444003E+02 -0.92519708409E+01  0.72502346283E+02  0.00000000000E+00 0. -1.
</event>
<event>
 7    1  0.2612321E-009  0.6442848E+02  0.7561462E-02  0.1380134E+00
         -1   -1    0    0    0  501 -0.00000000000E+00  0.00000000000E+00  0.27634024803E+03  0.27634024803E+03  0.00000000000E+00 0.  1.
          1   -1    0    0  501    0  0.00000000000E+00 -0.00000000000E+00 -0.51799326394E+02  0.51799326394E+02  0.00000000000E+00 0. -1.
         25    2    1    2    0    0 -0.17966182291E+02  0.41457942775E+02  0.96911037441E+02  0.16455502854E+03  0.12508022831E+03 0.  0.
          5    1    3    3  502    0 -0.17154082260E+02  0.27062200111E+02 -0.25539959648E+02  0.41187220735E+02  0.41800000000E+01 0. -1.
         -5    1    3    3    0  502 -0.81210003138E+00  0.14395742664E+02  0.12245099709E+03  0.12336780780E+03  0.41800000000E+01 0. -1.
        -11    1    1    2    0    0 -0.76725343408E+01 -0.52901857440E+02  0.12430504832E+03  0.13531156396E+03  0.00000000000E+00 0.  1.
         11    1    1    2    0    0  0.25638716632E+02  0.11443914665E+02  0.33248358725E+01  0.28272981926E+02  0.00000000000E+00 0. -1.
</event>
<event>
 7    1  0.2612321E-009  0.1223956E+03  0.7561462E-02  0.1239197E+00
         -2   -1    0    0    0  501 -0.00000000000E+00  0.00000000000E+00  0.17966762555E+02  0.17966762555E+02  0.00000000000E+00 0. -1.
          2   -1    0    0  501    0  0.00000000000E+00 -0.00000000000E+00 -0.87775602376E+03  0.87775602376E+03  0.00000000000E+00 0.  1.
         25    2    1    2    0    0  0.26341542964E+02  0.60502338235E+02 -0.52192117166E+03  0.54074120720E+03  0.12507971030E+03 0.  0.
          5    1    3    3  502    0 -0.56101859355E+01 -0.35014557988E+02 -0.20767433156E+03  0.21072160271E+03  0.41800000000E+01 0.  1.
         -5    1    3    3    0  502  0.31951728899E+02  0.95516896223E+02 -0.31424684009E+03  0.33001960450E+03  0.41800000000E+01 0.  1.
        -11    1    1    2    0    0 -0.49844529848E+02 -0.76396996276E+01 -0.17622118543E+03  0.18329415801E+03  0.00000000000E+00 0.  1.
         11    1    1    2    0    0  0.23502986884E+02 -0.52862638607E+02 -0.16164690412E+03  0.17168742110E+03  0.00000000000E+00 0. -1.
</event>
<event>
 7    1  0.2612321E-009  0.1423882E+03  0.7561462E-02  0.1210151E+00
          1   -1    0    0  501    0  0.00000000000E+00  0.00000000000E+00  0.12196734433E+04  0.12196734433E+04  0.00000000000E+00 0. -1.
         -1   -1    0    0    0  501 -0.00000000000E+00 -0.00000000000E+00 -0.20244218636E+02  0.20244218636E+02  0.00000000000E+00 0.  1.
         25    2    1    2    0    0 -0.58725386393E+01  0.10226705427E+03  0.70664974732E+03  0.72491052250E+03  0.12509341768E+03 0.  0.
          5    1    3    3  502    0 -0.19296598994E+02 -0.11286720416E+02  0.34143008947E+03  0.34218668470E+03  0.41800000000E+01 0. -1.
         -5    1    3    3    0  502  0.13424060355E+02  0.11355377469E+03  0.36521965785E+03  0.38272383780E+03  0.41800000000E+01 0. -1.
        -11    1    1    2    0    0 -0.47779148509E+02 -0.70802333557E+02  0.32610406154E+03  0.33710484485E+03  0.00000000000E+00 0.  1.
         11    1    1    2    0    0  0.53651687148E+02 -0.31464720712E+02  0.16667541576E+03  0.17790229454E+03  0.00000000000E+00 0. -1.
</event>
<event>
 7    1  0.2612321E-009  0.9446687E+02  0.7561462E-02  0.1292381E+00
         -1   -1    0    0    0  501 -0.00000000000E+00  0.00000000000E+00  0.49451434574E+03  0.49451434574E+03  0.00000000000E+00 0.  1.
          1   -1    0    0  501    0  0.00000000000E+00 -0.00000000000E+00 -0.28967871897E+02  0.28967871897E+02  0.00000000000E+00 0. -1.
         25    2    1    2    0    0  0.66304876123E+00 -0.15834795154E+02  0.37173747620E+03  0.39253347759E+03  0.12507037797E+03 0.  0.
          5    1    3    3  502    0 -0.45864133081E+02  0.77525247445E+01  0.58018957919E+02  0.74480146490E+02  0.41800000000E+01 0. -1.
         -5    1    3    3    0  502  0.46527181842E+02 -0.23587319899E+02  0.31371851829E+03  0.31805333110E+03  0.41800000000E+01 0. -1.
        -11    1    1    2    0    0 -0.43486846155E+02  0.17898812299E+02  0.60666390404E+02  0.76758609907E+02  0.00000000000E+00 0.  1.
         11    1    1    2    0    0  0.42823797394E+02 -0.20640171448E+01  0.33142607236E+02  0.54190130138E+02  0.00000000000E+00 0. -1.
</event>
<event>
 7    1  0.2612321E-009  0.3300681E+03  0.7561462E-02  0.1071107E+00
          2   -1    0    0  501    0  0.00000000000E+00  0.00000000000E+00  0.12181003195E+04  0.12181003195E+04  0.00000000000E+00 0. -1.
         -2   -1    0    0    0  501 -0.00000000000E+00 -0.00000000000E+00 -0.24041350938E+03  0.24041350938E+03  0.00000000000E+00 0.  1.
         25    2    1    2    0    0  0.16495939402E+03  0.26841218519E+03  0.10658324718E+04  0.11184372470E+04  0.12508523007E+03 0.  0.
          5    1    3    3  502    0  0.79906060469E+02  0.23344562112E+03  0.76175344877E+03  0.80072943348E+03  0.41800000000E+01 0. -1.
         -5    1    3    3    0  502  0.85053333547E+02  0.34966564066E+02  0.30407902302E+03  0.31770781355E+03  0.41800000000E+01 0. -1.
        -11    1    1    2    0    0 -0.14328776270E+02 -0.73947785578E+02  0.84803894974E+01  0.75799114951E+02  0.00000000000E+00 0. -1.
         11    1    1    2    0    0 -0.15063061775E+03 -0.19446439961E+03 -0.96626051201E+02  0.26427746686E+03  0.00000000000E+00 0.  1.
</event>
<event>
 7    1  0.2866061E-009  0.1092243E+03  0.7561462E-02  0.1262013E+00
         -1   -1    0    0    0  501 -0.00000000000E+00  0.00000000000E+00  0.63222686579E+02  0.63222686579E+02  0.00000000000E+00 0.  1.
          1   -1    0    0  501    0  0.00000000000E+00 -0.00000000000E+00 -0.35943987729E+03  0.35943987729E+03  0.00000000000E+00 0. -1.
         25    2    1    2    0    0  0.19732039167E+02  0.44671830344E+01 -0.30418981465E+03  0.32952757246E+03  0.12509064145E+03 0.  0.
          5    1    3    3  502    0 -0.52924986457E+02  0.31798124291E+01 -0.11110541509E+03  0.12317893919E+03  0.41800000000E+01 0. -1.
         -5    1    3    3    0  502  0.72657025624E+02  0.12873706053E+01 -0.19308439956E+03  0.20634863326E+03  0.41800000000E+01 0. -1.
        -11    1    1    2    0    0 -0.55998733032E+02 -0.59162004127E+00  0.10561947511E+01  0.56011817171E+02  0.00000000000E+00 0. -1.
         11    1    1    2    0    0  0.36266693865E+02 -0.38755629931E+01  0.69164291953E+01  0.37123174234E+02  0.00000000000E+00 0.  1.
</event>
<event>
 7    1  0.2612321E-009  0.1516012E+03  0.7561462E-02  0.1198519E+00
         -1   -1    0    0    0  501 -0.00000000000E+00  0.00000000000E+00  0.36805070239E+02  0.36805070239E+02  0.00000000000E+00 0.  1.
          1   -1    0    0  501    0  0.00000000000E+00 -0.00000000000E+00 -0.63199338702E+03  0.63199338702E+03  0.00000000000E+00 0. -1.
         25    2    1    2    0    0  0.60430399001E+02 -0.88289899295E+02 -0.33763020541E+03  0.37561820811E+03  0.12509173920E+03 0.  0.
          5    1    3    3  502    0  0.86479793366E+02 -0.18244665237E+02 -0.15944731154E+03  0.18235279002E+03  0.41800000000E+01 0. -1.
         -5    1    3    3    0  502 -0.26049394364E+02 -0.70045234058E+02 -0.17818289387E+03  0.19326541809E+03  0.41800000000E+01 0. -1.
        -11    1    1    2    0    0  0.23160605395E+02  0.30286403326E+02 -0.63485831575E+02  0.74054916646E+02  0.00000000000E+00 0.  1.
         11    1    1    2    0    0 -0.83591004396E+02  0.58003495969E+02 -0.19407227979E+03  0.21912533250E+03  0.00000000000E+00 0. -1.
</event>
<event>
 7    1  0.2612321E-009  0.8361478E+02  0.7561462E-02  0.1319095E+00
         -1   -1    0    0    0  501 -0.00000000000E+00  0.00000000000E+00  0.15352728525E+03  0.15352728525E+03  0.00000000000E+00 0.  1.
          1   -1    0    0  501    0  0.00000000000E+00 -0.00000000000E+00 -0.92714008650E+02  0.92714008650E+02  0.00000000000E+00 0. -1.
         25    2    1    2    0    0 -0.12494482644E+02  0.54819565785E+01 -0.13940373414E+02  0.12660258367E+03  0.12509083194E+03 0.  0.
          5    1    3    3  502    0  0.60031037682E+01  0.50087333838E+02 -0.46075176445E+02  0.68448320288E+02  0.41800000000E+01 0.  1.
         -5    1    3    3    0  502 -0.18497586412E+02 -0.44605377260E+02  0.32134803031E+02  0.58154263381E+02  0.41800000000E+01 0.  1.
        -11    1    1    2    0    0  0.39249546121E+02  0.46675359524E+01  0.81197238425E+02  0.90306723396E+02  0.00000000000E+00 0.  1.
         11    1    1    2    0    0 -0.26755063477E+02 -0.10149492531E+02 -0.64435884081E+01  0.29331986838E+02  0.00000000000E+00 0. -1.
</event>
<event>
 7    1  0.2612321E-009  0.1063465E+03  0.7561462E-02  0.1267489E+00
         -1   -1    0    0    0  501 -0.00000000000E+00  0.00000000000E+00  0.41904776561E+02  0.41904776561E+02  0.00000000000E+00 0.  1.
          1   -1    0    0  501    0  0.00000000000E+00 -0.00000000000E+00 -0.43611519053E+03  0.43611519053E+03  0.00000000000E+00 0. -1.
         25    2    1    2    0    0 -0.64809160800E+01  0.79087456271E+02 -0.18831627186E+03  0.23959816201E+03  0.12508969974E+03 0.  0.
          5    1    3    3  502    0 -0.37578227861E+02  0.19583459592E+02 -0.16176945874E+03  0.16727960210E+03  0.41800000000E+01 0.  1.
         -5    1    3    3    0  502  0.31097311781E+02  0.59503996679E+02 -0.26546813122E+02  0.72318559912E+02  0.41800000000E+01 0.  1.
        -11    1    1    2    0    0 -0.29579921389E+02 -0.38463013079E+02 -0.16036269687E+03  0.16754273984E+03  0.00000000000E+00 0. -1.
         11    1    1    2    0    0  0.36060837469E+02 -0.40624443192E+02 -0.45531445233E+02  0.70879065235E+02  0.00000000000E+00 0.  1.
</event>
<event>
 7    1  0.2612321E-009  0.1280716E+03  0.7561462E-02  0.1230346E+00
         -3   -1    0    0    0  501 -0.00000000000E+00  0.00000000000E+00  0.10335652518E+03  0.10335652518E+03  0.00000000000E+00 0.  1.
          3   -1    0    0  501    0  0.00000000000E+00 -0.00000000000E+00 -0.22085164860E+03  0.22085164860E+03  0.00000000000E+00 0. -1.
         25    2    1    2    0    0  0.48750737495E+02  0.71169185697E+02 -0.12707532926E+03  0.19808802232E+03  0.12509611457E+03 0.  0.
          5    1    3    3  502    0  0.77339632150E+02  0.68897662984E+02 -0.48711208015E+02  0.11453628618E+03  0.41800000000E+01 0. -1.
         -5    1    3    3    0  502 -0.28588894655E+02  0.22715227132E+01 -0.78364121246E+02  0.83551736138E+02  0.41800000000E+01 0. -1.
        -11    1    1    2    0    0  0.13815630075E+02 -0.57920725054E+02 -0.72596951276E+01  0.59986541811E+02  0.00000000000E+00 0. -1.
         11    1    1    2    0    0 -0.62566367570E+02 -0.13248460644E+02  0.16839900966E+02  0.66133609647E+02  0.00000000000E+00 0.  1.
</event>
<event>
 7    1  0.2612321E-009  0.1206023E+03  0.7561462E-02  0.1242107E+00
         -1   -1    0    0    0  501 -0.00000000000E+00  0.00000000000E+00  0.90977637845E+02  0.90977637845E+02  0.00000000000E+00 0.  1.
          1   -1    0    0  501    0  0.00000000000E+00 -0.00000000000E+00 -0.22232476321E+03  0.22232476321E+03  0.00000000000E+00 0. -1.
         25    2    1    2    0    0  0.18150781799E+02 -0.52055047340E+02  0.90968713031E+01  0.13700274784E+03  0.12509125075E+03 0.  0.
          5    1    3    3  502    0 -0.47470497163E+02  0.67217156753E+01  0.80965872631E+01  0.48802220112E+02  0.41800000000E+01 0. -1.
         -5    1    3    3    0  502  0.65621278962E+02 -0.58776763015E+02  0.10002840400E+01  0.88200527727E+02  0.41800000000E+01 0. -1.
        -11    1    1    2    0    0  0.24764911819E+02  0.56548546264E+02 -0.97650125986E+02  0.11552742552E+03  0.00000000000E+00 0. -1.
         11    1    1    2    0    0 -0.42915693617E+02 -0.44934989243E+01 -0.42793870680E+02  0.60772227695E+02  0.00000000000E+00 0.  1.
</event>
<event>
 7    1  0.2612321E-009  0.6983205E+02  0.7561462E-02  0.1360665E+00
          1   -1    0    0  501    0  0.00000000000E+00  0.00000000000E+00  0.30197031723E+03  0.30197031723E+03  0.00000000000E+00 0. -1.
         -1   -1    0    0    0  501 -0.00000000000E+00 -0.00000000000E+00 -0.41380115070E+02  0.41380115070E+02  0.00000000000E+00 0.  1.
         25    2    1    2    0    0  0.25523355012E+02  0.17818329485E+02  0.15993039066E+03  0.20540951210E+03  0.12508558385E+03 0.  0.
          5    1    3    3  502    0  0.45409315816E+02 -0.16081705428E+02  0.87388143056E+01  0.49137221002E+02  0.41800000000E+01 0.  1.
         -5    1    3    3    0  502 -0.19885960803E+02  0.33900034914E+02  0.15119157636E+03  0.15627229110E+03  0.41800000000E+01 0.  1.
        -11    1    1    2    0    0  0.85864627507E+01 -0.15348722289E+02 -0.11279825104E+02  0.20893661069E+02  0.00000000000E+00 0.  1.
         11    1    1    2    0    0 -0.34109817763E+02 -0.24696071960E+01  0.11193963661E+03  0.11704725913E+03  0.00000000000E+00 0. -1.
</event>
<event>
 7    1  0.2612321E-009  0.2669597E+03  0.7561462E-02  0.1103032E+00
         -2   -1    0    0    0  501 -0.00000000000E+00  0.00000000000E+00  0.12206011125E+03  0.12206011125E+03  0.00000000000E+00 0.  1.
          2   -1    0    0  501    0  0.00000000000E+00 -0.00000000000E+00 -0.61686585701E+03  0.61686585701E+03  0.00000000000E+00 0. -1.
         25    2    1    2    0    0  0.20817836507E+03  0.14013602246E+03 -0.28287944847E+03  0.39830177471E+03  0.12508870813E+03 0.  0.
          5    1    3    3  502    0  0.20537772359E+03  0.97866159502E+02 -0.27149328583E+03  0.35423702683E+03  0.41800000000E+01 0. -1.
         -5    1    3    3    0  502  0.28006414755E+01  0.42269862953E+02 -0.11386162637E+02  0.44064747887E+02  0.41800000000E+01 0. -1.
        -11    1    1    2    0    0 -0.14342489351E+03 -0.13797908533E+03 -0.13723678634E+03  0.24174958861E+03  0.00000000000E+00 0. -1.
         11    1    1    2    0    0 -0.64753471558E+02 -0.21569371294E+01 -0.74689510946E+02  0.98874604940E+02  0.00000000000E+00 0.  1.
</event>
<event>
 7    1  0.2612321E-009  0.1104027E+03  0.7561462E-02  0.1259826E+00
         -2   -1    0    0    0  501 -0.00000000000E+00  0.00000000000E+00  0.11066499431E+02  0.11066499431E+02  0.00000000000E+00 0. -1.
          2   -1    0    0  501    0  0.00000000000E+00 -0.00000000000E+00 -0.11260131749E+04  0.11260131749E+04  0.00000000000E+00 0.  1.
         25    2    1    2    0    0 -0.15563426956E+02 -0.19818515881E+02 -0.69892503732E+03  0.71047711130E+03  0.12508606660E+03 0.  0.
          5    1    3    3  502    0  0.54583693227E+02 -0.10972686276E+02 -0.26594595778E+03  0.27174345304E+03  0.41800000000E+01 0. -1.
         -5    1    3    3    0  502 -0.70147120183E+02 -0.88458296055E+01 -0.43297907954E+03  0.43873365826E+03  0.41800000000E+01 0. -1.
        -11    1    1    2    0    0 -0.23147463309E+02 -0.25571016093E+02 -0.16845358313E+03  0.17194851436E+03  0.00000000000E+00 0.  1.
         11    1    1    2    0    0  0.38710890265E+02  0.45389531974E+02 -0.24756805506E+03  0.25465404871E+03  0.00000000000E+00 0. -1.
</event>
<event>
 7    1  0.2612321E-009  0.1111153E+03  0.7561462E-02  0.1258518E+00
         -2   -1    0    0    0  501 -0.00000000000E+00  0.00000000000E+00  0.91268099700E+02  0.91268099700E+02  0.00000000000E+00 0.  1.
          2   -1    0    0  501    0  0.00000000000E+00 -0.00000000000E+00 -0.24718627142E+03  0.24718627142E+03  0.00000000000E+00 0. -1.
         25    2    1    2    0    0  0.71289429530E+02 -0.10897028449E+02 -0.17615985024E+03  0.22777757955E+03  0.12509758157E+03 0.  0.
          5    1    3    3  502    0  0.86795118791E+02 -0.50577448478E+02 -0.11049957192E+03  0.14939577884E+03  0.41800000000E+01 0.  1.
         -5    1    3    3    0  502 -0.15505689261E+02  0.39680420028E+02 -0.65660278318E+02  0.78381800706E+02  0.41800000000E+01 0.  1.
        -11    1    1    2    0    0 -0.56679456077E+02  0.21719798757E+02  0.48075247243E+02  0.77430871083E+02  0.00000000000E+00 0.  1.
         11    1    1    2    0    0 -0.14609973454E+02 -0.10822770307E+02 -0.27833568717E+02  0.33245920486E+02  0.00000000000E+00 0. -1.
</event>
<event>
 7    1  0.2612321E-009  0.9608024E+02  0.7561462E-02  0.1288761E+00
         -2   -1    0    0    0  501 -0.00000000000E+00  0.00000000000E+00  0.17948405475E+02  0.17948405475E+02  0.00000000000E+00 0.  1.
          2   -1    0    0  501    0  0.00000000000E+00 -0.00000000000E+00 -0.89886512846E+03  0.89886512846E+03  0.00000000000E+00 0. -1.
         25    2    1    2    0    0 -0.35485209789E+02 -0.35507278232E+02 -0.65411531076E+03  0.66785759416E+03  0.12508780669E+03 0.  0.
          5    1    3    3  502    0  0.22876980009E+02  0.90205737659E+00 -0.48052227273E+03  0.48108554012E+03  0.41800000000E+01 0.  1.
         -5    1    3    3    0  502 -0.58362189798E+02 -0.36409335609E+02 -0.17359303803E+03  0.18677205404E+03  0.41800000000E+01 0.  1.
        -11    1    1    2    0    0  0.27771493699E+02 -0.25964498770E+02 -0.60113303957E+02  0.71126790813E+02  0.00000000000E+00 0.  1.
         11    1    1    2    0    0  0.77137160897E+01  0.61471777003E+02 -0.16668810827E+03  0.17782914897E+03  0.00000000000E+00 0. -1.
</event>
<event>
 7    1  0.2612321E-009  0.1066552E+03  0.7561462E-02  0.1266892E+00
         -1   -1    0    0    0  501 -0.00000000000E+00  0.00000000000E+00  0.51981316084E+02  0.51981316084E+02  0.00000000000E+00 0.  1.
          1   -1    0    0  501    0  0.00000000000E+00 -0.00000000000E+00 -0.36365180284E+03  0.36365180284E+03  0.00000000000E+00 0. -1.
         25    2    1    2    0    0 -0.65462418879E+02  0.47436204423E+02 -0.15822197438E+03  0.21729393602E+03  0.12508772793E+03 0.  0.
          5    1    3    3  502    0 -0.88113804795E+02  0.11491253022E+02 -0.14912619098E+03  0.17364384448E+03  0.41800000000E+01 0.  1.
         -5    1    3    3    0  502  0.22651385916E+02  0.35944951401E+02 -0.90957833998E+01  0.43650091533E+02  0.41800000000E+01 0.  1.
        -11    1    1    2    0    0  0.16591274292E+02 -0.61843563393E+01  0.11711572462E+02  0.21229168036E+02  0.00000000000E+00 0.  1.
         11    1    1    2    0    0  0.48871144587E+02 -0.41251848083E+02 -0.16516008484E+03  0.17711001487E+03  0.00000000000E+00 0. -1.
</event>
<event>
 7    1  0.2612321E-009  0.1083194E+03  0.7561462E-02  0.1263714E+00
          1   -1    0    0  501    0  0.00000000000E+00  0.00000000000E+00  0.15566621404E+03  0.15566621404E+03  0.00000000000E+00 0. -1.
         -1   -1    0    0    0  501 -0.00000000000E+00 -0.00000000000E+00 -0.10131020361E+03  0.10131020361E+03  0.00000000000E+00 0.  1.
         25    2    1    2    0    0  0.22724143600E+02  0.36750388018E+02 -0.15403979232E+02  0.13323860620E+03  0.12509302892E+03 0.  0.
          5    1    3    3  502    0  0.69991304170E+02  0.35071683949E+02  0.10585800123E+02  0.79109653258E+02  0.41800000000E+01 0. -1.
         -5    1    3    3    0  502 -0.47267160570E+02  0.16787040690E+01 -0.25989779355E+02  0.54128952942E+02  0.41800000000E+01 0. -1.
        -11    1    1    2    0    0 -0.52390279072E+02 -0.29864572961E+02  0.16725370736E+02  0.62580924295E+02  0.00000000000E+00 0. -1.
         11    1    1    2    0    0  0.29666135472E+02 -0.68858150567E+01  0.53034618918E+02  0.61156887156E+02  0.00000000000E+00 0.  1.
</event>
<event>
 7    1  0.2612321E-009  0.1225169E+03  0.7561462E-02  0.1239002E+00
         -1   -1    0    0    0  501 -0.00000000000E+00  0.00000000000E+00  0.45408945433E+02  0.45408945433E+02  0.00000000000E+00 0. -1.
          1   -1    0    0  501    0  0.00000000000E+00 -0.00000000000E+00 -0.53557483789E+03  0.53557483789E+03  0.00000000000E+00 0.  1.
         25    2    1    2    0    0  0.35063415207E+02 -0.54586848015E+02 -0.43418502807E+03  0.45648202214E+03  0.12510008342E+03 0.  0.
          5    1    3    3  502    0  0.10715439878E+02  0.40391027619E+02 -0.10898512771E+03  0.11679677318E+03  0.41800000000E+01 0. -1.
         -5    1    3    3    0  502  0.24347975329E+02 -0.94977875634E+02 -0.32519990037E+03  0.33968524896E+03  0.41800000000E+01 0. -1.
        -11    1    1    2    0    0 -0.30592707130E+02  0.76575516194E+02 -0.59638885022E+02  0.10176698883E+03  0.00000000000E+00 0.  1.
         11    1    1    2    0    0 -0.44707080774E+01 -0.21988668179E+02  0.36580206328E+01  0.22734772353E+02  0.00000000000E+00 0. -1.
</event>
<event>
 7    1  0.2612321E-009  0.1036498E+03  0.7561462E-02  0.1272803E+00
         -2   -1    0    0    0  501 -0.00000000000E+00  0.00000000000E+00  0.23463959389E+03  0.23463959389E+03  0.00000000000E+00 0. -1.
          2   -1    0    0  501    0  0.00000000000E+00 -0.00000000000E+00 -0.89183316991E+02  0.89183316991E+02  0.00000000000E+00 0.  1.
         25    2    1    2    0    0 -0.43091467106E+02 -0.64610760913E+02  0.13924563728E+03  0.20265381914E+03  0.12509115855E+03 0.  0.
          5    1    3    3  502    0 -0.15052226979E+02  0.17948831290E+02 -0.13032810757E+02  0.27130363764E+02  0.41800000000E+01 0.  1.
         -5    1    3    3    0  502 -0.28039240127E+02 -0.82559592203E+02  0.15227844804E+03  0.17552345538E+03  0.41800000000E+01 0.  1.
        -11    1    1    2    0    0  0.57039138235E+02  0.55288092428E+02 -0.27050591245E+02  0.83916452151E+02  0.00000000000E+00 0.  1.
         11    1    1    2    0    0 -0.13947671129E+02  0.93226684842E+01  0.33261230865E+02  0.37252639588E+02  0.00000000000E+00 0. -1.
</event>
<event>
 7    1  0.2612321E-009  0.7634447E+02  0.7561462E-02  0.1339757E+00
          1   -1    0    0  501    0  0.00000000000E+00  0.00000000000E+00  0.10075802003E+03  0.10075802003E+03  0.00000000000E+00 0. -1.
         -1   -1    0    0    0  501 -0.00000000000E+00 -0.00000000000E+00 -0.17564899458E+03  0.17564899458E+03  0.00000000000E+00 0.  1.
         25    2    1    2    0    0 -0.66810449868E+02 -0.79077112743E+01 -0.62732995936E+01  0.14217055150E+03  0.12508774247E+03 0.  0.
          5    1    3    3  502    0 -0.45853177904E+02 -0.28953231074E+02  0.52873028756E+02  0.75854024833E+02  0.41800000000E+01 0. -1.
         -5    1    3    3    0  502 -0.20957271965E+02  0.21045519800E+02 -0.59146328349E+02  0.66316526666E+02  0.41800000000E+01 0. -1.
        -11    1    1    2    0    0  0.49404149164E+02  0.54743371167E+00 -0.91845809950E+02  0.10429152623E+03  0.00000000000E+00 0.  1.
         11    1    1    2    0    0  0.17406300704E+02  0.73602775626E+01  0.23228134987E+02  0.29944936884E+02  0.00000000000E+00 0. -1.
</event>
<event>
 7    1  0.2612321E-009  0.1666916E+03  0.7561462E-02  0.1181343E+00
         -2   -1    0    0    0  501 -0.00000000000E+00  0.00000000000E+00  0.18351368563E+03  0.18351368563E+03  0.00000000000E+00 0.  1.
          2   -1    0    0  501    0  0.00000000000E+00 -0.00000000000E+00 -0.19549744778E+03  0.19549744778E+03  0.00000000000E+00 0. -1.
         25    2    1    2    0    0 -0.14591704677E+03 -0.83857161475E+01  0.34672304069E+02  0.19548299250E+03  0.12509726981E+03 0.  0.
          5    1    3    3  502    0 -0.84913094863E+02 -0.62390916771E+02 -0.32840249210E+01  0.10550411079E+03  0.41800000000E+01 0.  1.
         -5    1    3    3    0  502 -0.61003951909E+02  0.54005200624E+02  0.37956328990E+02  0.89978881707E+02  0.41800000000E+01 0.  1.
        -11    1    1    2    0    0  0.11045308608E+03  0.95551461604E+01 -0.78506197692E+02  0.13584700261E+03  0.00000000000E+00 0. -1.
         11    1    1    2    0    0  0.35463960692E+02 -0.11694300129E+01  0.31850131474E+02  0.47681138299E+02  0.00000000000E+00 0.  1.
</event>
<event>
 7    1  0.2612321E-009  0.6820753E+02  0.7561462E-02  0.1366297E+00
          2   -1    0    0  501    0  0.00000000000E+00  0.00000000000E+00  0.11606233288E+03  0.11606233288E+03  0.00000000000E+00 0. -1.
         -2   -1    0    0    0  501 -0.00000000000E+00 -0.00000000000E+00 -0.13889823422E+03  0.13889823422E+03  0.00000000000E+00 0.  1.
         25    2    1    2    0    0 -0.16746695199E+02  0.13792154161E+02  0.50375709844E+02  0.13658649988E+03  0.12508990563E+03 0.  0.
          5    1    3    3  502    0 -0.33262857076E+02  0.39009024174E+01  0.87926627054E+02  0.94181733079E+02  0.41800000000E+01 0.  1.
         -5    1    3    3    0  502  0.16516161877E+02  0.98912517438E+01 -0.37550917210E+02  0.42404766802E+02  0.41800000000E+01 0.  1.
        -11    1    1    2    0    0 -0.28287116105E+02  0.12380026142E+02 -0.31014004317E+01  0.31032961016E+02  0.00000000000E+00 0. -1.
         11    1    1    2    0    0  0.45033811304E+02 -0.26172180303E+02 -0.70110210752E+02  0.87341106211E+02  0.00000000000E+00 0.  1.
</event>
<event>
 7    1  0.2612321E-009  0.1058989E+03  0.7561462E-02  0.1268359E+00
          4   -1    0    0  501    0  0.00000000000E+00  0.00000000000E+00  0.14145638058E+02  0.14145638058E+02  0.00000000000E+00 0. -1.
         -4   -1    0    0    0  501 -0.00000000000E+00 -0.00000000000E+00 -0.91810559204E+03  0.91810559204E+03  0.00000000000E+00 0.  1.
         25    2    1    2    0    0 -0.12274620143E+02 -0.12949772435E+02 -0.63334923639E+03  0.64583113352E+03  0.12509290503E+03 0.  0.
          5    1    3    3  502    0  0.52232052049E+02  0.75680665765E+01 -0.18666710714E+03  0.19402975076E+03  0.41800000000E+01 0.  1.
         -5    1    3    3    0  502 -0.64506672192E+02 -0.20517839011E+02 -0.44668212925E+03  0.45180138276E+03  0.41800000000E+01 0.  1.
        -11    1    1    2    0    0  0.15197281255E+02 -0.37519851557E+02 -0.15577917667E+03  0.16095293878E+03  0.00000000000E+00 0.  1.
         11    1    1    2    0    0 -0.29226611122E+01  0.50469623992E+02 -0.11483154093E+03  0.12546715780E+03  0.00000000000E+00 0. -1.
</event>
<event>
 7    1  0.2612321E-009  0.1848671E+03  0.7561462E-02  0.1163174E+00
         -2   -1    0    0    0  501 -0.00000000000E+00  0.00000000000E+00  0.56441546941E+02  0.56441546941E+02  0.00000000000E+00 0.  1.
          2   -1    0    0  501    0  0.00000000000E+00 -0.00000000000E+00 -0.72769259471E+03  0.72769259471E+03  0.00000000000E+00 0. -1.
         25    2    1    2    0    0 -0.42004137116E+02 -0.16461578844E+03 -0.34772707469E+03  0.40672403149E+03  0.12509042321E+03 0.  0.
          5    1    3    3  502    0 -0.40116025714E+01  0.87026471168E+01 -0.10769726046E+03  0.10820351811E+03  0.41800000000E+01 0. -1.
         -5    1    3    3    0  502 -0.37992534545E+02 -0.17331843555E+03 -0.24002981424E+03  0.29852051338E+03  0.41800000000E+01 0. -1.
        -11    1    1    2    0    0 -0.15055658775E+02  0.67499106399E+02 -0.19292990633E+03  0.20495060620E+03  0.00000000000E+00 0. -1.
         11    1    1    2    0    0  0.57059795892E+02  0.97116682038E+02 -0.13059406675E+03  0.17245950396E+03  0.00000000000E+00 0.  1.
</event>
<event>
 7    1  0.2612321E-009  0.6299307E+02  0.7561462E-02  0.1385684E+00
          2   -1    0    0  501    0  0.00000000000E+00  0.00000000000E+00  0.13191824074E+03  0.13191824074E+03  0.00000000000E+00 0. -1.
         -2   -1    0    0    0  501 -0.00000000000E+00 -0.00000000000E+00 -0.10149518806E+03  0.10149518806E+03  0.00000000000E+00 0.  1.
         25    2    1    2    0    0 -0.84406207205E+01 -0.88007973599E+01 -0.24670895724E+02  0.12808067968E+03  0.12508920537E+03 0.  0.
          5    1    3    3  502    0  0.56236534694E+01 -0.40861738338E+02  0.37957116824E+02  0.56209627787E+02  0.41800000000E+01 0.  1.
         -5    1    3    3    0  502 -0.14064274190E+02  0.32060940978E+02 -0.62628012548E+02  0.71871051896E+02  0.41800000000E+01 0.  1.
        -11    1    1    2    0    0  0.60519127576E+01 -0.19730663156E+02 -0.17650708709E+02  0.27156440019E+02  0.00000000000E+00 0.  1.
         11    1    1    2    0    0  0.23887079629E+01  0.28531460516E+02  0.72744657118E+02  0.78176309098E+02  0.00000000000E+00 0. -1.
</event>
<event>
 7    1  0.2612321E-009  0.9642333E+02  0.7561462E-02  0.1288002E+00
         -2   -1    0    0    0  501 -0.00000000000E+00  0.00000000000E+00  0.89199649161E+03  0.89199649161E+03  0.00000000000E+00 0.  1.
          2   -1    0    0  501    0  0.00000000000E+00 -0.00000000000E+00 -0.14116800227E+02  0.14116800227E+02  0.00000000000E+00 0. -1.
         25    2    1    2    0    0 -0.16887435418E+02 -0.11072954940E+02  0.59079817078E+03  0.60423129592E+03  0.12508071223E+03 0.  0.
          5    1    3    3  502    0  0.28504075159E+01 -0.64246363228E+02  0.39927330356E+03  0.40444080326E+03  0.41800000000E+01 0.  1.
         -5    1    3    3    0  502 -0.19737842933E+02  0.53173408288E+02  0.19152486722E+03  0.19979049266E+03  0.41800000000E+01 0.  1.
        -11    1    1    2    0    0 -0.23321016610E+02 -0.10862114685E+02  0.25155048687E+02  0.35980992560E+02  0.00000000000E+00 0. -1.
         11    1    1    2    0    0  0.40208452027E+02  0.21935069625E+02  0.26192647192E+03  0.26590100335E+03  0.00000000000E+00 0.  1.
</event>
<event>
 7    1  0.2612321E-009  0.2039336E+03  0.7561462E-02  0.1146462E+00
         -1   -1    0    0    0  501 -0.00000000000E+00  0.00000000000E+00  0.10821498343E+04  0.10821498343E+04  0.00000000000E+00 0.  1.
          1   -1    0    0  501    0  0.00000000000E+00 -0.00000000000E+00 -0.38576175232E+02  0.38576175232E+02  0.00000000000E+00 0. -1.
         25    2    1    2    0    0 -0.10218653456E+03 -0.13926070713E+03  0.56090108637E+03  0.60007718963E+03  0.12508785886E+03 0.  0.
          5    1    3    3  502    0 -0.51330394158E+02  0.12619636930E+02  0.13599256701E+03  0.14596408902E+03  0.41800000000E+01 0. -1.
         -5    1    3    3    0  502 -0.50856140403E+02 -0.15188034406E+03  0.42490851936E+03  0.45411310061E+03  0.41800000000E+01 0. -1.
        -11    1    1    2    0    0 -0.51963052022E+01  0.62275904792E+02  0.13679070431E+03  0.15038945006E+03  0.00000000000E+00 0.  1.
         11    1    1    2    0    0  0.10738283976E+03  0.76984802339E+02  0.34588186837E+03  0.37025936981E+03  0.00000000000E+00 0. -1.
</event>
<event>
 7    1  0.2612321E-009  0.1354463E+03  0.7561462E-02  0.1219591E+00
         -4   -1    0    0    0  501 -0.00000000000E+00  0.00000000000E+00  0.51811959564E+02  0.51811959564E+02  0.00000000000E+00 0.  1.
          4   -1    0    0  501    0  0.00000000000E+00 -0.00000000000E+00 -0.37264223861E+03  0.37264223861E+03  0.00000000000E+00 0. -1.
         25    2    1    2    0    0 -0.81270735725E+02 -0.54146636593E+01 -0.13635106206E+03  0.20217267220E+03  0.12509167115E+03 0.  0.
          5    1    3    3  502    0 -0.10918173148E+03 -0.25574457384E+02 -0.11836793855E+03  0.16310470452E+03  0.41800000000E+01 0. -1.
         -5    1    3    3    0  502  0.27910995759E+02  0.20159793725E+02 -0.17983123509E+02  0.39067967677E+02  0.41800000000E+01 0. -1.
        -11    1    1    2    0    0  0.99000394210E+02  0.20043449680E+02 -0.15121177699E+03  0.18184559227E+03  0.00000000000E+00 0.  1.
         11    1    1    2    0    0 -0.17729658485E+02 -0.14628786020E+02 -0.33267440000E+02  0.40435933705E+02  0.00000000000E+00 0. -1.
</event>
<event>
 7    1  0.2612321E-009  0.1544781E+03  0.7561462E-02  0.1195076E+00
          1   -1    0    0  501    0  0.00000000000E+00  0.00000000000E+00  0.15006706143E+04  0.15006706143E+04  0.00000000000E+00 0. -1.
         -1   -1    0    0    0  501 -0.00000000000E+00 -0.00000000000E+00 -0.24807043884E+02  0.24807043884E+02  0.00000000000E+00 0.  1.
         25    2    1    2    0    0  0.10705542469E+03 -0.95103359599E+02  0.10461723843E+04  0.10633100159E+04  0.12508404871E+03 0.  0.
          5    1    3    3  502    0  0.53325923602E+02  0.10521146819E+00  0.65339682731E+03  0.65558260466E+03  0.41800000000E+01 0.  1.
         -5    1    3    3    0  502  0.53729501083E+02 -0.95208571067E+02  0.39277555698E+03  0.40772741121E+03  0.41800000000E+01 0.  1.
        -11    1    1    2    0    0 -0.39277597684E+02  0.54077210470E+02  0.83132416007E+02  0.10666805034E+03  0.00000000000E+00 0.  1.
         11    1    1    2    0    0 -0.67777827001E+02  0.41026149128E+02  0.34655877013E+03  0.35549959198E+03  0.00000000000E+00 0. -1.
</event>
<event>
 7    1  0.2612321E-009  0.1075932E+03  0.7561462E-02  0.1265093E+00
          2   -1    0    0  501    0  0.00000000000E+00  0.00000000000E+00  0.36548071085E+02  0.36548071085E+02  0.00000000000E+00 0. -1.
         -2   -1    0    0    0  501 -0.00000000000E+00 -0.00000000000E+00 -0.57525103909E+03  0.57525103909E+03  0.00000000000E+00 0.  1.
         25    2    1    2    0    0 -0.80803642307E+02  0.24445505400E+02 -0.39894705541E+03  0.42653574734E+03  0.12508868609E+03 0.  0.
          5    1    3    3  502    0 -0.82088631038E+02  0.35237908098E+02 -0.13262793526E+03  0.15996216779E+03  0.41800000000E+01 0.  1.
         -5    1    3    3    0  502  0.12849887309E+01 -0.10792402699E+02 -0.26631912016E+03  0.26657357955E+03  0.41800000000E+01 0.  1.
        -11    1    1    2    0    0  0.73004541443E+02 -0.49280558511E+02 -0.75775431650E+02  0.11619015690E+03  0.00000000000E+00 0. -1.
         11    1    1    2    0    0  0.77991008634E+01  0.24835053111E+02 -0.63980480937E+02  0.69073205936E+02  0.00000000000E+00 0.  1.
</event>
<event>
 7    1  0.2612321E-009  0.1430318E+03  0.7561462E-02  0.1209307E+00
         -1   -1    0    0    0  501 -0.00000000000E+00  0.00000000000E+00  0.65876517916E+03  0.65876517916E+03  0.00000000000E+00 0.  1.
          1   -1    0    0  501    0  0.00000000000E+00 -0.00000000000E+00 -0.81993515550E+02  0.81993515550E+02  0.00000000000E+00 0. -1.
         25    2    1    2    0    0 -0.72296120639E+02  0.83810312509E+02  0.22858945814E+02  0.16858293542E+03  0.12508707834E+03 0.  0.
          5    1    3    3  502    0 -0.98200345968E+02  0.93241989960E+02  0.52027734669E+01  0.13557993174E+03  0.41800000000E+01 0. -1.
         -5    1    3    3    0  502  0.25904225329E+02 -0.94316774508E+01  0.17656172347E+02  0.33003003672E+02  0.41800000000E+01 0. -1.
        -11    1    1    2    0    0  0.76275058649E+02 -0.56044705588E+02  0.51815654499E+03  0.52673057507E+03  0.00000000000E+00 0.  1.
         11    1    1    2    0    0 -0.39789380101E+01 -0.27765606922E+02  0.35756172801E+02  0.45445184220E+02  0.00000000000E+00 0. -1.
</event>
<event>
 7    1  0.2612321E-009  0.2013265E+03  0.7561462E-02  0.1148625E+00
         -1   -1    0    0    0  501 -0.00000000000E+00  0.00000000000E+00  0.11912358427E+03  0.11912358427E+03  0.00000000000E+00 0.  1.
          1   -1    0    0  501    0  0.00000000000E+00 -0.00000000000E+00 -0.37251868029E+03  0.37251868029E+03  0.00000000000E+00 0. -1.
         25    2    1    2    0    0  0.11399237092E+03  0.14312231121E+03 -0.11442880925E+03  0.24943831668E+03  0.12508902768E+03 0.  0.
          5    1    3    3  502    0 -0.13254590787E+02  0.63874525421E+02 -0.63306855364E+02  0.90999283024E+02  0.41800000000E+01 0. -1.
         -5    1    3    3    0  502  0.12724696171E+03  0.79247785790E+02 -0.51121953889E+02  0.15843903366E+03  0.41800000000E+01 0. -1.
        -11    1    1    2    0    0 -0.28383949330E+02 -0.12206692423E+02 -0.58829179692E+02  0.66449411606E+02  0.00000000000E+00 0. -1.
         11    1    1    2    0    0 -0.85608421595E+02 -0.13091561879E+03 -0.80137107067E+02  0.17575453627E+03  0.00000000000E+00 0.  1.
</event>
<event>
 7    1  0.2612321E-009  0.1080797E+03  0.7561462E-02  0.1264168E+00
         -2   -1    0    0    0  501 -0.00000000000E+00  0.00000000000E+00  0.13428504954E+03  0.13428504954E+03  0.00000000000E+00 0.  1.
          2   -1    0    0  501    0  0.00000000000E+00 -0.00000000000E+00 -0.10844105003E+03  0.10844105003E+03  0.00000000000E+00 0. -1.
         25    2    1    2    0    0 -0.51362226407E+02 -0.74955034315E+01  0.21412332032E+02  0.13711398676E+03  0.12508995375E+03 0.  0.
          5    1    3    3  502    0 -0.25373086458E+02  0.49693303004E+02  0.42992091466E+02  0.70562101786E+02  0.41800000000E+01 0. -1.
         -5    1    3    3    0  502 -0.25989139948E+02 -0.57188806435E+02 -0.21579759434E+02  0.66551884977E+02  0.41800000000E+01 0. -1.
        -11    1    1    2    0    0  0.71326106403E+02  0.19515361033E+02  0.21172579445E+02  0.76919054149E+02  0.00000000000E+00 0.  1.
         11    1    1    2    0    0 -0.19963879996E+02 -0.12019857602E+02 -0.16740911973E+02  0.28693058655E+02  0.00000000000E+00 0. -1.
</event>
<event>
 7    1  0.2612321E-009  0.1389469E+03  0.7561462E-02  0.1214753E+00
         -1   -1    0    0    0  501 -0.00000000000E+00  0.00000000000E+00  0.39696999052E+02  0.39696999052E+02  0.00000000000E+00 0.  1.
          1   -1    0    0  501    0  0.00000000000E+00 -0.00000000000E+00 -0.61913792827E+03  0.61913792827E+03  0.00000000000E+00 0. -1.
         25    2    1    2    0    0  0.20493815751E+02 -0.10709467339E+03 -0.24725669363E+03  0.29777996138E+03  0.12509103605E+03 0.  0.
          5    1    3    3  502    0 -0.47914519586E+02 -0.76261846467E+02 -0.12186984308E+03  0.15159617893E+03  0.41800000000E+01 0. -1.
         -5    1    3    3    0  502  0.68408335336E+02 -0.30832826928E+02 -0.12538685055E+03  0.14618378245E+03  0.41800000000E+01 0. -1.
        -11    1    1    2    0    0 -0.12885507649E+02  0.13448818584E+02 -0.31758525896E+01  0.18894260196E+02  0.00000000000E+00 0.  1.
         11    1    1    2    0    0 -0.76083081012E+01  0.93645854810E+02 -0.32900838299E+03  0.34216070574E+03  0.00000000000E+00 0. -1.
</event>
<event>
 7    1  0.2612321E-009  0.1665631E+03  0.7561462E-02  0.1181480E+00
          2   -1    0    0  501    0  0.00000000000E+00  0.00000000000E+00  0.13741013178E+04  0.13741013178E+04  0.00000000000E+00 0. -1.
         -2   -1    0    0    0  501 -0.00000000000E+00 -0.00000000000E+00 -0.38026541381E+02  0.38026541381E+02  0.00000000000E+00 0.  1.
         25    2    1    2    0    0  0.52392935339E+02 -0.12644954759E+03  0.10834468615E+04  0.10991988814E+04  0.12508625669E+03 0.  0.
          5    1    3    3  502    0 -0.17335787705E+02  0.92954637650E+01  0.41369640167E+02  0.45998420729E+02  0.41800000000E+01 0.  1.
         -5    1    3    3    0  502  0.69728723043E+02 -0.13574501136E+03  0.10420772213E+04  0.10532004607E+04  0.41800000000E+01 0.  1.
        -11    1    1    2    0    0 -0.51298909682E+02  0.21868604886E+02  0.22469707821E+02  0.60122390037E+02  0.00000000000E+00 0.  1.
         11    1    1    2    0    0 -0.10940256563E+01  0.10458094271E+03  0.23015820715E+03  0.25280658771E+03  0.00000000000E+00 0. -1.
</event>
<event>
 7    1  0.2612321E-009  0.1089525E+03  0.7561462E-02  0.1262522E+00
          2   -1    0    0  501    0  0.00000000000E+00  0.00000000000E+00  0.20263707268E+03  0.20263707268E+03  0.00000000000E+00 0. -1.
         -2   -1    0    0    0  501 -0.00000000000E+00 -0.00000000000E+00 -0.77932596735E+02  0.77932596735E+02  0.00000000000E+00 0.  1.
         25    2    1    2    0    0  0.38627482631E+02  0.43069037744E+01  0.12677370632E+03  0.18229033740E+03  0.12509021809E+03 0.  0.
          5    1    3    3  502    0  0.49195809639E+02  0.57675330998E+02  0.81549057197E+02  0.11141989329E+03  0.41800000000E+01 0.  1.
         -5    1    3    3    0  502 -0.10568327009E+02 -0.53368427224E+02  0.45224649124E+02  0.70870444111E+02  0.41800000000E+01 0.  1.
        -11    1    1    2    0    0 -0.35697026470E+01 -0.38370794339E+02 -0.23249260389E+02  0.45006541123E+02  0.00000000000E+00 0.  1.
         11    1    1    2    0    0 -0.35057779984E+02  0.34063890565E+02  0.21180030017E+02  0.53272790891E+02  0.00000000000E+00 0. -1.
</event>
<event>
 7    1  0.2612321E-009  0.1077605E+03  0.7561462E-02  0.1264774E+00
         -1   -1    0    0    0  501 -0.00000000000E+00  0.00000000000E+00  0.20543713290E+02  0.20543713290E+02  0.00000000000E+00 0.  1.
          1   -1    0    0  501    0  0.00000000000E+00 -0.00000000000E+00 -0.59034462562E+03  0.59034462562E+03  0.00000000000E+00 0. -1.
         25    2    1    2    0    0 -0.10337478593E+02 -0.27401873401E+02 -0.29592192029E+03  0.32260662555E+03  0.12509007079E+03 0.  0.
          5    1    3    3  502    0  0.56904545040E+01  0.49401431673E+02 -0.11471666386E+03  0.12510103154E+03  0.41800000000E+01 0. -1.
         -5    1    3    3    0  502 -0.16027933097E+02 -0.76803305074E+02 -0.18120525643E+03  0.19750559401E+03  0.41800000000E+01 0. -1.
        -11    1    1    2    0    0 -0.22114485708E+02 -0.19856269980E+02 -0.13103592968E+03  0.13436419464E+03  0.00000000000E+00 0.  1.
         11    1    1    2    0    0  0.32451964301E+02  0.47258143381E+02 -0.14284306237E+03  0.15391751872E+03  0.00000000000E+00 0. -1.
</event>
<event>
 7    1  0.2612321E-009  0.7798295E+02  0.7561462E-02  0.1334875E+00
         -1   -1    0    0    0  501 -0.00000000000E+00  0.00000000000E+00  0.88320749383E+02  0.88320749383E+02  0.00000000000E+00 0.  1.
          1   -1    0    0  501    0  0.00000000000E+00 -0.00000000000E+00 -0.17437369162E+03  0.17437369162E+03  0.00000000000E+00 0. -1.
         25    2    1    2    0    0 -0.35151213092E+02 -0.66516377550E+02 -0.68654129062E+02  0.16130778594E+03  0.12508707409E+03 0.  0.
          5    1    3    3  502    0 -0.44831214611E+01 -0.38486821394E+02  0.33219181914E+02  0.51208595431E+02  0.41800000000E+01 0. -1.
         -5    1    3    3    0  502 -0.30668091630E+02 -0.28029556156E+02 -0.10187331098E+03  0.11009919051E+03  0.41800000000E+01 0. -1.
        -11    1    1    2    0    0  0.71365208834E+01  0.14151802169E+02  0.24165204063E+02  0.28899143973E+02  0.00000000000E+00 0.  1.
         11    1    1    2    0    0  0.28014692208E+02  0.52364575380E+02 -0.41564017235E+02  0.72487511083E+02  0.00000000000E+00 0. -1.
</event>
<event>
 7    1  0.2612321E-009  0.1390778E+03  0.7561462E-02  0.1214575E+00
          2   -1    0    0  501    0  0.00000000000E+00  0.00000000000E+00  0.98563045224E+03  0.98563045224E+03  0.00000000000E+00 0. -1.
         -2   -1    0    0    0  501 -0.00000000000E+00 -0.00000000000E+00 -0.30034547826E+02  0.30034547826E+02  0.00000000000E+00 0.  1.
         25    2    1    2    0    0  0.21377468540E+00 -0.13166711545E+03  0.54500741097E+03  0.57447077041E+03  0.12508922037E+03 0.  0.
          5    1    3    3  502    0 -0.10796674252E+02  0.10270650420E+01  0.25572280411E+03  0.25598681212E+03  0.41800000000E+01 0. -1.
         -5    1    3    3    0  502  0.11010448938E+02 -0.13269418049E+03  0.28928460686E+03  0.31848395829E+03  0.41800000000E+01 0. -1.
        -11    1    1    2    0    0 -0.99454189449E+01  0.88999581221E+02  0.37270104843E+03  0.38330915501E+03  0.00000000000E+00 0. -1.
         11    1    1    2    0    0  0.97316442595E+01  0.42667534228E+02  0.37887445021E+02  0.57885074651E+02  0.00000000000E+00 0.  1.
</event>
<event>
 7    1  0.2612321E-009  0.1099751E+03  0.7561462E-02  0.1260616E+00
          2   -1    0    0  501    0  0.00000000000E+00  0.00000000000E+00  0.45721669107E+03  0.45721669107E+03  0.00000000000E+00 0. -1.
         -2   -1    0    0    0  501 -0.00000000000E+00 -0.00000000000E+00 -0.34690897628E+02  0.34690897628E+02  0.00000000000E+00 0.  1.
         25    2    1    2    0    0  0.59211147232E+02 -0.18370772434E+02  0.25762753307E+03  0.29302527945E+03  0.12509365836E+03 0.  0.
          5    1    3    3  502    0  0.86283030773E+02  0.21401783098E+02  0.14027606775E+03  0.16612539030E+03  0.41800000000E+01 0.  1.
         -5    1    3    3    0  502 -0.27071883541E+02 -0.39772555531E+02  0.11735146533E+03  0.12689988915E+03  0.41800000000E+01 0.  1.
        -11    1    1    2    0    0 -0.97329056510E+01 -0.18534935498E+02 -0.19077929894E+01  0.21021725914E+02  0.00000000000E+00 0.  1.
         11    1    1    2    0    0 -0.49478241581E+02  0.36905707932E+02  0.16680605336E+03  0.17786058333E+03  0.00000000000E+00 0. -1.
</event>
<event>
 7    1  0.2612321E-009  0.6318040E+02  0.7561462E-02  0.1384950E+00
          2   -1    0    0  501    0  0.00000000000E+00  0.00000000000E+00  0.48962896579E+03  0.48962896579E+03  0.00000000000E+00 0. -1.
         -2   -1    0    0    0  501 -0.00000000000E+00 -0.00000000000E+00 -0.26269886269E+02  0.26269886269E+02  0.00000000000E+00 0.  1.
         25    2    1    2    0    0  0.60153614077E+01 -0.35300190624E+00  0.34616883451E+03  0.36812582708E+03  0.12508978133E+03 0.  0.
          5    1    3    3  502    0 -0.17759310264E+02  0.24068974200E-01  0.34333317112E+03  0.34381758604E+03  0.41800000000E+01 0.  1.
         -5    1    3    3    0  502  0.23774671672E+02 -0.37707088044E+00  0.28356633904E+01  0.24308241039E+02  0.41800000000E+01 0.  1.
        -11    1    1    2    0    0  0.64571235314E+01  0.40974794667E+02  0.31363472410E+02  0.52002842652E+02  0.00000000000E+00 0.  1.
         11    1    1    2    0    0 -0.12472484939E+02 -0.40621792761E+02  0.85826772602E+02  0.95770182327E+02  0.00000000000E+00 0. -1.
</event>
<event>
 7    1  0.2612321E-009  0.1249769E+03  0.7561462E-02  0.1235105E+00
          3   -1    0    0  501    0  0.00000000000E+00  0.00000000000E+00  0.25342215742E+03  0.25342215742E+03  0.00000000000E+00 0. -1.
         -3   -1    0    0    0  501 -0.00000000000E+00 -0.00000000000E+00 -0.12117792072E+03  0.12117792072E+03  0.00000000000E+00 0.  1.
         25    2    1    2    0    0  0.45083925920E+02  0.93844446165E+02  0.16611808848E+03  0.23254177918E+03  0.12506446054E+03 0.  0.
          5    1    3    3  502    0  0.69003877222E+02  0.57881852184E+02  0.39026548122E+02  0.98246566058E+02  0.41800000000E+01 0. -1.
         -5    1    3    3    0  502 -0.23919951302E+02  0.35962593981E+02  0.12709154036E+03  0.13429521312E+03  0.41800000000E+01 0. -1.
        -11    1    1    2    0    0 -0.34157188035E+02 -0.98698399126E+02 -0.54808895515E+02  0.11794957614E+03  0.00000000000E+00 0.  1.
         11    1    1    2    0    0 -0.10926737885E+02  0.48539529612E+01  0.20935043733E+02  0.24108722825E+02  0.00000000000E+00 0. -1.
</event>
<event>
 7    1  0.2612321E-009  0.1380941E+03  0.7561462E-02  0.1215917E+00
          2   -1    0    0  501    0  0.00000000000E+00  0.00000000000E+00  0.18059133479E+02  0.18059133479E+02  0.00000000000E+00 0. -1.
         -2   -1    0    0    0  501 -0.00000000000E+00 -0.00000000000E+00 -0.11612406695E+04  0.11612406695E+04  0.00000000000E+00 0.  1.
         25    2    1    2    0    0  0.99492700793E+01  0.94090341438E+02 -0.56611251202E+03  0.58743750843E+03  0.12508984657E+03 0.  0.
          5    1    3    3  502    0 -0.60592775061E+01 -0.24589732120E+02 -0.21313594080E+03  0.21467596845E+03  0.41800000000E+01 0. -1.
         -5    1    3    3    0  502  0.16008547585E+02  0.11868007356E+03 -0.35297657122E+03  0.37276153998E+03  0.41800000000E+01 0. -1.
        -11    1    1    2    0    0  0.53154102965E+01  0.17383691974E+02 -0.59999603560E+02  0.62692892425E+02  0.00000000000E+00 0. -1.
         11    1    1    2    0    0 -0.15264680376E+02 -0.11147403341E+03 -0.51706942048E+03  0.52916940217E+03  0.00000000000E+00 0.  1.
</event>
<event>
 7    1  0.2612321E-009  0.2114069E+03  0.7561462E-02  0.1140457E+00
          2   -1    0    0  501    0  0.00000000000E+00  0.00000000000E+00  0.10940527643E+04  0.10940527643E+04  0.00000000000E+00 0. -1.
         -2   -1    0    0    0  501 -0.00000000000E+00 -0.00000000000E+00 -0.43308779465E+02  0.43308779465E+02  0.00000000000E+00 0.  1.
         25    2    1    2    0    0  0.17836907302E+03  0.49095616050E+02  0.65416584854E+03  0.69123502137E+03  0.12508793566E+03 0.  0.
          5    1    3    3  502    0  0.12586198442E+03  0.87828041398E+02  0.39086180409E+03  0.41993502625E+03  0.41800000000E+01 0.  1.
         -5    1    3    3    0  502  0.52507088606E+02 -0.38732425348E+02  0.26330404445E+03  0.27129999512E+03  0.41800000000E+01 0.  1.
        -11    1    1    2    0    0 -0.10771254706E+03  0.14691068142E+02  0.19678167445E+03  0.22481291706E+03  0.00000000000E+00 0. -1.
         11    1    1    2    0    0 -0.70656525965E+02 -0.63786684192E+02  0.19979646187E+03  0.22131360536E+03  0.00000000000E+00 0.  1.
</event>
<event>
 7    1  0.2612321E-009  0.1734946E+03  0.7561462E-02  0.1174252E+00
          3   -1    0    0  501    0  0.00000000000E+00  0.00000000000E+00  0.95891589790E+02  0.95891589790E+02  0.00000000000E+00 0. -1.
         -3   -1    0    0    0  501 -0.00000000000E+00 -0.00000000000E+00 -0.32706383639E+03  0.32706383639E+03  0.00000000000E+00 0.  1.
         25    2    1    2    0    0  0.13603706818E+03 -0.39841566335E+01 -0.86280944290E+02  0.20399677280E+03  0.12509326338E+03 0.  0.
          5    1    3    3  502    0  0.12103377585E+03  0.47645613826E+02 -0.69395716605E+02  0.14748734622E+03  0.41800000000E+01 0. -1.
         -5    1    3    3    0  502  0.15003292330E+02 -0.51629770459E+02 -0.16885227684E+02  0.56509426580E+02  0.41800000000E+01 0. -1.
        -11    1    1    2    0    0 -0.31549631603E+02 -0.38803888599E+02 -0.32480314498E+02  0.59632976235E+02  0.00000000000E+00 0.  1.
         11    1    1    2    0    0 -0.10448743657E+03  0.42788045233E+02 -0.11241098781E+03  0.15932567714E+03  0.00000000000E+00 0. -1.
</event>
<event>
 6    1  0.2612321E-009  0.1522279E+03  0.7561462E-02  0.1197762E+00
          1   -1    0    0  501    0  0.00000000000E+00  0.00000000000E+00  0.78268661155E+02  0.78268661155E+02  0.00000000000E+00 0. -1.
         -1   -1    0    0    0  501 -0.00000000000E+00 -0.00000000000E+00 -0.45858655515E+03  0.45858655515E+03  0.00000000000E+00 0.  1.
          5    1    1    2  502    0 -0.27615675523E+02 -0.31034100135E+02 -0.50225235745E+01  0.42052812614E+02  0.41800000000E+01 0. -1.
         -5    1    1    2    0  502 -0.66495377915E+02  0.11681071394E+03 -0.67902317596E+02  0.15064718819E+03  0.41800000000E+01 0. -1.
        -11    1    1    2    0    0  0.22254221614E+02 -0.29520605779E+02 -0.19925781424E+03  0.20265831609E+03  0.00000000000E+00 0.  1.
         11    1    1    2    0    0  0.71856831823E+02 -0.56256008024E+02 -0.10813523858E+03  0.14149689941E+03  0.00000000000E+00 0. -1.
</event>
<event>
 7    1  0.2612321E-009  0.1779187E+03  0.7561462E-02  0.1169833E+00
         -2   -1    0    0    0  501 -0.00000000000E+00  0.00000000000E+00  0.17176003176E+03  0.17176003176E+03  0.00000000000E+00 0.  1.
          2   -1    0    0  501    0  0.00000000000E+00 -0.00000000000E+00 -0.22075228835E+03  0.22075228835E+03  0.00000000000E+00 0. -1.
         25    2    1    2    0    0 -0.15265381815E+03 -0.98173738841E+01 -0.79968354445E+02  0.21317048551E+03  0.12508856524E+03 0.  0.
          5    1    3    3  502    0 -0.13125726516E+03 -0.58365698994E+02 -0.66051627795E+02  0.15816230402E+03  0.41800000000E+01 0. -1.
         -5    1    3    3    0  502 -0.21396552984E+02  0.48548325110E+02 -0.13916726650E+02  0.55008181493E+02  0.41800000000E+01 0. -1.
        -11    1    1    2    0    0  0.47586844359E+02 -0.16899187281E+02 -0.26078223427E+02  0.56834531967E+02  0.00000000000E+00 0. -1.
         11    1    1    2    0    0  0.10506697379E+03  0.26716561165E+02  0.57054321284E+02  0.12250730263E+03  0.00000000000E+00 0.  1.
</event>
<event>
 7    1  0.2612321E-009  0.1032015E+03  0.7561462E-02  0.1273704E+00
          2   -1    0    0  501    0  0.00000000000E+00  0.00000000000E+00  0.12934806287E+03  0.12934806287E+03  0.00000000000E+00 0. -1.
         -2   -1    0    0    0  501 -0.00000000000E+00 -0.00000000000E+00 -0.13800650285E+03  0.13800650285E+03  0.00000000000E+00 0.  1.
         25    2    1    2    0    0  0.54783998724E+02 -0.25412162476E+02 -0.54205721349E+02  0.14910660561E+03  0.12508978812E+03 0.  0.
          5    1    3    3  502    0  0.38818621258E+02  0.24424515290E+02  0.26271569626E+02  0.53019902623E+02  0.41800000000E+01 0.  1.
         -5    1    3    3    0  502  0.15965377466E+02 -0.49836677766E+02 -0.80477290975E+02  0.96086702988E+02  0.41800000000E+01 0.  1.
        -11    1    1    2    0    0 -0.21904172895E+02  0.57731388179E+02  0.17090693629E+02  0.64068695788E+02  0.00000000000E+00 0.  1.
         11    1    1    2    0    0 -0.32879825829E+02 -0.32319225703E+02  0.28456587746E+02  0.54179264324E+02  0.00000000000E+00 0. -1.
</event>
<event>
 7    1  0.2612321E-009  0.8141609E+02  0.7561462E-02  0.1325080E+00
         -2   -1    0    0    0  501 -0.00000000000E+00  0.00000000000E+00  0.20569498256E+02  0.20569498256E+02  0.00000000000E+00 0.  1.
          2   -1    0    0  501    0  0.00000000000E+00 -0.00000000000E+00 -0.71336682923E+03  0.71336682923E+03  0.00000000000E+00 0. -1.
         25    2    1    2    0    0  0.27913150300E+02  0.29468823213E+02 -0.49038223341E+03  0.50771047958E+03  0.12509053015E+03 0.  0.
          5    1    3    3  502    0  0.20992486083E+02 -0.17139160751E+02 -0.43062104678E+03  0.43149321389E+03  0.41800000000E+01 0. -1.
         -5    1    3    3    0  502  0.69206642170E+01  0.46607983963E+02 -0.59761186627E+02  0.76217265691E+02  0.41800000000E+01 0. -1.
        -11    1    1    2    0    0 -0.49742261055E+02  0.20301265812E+01 -0.56232892918E+02  0.75103609732E+02  0.00000000000E+00 0.  1.
         11    1    1    2    0    0  0.21829110755E+02 -0.31498949794E+02 -0.14618220465E+03  0.15112223818E+03  0.00000000000E+00 0. -1.
</event>
<event>
 7    1  0.2612321E-009  0.1145155E+03  0.7561462E-02  0.1252429E+00
          3   -1    0    0  501    0  0.00000000000E+00  0.00000000000E+00  0.27168436229E+03  0.27168436229E+03  0.00000000000E+00 0. -1.
         -3   -1    0    0    0  501 -0.00000000000E+00 -0.00000000000E+00 -0.69024015532E+02  0.69024015532E+02  0.00000000000E+00 0.  1.
         25    2    1    2    0    0  0.11853451977E+02  0.77329309638E+02  0.73758847273E+02  0.16493352049E+03  0.12506946940E+03 0.  0.
          5    1    3    3  502    0 -0.44781488754E+02 -0.48302245714E+01  0.37235984157E+02  0.58589279912E+02  0.41800000000E+01 0.  1.
         -5    1    3    3    0  502  0.56634940731E+02  0.82159534210E+02  0.36522863115E+02  0.10634424057E+03  0.41800000000E+01 0.  1.
        -11    1    1    2    0    0 -0.20919675030E+02 -0.36257240315E+02  0.12694514139E+03  0.13366857971E+03  0.00000000000E+00 0. -1.
         11    1    1    2    0    0  0.90662230532E+01 -0.41072069323E+02  0.19563580974E+01  0.42106277631E+02  0.00000000000E+00 0.  1.
</event>
<event>
 7    1  0.2724826E-009  0.9826300E+02  0.7561462E-02  0.1283992E+00
         -2   -1    0    0    0  501 -0.00000000000E+00  0.00000000000E+00  0.72074914983E+02  0.72074914983E+02  0.00000000000E+00 0.  1.
          2   -1    0    0  501    0  0.00000000000E+00 -0.00000000000E+00 -0.21788631594E+03  0.21788631594E+03  0.00000000000E+00 0. -1.
         25    2    1    2    0    0  0.43624251819E+02 -0.38492368176E+02 -0.54254996453E+02  0.14824432551E+03  0.12509211666E+03 0.  0.
          5    1    3    3  502    0  0.17535238874E+02 -0.81662415288E+02 -0.16850871849E+02  0.85309196193E+02  0.41800000000E+01 0. -1.
         -5    1    3    3    0  502  0.26089012945E+02  0.43170047113E+02 -0.37404124605E+02  0.62935129312E+02  0.41800000000E+01 0. -1.
        -11    1    1    2    0    0 -0.38829946497E+02  0.20997001645E+02  0.41206769429E+01  0.44335299723E+02  0.00000000000E+00 0.  1.
         11    1    1    2    0    0 -0.47943053224E+01  0.17495366530E+02 -0.95677081443E+02  0.97381605692E+02  0.00000000000E+00 0. -1.
</event>
<event>
 7    1  0.2612321E-009  0.9772926E+02  0.7561462E-02  0.1285145E+00
          2   -1    0    0  501    0  0.00000000000E+00  0.00000000000E+00  0.19272227416E+03  0.19272227416E+03  0.00000000000E+00 0. -1.
         -2   -1    0    0    0  501 -0.00000000000E+00 -0.00000000000E+00 -0.89880552814E+02  0.89880552814E+02  0.00000000000E+00 0.  1.
         25    2    1    2    0    0 -0.70725833024E+02  0.13768477591E+02  0.33497016922E+02  0.14818805449E+03  0.12508371165E+03 0.  0.
          5    1    3    3  502    0 -0.10392120021E+02 -0.17124057526E+02  0.68708569173E+02  0.71690790081E+02  0.41800000000E+01 0.  1.
         -5    1    3    3    0  502 -0.60333713004E+02  0.30892535117E+02 -0.35211552251E+02  0.76497264413E+02  0.41800000000E+01 0.  1.
        -11    1    1    2    0    0  0.68354530916E+02  0.21562078345E+02  0.21380462888E+02  0.74795650359E+02  0.00000000000E+00 0.  1.
         11    1    1    2    0    0  0.23713021082E+01 -0.35330555936E+02  0.47964241541E+02  0.59619122126E+02  0.00000000000E+00 0. -1.
</event>
<event>
 7    1  0.2612321E-009  0.6494274E+02  0.7561462E-02  0.1378187E+00
          4   -1    0    0  501    0  0.00000000000E+00  0.00000000000E+00  0.25392627711E+03  0.25392627711E+03  0.00000000000E+00 0. -1.
         -4   -1    0    0    0  501 -0.00000000000E+00 -0.00000000000E+00 -0.48335726236E+02  0.48335726236E+02  0.00000000000E+00 0.  1.
         25    2    1    2    0    0 -0.23123823594E+02  0.18731253321E+02  0.10862662595E+03  0.16832267904E+03  0.12508880584E+03 0.  0.
          5    1    3    3  502    0 -0.67605475060E+01 -0.18973707588E+02  0.12290172481E+03  0.12461144789E+03  0.41800000000E+01 0.  1.
         -5    1    3    3    0  502 -0.16363276088E+02  0.37704960909E+02 -0.14275098864E+02  0.43711231155E+02  0.41800000000E+01 0.  1.
        -11    1    1    2    0    0 -0.18906603307E+02 -0.17787305751E+02  0.86922325420E+02  0.90715701788E+02  0.00000000000E+00 0. -1.
         11    1    1    2    0    0  0.42030426901E+02 -0.94394756980E+00  0.10041599500E+02  0.43223622512E+02  0.00000000000E+00 0.  1.
</event>
<event>
 7    1  0.2612321E-009  0.1264553E+03  0.7561462E-02  0.1232812E+00
          2   -1    0    0  501    0  0.00000000000E+00  0.00000000000E+00  0.16664942229E+03  0.16664942229E+03  0.00000000000E+00 0. -1.
         -2   -1    0    0    0  501 -0.00000000000E+00 -0.00000000000E+00 -0.12855726678E+03  0.12855726678E+03  0.00000000000E+00 0.  1.
         25    2    1    2    0    0 -0.68047976528E+02 -0.68718706911E+02  0.34581203943E+02  0.16185184908E+03  0.12508946237E+03 0.  0.
          5    1    3    3  502    0 -0.82497930217E+02 -0.94840081003E+02  0.16884619038E+02  0.12689803866E+03  0.41800000000E+01 0. -1.
         -5    1    3    3    0  502  0.14449953689E+02  0.26121374092E+02  0.17696584905E+02  0.34953810427E+02  0.41800000000E+01 0. -1.
        -11    1    1    2    0    0  0.22016504209E+02  0.27334434700E+02 -0.43306844932E+02  0.55743883933E+02  0.00000000000E+00 0.  1.
         11    1    1    2    0    0  0.46031472319E+02  0.41384272211E+02  0.46817796498E+02  0.77610956051E+02  0.00000000000E+00 0. -1.
</event>
<event>
 7    1  0.2612321E-009  0.1026046E+03  0.7561462E-02  0.1274912E+00
          2   -1    0    0  501    0  0.00000000000E+00  0.00000000000E+00  0.10577443043E+04  0.10577443043E+04  0.00000000000E+00 0. -1.
         -2   -1    0    0    0  501 -0.00000000000E+00 -0.00000000000E+00 -0.12627699849E+02  0.12627699849E+02  0.00000000000E+00 0.  1.
         25    2    1    2    0    0 -0.15163823487E+02 -0.32331611744E+02  0.67574085181E+03  0.68814853425E+03  0.12508969471E+03 0.  0.
          5    1    3    3  502    0 -0.26494652506E+02  0.38628282254E+02  0.41495149951E+03  0.41760786648E+03  0.41800000000E+01 0. -1.
         -5    1    3    3    0  502  0.11330829018E+02 -0.70959893998E+02  0.26078935230E+03  0.27054066776E+03  0.41800000000E+01 0. -1.
        -11    1    1    2    0    0 -0.31394096044E+02  0.38664835999E+01  0.57652903598E+02  0.65760141842E+02  0.00000000000E+00 0.  1.
         11    1    1    2    0    0  0.46557919531E+02  0.28465128144E+02  0.31172284909E+03  0.31646332810E+03  0.00000000000E+00 0. -1.
</event>
<event>
 7    1  0.2612321E-009  0.8631065E+02  0.7561462E-02  0.1312040E+00
         -1   -1    0    0    0  501 -0.00000000000E+00  0.00000000000E+00  0.64005536938E+02  0.64005536938E+02  0.00000000000E+00 0.  1.
          1   -1    0    0  501    0  0.00000000000E+00 -0.00000000000E+00 -0.27254527622E+03  0.27254527622E+03  0.00000000000E+00 0. -1.
         25    2    1    2    0    0  0.69356892410E+02  0.32088865280E+02 -0.11025894225E+03  0.18342730705E+03  0.12509384008E+03 0.  0.
          5    1    3    3  502    0  0.34178819076E+02  0.24507310860E+01 -0.12903156482E+03  0.13356951328E+03  0.41800000000E+01 0.  1.
         -5    1    3    3    0  502  0.35178073334E+02  0.29638134194E+02  0.18772622572E+02  0.49857793776E+02  0.41800000000E+01 0.  1.
        -11    1    1    2    0    0 -0.63664658564E+02 -0.45895796098E+01 -0.10623545254E+03  0.12393637225E+03  0.00000000000E+00 0. -1.
         11    1    1    2    0    0 -0.56922338459E+01 -0.27499285670E+02  0.79546555054E+01  0.29187133856E+02  0.00000000000E+00 0.  1.
</event>
<event>
 7    1  0.2612321E-009  0.7972517E+02  0.7561462E-02  0.1329833E+00
         -1   -1    0    0    0  501 -0.00000000000E+00  0.00000000000E+00  0.63378113501E+02  0.63378113501E+02  0.00000000000E+00 0.  1.
          1   -1    0    0  501    0  0.00000000000E+00 -0.00000000000E+00 -0.21533140949E+03  0.21533140949E+03  0.00000000000E+00 0. -1.
         25    2    1    2    0    0 -0.19070297501E+02 -0.82087531291E+01 -0.37601950900E+02  0.13226085748E+03  0.12509183760E+03 0.  0.
          5    1    3    3  502    0 -0.48565583304E+02 -0.82044806153E+01  0.30392548369E+02  0.58026793641E+02  0.41800000000E+01 0. -1.
         -5    1    3    3    0  502  0.29495285803E+02 -0.42725138415E-02 -0.67994499269E+02  0.74234063836E+02  0.41800000000E+01 0. -1.
        -11    1    1    2    0    0 -0.20719823881E+02  0.28759315833E+02 -0.17044484486E+02  0.39330952191E+02  0.00000000000E+00 0.  1.
         11    1    1    2    0    0  0.39790121382E+02 -0.20550562704E+02 -0.97306860606E+02  0.10711771333E+03  0.00000000000E+00 0. -1.
</event>
<event>
 7    1  0.2612321E-009  0.1153416E+03  0.7561462E-02  0.1250986E+00
          2   -1    0    0  501    0  0.00000000000E+00  0.00000000000E+00  0.61643693050E+03  0.61643693050E+03  0.00000000000E+00 0. -1.
         -2   -1    0    0    0  501 -0.00000000000E+00 -0.00000000000E+00 -0.39983908314E+02  0.39983908314E+02  0.00000000000E+00 0.  1.
         25    2    1    2    0    0  0.58941580543E+02 -0.78180513410E+02  0.25001480295E+03  0.29621095419E+03  0.12508886879E+03 0.  0.
          5    1    3    3  502    0  0.41385996764E+02 -0.39004612264E+02  0.24641673740E+03  0.25292853018E+03  0.41800000000E+01 0.  1.
         -5    1    3    3    0  502  0.17555583780E+02 -0.39175901147E+02  0.35980655448E+01  0.43282424010E+02  0.41800000000E+01 0.  1.
        -11    1    1    2    0    0  0.21614930325E+02  0.28913700370E+02  0.19532225952E+03  0.19863029061E+03  0.00000000000E+00 0. -1.
         11    1    1    2    0    0 -0.80556510868E+02  0.49266813041E+02  0.13111595972E+03  0.16157959402E+03  0.00000000000E+00 0.  1.
</event>
<event>
 7    1  0.2612321E-009  0.1719457E+03  0.7561462E-02  0.1175834E+00
         -2   -1    0    0    0  501 -0.00000000000E+00  0.00000000000E+00  0.33254188223E+02  0.33254188223E+02  0.00000000000E+00 0. -1.
          2   -1    0    0  501    0  0.00000000000E+00 -0.00000000000E+00 -0.12010574790E+04  0.12010574790E+04  0.00000000000E+00 0.  1.
         25    2    1    2    0    0  0.99632727439E+02  0.13228089739E+03 -0.53007466177E+03  0.56925925037E+03  0.12510807685E+03 0.  0.
          5    1    3    3  502    0  0.10444983043E+02  0.17280500645E+02 -0.27333263751E+03  0.27410931488E+03  0.41800000000E+01 0.  1.
         -5    1    3    3    0  502  0.89187744396E+02  0.11500039675E+03 -0.25674202425E+03  0.29514993549E+03  0.41800000000E+01 0.  1.
        -11    1    1    2    0    0 -0.48417851568E+02 -0.16627211168E+02 -0.96478268056E+02  0.10921908583E+03  0.00000000000E+00 0. -1.
         11    1    1    2    0    0 -0.51214875871E+02 -0.11565368622E+03 -0.54125036093E+03  0.55583333101E+03  0.00000000000E+00 0.  1.
</event>
<event>
 7    1  0.2612321E-009  0.1074473E+03  0.7561462E-02  0.1265371E+00
          4   -1    0    0  501    0  0.00000000000E+00  0.00000000000E+00  0.15209161658E+03  0.15209161658E+03  0.00000000000E+00 0. -1.
         -4   -1    0    0    0  501 -0.00000000000E+00 -0.00000000000E+00 -0.13562955628E+03  0.13562955628E+03  0.00000000000E+00 0.  1.
         25    2    1    2    0    0  0.12851706844E+02  0.77770409976E+02  0.58069780397E+02  0.15884887235E+03  0.12508981500E+03 0.  0.
          5    1    3    3  502    0  0.31317123924E+02  0.21795968177E+02 -0.32778180181E+02  0.50474825167E+02  0.41800000000E+01 0. -1.
         -5    1    3    3    0  502 -0.18465417080E+02  0.55974441799E+02  0.90847960578E+02  0.10837404719E+03  0.41800000000E+01 0. -1.
        -11    1    1    2    0    0  0.70042072484E+01  0.18156747600E+02  0.54294979031E+01  0.20204104783E+02  0.00000000000E+00 0.  1.
         11    1    1    2    0    0 -0.19855914093E+02 -0.95927157576E+02 -0.47037218001E+02  0.10866819573E+03  0.00000000000E+00 0. -1.
</event>
<event>
 7    1  0.2612321E-009  0.9979055E+02  0.7561462E-02  0.1280737E+00
          2   -1    0    0  501    0  0.00000000000E+00  0.00000000000E+00  0.32747810978E+03  0.32747810978E+03  0.00000000000E+00 0. -1.
         -2   -1    0    0    0  501 -0.00000000000E+00 -0.00000000000E+00 -0.44909846786E+02  0.44909846786E+02  0.00000000000E+00 0.  1.
         25    2    1    2    0    0  0.51425133195E+02 -0.11469553320E+01  0.17853208583E+03  0.22397928544E+03  0.12508858784E+03 0.  0.
          5    1    3    3  502    0 -0.36029176103E+02  0.23491951831E+02  0.71241127064E+02  0.83323129543E+02  0.41800000000E+01 0. -1.
         -5    1    3    3    0  502  0.87454309298E+02 -0.24638907163E+02  0.10729095876E+03  0.14065615590E+03  0.41800000000E+01 0. -1.
        -11    1    1    2    0    0 -0.41501271645E+02 -0.16905058221E+02  0.25845173432E+01  0.44886704841E+02  0.00000000000E+00 0.  1.
         11    1    1    2    0    0 -0.99238615503E+01  0.18052013553E+02  0.10145165983E+03  0.10352196628E+03  0.00000000000E+00 0. -1.
</event>
<event>
 7    1  0.2612321E-009  0.1052839E+03  0.7561462E-02  0.1269561E+00
         -2   -1    0    0    0  501 -0.00000000000E+00  0.00000000000E+00  0.19871391177E+03  0.19871391177E+03  0.00000000000E+00 0.  1.
          2   -1    0    0  501    0  0.00000000000E+00 -0.00000000000E+00 -0.12907562669E+03  0.12907562669E+03  0.00000000000E+00 0. -1.
         25    2    1    2    0    0 -0.35038224164E+02  0.28932364611E+02  0.14905940987E+03  0.19982791108E+03  0.12509087697E+03 0.  0.
          5    1    3    3  502    0  0.11678657497E+01  0.72334055718E+02  0.59121183389E+02  0.93522009454E+02  0.41800000000E+01 0.  1.
         -5    1    3    3    0  502 -0.36206089914E+02 -0.43401691107E+02  0.89938226481E+02  0.10630590163E+03  0.41800000000E+01 0.  1.
        -11    1    1    2    0    0 -0.15473502616E+02 -0.26709646631E+02  0.32671026083E+01  0.31040432758E+02  0.00000000000E+00 0.  1.
         11    1    1    2    0    0  0.50511726780E+02 -0.22227179800E+01 -0.82688227401E+02  0.96921194628E+02  0.00000000000E+00 0. -1.
</event>
<event>
 7    1  0.2844269E-009  0.1112893E+03  0.7561462E-02  0.1258201E+00
         -1   -1    0    0    0  501 -0.00000000000E+00  0.00000000000E+00  0.68935850360E+02  0.68935850360E+02  0.00000000000E+00 0.  1.
          1   -1    0    0  501    0  0.00000000000E+00 -0.00000000000E+00 -0.26465606354E+03  0.26465606354E+03  0.00000000000E+00 0. -1.
         25    2    1    2    0    0  0.56169302039E+02  0.12760570684E+02 -0.17526725305E+03  0.22290039339E+03  0.12509257663E+03 0.  0.
          5    1    3    3  502    0  0.40783045109E+02  0.68420936419E+02 -0.10464980347E+03  0.13158166694E+03  0.41800000000E+01 0. -1.
         -5    1    3    3    0  502  0.15386256931E+02 -0.55660365735E+02 -0.70617449582E+02  0.91318726456E+02  0.41800000000E+01 0. -1.
        -11    1    1    2    0    0  0.65654838947E+01  0.14954666616E+02  0.23949665037E+02  0.28988516480E+02  0.00000000000E+00 0.  1.
         11    1    1    2    0    0 -0.62734785934E+02 -0.27715237300E+02 -0.44402625165E+02  0.81703004023E+02  0.00000000000E+00 0. -1.
</event>
<event>
 7    1  0.2612321E-009  0.1120975E+03  0.7561462E-02  0.1256734E+00
          1   -1    0    0  501    0  0.00000000000E+00  0.00000000000E+00  0.32375646362E+03  0.32375646362E+03  0.00000000000E+00 0. -1.
         -1   -1    0    0    0  501 -0.00000000000E+00 -0.00000000000E+00 -0.45735362602E+02  0.45735362602E+02  0.00000000000E+00 0.  1.
         25    2    1    2    0    0 -0.17249235492E+01 -0.27679850974E+02  0.89143294853E+02  0.15607970731E+03  0.12508076793E+03 0.  0.
          5    1    3    3  502    0 -0.53191839581E+02 -0.48634517967E+02  0.54582014608E+02  0.90506115012E+02  0.41800000000E+01 0.  1.
         -5    1    3    3    0  502  0.51466916032E+02  0.20954666992E+02  0.34561280245E+02  0.65573592297E+02  0.41800000000E+01 0.  1.
        -11    1    1    2    0    0  0.45779954888E+02  0.24941804058E+02  0.75549511123E+02  0.91791211400E+02  0.00000000000E+00 0. -1.
         11    1    1    2    0    0 -0.44055031338E+02  0.27380469160E+01  0.11332829504E+03  0.12162090751E+03  0.00000000000E+00 0.  1.
</event>
<event>
 7    1  0.2612321E-009  0.1715813E+03  0.7561462E-02  0.1176209E+00
          4   -1    0    0  501    0  0.00000000000E+00  0.00000000000E+00  0.39289030418E+02  0.39289030418E+02  0.00000000000E+00 0. -1.
         -4   -1    0    0    0  501 -0.00000000000E+00 -0.00000000000E+00 -0.11036442707E+04  0.11036442707E+04  0.00000000000E+00 0.  1.
         25    2    1    2    0    0  0.33059864696E+02 -0.15671430673E+03 -0.76577578573E+03  0.79228306384E+03  0.12509025002E+03 0.  0.
          5    1    3    3  502    0  0.19392325375E+02 -0.43820431423E+02 -0.51087935783E+03  0.51313885367E+03  0.41800000000E+01 0. -1.
         -5    1    3    3    0  502  0.13667539321E+02 -0.11289387531E+03 -0.25489642790E+03  0.27914421017E+03  0.41800000000E+01 0. -1.
        -11    1    1    2    0    0 -0.27802110600E+02  0.35687799766E+01 -0.27557804527E+02  0.39308092483E+02  0.00000000000E+00 0.  1.
         11    1    1    2    0    0 -0.52577540964E+01  0.15314552676E+03 -0.27102165003E+03  0.31134214480E+03  0.00000000000E+00 0. -1.
</event>
<event>
 7    1  0.2612321E-009  0.1414541E+03  0.7561462E-02  0.1211386E+00
         -1   -1    0    0    0  501 -0.00000000000E+00  0.00000000000E+00  0.13510870495E+04  0.13510870495E+04  0.00000000000E+00 0.  1.
          1   -1    0    0  501    0  0.00000000000E+00 -0.00000000000E+00 -0.18676051253E+02  0.18676051253E+02  0.00000000000E+00 0. -1.
         25    2    1    2    0    0  0.65901099000E+02  0.71790727177E+02  0.98393967733E+03  0.99663522613E+03  0.12509045524E+03 0.  0.
          5    1    3    3  502    0 -0.18260356558E+02  0.70062368745E+02  0.52980488558E+03  0.53474560805E+03  0.41800000000E+01 0. -1.
         -5    1    3    3    0  502  0.84161455558E+02  0.17283584319E+01  0.45413479174E+03  0.46188961809E+03  0.41800000000E+01 0. -1.
        -11    1    1    2    0    0 -0.78074886274E+02 -0.31805789897E+02  0.28437083091E+03  0.29660422386E+03  0.00000000000E+00 0.  1.
         11    1    1    2    0    0  0.12173787273E+02 -0.39984937280E+02  0.64100489975E+02  0.76523650729E+02  0.00000000000E+00 0. -1.
</event>
<event>
 7    1  0.2612321E-009  0.1293694E+03  0.7561462E-02  0.1228394E+00
         -2   -1    0    0    0  501 -0.00000000000E+00  0.00000000000E+00  0.32090829349E+03  0.32090829349E+03  0.00000000000E+00 0.  1.
          2   -1    0    0  501    0  0.00000000000E+00 -0.00000000000E+00 -0.73638394552E+02  0.73638394552E+02  0.00000000000E+00 0. -1.
         25    2    1    2    0    0 -0.83035631645E+02 -0.22348514466E+02  0.21932974823E+03  0.26673519657E+03  0.12509098452E+03 0.  0.
          5    1    3    3  502    0 -0.52530423416E+02  0.50048279578E+02  0.11558042347E+03  0.13653051807E+03  0.41800000000E+01 0.  1.
         -5    1    3    3    0  502 -0.30505208229E+02 -0.72396794043E+02  0.10374932476E+03  0.13020467851E+03  0.41800000000E+01 0.  1.
        -11    1    1    2    0    0  0.43291231638E+02  0.44338966168E+02  0.47775630465E+02  0.78246952170E+02  0.00000000000E+00 0.  1.
         11    1    1    2    0    0  0.39744400007E+02 -0.21990451702E+02 -0.19835479766E+02  0.49564539295E+02  0.00000000000E+00 0. -1.
</event>
<event>
 7    1  0.2612321E-009  0.3682375E+03  0.7561462E-02  0.1055369E+00
         -2   -1    0    0    0  501 -0.00000000000E+00  0.00000000000E+00  0.67716835297E+03  0.67716835297E+03  0.00000000000E+00 0.  1.
          2   -1    0    0  501    0  0.00000000000E+00 -0.00000000000E+00 -0.21535005706E+03  0.21535005706E+03  0.00000000000E+00 0. -1.
         25    2    1    2    0    0 -0.27387381471E+03 -0.23642942116E+03  0.29439974432E+03  0.48293274605E+03  0.12508832949E+03 0.  0.
          5    1    3    3  502    0 -0.22817994951E+03 -0.21980866004E+03  0.29668741916E+03  0.43407699026E+03  0.41800000000E+01 0.  1.
         -5    1    3    3    0  502 -0.45693865200E+02 -0.16620761124E+02 -0.22876748406E+01  0.48855755786E+02  0.41800000000E+01 0.  1.
        -11    1    1    2    0    0  0.14429812814E+03  0.17670355759E+03  0.77516933164E+02  0.24094599390E+03  0.00000000000E+00 0.  1.
         11    1    1    2    0    0  0.12957568657E+03  0.59725863567E+02  0.89901618433E+02  0.16863967008E+03  0.00000000000E+00 0. -1.
</event>
<event>
 7    1  0.2612321E-009  0.1893331E+03  0.7561462E-02  0.1159064E+00
          2   -1    0    0  501    0  0.00000000000E+00  0.00000000000E+00  0.75639315107E+03  0.75639315107E+03  0.00000000000E+00 0. -1.
         -2   -1    0    0    0  501 -0.00000000000E+00 -0.00000000000E+00 -0.57878356559E+02  0.57878356559E+02  0.00000000000E+00 0.  1.
         25    2    1    2    0    0  0.67041105487E+02  0.16474882101E+03  0.34262692512E+03  0.40579898767E+03  0.12507167835E+03 0.  0.
          5    1    3    3  502    0 -0.75333897406E+01 -0.29547717006E+01  0.10559280730E+03  0.10598488567E+03  0.41800000000E+01 0.  1.
         -5    1    3    3    0  502  0.74574495227E+02  0.16770359271E+03  0.23703411782E+03  0.29981410200E+03  0.41800000000E+01 0.  1.
        -11    1    1    2    0    0 -0.16601806084E+02 -0.11111356652E+03  0.28467244551E+03  0.30603961486E+03  0.00000000000E+00 0. -1.
         11    1    1    2    0    0 -0.50439299402E+02 -0.53635254492E+02  0.71215423876E+02  0.10243290510E+03  0.00000000000E+00 0.  1.
</event>
<event>
 7    1  0.2612321E-009  0.1191626E+03  0.7561462E-02  0.1244485E+00
          1   -1    0    0  501    0  0.00000000000E+00  0.00000000000E+00  0.12216137982E+03  0.12216137982E+03  0.00000000000E+00 0. -1.
         -1   -1    0    0    0  501 -0.00000000000E+00 -0.00000000000E+00 -0.12426564327E+03  0.12426564327E+03  0.00000000000E+00 0.  1.
         25    2    1    2    0    0  0.43286901469E+02 -0.26677569659E+02  0.29123613542E+02  0.13813362417E+03  0.12508902709E+03 0.  0.
          5    1    3    3  502    0  0.69489207688E+02  0.27157085582E+02  0.20609346286E+02  0.77514352457E+02  0.41800000000E+01 0. -1.
         -5    1    3    3    0  502 -0.26202306219E+02 -0.53834655241E+02  0.85142672557E+01  0.60619271713E+02  0.41800000000E+01 0. -1.
        -11    1    1    2    0    0 -0.48354528654E+02 -0.23071088130E+02 -0.13651620199E+02  0.55288355762E+02  0.00000000000E+00 0.  1.
         11    1    1    2    0    0  0.50676271846E+01  0.49748657789E+02 -0.17576256789E+02  0.53005043155E+02  0.00000000000E+00 0. -1.
</event>
<event>
 7    1  0.2612321E-009  0.8468101E+02  0.7561462E-02  0.1316269E+00
          3   -1    0    0  501    0  0.00000000000E+00  0.00000000000E+00  0.25078188889E+03  0.25078188889E+03  0.00000000000E+00 0. -1.
         -3   -1    0    0    0  501 -0.00000000000E+00 -0.00000000000E+00 -0.64923217143E+02  0.64923217143E+02  0.00000000000E+00 0.  1.
         25    2    1    2    0    0 -0.27380884757E+02 -0.35694117269E+01  0.17217157725E+03  0.21460071116E+03  0.12509180495E+03 0.  0.
          5    1    3    3  502    0  0.75453940196E+01 -0.27654404382E+02 -0.75140656990E+01  0.29927122080E+02  0.41800000000E+01 0.  1.
         -5    1    3    3    0  502 -0.34926278777E+02  0.24084992656E+02  0.17968564295E+03  0.18467358908E+03  0.41800000000E+01 0.  1.
        -11    1    1    2    0    0  0.53999895098E+01 -0.44541754782E+02  0.17297415951E+02  0.48086675954E+02  0.00000000000E+00 0. -1.
         11    1    1    2    0    0  0.21980895247E+02  0.48111166509E+02 -0.36103214538E+01  0.53017718922E+02  0.00000000000E+00 0.  1.
</event>
<event>
 7    1  0.2612321E-009  0.2041560E+03  0.7561462E-02  0.1146279E+00
         -2   -1    0    0    0  501 -0.00000000000E+00  0.00000000000E+00  0.19761329130E+04  0.19761329130E+04  0.00000000000E+00 0.  1.
          2   -1    0    0  501    0  0.00000000000E+00 -0.00000000000E+00 -0.24335824231E+02  0.24335824231E+02  0.00000000000E+00 0. -1.
         25    2    1    2    0    0 -0.67473985612E+02  0.17690088362E+03  0.98860296621E+03  0.10143133841E+04  0.12509658307E+03 0.  0.
          5    1    3    3  502    0 -0.79531124671E+02  0.79227466317E+02  0.70949399444E+03  0.71833236858E+03  0.41800000000E+01 0. -1.
         -5    1    3    3    0  502  0.12057139059E+02  0.97673417299E+02  0.27910897177E+03  0.29598101556E+03  0.41800000000E+01 0. -1.
        -11    1    1    2    0    0  0.33887106436E+02 -0.15181268835E+03  0.87228676547E+03  0.88604719374E+03  0.00000000000E+00 0.  1.
         11    1    1    2    0    0  0.33586879176E+02 -0.25088195267E+02  0.90907357102E+02  0.10010815936E+03  0.00000000000E+00 0. -1.
</event>
<event>
 7    1  0.2612321E-009  0.9333473E+02  0.7561462E-02  0.1294971E+00
         -2   -1    0    0    0  501 -0.00000000000E+00  0.00000000000E+00  0.25136403311E+02  0.25136403311E+02  0.00000000000E+00 0.  1.
          2   -1    0    0  501    0  0.00000000000E+00 -0.00000000000E+00 -0.68824903246E+03  0.68824903246E+03  0.00000000000E+00 0. -1.
         25    2    1    2    0    0 -0.12053864937E+02 -0.70558850512E+02 -0.42778501447E+03  0.45140975925E+03  0.12508758969E+03 0.  0.
          5    1    3    3  502    0 -0.17352735219E+02 -0.24565259116E+02 -0.11394868559E+02  0.32432773618E+02  0.41800000000E+01 0. -1.
         -5    1    3    3    0  502  0.52988702827E+01 -0.45993591396E+02 -0.41639014591E+03  0.41897698563E+03  0.41800000000E+01 0. -1.
        -11    1    1    2    0    0  0.42330670991E+02  0.12168501859E+02 -0.57896534338E+02  0.72745905949E+02  0.00000000000E+00 0.  1.
         11    1    1    2    0    0 -0.30276806054E+02  0.58390348654E+02 -0.17743108034E+03  0.18922977057E+03  0.00000000000E+00 0. -1.
</event>
<event>
 7    1  0.3103489E-009  0.2392463E+03  0.7561462E-02  0.1120296E+00
          2   -1    0    0  501    0  0.00000000000E+00  0.00000000000E+00  0.63535123655E+03  0.63535123655E+03  0.00000000000E+00 0. -1.
         -2   -1    0    0    0  501 -0.00000000000E+00 -0.00000000000E+00 -0.91259735570E+02  0.91259735570E+02  0.00000000000E+00 0.  1.
         25    2    1    2    0    0  0.91244264704E+02 -0.19397920030E+03  0.26721221751E+03  0.36469167054E+03  0.12507677397E+03 0.  0.
          5    1    3    3  502    0  0.73727201215E+02 -0.27510180114E+02  0.64983400319E+02  0.10214120092E+03  0.41800000000E+01 0. -1.
         -5    1    3    3    0  502  0.17517063489E+02 -0.16646902019E+03  0.20222881719E+03  0.26255046962E+03  0.41800000000E+01 0. -1.
        -11    1    1    2    0    0 -0.40928541730E+01  0.11365114995E+03  0.12039037413E+03  0.16561152594E+03  0.00000000000E+00 0. -1.
         11    1    1    2    0    0 -0.87151410531E+02  0.80328050348E+02  0.15648890935E+03  0.19630777565E+03  0.00000000000E+00 0.  1.
</event>
<event>
 7    1  0.2612321E-009  0.1083565E+03  0.7561462E-02  0.1263644E+00
         -1   -1    0    0    0  501 -0.00000000000E+00  0.00000000000E+00  0.44790308038E+03  0.44790308038E+03  0.00000000000E+00 0.  1.
          1   -1    0    0  501    0  0.00000000000E+00 -0.00000000000E+00 -0.29777665858E+02  0.29777665858E+02  0.00000000000E+00 0. -1.
         25    2    1    2    0    0  0.21454248289E+02  0.33059131783E+02  0.23910498844E+03  0.27271242090E+03  0.12509067933E+03 0.  0.
          5    1    3    3  502    0 -0.39561802758E+02  0.49099169020E+02  0.83225940453E+02  0.10449829760E+03  0.41800000000E+01 0. -1.
         -5    1    3    3    0  502  0.61016051047E+02 -0.16040037238E+02  0.15587904798E+03  0.16821412331E+03  0.41800000000E+01 0. -1.
        -11    1    1    2    0    0 -0.52703416883E+02 -0.18959785221E+02  0.64490596615E+02  0.85417566452E+02  0.00000000000E+00 0. -1.
         11    1    1    2    0    0  0.31249168594E+02 -0.14099346562E+02  0.11452982947E+03  0.11955075888E+03  0.00000000000E+00 0.  1.
</event>
<event>
 7    1  0.2612321E-009  0.1027137E+03  0.7561462E-02  0.1274691E+00
         -1   -1    0    0    0  501 -0.00000000000E+00  0.00000000000E+00  0.29632273047E+02  0.29632273047E+02  0.00000000000E+00 0.  1.
          1   -1    0    0  501    0  0.00000000000E+00 -0.00000000000E+00 -0.63601957671E+03  0.63601957671E+03  0.00000000000E+00 0. -1.
         25    2    1    2    0    0  0.53352328078E+02 -0.65583060446E+01 -0.17705714093E+03  0.22335193980E+03  0.12508947025E+03 0.  0.
          5    1    3    3  502    0  0.68026252814E+02 -0.28108443386E+02 -0.18211129555E+03  0.19646794148E+03  0.41800000000E+01 0.  1.
         -5    1    3    3    0  502 -0.14673924737E+02  0.21550137341E+02  0.50541546202E+01  0.26883998317E+02  0.41800000000E+01 0.  1.
        -11    1    1    2    0    0  0.14551344389E+02  0.30098243538E+02 -0.10925183371E+03  0.11425239191E+03  0.00000000000E+00 0.  1.
         11    1    1    2    0    0 -0.67903672467E+02 -0.23539937494E+02 -0.32007832903E+03  0.32804751806E+03  0.00000000000E+00 0. -1.
</event>
<event>
 7    1  0.2612321E-009  0.1116842E+03  0.7561462E-02  0.1257482E+00
         -2   -1    0    0    0  501 -0.00000000000E+00  0.00000000000E+00  0.25039038998E+03  0.25039038998E+03  0.00000000000E+00 0.  1.
          2   -1    0    0  501    0  0.00000000000E+00 -0.00000000000E+00 -0.55696312301E+02  0.55696312301E+02  0.00000000000E+00 0. -1.
         25    2    1    2    0    0 -0.37678508996E+02 -0.74143784224E+01  0.74138184776E+02  0.15039477044E+03  0.12508986165E+03 0.  0.
          5    1    3    3  502    0  0.44327952007E+02  0.61336282952E+01  0.40935444258E+02  0.60792859135E+02  0.41800000000E+01 0. -1.
         -5    1    3    3    0  502 -0.82006461004E+02 -0.13548006718E+02  0.33202740518E+02  0.89601911309E+02  0.41800000000E+01 0. -1.
        -11    1    1    2    0    0  0.45757774757E+02 -0.31437884519E+02  0.89417341722E+02  0.10525006192E+03  0.00000000000E+00 0.  1.
         11    1    1    2    0    0 -0.80792657607E+01  0.38852262942E+02  0.31138551177E+02  0.50441869913E+02  0.00000000000E+00 0. -1.
</event>
<event>
 7    1  0.2612321E-009  0.9388079E+02  0.7561462E-02  0.1293717E+00
          2   -1    0    0  501    0  0.00000000000E+00  0.00000000000E+00  0.31623339938E+03  0.31623339938E+03  0.00000000000E+00 0. -1.
         -2   -1    0    0    0  501 -0.00000000000E+00 -0.00000000000E+00 -0.56530976774E+02  0.56530976774E+02  0.00000000000E+00 0.  1.
         25    2    1    2    0    0 -0.12730247050E+02  0.77270889118E+02  0.13189200214E+03  0.19792921223E+03  0.12509046058E+03 0.  0.
          5    1    3    3  502    0  0.21157972201E+02  0.36009539059E+02 -0.12605211450E+02  0.43825910676E+02  0.41800000000E+01 0.  1.
         -5    1    3    3    0  502 -0.33888219251E+02  0.41261350059E+02  0.14449721359E+03  0.15410330155E+03  0.41800000000E+01 0.  1.
        -11    1    1    2    0    0 -0.62151789056E+01 -0.72403228219E+02  0.36250950356E+02  0.81209527194E+02  0.00000000000E+00 0.  1.
         11    1    1    2    0    0  0.18945425956E+02 -0.48676608989E+01  0.91559470114E+02  0.93625636739E+02  0.00000000000E+00 0. -1.
</event>
<event>
 7    1  0.2612321E-009  0.1193307E+03  0.7561462E-02  0.1244205E+00
         -1   -1    0    0    0  501 -0.00000000000E+00  0.00000000000E+00  0.35323481202E+02  0.35323481202E+02  0.00000000000E+00 0.  1.
          1   -1    0    0  501    0  0.00000000000E+00 -0.00000000000E+00 -0.46709788480E+03  0.46709788480E+03  0.00000000000E+00 0. -1.
         25    2    1    2    0    0 -0.28787151075E+02 -0.50918523356E+02 -0.17092985154E+03  0.21974154336E+03  0.12509170892E+03 0.  0.
          5    1    3    3  502    0 -0.20943589968E+02 -0.92356998267E+02 -0.10599477470E+03  0.14219990771E+03  0.41800000000E+01 0. -1.
         -5    1    3    3    0  502 -0.78435611071E+01  0.41438474911E+02 -0.64935076848E+02  0.77541635649E+02  0.41800000000E+01 0. -1.
        -11    1    1    2    0    0  0.53105044389E+02  0.10225148432E+02 -0.18915323985E+03  0.19673242627E+03  0.00000000000E+00 0. -1.
         11    1    1    2    0    0 -0.24317893314E+02  0.40693374924E+02 -0.71691312205E+02  0.85947396375E+02  0.00000000000E+00 0.  1.
</event>
<event>
 7    1  0.2612321E-009  0.1090353E+03  0.7561462E-02  0.1262367E+00
         -3   -1    0    0    0  501 -0.00000000000E+00  0.00000000000E+00  0.10565981750E+03  0.10565981750E+03  0.00000000000E+00 0.  1.
          3   -1    0    0  501    0  0.00000000000E+00 -0.00000000000E+00 -0.16003921469E+03  0.16003921469E+03  0.00000000000E+00 0. -1.
         25    2    1    2    0    0  0.51542251005E+02  0.50769351449E+02 -0.20845524178E+02  0.14600178955E+03  0.12509139054E+03 0.  0.
          5    1    3    3  502    0  0.81168840918E+02  0.17051152385E+02 -0.45424698729E+02  0.94657266960E+02  0.41800000000E+01 0. -1.
         -5    1    3    3    0  502 -0.29626589913E+02  0.33718199064E+02  0.24579174551E+02  0.51344522586E+02  0.41800000000E+01 0. -1.
        -11    1    1    2    0    0 -0.21485176472E+02 -0.55504755160E+02  0.15939757977E+02  0.61615473201E+02  0.00000000000E+00 0.  1.
         11    1    1    2    0    0 -0.30057074533E+02  0.47354037111E+01 -0.49473630988E+02  0.58081769437E+02  0.00000000000E+00 0. -1.
</event>
<event>
 6    1  0.2612321E-009  0.8560829E+02  0.7561462E-02  0.1313849E+00
         -1   -1    0    0    0  501 -0.00000000000E+00  0.00000000000E+00  0.21034561741E+02  0.21034561741E+02  0.00000000000E+00 0.  1.
          1   -1    0    0  501    0  0.00000000000E+00 -0.00000000000E+00 -0.72411629255E+03  0.72411629255E+03  0.00000000000E+00 0. -1.
          5    1    1    2  502    0  0.50178926067E+02  0.62385973189E+00 -0.50314279166E+03  0.50565645949E+03  0.41800000000E+01 0.  1.
         -5    1    1    2    0  502 -0.91010841901E+01 -0.18731752997E+02 -0.84251475447E+01  0.22850904028E+02  0.41800000000E+01 0.  1.
        -11    1    1    2    0    0  0.27087276726E+02 -0.51945985501E+01 -0.71945154802E+02  0.77050695740E+02  0.00000000000E+00 0. -1.
         11    1    1    2    0    0 -0.68165118603E+02  0.23302491815E+02 -0.11956863681E+03  0.13959279504E+03  0.00000000000E+00 0.  1.
</event>
<event>
 7    1  0.2612321E-009  0.1272723E+03  0.7561462E-02  0.1231560E+00
          4   -1    0    0  501    0  0.00000000000E+00  0.00000000000E+00  0.12413365599E+03  0.12413365599E+03  0.00000000000E+00 0.  1.
         -4   -1    0    0    0  501 -0.00000000000E+00 -0.00000000000E+00 -0.21188162031E+03  0.21188162031E+03  0.00000000000E+00 0. -1.
         25    2    1    2    0    0  0.98137846419E+02  0.58907471754E+02 -0.19825626270E+01  0.16956558508E+03  0.12508968767E+03 0.  0.
          5    1    3    3  502    0  0.76289410368E+02 -0.27716401796E+00  0.46895861151E+02  0.89648453122E+02  0.41800000000E+01 0.  1.
         -5    1    3    3    0  502  0.21848436051E+02  0.59184635772E+02 -0.48878423777E+02  0.79917131958E+02  0.41800000000E+01 0.  1.
        -11    1    1    2    0    0 -0.29168609542E+02 -0.12204119973E+02  0.15595057617E+02  0.35255554867E+02  0.00000000000E+00 0. -1.
         11    1    1    2    0    0 -0.68969236877E+02 -0.46703351782E+02 -0.10136045931E+03  0.13119413635E+03  0.00000000000E+00 0.  1.
</event>
<event>
 7    1  0.2612321E-009  0.1050025E+03  0.7561462E-02  0.1270115E+00
         -2   -1    0    0    0  501 -0.00000000000E+00  0.00000000000E+00  0.11981550278E+03  0.11981550278E+03  0.00000000000E+00 0.  1.
          2   -1    0    0  501    0  0.00000000000E+00 -0.00000000000E+00 -0.13203239737E+03  0.13203239737E+03  0.00000000000E+00 0. -1.
         25    2    1    2    0    0  0.16174449917E+02  0.70050353327E+01  0.52869552293E+02  0.13695220888E+03  0.12510009835E+03 0.  0.
          5    1    3    3  502    0  0.13854196756E+02 -0.55601053621E+02  0.43803195494E+01  0.57620096588E+02  0.41800000000E+01 0.  1.
         -5    1    3    3    0  502  0.23202531611E+01  0.62606088953E+02  0.48489232744E+02  0.79332112293E+02  0.41800000000E+01 0.  1.
        -11    1    1    2    0    0 -0.13993693695E+02  0.40170101242E+02 -0.49269528953E+02  0.65091834974E+02  0.00000000000E+00 0. -1.
         11    1    1    2    0    0 -0.21807562226E+01 -0.47175136574E+02 -0.15816917931E+02  0.49803856290E+02  0.00000000000E+00 0.  1.
</event>
<event>
 7    1  0.2612321E-009  0.9708055E+02  0.7561462E-02  0.1286558E+00
         -3   -1    0    0    0  501 -0.00000000000E+00  0.00000000000E+00  0.21332925048E+03  0.21332925048E+03  0.00000000000E+00 0.  1.
          3   -1    0    0  501    0  0.00000000000E+00 -0.00000000000E+00 -0.76348364906E+02  0.76348364906E+02  0.00000000000E+00 0. -1.
         25    2    1    2    0    0 -0.38087625569E+02  0.48758341892E+02  0.11180511908E+03  0.17881284560E+03  0.12508239673E+03 0.  0.
          5    1    3    3  502    0 -0.54320920121E+02  0.47181584164E+02  0.13328357611E+03  0.15152177502E+03  0.41800000000E+01 0.  1.
         -5    1    3    3    0  502  0.16233294552E+02  0.15767577276E+01 -0.21478457022E+02  0.27291070572E+02  0.41800000000E+01 0.  1.
        -11    1    1    2    0    0 -0.26734173099E+02 -0.54210203554E+01  0.17734150014E+02  0.32536188309E+02  0.00000000000E+00 0.  1.
         11    1    1    2    0    0  0.64821798668E+02 -0.43337321537E+02  0.74416164725E+01  0.78328581477E+02  0.00000000000E+00 0. -1.
</event>
<event>
 7    1  0.2612321E-009  0.1308927E+03  0.7561462E-02  0.1226137E+00
         -1   -1    0    0    0  501 -0.00000000000E+00  0.00000000000E+00  0.48795806216E+02  0.48795806216E+02  0.00000000000E+00 0.  1.
          1   -1    0    0  501    0  0.00000000000E+00 -0.00000000000E+00 -0.39624351260E+03  0.39624351260E+03  0.00000000000E+00 0. -1.
         25    2    1    2    0    0  0.42738145150E+02  0.76453506492E+02 -0.24727015973E+03  0.29062388771E+03  0.12509206413E+03 0.  0.
          5    1    3    3  502    0  0.19544958463E+02 -0.32633550063E+02 -0.40911927665E+02  0.56019748449E+02  0.41800000000E+01 0. -1.
         -5    1    3    3    0  502  0.23193186687E+02  0.10908705656E+03 -0.20635823207E+03  0.23460413926E+03  0.41800000000E+01 0. -1.
        -11    1    1    2    0    0 -0.57993046457E+02 -0.34984710111E+02 -0.36581310447E+02  0.76976071950E+02  0.00000000000E+00 0. -1.
         11    1    1    2    0    0  0.15254901307E+02 -0.41468796381E+02 -0.63596236212E+02  0.77439359163E+02  0.00000000000E+00 0.  1.
</event>
<event>
 7    1  0.2612321E-009  0.1719243E+03  0.7561462E-02  0.1175856E+00
          1   -1    0    0  501    0  0.00000000000E+00  0.00000000000E+00  0.23252045185E+03  0.23252045185E+03  0.00000000000E+00 0. -1.
         -1   -1    0    0    0  501 -0.00000000000E+00 -0.00000000000E+00 -0.14098945278E+03  0.14098945278E+03  0.00000000000E+00 0.  1.
         25    2    1    2    0    0  0.11509528331E+03  0.67661200304E+02 -0.86884339561E+01  0.18316121511E+03  0.12509028567E+03 0.  0.
          5    1    3    3  502    0  0.11649825566E+03  0.98001633393E+02 -0.69724598894E+01  0.15245409577E+03  0.41800000000E+01 0. -1.
         -5    1    3    3    0  502 -0.14029723486E+01 -0.30340433088E+02 -0.17159740667E+01  0.30707119344E+02  0.41800000000E+01 0. -1.
        -11    1    1    2    0    0  0.37202207233E+01  0.15452994961E+02  0.42059011073E+01  0.16441554052E+02  0.00000000000E+00 0. -1.
         11    1    1    2    0    0 -0.11881550404E+03 -0.83114195266E+02  0.96013531925E+02  0.17390713547E+03  0.00000000000E+00 0.  1.
</event>
<event>
 7    1  0.2612321E-009  0.9125286E+02  0.7561462E-02  0.1299846E+00
          1   -1    0    0  501    0  0.00000000000E+00  0.00000000000E+00  0.49316312185E+03  0.49316312185E+03  0.00000000000E+00 0. -1.
         -1   -1    0    0    0  501 -0.00000000000E+00 -0.00000000000E+00 -0.38719917618E+02  0.38719917618E+02  0.00000000000E+00 0.  1.
         25    2    1    2    0    0  0.72840293111E+01 -0.42567256046E+02  0.10707400649E+03  0.17022758638E+03  0.12509020716E+03 0.  0.
          5    1    3    3  502    0 -0.10054054725E+02  0.17337888230E+02 -0.19995417318E+02  0.28617747963E+02  0.41800000000E+01 0.  1.
         -5    1    3    3    0  502  0.17338084037E+02 -0.59905144277E+02  0.12706942381E+03  0.14160983841E+03  0.41800000000E+01 0.  1.
        -11    1    1    2    0    0 -0.13231678561E+02  0.70111740382E+02  0.22310249486E+03  0.23423376501E+03  0.00000000000E+00 0. -1.
         11    1    1    2    0    0  0.59476492499E+01 -0.27544484335E+02  0.12426670289E+03  0.12742168809E+03  0.00000000000E+00 0.  1.
</event>
<event>
 7    1  0.2612321E-009  0.7349067E+02  0.7561462E-02  0.1348610E+00
         -1   -1    0    0    0  501 -0.00000000000E+00  0.00000000000E+00  0.68849619313E+02  0.68849619313E+02  0.00000000000E+00 0.  1.
          1   -1    0    0  501    0  0.00000000000E+00 -0.00000000000E+00 -0.15785805279E+03  0.15785805279E+03  0.00000000000E+00 0. -1.
         25    2    1    2    0    0  0.18385281023E+02 -0.25748290993E+01 -0.56492824530E+02  0.13850020913E+03  0.12508485281E+03 0.  0.
          5    1    3    3  502    0  0.49036682427E+02 -0.24987993759E+02 -0.77313193185E+02  0.94993675031E+02  0.41800000000E+01 0.  1.
         -5    1    3    3    0  502 -0.30651401404E+02  0.22413164659E+02  0.20820368654E+02  0.43506534095E+02  0.41800000000E+01 0.  1.
        -11    1    1    2    0    0 -0.26254315868E+02  0.20954888742E+02 -0.50940280819E+02  0.61018920621E+02  0.00000000000E+00 0. -1.
         11    1    1    2    0    0  0.78690348443E+01 -0.18380059642E+02  0.18424671872E+02  0.27188542356E+02  0.00000000000E+00 0.  1.
</event>
<event>
 7    1  0.2612321E-009  0.1303007E+03  0.7561462E-02  0.1227010E+00
         -3   -1    0    0    0  501 -0.00000000000E+00  0.00000000000E+00  0.88591339903E+02  0.88591339903E+02  0.00000000000E+00 0.  1.
          3   -1    0    0  501    0  0.00000000000E+00 -0.00000000000E+00 -0.28405175167E+03  0.28405175167E+03  0.00000000000E+00 0. -1.
         25    2    1    2    0    0 -0.35088936874E+02  0.67738775304E+02 -0.38133442366E+01  0.14656339060E+03  0.12508601320E+03 0.  0.
          5    1    3    3  502    0  0.43295875560E+02  0.48219724608E+02  0.53490706221E+01  0.65159493846E+02  0.41800000000E+01 0.  1.
         -5    1    3    3    0  502 -0.78384812434E+02  0.19519050697E+02 -0.91624148587E+01  0.81403896752E+02  0.41800000000E+01 0.  1.
        -11    1    1    2    0    0  0.30746377270E+02  0.13386263318E+02 -0.29262947027E+02  0.44506761616E+02  0.00000000000E+00 0.  1.
         11    1    1    2    0    0  0.43425596039E+01 -0.81125038622E+02 -0.16238412050E+03  0.18157293936E+03  0.00000000000E+00 0. -1.
</event>
<event>
 7    1  0.2612321E-009  0.1178465E+03  0.7561462E-02  0.1246693E+00
         -2   -1    0    0    0  501 -0.00000000000E+00  0.00000000000E+00  0.23018275721E+02  0.23018275721E+02  0.00000000000E+00 0.  1.
          2   -1    0    0  501    0  0.00000000000E+00 -0.00000000000E+00 -0.66850922362E+03  0.66850922362E+03  0.00000000000E+00 0. -1.
         25    2    1    2    0    0 -0.23030123002E+02 -0.55241514498E+02 -0.40639229645E+03  0.42939956483E+03  0.12508907295E+03 0.  0.
          5    1    3    3  502    0  0.44656366387E+02 -0.36693786371E+02 -0.26775679109E+03  0.27395582963E+03  0.41800000000E+01 0.  1.
         -5    1    3    3    0  502 -0.67686489389E+02 -0.18547728127E+02 -0.13863550536E+03  0.15544373520E+03  0.41800000000E+01 0.  1.
        -11    1    1    2    0    0  0.28948374862E+02 -0.17914181536E+02 -0.75569214427E+02  0.82883246053E+02  0.00000000000E+00 0.  1.
         11    1    1    2    0    0 -0.59182518601E+01  0.73155696034E+02 -0.16352943702E+03  0.17924468845E+03  0.00000000000E+00 0. -1.
</event>
<event>
 7    1  0.2612321E-009  0.1037101E+03  0.7561462E-02  0.1272682E+00
         -2   -1    0    0    0  501 -0.00000000000E+00  0.00000000000E+00  0.10394158015E+03  0.10394158015E+03  0.00000000000E+00 0.  1.
          2   -1    0    0  501    0  0.00000000000E+00 -0.00000000000E+00 -0.13395575209E+03  0.13395575209E+03  0.00000000000E+00 0. -1.
         25    2    1    2    0    0 -0.17803362309E+02  0.36988034482E+02 -0.45025196078E+02  0.13914189730E+03  0.12509246540E+03 0.  0.
          5    1    3    3  502    0  0.35530981353E+02 -0.26670610685E+02 -0.32147851085E+02  0.54997534850E+02  0.41800000000E+01 0.  1.
         -5    1    3    3    0  502 -0.53334343662E+02  0.63658645168E+02 -0.12877344993E+02  0.84144362452E+02  0.41800000000E+01 0.  1.
        -11    1    1    2    0    0 -0.13530352271E+02 -0.45257813676E+02  0.36650575153E+02  0.59787998715E+02  0.00000000000E+00 0.  1.
         11    1    1    2    0    0  0.31333714580E+02  0.82697791941E+01 -0.21639551015E+02  0.38967436219E+02  0.00000000000E+00 0. -1.
</event>
<event>
 7    1  0.2612321E-009  0.1612407E+03  0.7561462E-02  0.1187303E+00
          2   -1    0    0  501    0  0.00000000000E+00  0.00000000000E+00  0.76589123827E+03  0.76589123827E+03  0.00000000000E+00 0. -1.
         -2   -1    0    0    0  501 -0.00000000000E+00 -0.00000000000E+00 -0.45251404546E+02  0.45251404546E+02  0.00000000000E+00 0.  1.
         25    2    1    2    0    0 -0.39131997297E+02 -0.14719081739E+03  0.43147926832E+03  0.47435820294E+03  0.12507955775E+03 0.  0.
          5    1    3    3  502    0 -0.39835874477E+02 -0.10104618562E+03  0.13052440518E+03  0.16985676693E+03  0.41800000000E+01 0. -1.
         -5    1    3    3    0  502  0.70387718009E+00 -0.46144631769E+02  0.30095486314E+03  0.30450143601E+03  0.41800000000E+01 0. -1.
        -11    1    1    2    0    0  0.36150545736E+02  0.22204762690E+02  0.11354862890E+03  0.12121552940E+03  0.00000000000E+00 0. -1.
         11    1    1    2    0    0  0.29814515609E+01  0.12498605470E+03  0.17561193650E+03  0.21556891047E+03  0.00000000000E+00 0.  1.
</event>
<event>
 7    1  0.2612321E-009  0.1189476E+03  0.7561462E-02  0.1244843E+00
          2   -1    0    0  501    0  0.00000000000E+00  0.00000000000E+00  0.79328520930E+03  0.79328520930E+03  0.00000000000E+00 0. -1.
         -2   -1    0    0    0  501 -0.00000000000E+00 -0.00000000000E+00 -0.29394296948E+02  0.29394296948E+02  0.00000000000E+00 0.  1.
         25    2    1    2    0    0  0.57570332923E+02  0.48835454521E+02  0.62039597899E+03  0.63736896966E+03  0.12509511538E+03 0.  0.
          5    1    3    3  502    0  0.60710266434E+02 -0.23506913846E+02  0.40160539397E+03  0.40686936025E+03  0.41800000000E+01 0. -1.
         -5    1    3    3    0  502 -0.31399335117E+01  0.72342368367E+02  0.21879058502E+03  0.23049960941E+03  0.41800000000E+01 0. -1.
        -11    1    1    2    0    0 -0.72285956232E+02 -0.44065701126E+02  0.68968878934E+02  0.10919593283E+03  0.00000000000E+00 0.  1.
         11    1    1    2    0    0  0.14715623310E+02 -0.47697533955E+01  0.74526054432E+02  0.76114603764E+02  0.00000000000E+00 0. -1.
</event>
<event>
 7    1  0.2612321E-009  0.8211051E+02  0.7561462E-02  0.1323167E+00
          1   -1    0    0  501    0  0.00000000000E+00  0.00000000000E+00  0.15909229994E+03  0.15909229994E+03  0.00000000000E+00 0. -1.
         -1   -1    0    0    0  501 -0.00000000000E+00 -0.00000000000E+00 -0.95147993086E+02  0.95147993086E+02  0.00000000000E+00 0.  1.
         25    2    1    2    0    0 -0.80447458735E+01  0.51519751671E+02  0.56064190787E+02  0.14666149041E+03  0.12508955405E+03 0.  0.
          5    1    3    3  502    0  0.10577980368E+02  0.16554264929E+02 -0.38845539172E+02  0.43730832025E+02  0.41800000000E+01 0.  1.
         -5    1    3    3    0  502 -0.18622726242E+02  0.34965486742E+02  0.94909729959E+02  0.10293065839E+03  0.41800000000E+01 0.  1.
        -11    1    1    2    0    0 -0.38962584452E+02 -0.40129986726E+02 -0.83672097580E+01  0.56555362442E+02  0.00000000000E+00 0. -1.
         11    1    1    2    0    0  0.47007330326E+02 -0.11389764945E+02  0.16247325820E+02  0.51023440164E+02  0.00000000000E+00 0.  1.
</event>
<event>
 7    1  0.2612321E-009  0.1049794E+03  0.7561462E-02  0.1270160E+00
         -2   -1    0    0    0  501 -0.00000000000E+00  0.00000000000E+00  0.29604440873E+02  0.29604440873E+02  0.00000000000E+00 0.  1.
          2   -1    0    0  501    0  0.00000000000E+00 -0.00000000000E+00 -0.47053446581E+03  0.47053446581E+03  0.00000000000E+00 0. -1.
         25    2    1    2    0    0 -0.35000869290E+02 -0.16067609298E+02 -0.30441896680E+03  0.33136387933E+03  0.12509150355E+03 0.  0.
          5    1    3    3  502    0 -0.63978676919E+02  0.33823281952E+02 -0.15410126068E+03  0.17029960789E+03  0.41800000000E+01 0.  1.
         -5    1    3    3    0  502  0.28977807630E+02 -0.49890891250E+02 -0.15031770612E+03  0.16106427145E+03  0.41800000000E+01 0.  1.
        -11    1    1    2    0    0 -0.21242006198E+02  0.43247092596E+00 -0.10514568541E+01  0.21272409829E+02  0.00000000000E+00 0.  1.
         11    1    1    2    0    0  0.56242875488E+02  0.15635138372E+02 -0.13545960128E+03  0.14750261752E+03  0.00000000000E+00 0. -1.
</event>
<event>
 7    1  0.2612321E-009  0.1639342E+03  0.7561462E-02  0.1184325E+00
         -2   -1    0    0    0  501 -0.00000000000E+00  0.00000000000E+00  0.18074271244E+03  0.18074271244E+03  0.00000000000E+00 0.  1.
          2   -1    0    0  501    0  0.00000000000E+00 -0.00000000000E+00 -0.27207972843E+03  0.27207972843E+03  0.00000000000E+00 0. -1.
         25    2    1    2    0    0  0.11479328664E+03 -0.98565269618E+02  0.74745271210E+02  0.21006517533E+03  0.12509161157E+03 0.  0.
          5    1    3    3  502    0  0.10824438422E+03 -0.37752614526E+02  0.17344745278E+01  0.11472832005E+03  0.41800000000E+01 0. -1.
         -5    1    3    3    0  502  0.65489024204E+01 -0.60812655092E+02  0.73010796682E+02  0.95336855279E+02  0.41800000000E+01 0. -1.
        -11    1    1    2    0    0 -0.38154679493E+02  0.40917616152E+02 -0.61595634941E+01  0.56284732399E+02  0.00000000000E+00 0.  1.
         11    1    1    2    0    0 -0.76638607151E+02  0.57647653466E+02 -0.15992272371E+03  0.18647253314E+03  0.00000000000E+00 0. -1.
</event>
<event>
 7    1  0.2612321E-009  0.1549199E+03  0.7561462E-02  0.1194555E+00
          1   -1    0    0  501    0  0.00000000000E+00  0.00000000000E+00  0.13837708043E+03  0.13837708043E+03  0.00000000000E+00 0. -1.
         -1   -1    0    0    0  501 -0.00000000000E+00 -0.00000000000E+00 -0.18730876650E+03  0.18730876650E+03  0.00000000000E+00 0.  1.
         25    2    1    2    0    0  0.10444843522E+03  0.43591458946E+02 -0.61452274957E+02  0.17954326653E+03  0.12509880714E+03 0.  0.
          5    1    3    3  502    0  0.12864957749E+03  0.19649659883E+02 -0.64122201809E+02  0.14514114539E+03  0.41800000000E+01 0.  1.
         -5    1    3    3    0  502 -0.24201142272E+02  0.23941799063E+02  0.26699268512E+01  0.34402121141E+02  0.41800000000E+01 0.  1.
        -11    1    1    2    0    0 -0.81900407492E+02  0.14359525771E+02  0.27381364856E+01  0.83194772186E+02  0.00000000000E+00 0.  1.
         11    1    1    2    0    0 -0.22548027725E+02 -0.57950984717E+02  0.97824523979E+01  0.62947808214E+02  0.00000000000E+00 0. -1.
</event>
<event>
 7    1  0.2612321E-009  0.2021391E+03  0.7561462E-02  0.1147947E+00
          2   -1    0    0  501    0  0.00000000000E+00  0.00000000000E+00  0.61796727440E+03  0.61796727440E+03  0.00000000000E+00 0. -1.
         -2   -1    0    0    0  501 -0.00000000000E+00 -0.00000000000E+00 -0.77661500063E+02  0.77661500063E+02  0.00000000000E+00 0.  1.
         25    2    1    2    0    0 -0.18835313768E+03 -0.68078954232E+01  0.32640391332E+03  0.39712810679E+03  0.12509183291E+03 0.  0.
          5    1    3    3  502    0 -0.17172554321E+03  0.11550058427E+02  0.18189477347E+03  0.25045208535E+03  0.41800000000E+01 0. -1.
         -5    1    3    3    0  502 -0.16627594471E+02 -0.18357953850E+02  0.14450913985E+03  0.14667602144E+03  0.41800000000E+01 0. -1.
        -11    1    1    2    0    0  0.51364143178E+02  0.41094593655E+02  0.53459677123E+02  0.84764249010E+02  0.00000000000E+00 0.  1.
         11    1    1    2    0    0  0.13698899450E+03 -0.34286698232E+02  0.16044218390E+03  0.21373641867E+03  0.00000000000E+00 0. -1.
</event>
<event>
 7    1  0.2612321E-009  0.1090227E+03  0.7561462E-02  0.1262390E+00
         -1   -1    0    0    0  501 -0.00000000000E+00  0.00000000000E+00  0.45525948237E+02  0.45525948237E+02  0.00000000000E+00 0. -1.
          1   -1    0    0  501    0  0.00000000000E+00 -0.00000000000E+00 -0.56511613470E+03  0.56511613470E+03  0.00000000000E+00 0.  1.
         25    2    1    2    0    0  0.93574202452E+02  0.12770678978E+02 -0.36632935006E+03  0.39845134595E+03  0.12508821197E+03 0.  0.
          5    1    3    3  502    0  0.20494971473E+02 -0.14648747665E+02 -0.28318344682E+03  0.28433249307E+03  0.41800000000E+01 0.  1.
         -5    1    3    3    0  502  0.73079230979E+02  0.27419426643E+02 -0.83145903238E+02  0.11411885288E+03  0.41800000000E+01 0.  1.
        -11    1    1    2    0    0 -0.38053457982E+01 -0.23617141357E+02  0.97088476704E+01  0.25816888767E+02  0.00000000000E+00 0. -1.
         11    1    1    2    0    0 -0.89768856654E+02  0.10846462379E+02 -0.16296968407E+03  0.18637384821E+03  0.00000000000E+00 0.  1.
</event>
<event>
 7    1  0.2612321E-009  0.1154594E+03  0.7561462E-02  0.1250781E+00
          1   -1    0    0  501    0  0.00000000000E+00  0.00000000000E+00  0.11042018459E+03  0.11042018459E+03  0.00000000000E+00 0. -1.
         -1   -1    0    0    0  501 -0.00000000000E+00 -0.00000000000E+00 -0.15924795340E+03  0.15924795340E+03  0.00000000000E+00 0.  1.
         25    2    1    2    0    0 -0.68855509118E+02  0.14460872364E+02 -0.30557342495E+00  0.14351779209E+03  0.12508823009E+03 0.  0.
          5    1    3    3  502    0 -0.10398493380E+03  0.10028613231E+02 -0.13671336899E+02  0.10544106123E+03  0.41800000000E+01 0.  1.
         -5    1    3    3    0  502  0.35129424683E+02  0.44322591332E+01  0.13365763475E+02  0.38076730859E+02  0.41800000000E+01 0.  1.
        -11    1    1    2    0    0 -0.20632926040E+01 -0.19506997132E+02  0.19567441377E+02  0.27706765880E+02  0.00000000000E+00 0. -1.
         11    1    1    2    0    0  0.70918801722E+02  0.50461247674E+01 -0.68089636766E+02  0.98443580023E+02  0.00000000000E+00 0.  1.
</event>
<event>
 7    1  0.2790801E-009  0.1227635E+03  0.7561462E-02  0.1238607E+00
          2   -1    0    0  501    0  0.00000000000E+00  0.00000000000E+00  0.24416025401E+03  0.24416025401E+03  0.00000000000E+00 0. -1.
         -2   -1    0    0    0  501 -0.00000000000E+00 -0.00000000000E+00 -0.10539460747E+03  0.10539460747E+03  0.00000000000E+00 0.  1.
         25    2    1    2    0    0 -0.72965564113E+02 -0.43476632271E+02  0.16304589248E+03  0.22236314764E+03  0.12508882954E+03 0.  0.
          5    1    3    3  502    0 -0.10832898750E+03 -0.30299909357E+02  0.11249673816E+03  0.15914220853E+03  0.41800000000E+01 0. -1.
         -5    1    3    3    0  502  0.35363423383E+02 -0.13176722914E+02  0.50549154315E+02  0.63220939111E+02  0.41800000000E+01 0. -1.
        -11    1    1    2    0    0  0.57376770352E+02  0.51818647973E+02 -0.52809902279E+02  0.93627730040E+02  0.00000000000E+00 0.  1.
         11    1    1    2    0    0  0.15588793762E+02 -0.83420157018E+01  0.28529656347E+02  0.33563983795E+02  0.00000000000E+00 0. -1.
</event>
<event>
 7    1  0.2612321E-009  0.1236117E+03  0.7561462E-02  0.1237255E+00
          2   -1    0    0  501    0  0.00000000000E+00  0.00000000000E+00  0.59365982119E+02  0.59365982119E+02  0.00000000000E+00 0. -1.
         -2   -1    0    0    0  501 -0.00000000000E+00 -0.00000000000E+00 -0.37667595928E+03  0.37667595928E+03  0.00000000000E+00 0.  1.
         25    2    1    2    0    0 -0.93253225905E+02  0.35174824639E+02 -0.21141539992E+03  0.26509314605E+03  0.12507786507E+03 0.  0.
          5    1    3    3  502    0 -0.55109758805E+02 -0.12073475927E+02 -0.19356523798E+03  0.20166265914E+03  0.41800000000E+01 0. -1.
         -5    1    3    3    0  502 -0.38143467101E+02  0.47248300566E+02 -0.17850161942E+02  0.63430486914E+02  0.41800000000E+01 0. -1.
        -11    1    1    2    0    0  0.10843347806E+03 -0.36823338525E+02 -0.76177604325E+02  0.13753837583E+03  0.00000000000E+00 0.  1.
         11    1    1    2    0    0 -0.15180252153E+02  0.16485138858E+01 -0.29716972918E+02  0.33410419526E+02  0.00000000000E+00 0. -1.
</event>
<event>
 7    1  0.2612321E-009  0.1035966E+03  0.7561462E-02  0.1272910E+00
         -1   -1    0    0    0  501 -0.00000000000E+00  0.00000000000E+00  0.99275754499E+02  0.99275754499E+02  0.00000000000E+00 0.  1.
          1   -1    0    0  501    0  0.00000000000E+00 -0.00000000000E+00 -0.14277895742E+03  0.14277895742E+03  0.00000000000E+00 0. -1.
         25    2    1    2    0    0 -0.29339311967E+02  0.33420028948E+02 -0.49729962865E+02  0.14177363471E+03  0.12509596608E+03 0.  0.
          5    1    3    3  502    0 -0.50869112027E+02 -0.16836900743E+02  0.16092682666E+02  0.56103427885E+02  0.41800000000E+01 0.  1.
         -5    1    3    3    0  502  0.21529800060E+02  0.50256929691E+02 -0.65822645531E+02  0.85670206824E+02  0.41800000000E+01 0.  1.
        -11    1    1    2    0    0  0.50346140986E+01  0.30143809863E+02  0.99141180139E+01  0.32129213314E+02  0.00000000000E+00 0.  1.
         11    1    1    2    0    0  0.24304697868E+02 -0.63563838811E+02 -0.36873580706E+01  0.68151863896E+02  0.00000000000E+00 0. -1.
</event>
<event>
 7    1  0.2612321E-009  0.1369825E+03  0.7561462E-02  0.1217448E+00
          1   -1    0    0  501    0  0.00000000000E+00  0.00000000000E+00  0.27704555832E+02  0.27704555832E+02  0.00000000000E+00 0.  1.
         -1   -1    0    0    0  501 -0.00000000000E+00 -0.00000000000E+00 -0.70042517675E+03  0.70042517675E+03  0.00000000000E+00 0. -1.
         25    2    1    2    0    0 -0.87105642689E+02 -0.10951184312E+02 -0.42844860170E+03  0.45488884339E+03  0.12509330165E+03 0.  0.
          5    1    3    3  502    0  0.14730363239E+02 -0.43259205001E+02 -0.13175411866E+03  0.13951689003E+03  0.41800000000E+01 0.  1.
         -5    1    3    3    0  502 -0.10183600593E+03  0.32308020689E+02 -0.29669448304E+03  0.31537195336E+03  0.41800000000E+01 0.  1.
        -11    1    1    2    0    0  0.98809920300E+02 -0.77291425117E+01 -0.18286505787E+03  0.20799704177E+03  0.00000000000E+00 0.  1.
         11    1    1    2    0    0 -0.11704277610E+02  0.18680326824E+02 -0.61406961346E+02  0.65243847421E+02  0.00000000000E+00 0. -1.
</event>
<event>
 7    1  0.2612321E-009  0.1416105E+03  0.7561462E-02  0.1211178E+00
          1   -1    0    0  501    0  0.00000000000E+00  0.00000000000E+00  0.26496502443E+03  0.26496502443E+03  0.00000000000E+00 0. -1.
         -1   -1    0    0    0  501 -0.00000000000E+00 -0.00000000000E+00 -0.87397526834E+02  0.87397526834E+02  0.00000000000E+00 0.  1.
         25    2    1    2    0    0 -0.89462220365E+02 -0.46675558599E+02  0.55366026292E+02  0.16998604198E+03  0.12509101070E+03 0.  0.
          5    1    3    3  502    0 -0.66390096937E+02 -0.86902958899E+02  0.57001040123E+02  0.12339513853E+03  0.41800000000E+01 0.  1.
         -5    1    3    3    0  502 -0.23072123428E+02  0.40227400301E+02 -0.16350138305E+01  0.46590903454E+02  0.41800000000E+01 0.  1.
        -11    1    1    2    0    0  0.88042078291E+02  0.78770689898E+01  0.11114303228E+03  0.14200784975E+03  0.00000000000E+00 0.  1.
         11    1    1    2    0    0  0.14201420738E+01  0.38798489609E+02  0.11058439029E+02  0.40368659542E+02  0.00000000000E+00 0. -1.
</event>
<event>
 7    1  0.2612321E-009  0.1060907E+03  0.7561462E-02  0.1267985E+00
          2   -1    0    0  501    0  0.00000000000E+00  0.00000000000E+00  0.57874671006E+03  0.57874671006E+03  0.00000000000E+00 0. -1.
         -2   -1    0    0    0  501 -0.00000000000E+00 -0.00000000000E+00 -0.26746169231E+02  0.26746169231E+02  0.00000000000E+00 0.  1.
         25    2    1    2    0    0  0.84520010058E+01  0.54311027924E+02  0.38182880776E+03  0.40553910194E+03  0.12509037009E+03 0.  0.
          5    1    3    3  502    0 -0.23396855567E+01 -0.30068216595E+02  0.22522507985E+03  0.22727380133E+03  0.41800000000E+01 0. -1.
         -5    1    3    3    0  502  0.10791686562E+02  0.84379244520E+02  0.15660372791E+03  0.17826530061E+03  0.41800000000E+01 0. -1.
        -11    1    1    2    0    0 -0.21152217782E+02  0.15108047343E+02  0.16329254615E+02  0.30697132894E+02  0.00000000000E+00 0.  1.
         11    1    1    2    0    0  0.12700216776E+02 -0.69419075268E+02  0.15384247845E+03  0.16925664445E+03  0.00000000000E+00 0. -1.
</event>
<event>
 7    1  0.2612321E-009  0.1219516E+03  0.7561462E-02  0.1239912E+00
          2   -1    0    0  501    0  0.00000000000E+00  0.00000000000E+00  0.19150790971E+03  0.19150790971E+03  0.00000000000E+00 0.  1.
         -2   -1    0    0    0  501 -0.00000000000E+00 -0.00000000000E+00 -0.95652415937E+02  0.95652415937E+02  0.00000000000E+00 0. -1.
         25    2    1    2    0    0 -0.60702873699E+02 -0.47347597173E+02  0.83688695208E+02  0.16904845990E+03  0.12508777021E+03 0.  0.
          5    1    3    3  502    0 -0.16080749154E+02  0.35931941842E+02 -0.43676660190E+01  0.39827676863E+02  0.41800000000E+01 0.  1.
         -5    1    3    3    0  502 -0.44622124545E+02 -0.83279539014E+02  0.88056361227E+02  0.12922078304E+03  0.41800000000E+01 0.  1.
        -11    1    1    2    0    0 -0.16532050997E+02 -0.39842566755E+01 -0.13697011310E+02  0.21835547400E+02  0.00000000000E+00 0. -1.
         11    1    1    2    0    0  0.77234924696E+02  0.51331853848E+02  0.25863809875E+02  0.96276318342E+02  0.00000000000E+00 0.  1.
</event>
<event>
 7    1  0.2612321E-009  0.7390246E+02  0.7561462E-02  0.1347304E+00
          1   -1    0    0  501    0  0.00000000000E+00  0.00000000000E+00  0.49841316640E+03  0.49841316640E+03  0.00000000000E+00 0. -1.
         -1   -1    0    0    0  501 -0.00000000000E+00 -0.00000000000E+00 -0.28145075262E+02  0.28145075262E+02  0.00000000000E+00 0.  1.
         25    2    1    2    0    0 -0.36245448945E+02  0.27351910610E+02  0.24624794460E+03  0.27990546028E+03  0.12508859617E+03 0.  0.
          5    1    3    3  502    0 -0.12805814032E+01  0.19680940164E+02 -0.90339349100E+01  0.22092163191E+02  0.41800000000E+01 0. -1.
         -5    1    3    3    0  502 -0.34964867541E+02  0.76709704458E+01  0.25528187951E+03  0.25781329709E+03  0.41800000000E+01 0. -1.
        -11    1    1    2    0    0  0.59715173728E+02 -0.31894882893E+02  0.20564334391E+03  0.21650027812E+03  0.00000000000E+00 0. -1.
         11    1    1    2    0    0 -0.23469724784E+02  0.45429722830E+01  0.18376802625E+02  0.30152503268E+02  0.00000000000E+00 0.  1.
</event>
<event>
 7    1  0.2612321E-009  0.1349888E+03  0.7561462E-02  0.1220235E+00
          1   -1    0    0  501    0  0.00000000000E+00  0.00000000000E+00  0.35567583340E+03  0.35567583340E+03  0.00000000000E+00 0. -1.
         -1   -1    0    0    0  501 -0.00000000000E+00 -0.00000000000E+00 -0.61316465817E+02  0.61316465817E+02  0.00000000000E+00 0.  1.
         25    2    1    2    0    0  0.76704919686E+02 -0.52769281694E+02  0.21580198619E+03  0.26624607192E+03  0.12509289259E+03 0.  0.
          5    1    3    3  502    0  0.12359110308E+02  0.36004343089E+02  0.23751587648E+02  0.45062963115E+02  0.41800000000E+01 0.  1.
         -5    1    3    3    0  502  0.64345809378E+02 -0.88773624784E+02  0.19205039854E+03  0.22118310881E+03  0.41800000000E+01 0.  1.
        -11    1    1    2    0    0 -0.16359064992E+02  0.59064746631E+02  0.15455515828E+02  0.63207090358E+02  0.00000000000E+00 0.  1.
         11    1    1    2    0    0 -0.60345854695E+02 -0.62954649366E+01  0.63101865560E+02  0.87539136932E+02  0.00000000000E+00 0. -1.
</event>
<event>
 7    1  0.2612321E-009  0.1071217E+03  0.7561462E-02  0.1265995E+00
         -2   -1    0    0    0  501 -0.00000000000E+00  0.00000000000E+00  0.13193530707E+02  0.13193530707E+02  0.00000000000E+00 0. -1.
          2   -1    0    0  501    0  0.00000000000E+00 -0.00000000000E+00 -0.14395069395E+04  0.14395069395E+04  0.00000000000E+00 0.  1.
         25    2    1    2    0    0 -0.36991960987E+02 -0.37864461220E+02 -0.11417643428E+04  0.11498154065E+04  0.12509009570E+03 0.  0.
          5    1    3    3  502    0 -0.67699859253E+02 -0.42585930344E+02 -0.10457629556E+04  0.10488252782E+04  0.41800000000E+01 0.  1.
         -5    1    3    3    0  502  0.30707898266E+02  0.47214691243E+01 -0.96001387159E+02  0.10099012834E+03  0.41800000000E+01 0.  1.
        -11    1    1    2    0    0 -0.22645974252E+02 -0.11489796702E+02 -0.53681470802E+02  0.59384811910E+02  0.00000000000E+00 0.  1.
         11    1    1    2    0    0  0.59637935239E+02  0.49354257922E+02 -0.23086759525E+03  0.24350025181E+03  0.00000000000E+00 0. -1.
</event>
<event>
 7    1  0.2612321E-009  0.1039836E+03  0.7561462E-02  0.1272135E+00
         -1   -1    0    0    0  501 -0.00000000000E+00  0.00000000000E+00  0.45317148215E+02  0.45317148215E+02  0.00000000000E+00 0.  1.
          1   -1    0    0  501    0  0.00000000000E+00 -0.00000000000E+00 -0.28852290534E+03  0.28852290534E+03  0.00000000000E+00 0. -1.
         25    2    1    2    0    0  0.35792526175E+02  0.76841011132E+01 -0.13525441048E+03  0.18784394978E+03  0.12510572958E+03 0.  0.
          5    1    3    3  502    0  0.55979347985E+02 -0.32666535578E+02 -0.26718254270E+02  0.70229106919E+02  0.41800000000E+01 0.  1.
         -5    1    3    3    0  502 -0.20186821810E+02  0.40350636691E+02 -0.10853615621E+03  0.11761484286E+03  0.41800000000E+01 0.  1.
        -11    1    1    2    0    0  0.64888712442E+01 -0.42465406483E+02 -0.55434009378E+02  0.70130917529E+02  0.00000000000E+00 0.  1.
         11    1    1    2    0    0 -0.42281397419E+02  0.34781305370E+02 -0.52517337274E+02  0.75865186254E+02  0.00000000000E+00 0. -1.
</event>
<event>
 7    1  0.2612321E-009  0.3131509E+03  0.7561462E-02  0.1078845E+00
          2   -1    0    0  501    0  0.00000000000E+00  0.00000000000E+00  0.17586317058E+03  0.17586317058E+03  0.00000000000E+00 0. -1.
         -2   -1    0    0    0  501 -0.00000000000E+00 -0.00000000000E+00 -0.58709068416E+03  0.58709068416E+03  0.00000000000E+00 0.  1.
         25    2    1    2    0    0  0.23872625340E+03  0.18188289059E+03 -0.17820519726E+03  0.37077841965E+03  0.12509170314E+03 0.  0.
          5    1    3    3  502    0  0.47583768348E+02 -0.14306924893E+02 -0.40139901060E+02  0.64012398543E+02  0.41800000000E+01 0. -1.
         -5    1    3    3    0  502  0.19114248505E+03  0.19618981548E+03 -0.13806529620E+03  0.30676602111E+03  0.41800000000E+01 0. -1.
        -11    1    1    2    0    0 -0.12950159706E+03 -0.12208323729E+03 -0.19023103242E+03  0.26050494461E+03  0.00000000000E+00 0.  1.
         11    1    1    2    0    0 -0.10922465634E+03 -0.59799653300E+02 -0.42791283892E+02  0.13167049048E+03  0.00000000000E+00 0. -1.
</event>
<event>
 7    1  0.4241526E-009  0.1184876E+03  0.7561462E-02  0.1245613E+00
         -2   -1    0    0    0  501 -0.00000000000E+00  0.00000000000E+00  0.38927670178E+02  0.38927670178E+02  0.00000000000E+00 0.  1.
          2   -1    0    0  501    0  0.00000000000E+00 -0.00000000000E+00 -0.69067125228E+03  0.69067125228E+03  0.00000000000E+00 0. -1.
         25    2    1    2    0    0 -0.72190812412E+02 -0.91151978211E+01 -0.12872958359E+03  0.19368379592E+03  0.12508999514E+03 0.  0.
          5    1    3    3  502    0 -0.82623149210E+02  0.26541713227E+02 -0.12990263776E+03  0.15627928533E+03  0.41800000000E+01 0.  1.
         -5    1    3    3    0  502  0.10432336798E+02 -0.35656911048E+02  0.11730541677E+01  0.37404510592E+02  0.41800000000E+01 0.  1.
        -11    1    1    2    0    0  0.30831657244E+02 -0.38703886476E+02 -0.16137686100E+03  0.16879298914E+03  0.00000000000E+00 0.  1.
         11    1    1    2    0    0  0.41359155168E+02  0.47819084297E+02 -0.36163713751E+03  0.36712213739E+03  0.00000000000E+00 0. -1.
</event>
<event>
 7    1  0.2766094E-009  0.1328807E+03  0.7561462E-02  0.1223243E+00
         -1   -1    0    0    0  501 -0.00000000000E+00  0.00000000000E+00  0.26891646359E+02  0.26891646359E+02  0.00000000000E+00 0.  1.
          1   -1    0    0  501    0  0.00000000000E+00 -0.00000000000E+00 -0.69882924080E+03  0.69882924080E+03  0.00000000000E+00 0. -1.
         25    2    1    2    0    0 -0.80187988487E+02 -0.14304722917E+02 -0.42361919373E+03  0.44915027946E+03  0.12509202072E+03 0.  0.
          5    1    3    3  502    0 -0.10357999264E+03  0.16693510075E+02 -0.24931250493E+03  0.27052113719E+03  0.41800000000E+01 0.  1.
         -5    1    3    3    0  502  0.23392004154E+02 -0.30998232992E+02 -0.17430668880E+03  0.17862914227E+03  0.41800000000E+01 0.  1.
        -11    1    1    2    0    0  0.21065684211E+02 -0.37554765826E+02 -0.83348708178E+02  0.93814341348E+02  0.00000000000E+00 0.  1.
         11    1    1    2    0    0  0.59122304275E+02  0.51859488743E+02 -0.16496969253E+03  0.18275626635E+03  0.00000000000E+00 0. -1.
</event>
<event>
 7    1  0.2612321E-009  0.1025142E+03  0.7561462E-02  0.1275096E+00
         -1   -1    0    0    0  501 -0.00000000000E+00  0.00000000000E+00  0.24379816452E+03  0.24379816452E+03  0.00000000000E+00 0.  1.
          1   -1    0    0  501    0  0.00000000000E+00 -0.00000000000E+00 -0.65020524212E+02  0.65020524212E+02  0.00000000000E+00 0. -1.
         25    2    1    2    0    0  0.43123102722E+02 -0.12358164079E+02  0.45310792878E+02  0.14040417481E+03  0.12509171893E+03 0.  0.
          5    1    3    3  502    0  0.74018027611E+02  0.14514695973E+02  0.60239288046E+02  0.96620851968E+02  0.41800000000E+01 0.  1.
         -5    1    3    3    0  502 -0.30894924889E+02 -0.26872860053E+02 -0.14928495168E+02  0.43783322845E+02  0.41800000000E+01 0.  1.
        -11    1    1    2    0    0 -0.58986834569E+02  0.28658155185E+02  0.12973082091E+03  0.14536444684E+03  0.00000000000E+00 0.  1.
         11    1    1    2    0    0  0.15863731847E+02 -0.16299991105E+02  0.37360265178E+01  0.23050067078E+02  0.00000000000E+00 0. -1.
</event>
<event>
 7    1  0.2612321E-009  0.8429395E+02  0.7561462E-02  0.1317289E+00
         -1   -1    0    0    0  501 -0.00000000000E+00  0.00000000000E+00  0.39142462669E+02  0.39142462669E+02  0.00000000000E+00 0.  1.
          1   -1    0    0  501    0  0.00000000000E+00 -0.00000000000E+00 -0.44733201149E+03  0.44733201149E+03  0.00000000000E+00 0. -1.
         25    2    1    2    0    0  0.22778501493E+02  0.55000854864E+01 -0.35585177033E+03  0.37792558962E+03  0.12509259677E+03 0.  0.
          5    1    3    3  502    0  0.18436521318E+02  0.47880996897E+02 -0.60277440820E+02  0.79267505662E+02  0.41800000000E+01 0. -1.
         -5    1    3    3    0  502  0.43419801758E+01 -0.42380911411E+02 -0.29557432951E+03  0.29865808395E+03  0.41800000000E+01 0. -1.
        -11    1    1    2    0    0  0.21769901041E+02  0.13776289008E+02  0.11616142396E+02  0.28260387370E+02  0.00000000000E+00 0.  1.
         11    1    1    2    0    0 -0.44548402534E+02 -0.19276374494E+02 -0.63953920888E+02  0.80288497177E+02  0.00000000000E+00 0. -1.
</event>
<event>
 7    1  0.2612321E-009  0.1082224E+03  0.7561462E-02  0.1263898E+00
          2   -1    0    0  501    0  0.00000000000E+00  0.00000000000E+00  0.10444168466E+03  0.10444168466E+03  0.00000000000E+00 0. -1.
         -2   -1    0    0    0  501 -0.00000000000E+00 -0.00000000000E+00 -0.20410297619E+03  0.20410297619E+03  0.00000000000E+00 0.  1.
         25    2    1    2    0    0 -0.19701618726E+02 -0.65814090465E+02  0.16125653687E+02  0.14361693556E+03  0.12508452818E+03 0.  0.
          5    1    3    3  502    0 -0.70531141062E+02 -0.52994638191E+02  0.21064702237E+02  0.90797949409E+02  0.41800000000E+01 0.  1.
         -5    1    3    3    0  502  0.50829522336E+02 -0.12819452275E+02 -0.49390485496E+01  0.52818986152E+02  0.41800000000E+01 0.  1.
        -11    1    1    2    0    0  0.26050186482E+02  0.32643253256E+02  0.25739103620E+01  0.41842791654E+02  0.00000000000E+00 0. -1.
         11    1    1    2    0    0 -0.63485677559E+01  0.33170837209E+02 -0.11836085558E+03  0.12308493363E+03  0.00000000000E+00 0.  1.
</event>
<event>
 7    1  0.2612321E-009  0.1776064E+03  0.7561462E-02  0.1170140E+00
          1   -1    0    0  501    0  0.00000000000E+00  0.00000000000E+00  0.50789648162E+03  0.50789648162E+03  0.00000000000E+00 0. -1.
         -1   -1    0    0    0  501 -0.00000000000E+00 -0.00000000000E+00 -0.79122857602E+02  0.79122857602E+02  0.00000000000E+00 0.  1.
         25    2    1    2    0    0  0.16324171086E+02 -0.16410700617E+03  0.27652686884E+03  0.34541565899E+03  0.12508908925E+03 0.  0.
          5    1    3    3  502    0  0.27642802153E+02 -0.11445172437E+03  0.80139663040E+02  0.14248915648E+03  0.41800000000E+01 0.  1.
         -5    1    3    3    0  502 -0.11318631067E+02 -0.49655281801E+02  0.19638720580E+03  0.20292650251E+03  0.41800000000E+01 0.  1.
        -11    1    1    2    0    0 -0.51245070439E+02  0.77464465243E+02  0.61695347539E+02  0.11150388571E+03  0.00000000000E+00 0. -1.
         11    1    1    2    0    0  0.34920899353E+02  0.86642540928E+02  0.90551407642E+02  0.13009979453E+03  0.00000000000E+00 0.  1.
</event>
<event>
 7    1  0.2612321E-009  0.1128157E+03  0.7561462E-02  0.1255443E+00
          1   -1    0    0  501    0  0.00000000000E+00  0.00000000000E+00  0.59597250355E+03  0.59597250355E+03  0.00000000000E+00 0. -1.
         -1   -1    0    0    0  501 -0.00000000000E+00 -0.00000000000E+00 -0.36131874630E+02  0.36131874630E+02  0.00000000000E+00 0.  1.
         25    2    1    2    0    0 -0.32211790660E+02  0.86256805843E+02  0.29805955452E+03  0.33610137369E+03  0.12508716699E+03 0.  0.
          5    1    3    3  502    0 -0.22105399249E+02  0.14343486574E+02  0.24404581756E+03  0.24549993432E+03  0.41800000000E+01 0.  1.
         -5    1    3    3    0  502 -0.10106391411E+02  0.71913319269E+02  0.54013736957E+02  0.90601439369E+02  0.41800000000E+01 0.  1.
        -11    1    1    2    0    0  0.59672308610E+02 -0.38171870976E+02  0.20410601618E+03  0.21604893425E+03  0.00000000000E+00 0. -1.
         11    1    1    2    0    0 -0.27460517950E+02 -0.48084934867E+02  0.57675058224E+02  0.79954070242E+02  0.00000000000E+00 0.  1.
</event>
<event>
 7    1  0.2612321E-009  0.1315349E+03  0.7561462E-02  0.1225196E+00
          1   -1    0    0  501    0  0.00000000000E+00  0.00000000000E+00  0.94794112638E+02  0.94794112638E+02  0.00000000000E+00 0. -1.
         -1   -1    0    0    0  501 -0.00000000000E+00 -0.00000000000E+00 -0.31101681464E+03  0.31101681464E+03  0.00000000000E+00 0.  1.
         25    2    1    2    0    0 -0.41851037218E+02 -0.89814973411E+02 -0.21977805499E+03  0.27160146746E+03  0.12508686944E+03 0.  0.
          5    1    3    3  502    0 -0.12018047627E+01 -0.10960928577E+03 -0.18215216174E+03  0.21263236416E+03  0.41800000000E+01 0.  1.
         -5    1    3    3    0  502 -0.40649232456E+02  0.19794312358E+02 -0.37625893248E+02  0.58969103297E+02  0.41800000000E+01 0.  1.
        -11    1    1    2    0    0 -0.66053286171E+01  0.31327259468E+02  0.38945692690E+02  0.50416212978E+02  0.00000000000E+00 0. -1.
         11    1    1    2    0    0  0.48456365835E+02  0.58487713943E+02 -0.35390339703E+02  0.83793246844E+02  0.00000000000E+00 0.  1.
</event>
<event>
 7    1  0.2612322E-009  0.1844043E+03  0.7561462E-02  0.1163607E+00
          2   -1    0    0  501    0  0.00000000000E+00  0.00000000000E+00  0.10149649229E+04  0.10149649229E+04  0.00000000000E+00 0. -1.
         -2   -1    0    0    0  501 -0.00000000000E+00 -0.00000000000E+00 -0.39170486583E+02  0.39170486583E+02  0.00000000000E+00 0.  1.
         25    2    1    2    0    0 -0.10393206720E+03  0.12797345449E+03  0.44581922863E+03  0.49150925406E+03  0.12508989793E+03 0.  0.
          5    1    3    3  502    0 -0.18276813685E+02  0.10099253595E+03  0.14608428554E+03  0.17858226428E+03  0.41800000000E+01 0.  1.
         -5    1    3    3    0  502 -0.85655253514E+02  0.26980918545E+02  0.29973494309E+03  0.31292698978E+03  0.41800000000E+01 0.  1.
        -11    1    1    2    0    0  0.55151236192E+02 -0.21721832807E+02  0.93023614584E+02  0.11030362525E+03  0.00000000000E+00 0.  1.
         11    1    1    2    0    0  0.48780831007E+02 -0.10625162168E+03  0.43695159315E+03  0.45232253021E+03  0.00000000000E+00 0. -1.
</event>
<event>
 7    1  0.2612321E-009  0.2135508E+03  0.7561462E-02  0.1138785E+00
          2   -1    0    0  501    0  0.00000000000E+00  0.00000000000E+00  0.58764909443E+03  0.58764909443E+03  0.00000000000E+00 0. -1.
         -2   -1    0    0    0  501 -0.00000000000E+00 -0.00000000000E+00 -0.90181744789E+02  0.90181744789E+02  0.00000000000E+00 0.  1.
         25    2    1    2    0    0  0.33423219085E+02 -0.18578374016E+03  0.14890699033E+03  0.27102285481E+03  0.12508951345E+03 0.  0.
          5    1    3    3  502    0 -0.10915329560E+02 -0.17578224774E+03  0.94196830860E+02  0.19977251659E+03  0.41800000000E+01 0.  1.
         -5    1    3    3    0  502  0.44338548645E+02 -0.10001492420E+02  0.54710159474E+02  0.71250338219E+02  0.41800000000E+01 0.  1.
        -11    1    1    2    0    0  0.26568852214E+02  0.70238433732E+02  0.89172403515E+02  0.11658069750E+03  0.00000000000E+00 0.  1.
         11    1    1    2    0    0 -0.59992071299E+02  0.11554530643E+03  0.25938795579E+03  0.29022728691E+03  0.00000000000E+00 0. -1.
</event>
<event>
 7    1  0.2612321E-009  0.1161070E+03  0.7561462E-02  0.1249661E+00
         -1   -1    0    0    0  501 -0.00000000000E+00  0.00000000000E+00  0.37862678143E+02  0.37862678143E+02  0.00000000000E+00 0.  1.
          1   -1    0    0  501    0  0.00000000000E+00 -0.00000000000E+00 -0.54560673203E+03  0.54560673203E+03  0.00000000000E+00 0. -1.
         25    2    1    2    0    0 -0.65521206636E+01 -0.83125542900E+02 -0.36565120394E+03  0.39535089302E+03  0.12509492195E+03 0.  0.
          5    1    3    3  502    0 -0.44018460158E+02 -0.86964804061E+02 -0.32691585495E+03  0.34116264537E+03  0.41800000000E+01 0. -1.
         -5    1    3    3    0  502  0.37466339494E+02  0.38392611602E+01 -0.38735348990E+02  0.54188247644E+02  0.41800000000E+01 0. -1.
        -11    1    1    2    0    0  0.27357480110E+02  0.35743297673E+02 -0.98017387691E+01  0.46066138643E+02  0.00000000000E+00 0.  1.
         11    1    1    2    0    0 -0.20805359447E+02  0.47382245227E+02 -0.13229111118E+03  0.14205237851E+03  0.00000000000E+00 0. -1.
</event>
<event>
 7    1  0.2612321E-009  0.2196356E+03  0.7561462E-02  0.1134155E+00
         -2   -1    0    0    0  501 -0.00000000000E+00  0.00000000000E+00  0.48208068637E+02  0.48208068637E+02  0.00000000000E+00 0.  1.
          2   -1    0    0  501    0  0.00000000000E+00 -0.00000000000E+00 -0.11286948618E+04  0.11286948618E+04  0.00000000000E+00 0. -1.
         25    2    1    2    0    0  0.12545549427E+03 -0.15964781139E+03 -0.46370209626E+03  0.52143415974E+03  0.12508974436E+03 0.  0.
          5    1    3    3  502    0  0.95247979628E+02 -0.25701619927E+02 -0.15852000131E+03  0.18675870557E+03  0.41800000000E+01 0. -1.
         -5    1    3    3    0  502  0.30207514645E+02 -0.13394619146E+03 -0.30518209495E+03  0.33467545417E+03  0.41800000000E+01 0. -1.
        -11    1    1    2    0    0 -0.79201642658E+02  0.10596852136E+03 -0.51312497514E+03  0.52990514985E+03  0.00000000000E+00 0.  1.
         11    1    1    2    0    0 -0.46253851615E+02  0.53679290027E+02 -0.10365972180E+03  0.12556362089E+03  0.00000000000E+00 0. -1.
</event>
<event>
 7    1  0.2612321E-009  0.2324389E+03  0.7561462E-02  0.1124935E+00
          2   -1    0    0  501    0  0.00000000000E+00  0.00000000000E+00  0.13162019704E+04  0.13162019704E+04  0.00000000000E+00 0. -1.
         -2   -1    0    0    0  501 -0.00000000000E+00 -0.00000000000E+00 -0.44397130906E+02  0.44397130906E+02  0.00000000000E+00 0.  1.
         25    2    1    2    0    0  0.12928090679E+03 -0.17286445952E+03  0.66794102626E+03  0.71301524009E+03  0.12509933577E+03 0.  0.
          5    1    3    3  502    0  0.10699393343E+03 -0.19165297034E+03  0.57320187170E+03  0.61380487205E+03  0.41800000000E+01 0.  1.
         -5    1    3    3    0  502  0.22286973359E+02  0.18788510811E+02  0.94739154565E+02  0.99210368045E+02  0.41800000000E+01 0.  1.
        -11    1    1    2    0    0 -0.44416332159E+02  0.62429964875E+02  0.34733609265E+03  0.35568619924E+03  0.00000000000E+00 0.  1.
         11    1    1    2    0    0 -0.84864574632E+02  0.11043449465E+03  0.25652772059E+03  0.29189766198E+03  0.00000000000E+00 0. -1.
</event>
<event>
 7    1  0.2612321E-009  0.1389146E+03  0.7561462E-02  0.1214797E+00
          1   -1    0    0  501    0  0.00000000000E+00  0.00000000000E+00  0.31328344129E+03  0.31328344129E+03  0.00000000000E+00 0. -1.
         -1   -1    0    0    0  501 -0.00000000000E+00 -0.00000000000E+00 -0.86621223624E+02  0.86621223624E+02  0.00000000000E+00 0.  1.
         25    2    1    2    0    0 -0.65743794347E+02 -0.94740182332E+02  0.17530402505E+03  0.24428874502E+03  0.12509013191E+03 0.  0.
          5    1    3    3  502    0 -0.23610368083E+01  0.18792591854E+02 -0.67433686532E+01  0.20534883106E+02  0.41800000000E+01 0.  1.
         -5    1    3    3    0  502 -0.63382757538E+02 -0.11353277419E+03  0.18204739370E+03  0.22375386191E+03  0.41800000000E+01 0.  1.
        -11    1    1    2    0    0  0.73685109433E+02  0.67374098091E+02  0.69666278125E+02  0.12174627203E+03  0.00000000000E+00 0. -1.
         11    1    1    2    0    0 -0.79413150867E+01  0.27366084241E+02 -0.18308085502E+02  0.33869647868E+02  0.00000000000E+00 0.  1.
</event>
<event>
 7    1  0.2612321E-009  0.1476185E+03  0.7561462E-02  0.1203430E+00
         -2   -1    0    0    0  501 -0.00000000000E+00  0.00000000000E+00  0.13823199605E+03  0.13823199605E+03  0.00000000000E+00 0.  1.
          2   -1    0    0  501    0  0.00000000000E+00 -0.00000000000E+00 -0.21620429337E+03  0.21620429337E+03  0.00000000000E+00 0. -1.
         25    2    1    2    0    0  0.10023844610E+03  0.54460236900E+02  0.35489383633E+02  0.17297530663E+03  0.12508915570E+03 0.  0.
          5    1    3    3  502    0 -0.24131081913E+02  0.31438219709E+02  0.22485764481E+02  0.45757543390E+02  0.41800000000E+01 0.  1.
         -5    1    3    3    0  502  0.12436952801E+03  0.23022017191E+02  0.13003619153E+02  0.12721776324E+03  0.41800000000E+01 0.  1.
        -11    1    1    2    0    0 -0.30331334613E+02 -0.50382622868E+02 -0.15094532013E+02  0.60714441801E+02  0.00000000000E+00 0.  1.
         11    1    1    2    0    0 -0.69907111483E+02 -0.40776140321E+01 -0.98367148937E+02  0.12074654099E+03  0.00000000000E+00 0. -1.
</event>
<event>
 7    1  0.2612321E-009  0.8496804E+02  0.7561462E-02  0.1315516E+00
         -1   -1    0    0    0  501 -0.00000000000E+00  0.00000000000E+00  0.76964324742E+02  0.76964324742E+02  0.00000000000E+00 0.  1.
          1   -1    0    0  501    0  0.00000000000E+00 -0.00000000000E+00 -0.19009096595E+03  0.19009096595E+03  0.00000000000E+00 0. -1.
         25    2    1    2    0    0 -0.26181666696E+02  0.38924558591E+02 -0.34999126183E+02  0.13810531430E+03  0.12509011981E+03 0.  0.
          5    1    3    3  502    0 -0.49368545006E+02  0.30578645614E+02 -0.72533408685E+02  0.93010077836E+02  0.41800000000E+01 0.  1.
         -5    1    3    3    0  502  0.23186878310E+02  0.83459129770E+01  0.37534282501E+02  0.45095236468E+02  0.41800000000E+01 0.  1.
        -11    1    1    2    0    0  0.30163819370E+02 -0.58994121580E+02 -0.84628782659E+02  0.10748112967E+03  0.00000000000E+00 0. -1.
         11    1    1    2    0    0 -0.39821526736E+01  0.20069562990E+02  0.65012676379E+01  0.21468846718E+02  0.00000000000E+00 0.  1.
</event>
<event>
 7    1  0.2834649E-009  0.1072952E+03  0.7561462E-02  0.1265662E+00
          2   -1    0    0  501    0  0.00000000000E+00  0.00000000000E+00  0.28055211845E+03  0.28055211845E+03  0.00000000000E+00 0. -1.
         -2   -1    0    0    0  501 -0.00000000000E+00 -0.00000000000E+00 -0.62995840279E+02  0.62995840279E+02  0.00000000000E+00 0.  1.
         25    2    1    2    0    0  0.71240215188E+02  0.12404569588E+02  0.15073849007E+03  0.20880190384E+03  0.12508837297E+03 0.  0.
          5    1    3    3  502    0  0.26432086539E+02 -0.47477724365E+02  0.11180434253E+03  0.12438035584E+03  0.41800000000E+01 0. -1.
         -5    1    3    3    0  502  0.44808128649E+02  0.59882293954E+02  0.38934147538E+02  0.84421548000E+02  0.41800000000E+01 0. -1.
        -11    1    1    2    0    0 -0.19048505467E+02 -0.25060846945E+02  0.74139067914E+02  0.80544975022E+02  0.00000000000E+00 0. -1.
         11    1    1    2    0    0 -0.52191709721E+02  0.12656277356E+02 -0.73212798178E+01  0.54201079863E+02  0.00000000000E+00 0.  1.
</event>
<event>
 7    1  0.2612321E-009  0.1242859E+03  0.7561462E-02  0.1236190E+00
          1   -1    0    0  501    0  0.00000000000E+00  0.00000000000E+00  0.79470327991E+03  0.79470327991E+03  0.00000000000E+00 0. -1.
         -1   -1    0    0    0  501 -0.00000000000E+00 -0.00000000000E+00 -0.29700864957E+02  0.29700864957E+02  0.00000000000E+00 0.  1.
         25    2    1    2    0    0  0.78823506821E+02 -0.18539508674E+02  0.61288362780E+03  0.63073815357E+03  0.12508964198E+03 0.  0.
          5    1    3    3  502    0 -0.22585212575E+02 -0.16851955908E+02  0.41060982747E+02  0.49975563520E+02  0.41800000000E+01 0. -1.
         -5    1    3    3    0  502  0.10140871940E+03 -0.16875527661E+01  0.57182264505E+03  0.58076259005E+03  0.41800000000E+01 0. -1.
        -11    1    1    2    0    0 -0.41171865472E+02 -0.34372777837E+02  0.54884845168E+02  0.76739537345E+02  0.00000000000E+00 0. -1.
         11    1    1    2    0    0 -0.37651641349E+02  0.52912286512E+02  0.97233941980E+02  0.11692645395E+03  0.00000000000E+00 0.  1.
</event>
<event>
 7    1  0.2612321E-009  0.7418262E+02  0.7561462E-02  0.1346421E+00
          1   -1    0    0  501    0  0.00000000000E+00  0.00000000000E+00  0.28508634932E+03  0.28508634932E+03  0.00000000000E+00 0. -1.
         -1   -1    0    0    0  501 -0.00000000000E+00 -0.00000000000E+00 -0.69934926532E+02  0.69934926532E+02  0.00000000000E+00 0.  1.
         25    2    1    2    0    0  0.72789541199E+01 -0.41267244734E+02  0.17579687944E+02  0.13308376463E+03  0.12508506833E+03 0.  0.
          5    1    3    3  502    0 -0.13446228381E+02 -0.26298210393E+02 -0.51383872924E+02  0.59415248247E+02  0.41800000000E+01 0.  1.
         -5    1    3    3    0  502  0.20725182501E+02 -0.14969034341E+02  0.68963560868E+02  0.73668516385E+02  0.41800000000E+01 0.  1.
        -11    1    1    2    0    0  0.35046396082E+02  0.35548604946E+02  0.60884278391E+02  0.78732766667E+02  0.00000000000E+00 0. -1.
         11    1    1    2    0    0 -0.42325350202E+02  0.57186397885E+01  0.13668745645E+03  0.14320474455E+03  0.00000000000E+00 0.  1.
</event>
<event>
 7    1  0.2612321E-009  0.1970373E+03  0.7561462E-02  0.1152263E+00
          1   -1    0    0  501    0  0.00000000000E+00  0.00000000000E+00  0.94617018124E+02  0.94617018124E+02  0.00000000000E+00 0. -1.
         -1   -1    0    0    0  501 -0.00000000000E+00 -0.00000000000E+00 -0.42312080100E+03  0.42312080100E+03  0.00000000000E+00 0.  1.
         25    2    1    2    0    0 -0.31076044066E+02 -0.16310332025E+03 -0.20144486057E+03  0.28947608085E+03  0.12509179007E+03 0.  0.
          5    1    3    3  502    0  0.47765310575E+02 -0.79899982045E+02 -0.89629431527E+02  0.12929207022E+03  0.41800000000E+01 0. -1.
         -5    1    3    3    0  502 -0.78841354642E+02 -0.83203338203E+02 -0.11181542905E+03  0.16018401063E+03  0.41800000000E+01 0. -1.
        -11    1    1    2    0    0  0.55875368299E+02  0.14527153089E+03 -0.12094036358E+03  0.19711023823E+03  0.00000000000E+00 0.  1.
         11    1    1    2    0    0 -0.24799324232E+02  0.17831789358E+02 -0.61185587149E+01  0.31151500041E+02  0.00000000000E+00 0. -1.
</event>
<event>
 7    1  0.2612321E-009  0.1141233E+03  0.7561462E-02  0.1253119E+00
         -2   -1    0    0    0  501 -0.00000000000E+00  0.00000000000E+00  0.44080325021E+02  0.44080325021E+02  0.00000000000E+00 0.  1.
          2   -1    0    0  501    0  0.00000000000E+00 -0.00000000000E+00 -0.51057700142E+03  0.51057700142E+03  0.00000000000E+00 0. -1.
         25    2    1    2    0    0 -0.14426425435E+02 -0.79762635819E+02 -0.37087823622E+03  0.39970953009E+03  0.12508733955E+03 0.  0.
          5    1    3    3  502    0  0.45923879571E+01 -0.10248532839E+03 -0.18628276791E+03  0.21270419503E+03  0.41800000000E+01 0. -1.
         -5    1    3    3    0  502 -0.19018813392E+02  0.22722692566E+02 -0.18459546831E+03  0.18700533506E+03  0.41800000000E+01 0. -1.
        -11    1    1    2    0    0  0.94827715546E+01 -0.50145955645E+01  0.13139782429E+02  0.16962399810E+02  0.00000000000E+00 0.  1.
         11    1    1    2    0    0  0.49436538803E+01  0.84777231384E+02 -0.10875822261E+03  0.13798539654E+03  0.00000000000E+00 0. -1.
</event>
<event>
 7    1  0.2612321E-009  0.1116312E+03  0.7561462E-02  0.1257579E+00
         -2   -1    0    0    0  501 -0.00000000000E+00  0.00000000000E+00  0.11395291523E+03  0.11395291523E+03  0.00000000000E+00 0. -1.
          2   -1    0    0  501    0  0.00000000000E+00 -0.00000000000E+00 -0.14939202592E+03  0.14939202592E+03  0.00000000000E+00 0.  1.
         25    2    1    2    0    0 -0.79131563167E+01  0.57976951305E+02  0.25153699091E+02  0.14037497333E+03  0.12509388328E+03 0.  0.
          5    1    3    3  502    0  0.38527744582E+02  0.77003108348E+02  0.25888656112E+02  0.90008670210E+02  0.41800000000E+01 0.  1.
         -5    1    3    3    0  502 -0.46440900898E+02 -0.19026157043E+02 -0.73495702057E+00  0.50366303119E+02  0.41800000000E+01 0.  1.
        -11    1    1    2    0    0 -0.20464162279E+02  0.17821622510E+01  0.12767878474E+02  0.24186292829E+02  0.00000000000E+00 0. -1.
         11    1    1    2    0    0  0.28377318596E+02 -0.59759113556E+02 -0.73360688259E+02  0.98783674995E+02  0.00000000000E+00 0.  1.
</event>
<event>
 7    1  0.2612321E-009  0.6371051E+02  0.7561462E-02  0.1382889E+00
          2   -1    0    0  501    0  0.00000000000E+00  0.00000000000E+00  0.92001236798E+03  0.92001236798E+03  0.00000000000E+00 0. -1.
         -2   -1    0    0    0  501 -0.00000000000E+00 -0.00000000000E+00 -0.13904964992E+02  0.13904964992E+02  0.00000000000E+00 0.  1.
         25    2    1    2    0    0  0.27380690443E+02 -0.33580283591E+01  0.45378181208E+03  0.47151512326E+03  0.12509036702E+03 0.  0.
          5    1    3    3  502    0  0.22451022421E+02  0.21611658895E+01  0.46025831703E+03  0.46082958872E+03  0.41800000000E+01 0.  1.
         -5    1    3    3    0  502  0.49296680220E+01 -0.55191942486E+01 -0.64765049495E+01  0.10685534536E+02  0.41800000000E+01 0.  1.
        -11    1    1    2    0    0 -0.60640723869E+02 -0.72492534636E+01  0.28279353166E+03  0.28931303223E+03  0.00000000000E+00 0.  1.
         11    1    1    2    0    0  0.33260033426E+02  0.10607281823E+02  0.16953205925E+03  0.17308917749E+03  0.00000000000E+00 0. -1.
</event>
<event>
 7    1  0.2612321E-009  0.9371722E+02  0.7561462E-02  0.1294092E+00
          1   -1    0    0  501    0  0.00000000000E+00  0.00000000000E+00  0.29114369003E+03  0.29114369003E+03  0.00000000000E+00 0. -1.
         -1   -1    0    0    0  501 -0.00000000000E+00 -0.00000000000E+00 -0.45790412072E+02  0.45790412072E+02  0.00000000000E+00 0.  1.
         25    2    1    2    0    0 -0.37252067377E+02 -0.34549191230E+01  0.15470680858E+03  0.20243759954E+03  0.12508849705E+03 0.  0.
          5    1    3    3  502    0 -0.76335591262E+02 -0.23029325064E+02  0.12854710967E+03  0.15132516021E+03  0.41800000000E+01 0. -1.
         -5    1    3    3    0  502  0.39083523885E+02  0.19574405941E+02  0.26159698910E+02  0.51112439330E+02  0.41800000000E+01 0. -1.
        -11    1    1    2    0    0  0.31287279468E+02 -0.21539094029E+02  0.10014071650E+03  0.10710270552E+03  0.00000000000E+00 0. -1.
         11    1    1    2    0    0  0.59647879092E+01  0.24994013152E+02 -0.94942471246E+01  0.27393797048E+02  0.00000000000E+00 0.  1.
</event>
<event>
 7    1  0.2612321E-009  0.1444949E+03  0.7561462E-02  0.1207406E+00
          4   -1    0    0  501    0  0.00000000000E+00  0.00000000000E+00  0.71068265137E+03  0.71068265137E+03  0.00000000000E+00 0. -1.
         -4   -1    0    0    0  501 -0.00000000000E+00 -0.00000000000E+00 -0.39812175873E+02  0.39812175873E+02  0.00000000000E+00 0.  1.
         25    2    1    2    0    0 -0.98034964161E+02  0.13044522043E+02  0.17448422749E+03  0.23637732301E+03  0.12509388249E+03 0.  0.
          5    1    3    3  502    0 -0.28311641740E+02  0.65823914487E+02  0.83604235873E+02  0.11018837249E+03  0.41800000000E+01 0. -1.
         -5    1    3    3    0  502 -0.69723322421E+02 -0.52779392444E+02  0.90879991618E+02  0.12618895052E+03  0.41800000000E+01 0. -1.
        -11    1    1    2    0    0  0.13617326718E+02 -0.39032246617E+02  0.10404681924E+03  0.11195842289E+03  0.00000000000E+00 0. -1.
         11    1    1    2    0    0  0.84417637443E+02  0.25987724574E+02  0.39233942877E+03  0.40215908134E+03  0.00000000000E+00 0.  1.
</event>
<event>
 7    1  0.2612321E-009  0.1012196E+03  0.7561462E-02  0.1277752E+00
         -2   -1    0    0    0  501 -0.00000000000E+00  0.00000000000E+00  0.21477551704E+02  0.21477551704E+02  0.00000000000E+00 0.  1.
          2   -1    0    0  501    0  0.00000000000E+00 -0.00000000000E+00 -0.78703772461E+03  0.78703772461E+03  0.00000000000E+00 0. -1.
         25    2    1    2    0    0 -0.62983506055E+02 -0.33291398474E+02 -0.38180235202E+03  0.40803854752E+03  0.12508869254E+03 0.  0.
          5    1    3    3  502    0 -0.75013905366E+02 -0.47537211105E+02 -0.37830586359E+03  0.38861249500E+03  0.41800000000E+01 0. -1.
         -5    1    3    3    0  502  0.12030399312E+02  0.14245812631E+02 -0.34964884298E+01  0.19426052519E+02  0.41800000000E+01 0. -1.
        -11    1    1    2    0    0  0.92044904253E+01 -0.17930587156E+02 -0.17278398298E+02  0.26547535620E+02  0.00000000000E+00 0.  1.
         11    1    1    2    0    0  0.53779015630E+02  0.51221985630E+02 -0.36647942258E+03  0.37392919318E+03  0.00000000000E+00 0. -1.
</event>
<event>
 7    1  0.2612321E-009  0.8358966E+02  0.7561462E-02  0.1319162E+00
         -2   -1    0    0    0  501 -0.00000000000E+00  0.00000000000E+00  0.39626964625E+03  0.39626964625E+03  0.00000000000E+00 0.  1.
          2   -1    0    0  501    0  0.00000000000E+00 -0.00000000000E+00 -0.29716376587E+02  0.29716376587E+02  0.00000000000E+00 0. -1.
         25    2    1    2    0    0  0.57637298792E+01  0.10978680006E+02  0.22850814880E+03  0.26079579346E+03  0.12507885441E+03 0.  0.
          5    1    3    3  502    0  0.46550080648E+02 -0.19411101336E+02  0.37231821818E+02  0.62828192870E+02  0.41800000000E+01 0.  1.
         -5    1    3    3    0  502 -0.40786350768E+02  0.30389781342E+02  0.19127632698E+03  0.19796760059E+03  0.41800000000E+01 0.  1.
        -11    1    1    2    0    0 -0.82751430219E+01 -0.37750713744E+02  0.18848761772E+02  0.42998490678E+02  0.00000000000E+00 0. -1.
         11    1    1    2    0    0  0.25114131427E+01  0.26772033738E+02  0.11919635909E+03  0.12219173870E+03  0.00000000000E+00 0.  1.
</event>
<event>
 7    1  0.2612321E-009  0.1933726E+03  0.7561462E-02  0.1155454E+00
         -2   -1    0    0    0  501 -0.00000000000E+00  0.00000000000E+00  0.22608103013E+03  0.22608103013E+03  0.00000000000E+00 0.  1.
          2   -1    0    0  501    0  0.00000000000E+00 -0.00000000000E+00 -0.21112059168E+03  0.21112059168E+03  0.00000000000E+00 0. -1.
         25    2    1    2    0    0 -0.16806335878E+03  0.45206778721E+02 -0.67299459899E+02  0.22464513023E+03  0.12508905557E+03 0.  0.
          5    1    3    3  502    0 -0.19202351970E+02  0.47621977196E+02  0.16062863662E+02  0.53963608314E+02  0.41800000000E+01 0.  1.
         -5    1    3    3    0  502 -0.14886100681E+03 -0.24151984745E+01 -0.83362323561E+02  0.17068152191E+03  0.41800000000E+01 0.  1.
        -11    1    1    2    0    0  0.39255084852E+02  0.17557030229E+02  0.49505560326E+02  0.65574472932E+02  0.00000000000E+00 0.  1.
         11    1    1    2    0    0  0.12880827393E+03 -0.62763808950E+02  0.32754338017E+02  0.14698201865E+03  0.00000000000E+00 0. -1.
</event>
<event>
 7    1  0.2612321E-009  0.8959515E+02  0.7561462E-02  0.1303835E+00
          1   -1    0    0  501    0  0.00000000000E+00  0.00000000000E+00  0.15749405971E+03  0.15749405971E+03  0.00000000000E+00 0. -1.
         -1   -1    0    0    0  501 -0.00000000000E+00 -0.00000000000E+00 -0.84696841307E+02  0.84696841307E+02  0.00000000000E+00 0.  1.
         25    2    1    2    0    0  0.16981150789E+02 -0.28864405388E+02  0.16763285435E+02  0.13058031398E+03  0.12509475320E+03 0.  0.
          5    1    3    3  502    0  0.50364011216E+02  0.21940346177E+02  0.37008940427E+02  0.66370524239E+02  0.41800000000E+01 0.  1.
         -5    1    3    3    0  502 -0.33382860427E+02 -0.50804751566E+02 -0.20245654992E+02  0.64209789736E+02  0.41800000000E+01 0.  1.
        -11    1    1    2    0    0 -0.30524008164E+02 -0.81859534611E+00 -0.14569771141E+02  0.33832874602E+02  0.00000000000E+00 0.  1.
         11    1    1    2    0    0  0.13542857375E+02  0.29683000734E+02  0.70603704113E+02  0.77777712443E+02  0.00000000000E+00 0. -1.
</event>
<event>
 7    1  0.2612321E-009  0.1343629E+03  0.7561462E-02  0.1221122E+00
          2   -1    0    0  501    0  0.00000000000E+00  0.00000000000E+00  0.17798377963E+03  0.17798377963E+03  0.00000000000E+00 0. -1.
         -2   -1    0    0    0  501 -0.00000000000E+00 -0.00000000000E+00 -0.12400773899E+03  0.12400773899E+03  0.00000000000E+00 0.  1.
         25    2    1    2    0    0 -0.91217072329E+02  0.38213059617E+02  0.13077975022E+02  0.15997833280E+03  0.12506494843E+03 0.  0.
          5    1    3    3  502    0 -0.43937632953E+01 -0.40182409453E+02  0.13816857452E+02  0.42922128736E+02  0.41800000000E+01 0.  1.
         -5    1    3    3    0  502 -0.86823309034E+02  0.78395469070E+02 -0.73888243022E+00  0.11705620406E+03  0.41800000000E+01 0.  1.
        -11    1    1    2    0    0  0.53058193909E+02 -0.48100029838E+02 -0.15433146204E+02  0.73259585127E+02  0.00000000000E+00 0.  1.
         11    1    1    2    0    0  0.38158878420E+02  0.98869702207E+01  0.56331211822E+02  0.68753600689E+02  0.00000000000E+00 0. -1.
</event>
<event>
 7    1  0.2612321E-009  0.1004972E+03  0.7561462E-02  0.1279254E+00
         -1   -1    0    0    0  501 -0.00000000000E+00  0.00000000000E+00  0.13456109041E+03  0.13456109041E+03  0.00000000000E+00 0.  1.
          1   -1    0    0  501    0  0.00000000000E+00 -0.00000000000E+00 -0.16139405861E+03  0.16139405861E+03  0.00000000000E+00 0. -1.
         25    2    1    2    0    0  0.72936460530E+01 -0.93452007171E+02  0.17698158802E+02  0.15731346005E+03  0.12509126657E+03 0.  0.
          5    1    3    3  502    0  0.16821817713E+02 -0.53524085288E+02  0.70566813949E+02  0.90249370569E+02  0.41800000000E+01 0.  1.
         -5    1    3    3    0  502 -0.95281716600E+01 -0.39927921883E+02 -0.52868655147E+02  0.67064089483E+02  0.41800000000E+01 0.  1.
        -11    1    1    2    0    0  0.18202042852E+02  0.48350188985E+02 -0.64917402619E+02  0.82965802000E+02  0.00000000000E+00 0. -1.
         11    1    1    2    0    0 -0.25495688905E+02  0.45101818187E+02  0.20386275615E+02  0.55675886970E+02  0.00000000000E+00 0.  1.
</event>
<event>
 7    1  0.2612321E-009  0.9119722E+02  0.7561462E-02  0.1299978E+00
         -1   -1    0    0    0  501 -0.00000000000E+00  0.00000000000E+00  0.18000562509E+02  0.18000562509E+02  0.00000000000E+00 0.  1.
          1   -1    0    0  501    0  0.00000000000E+00 -0.00000000000E+00 -0.93938268300E+03  0.93938268300E+03  0.00000000000E+00 0. -1.
         25    2    1    2    0    0 -0.30288853945E+02 -0.31451136028E+02 -0.72166090678E+03  0.73372218186E+03  0.12508871708E+03 0.  0.
          5    1    3    3  502    0 -0.56334115558E+02 -0.90491204791E+01 -0.66409336836E+03  0.66655299373E+03  0.41800000000E+01 0. -1.
         -5    1    3    3    0  502  0.26045261613E+02 -0.22402015549E+02 -0.57567538425E+02  0.67169188126E+02  0.41800000000E+01 0. -1.
        -11    1    1    2    0    0 -0.14892420449E+02  0.41673457941E+02 -0.49208213989E+02  0.66180885515E+02  0.00000000000E+00 0.  1.
         11    1    1    2    0    0  0.45181274394E+02 -0.10222321913E+02 -0.15051299972E+03  0.15748017813E+03  0.00000000000E+00 0. -1.
</event>
<event>
 7    1  0.2612321E-009  0.1384513E+03  0.7561462E-02  0.1215428E+00
         -3   -1    0    0    0  501 -0.00000000000E+00  0.00000000000E+00  0.33149313977E+03  0.33149313977E+03  0.00000000000E+00 0.  1.
          3   -1    0    0  501    0  0.00000000000E+00 -0.00000000000E+00 -0.98073395281E+02  0.98073395281E+02  0.00000000000E+00 0. -1.
         25    2    1    2    0    0 -0.97459173721E+02 -0.31644668889E+02  0.39685060198E+01  0.16175447035E+03  0.12509629902E+03 0.  0.
          5    1    3    3  502    0 -0.90643117827E+02  0.27080868513E+02 -0.21729740017E+02  0.97155556970E+02  0.41800000000E+01 0. -1.
         -5    1    3    3    0  502 -0.68160558931E+01 -0.58725537401E+02  0.25698246037E+02  0.64598913384E+02  0.41800000000E+01 0. -1.
        -11    1    1    2    0    0  0.10392026636E+03  0.14887591916E+02  0.22645331707E+03  0.24960402033E+03  0.00000000000E+00 0.  1.
         11    1    1    2    0    0 -0.64610926403E+01  0.16757076973E+02  0.29979213956E+01  0.18208044362E+02  0.00000000000E+00 0. -1.
</event>
<event>
 7    1  0.2612321E-009  0.1084608E+03  0.7561462E-02  0.1263447E+00
          1   -1    0    0  501    0  0.00000000000E+00  0.00000000000E+00  0.83844938209E+03  0.83844938209E+03  0.00000000000E+00 0. -1.
         -1   -1    0    0    0  501 -0.00000000000E+00 -0.00000000000E+00 -0.17915239292E+02  0.17915239292E+02  0.00000000000E+00 0.  1.
         25    2    1    2    0    0  0.48113888897E+02  0.50002126077E+01  0.36225362327E+03  0.38628467821E+03  0.12509283200E+03 0.  0.
          5    1    3    3  502    0 -0.25882993492E+02 -0.22172866417E+02  0.32727970511E+02  0.47435828347E+02  0.41800000000E+01 0. -1.
         -5    1    3    3    0  502  0.73996882389E+02  0.27173079025E+02  0.32952565276E+03  0.33884884986E+03  0.41800000000E+01 0. -1.
        -11    1    1    2    0    0 -0.71986541408E+02  0.13751884357E+02  0.35202336843E+03  0.35957145102E+03  0.00000000000E+00 0. -1.
         11    1    1    2    0    0  0.23872652511E+02 -0.18752096964E+02  0.10625715110E+03  0.11050849215E+03  0.00000000000E+00 0.  1.
</event>
<event>
 7    1  0.2612321E-009  0.1086178E+03  0.7561462E-02  0.1263151E+00
          1   -1    0    0  501    0  0.00000000000E+00  0.00000000000E+00  0.39630312541E+03  0.39630312541E+03  0.00000000000E+00 0. -1.
         -1   -1    0    0    0  501 -0.00000000000E+00 -0.00000000000E+00 -0.35033979861E+02  0.35033979861E+02  0.00000000000E+00 0.  1.
         25    2    1    2    0    0 -0.34577566665E+02 -0.48971674217E+01  0.25909421962E+03  0.28982217504E+03  0.12508992022E+03 0.  0.
          5    1    3    3  502    0 -0.53252990435E+02  0.47046206071E+02  0.11253609315E+03  0.13315806831E+03  0.41800000000E+01 0.  1.
         -5    1    3    3    0  502  0.18675423770E+02 -0.51943373493E+02  0.14655812647E+03  0.15666410673E+03  0.41800000000E+01 0.  1.
        -11    1    1    2    0    0 -0.24717171097E+02  0.17235967721E+02  0.61715094403E+02  0.68678744947E+02  0.00000000000E+00 0. -1.
         11    1    1    2    0    0  0.59294737762E+02 -0.12338800299E+02  0.40459831525E+02  0.72836185280E+02  0.00000000000E+00 0.  1.
</event>
<event>
 7    1  0.2612321E-009  0.1127327E+03  0.7561462E-02  0.1255591E+00
         -1   -1    0    0    0  501 -0.00000000000E+00  0.00000000000E+00  0.15980943598E+02  0.15980943598E+02  0.00000000000E+00 0.  1.
          1   -1    0    0  501    0  0.00000000000E+00 -0.00000000000E+00 -0.11560339179E+04  0.11560339179E+04  0.00000000000E+00 0. -1.
         25    2    1    2    0    0  0.46836133808E+02 -0.50279455551E+01 -0.91416835596E+03  0.92389009826E+03  0.12510086710E+03 0.  0.
          5    1    3    3  502    0  0.82155535022E+02 -0.32632426829E+02 -0.62667042136E+03  0.63288837612E+03  0.41800000000E+01 0. -1.
         -5    1    3    3    0  502 -0.35319401214E+02  0.27604481274E+02 -0.28749793460E+03  0.29100172214E+03  0.41800000000E+01 0. -1.
        -11    1    1    2    0    0 -0.21286379128E+02 -0.37043586803E+02 -0.51439074406E+02  0.66867896896E+02  0.00000000000E+00 0.  1.
         11    1    1    2    0    0 -0.25549754680E+02  0.42071532358E+02 -0.17444554397E+03  0.18125686638E+03  0.00000000000E+00 0. -1.
</event>
<event>
 7    1  0.2612321E-009  0.1189290E+03  0.7561462E-02  0.1244874E+00
          1   -1    0    0  501    0  0.00000000000E+00  0.00000000000E+00  0.81152700760E+02  0.81152700760E+02  0.00000000000E+00 0. -1.
         -1   -1    0    0    0  501 -0.00000000000E+00 -0.00000000000E+00 -0.21329611549E+03  0.21329611549E+03  0.00000000000E+00 0.  1.
         25    2    1    2    0    0 -0.63978932010E+02  0.38983552622E+02 -0.80555538462E+02  0.16658107850E+03  0.12508812822E+03 0.  0.
          5    1    3    3  502    0 -0.63060857727E+02 -0.16576118450E+02 -0.88803637100E+02  0.11024970677E+03  0.41800000000E+01 0.  1.
         -5    1    3    3    0  502 -0.91807428325E+00  0.55559671072E+02  0.82480986377E+01  0.56331371731E+02  0.41800000000E+01 0.  1.
        -11    1    1    2    0    0 -0.23057695713E+02 -0.77258031195E+01 -0.77372050174E+01  0.25518810844E+02  0.00000000000E+00 0.  1.
         11    1    1    2    0    0  0.87036627723E+02 -0.31257749502E+02 -0.43850671246E+02  0.10234892690E+03  0.00000000000E+00 0. -1.
</event>
<event>
 7    1  0.2612321E-009  0.7450017E+02  0.7561462E-02  0.1345426E+00
          1   -1    0    0  501    0  0.00000000000E+00  0.00000000000E+00  0.33001392148E+02  0.33001392148E+02  0.00000000000E+00 0. -1.
         -1   -1    0    0    0  501 -0.00000000000E+00 -0.00000000000E+00 -0.49640001638E+03  0.49640001638E+03  0.00000000000E+00 0.  1.
         25    2    1    2    0    0 -0.23272797288E+02  0.35686495675E+02 -0.35596155033E+03  0.37969874210E+03  0.12508940953E+03 0.  0.
          5    1    3    3  502    0 -0.19362022307E+02  0.37357279239E+02 -0.36577755166E+03  0.36821344886E+03  0.41800000000E+01 0.  1.
         -5    1    3    3    0  502 -0.39107749814E+01 -0.16707835636E+01  0.98160013359E+01  0.11485293244E+02  0.41800000000E+01 0.  1.
        -11    1    1    2    0    0 -0.27916358708E+02 -0.40662418281E+02 -0.33448439046E+02  0.59594911012E+02  0.00000000000E+00 0. -1.
         11    1    1    2    0    0  0.51189155997E+02  0.49759226054E+01 -0.73988634862E+02  0.90107755416E+02  0.00000000000E+00 0.  1.
</event>
<event>
 7    1  0.2612321E-009  0.3065566E+03  0.7561462E-02  0.1082008E+00
          2   -1    0    0  501    0  0.00000000000E+00  0.00000000000E+00  0.17055895316E+04  0.17055895316E+04  0.00000000000E+00 0.  1.
         -2   -1    0    0    0  501 -0.00000000000E+00 -0.00000000000E+00 -0.62618352049E+02  0.62618352049E+02  0.00000000000E+00 0. -1.
         25    2    1    2    0    0 -0.27587898318E+03  0.12141527570E+03  0.93663144983E+03  0.99185509861E+03  0.12508869367E+03 0.  0.
          5    1    3    3  502    0 -0.17474008805E+03  0.34492741980E+02  0.38356844846E+03  0.42292561364E+03  0.41800000000E+01 0.  1.
         -5    1    3    3    0  502 -0.10113889514E+03  0.86922533720E+02  0.55306300137E+03  0.56892948497E+03  0.41800000000E+01 0.  1.
        -11    1    1    2    0    0  0.15832302868E+03 -0.65211125414E+02  0.25948222671E+03  0.31088534585E+03  0.00000000000E+00 0. -1.
         11    1    1    2    0    0  0.11755595450E+03 -0.56204150286E+02  0.44685750301E+03  0.46546743919E+03  0.00000000000E+00 0.  1.
</event>
<event>
 7    1  0.2612321E-009  0.1074711E+03  0.7561462E-02  0.1265326E+00
          1   -1    0    0  501    0  0.00000000000E+00  0.00000000000E+00  0.49679286411E+03  0.49679286411E+03  0.00000000000E+00 0. -1.
         -1   -1    0    0    0  501 -0.00000000000E+00 -0.00000000000E+00 -0.28035603725E+02  0.28035603725E+02  0.00000000000E+00 0.  1.
         25    2    1    2    0    0  0.38465850466E+01 -0.42163965794E+02  0.30997250564E+03  0.33693211048E+03  0.12509075343E+03 0.  0.
          5    1    3    3  502    0  0.30244077246E+02 -0.76203679237E+02  0.24883557676E+03  0.26202732987E+03  0.41800000000E+01 0.  1.
         -5    1    3    3    0  502 -0.26397492200E+02  0.34039713443E+02  0.61136928882E+02  0.74904780614E+02  0.41800000000E+01 0.  1.
        -11    1    1    2    0    0 -0.21101103029E+02  0.60690761652E+02  0.14604409554E+03  0.15955407529E+03  0.00000000000E+00 0. -1.
         11    1    1    2    0    0  0.17254517983E+02 -0.18526795859E+02  0.12740659205E+02  0.28342282064E+02  0.00000000000E+00 0.  1.
</event>
<event>
 7    1  0.2612321E-009  0.1129695E+03  0.7561462E-02  0.1255168E+00
         -1   -1    0    0    0  501 -0.00000000000E+00  0.00000000000E+00  0.33262447495E+03  0.33262447495E+03  0.00000000000E+00 0.  1.
          1   -1    0    0  501    0  0.00000000000E+00 -0.00000000000E+00 -0.42093181349E+02  0.42093181349E+02  0.00000000000E+00 0. -1.
         25    2    1    2    0    0  0.47882868902E+02 -0.31447045034E+00  0.15442001564E+03  0.20440863165E+03  0.12507789347E+03 0.  0.
          5    1    3    3  502    0  0.15160971735E+02  0.61706366042E+02  0.74160423519E+02  0.97748511449E+02  0.41800000000E+01 0.  1.
         -5    1    3    3    0  502  0.32721897167E+02 -0.62020836492E+02  0.80259592125E+02  0.10666012020E+03  0.41800000000E+01 0.  1.
        -11    1    1    2    0    0 -0.19715163030E+02  0.39269219770E+02  0.28297893602E+02  0.52264041720E+02  0.00000000000E+00 0. -1.
         11    1    1    2    0    0 -0.28167705871E+02 -0.38954749319E+02  0.10781338436E+03  0.11804498293E+03  0.00000000000E+00 0.  1.
</event>
<event>
 7    1  0.2612321E-009  0.1977226E+03  0.7561462E-02  0.1151675E+00
         -2   -1    0    0    0  501 -0.00000000000E+00  0.00000000000E+00  0.13029456981E+03  0.13029456981E+03  0.00000000000E+00 0.  1.
          2   -1    0    0  501    0  0.00000000000E+00 -0.00000000000E+00 -0.41638987144E+03  0.41638987144E+03  0.00000000000E+00 0. -1.
         25    2    1    2    0    0  0.12253358595E+03 -0.12932031337E+03 -0.25737009081E+02  0.21920322143E+03  0.12509770388E+03 0.  0.
          5    1    3    3  502    0  0.13465827057E+03 -0.13902240705E+03 -0.40031840571E+02  0.19768687401E+03  0.41800000000E+01 0. -1.
         -5    1    3    3    0  502 -0.12124684625E+02  0.97020936860E+01  0.14294831490E+02  0.21516347424E+02  0.41800000000E+01 0. -1.
        -11    1    1    2    0    0 -0.47234700484E+02  0.16304821929E+02 -0.12985243906E+03  0.13913525821E+03  0.00000000000E+00 0. -1.
         11    1    1    2    0    0 -0.75298885463E+02  0.11301549144E+03 -0.13050585349E+03  0.18834596160E+03  0.00000000000E+00 0.  1.
</event>
<event>
 7    1  0.2612321E-009  0.9445822E+02  0.7561462E-02  0.1292401E+00
          2   -1    0    0  501    0  0.00000000000E+00  0.00000000000E+00  0.16133383913E+03  0.16133383913E+03  0.00000000000E+00 0. -1.
         -2   -1    0    0    0  501 -0.00000000000E+00 -0.00000000000E+00 -0.93811314900E+02  0.93811314900E+02  0.00000000000E+00 0.  1.
         25    2    1    2    0    0  0.28133185233E+01  0.37316587614E+02 -0.91670392604E+01  0.13089030430E+03  0.12509114548E+03 0.  0.
          5    1    3    3  502    0  0.42528433445E+02  0.30944894482E+02  0.40737401798E+02  0.66657801127E+02  0.41800000000E+01 0. -1.
         -5    1    3    3    0  502 -0.39715114922E+02  0.63716931316E+01 -0.49904441058E+02  0.64232503174E+02  0.41800000000E+01 0. -1.
        -11    1    1    2    0    0 -0.41111957610E+02  0.15621392144E+01  0.45720004981E+02  0.61505708620E+02  0.00000000000E+00 0.  1.
         11    1    1    2    0    0  0.38298639087E+02 -0.38878726828E+02  0.30969558509E+02  0.62749141109E+02  0.00000000000E+00 0. -1.
</event>
<event>
 7    1  0.2612321E-009  0.1589434E+03  0.7561462E-02  0.1189895E+00
         -2   -1    0    0    0  501 -0.00000000000E+00  0.00000000000E+00  0.15125879889E+02  0.15125879889E+02  0.00000000000E+00 0. -1.
          2   -1    0    0  501    0  0.00000000000E+00 -0.00000000000E+00 -0.23669543479E+04  0.23669543479E+04  0.00000000000E+00 0.  1.
         25    2    1    2    0    0 -0.77629959486E+01  0.14442115088E+03 -0.15803774264E+04  0.15919038835E+04  0.12508969355E+03 0.  0.
          5    1    3    3  502    0 -0.47136877235E+02  0.56736223251E+02 -0.34690575151E+03  0.35468571589E+03  0.41800000000E+01 0. -1.
         -5    1    3    3    0  502  0.39373881286E+02  0.87684927624E+02 -0.12334716749E+04  0.12372181676E+04  0.41800000000E+01 0. -1.
        -11    1    1    2    0    0 -0.98727533892E+01 -0.22035268919E+02 -0.30118265869E+02  0.38602257379E+02  0.00000000000E+00 0.  1.
         11    1    1    2    0    0  0.17635749338E+02 -0.12238588196E+03 -0.74133277579E+03  0.75157408698E+03  0.00000000000E+00 0. -1.
</event>
<event>
 7    1  0.2612321E-009  0.1452228E+03  0.7561462E-02  0.1206469E+00
          4   -1    0    0  501    0  0.00000000000E+00  0.00000000000E+00  0.13493556380E+03  0.13493556380E+03  0.00000000000E+00 0. -1.
         -4   -1    0    0    0  501 -0.00000000000E+00 -0.00000000000E+00 -0.22457971938E+03  0.22457971938E+03  0.00000000000E+00 0.  1.
         25    2    1    2    0    0  0.75045025099E+02  0.10638306107E+03 -0.85960882145E+02  0.19996463416E+03  0.12508984844E+03 0.  0.
          5    1    3    3  502    0  0.32227779390E+02  0.70706641566E+02 -0.11353499024E+03  0.13764347182E+03  0.41800000000E+01 0.  1.
         -5    1    3    3    0  502  0.42817245710E+02  0.35676419500E+02  0.27574108096E+02  0.62321162344E+02  0.41800000000E+01 0.  1.
        -11    1    1    2    0    0 -0.39683805315E+02 -0.11387619764E+03  0.97561232599E+01  0.12098667173E+03  0.00000000000E+00 0. -1.
         11    1    1    2    0    0 -0.35361219784E+02  0.74931365784E+01 -0.13439396701E+02  0.38563977286E+02  0.00000000000E+00 0.  1.
</event>
<event>
 7    1  0.2612321E-009  0.3423853E+03  0.7561462E-02  0.1065785E+00
         -3   -1    0    0    0  501 -0.00000000000E+00  0.00000000000E+00  0.41751487381E+03  0.41751487381E+03  0.00000000000E+00 0.  1.
          3   -1    0    0  501    0  0.00000000000E+00 -0.00000000000E+00 -0.34593623230E+03  0.34593623230E+03  0.00000000000E+00 0. -1.
         25    2    1    2    0    0  0.14155596665E+03 -0.30308118077E+03  0.18051906949E+03  0.40016633400E+03  0.12509862744E+03 0.  0.
          5    1    3    3  502    0  0.12099353951E+03 -0.28799744801E+03  0.12054010857E+03  0.33485721858E+03  0.41800000000E+01 0.  1.
         -5    1    3    3    0  502  0.20562427136E+02 -0.15083732764E+02  0.59978960923E+02  0.65309115423E+02  0.41800000000E+01 0.  1.
        -11    1    1    2    0    0 -0.88512146211E+02  0.87324616625E+02 -0.41939480116E+02  0.13122083938E+03  0.00000000000E+00 0.  1.
         11    1    1    2    0    0 -0.53043820435E+02  0.21575656414E+03 -0.67000947868E+02  0.23206393273E+03  0.00000000000E+00 0. -1.
</event>
<event>
 7    1  0.2612321E-009  0.1008444E+03  0.7561462E-02  0.1278530E+00
          1   -1    0    0  501    0  0.00000000000E+00  0.00000000000E+00  0.12478891551E+04  0.12478891551E+04  0.00000000000E+00 0. -1.
         -1   -1    0    0    0  501 -0.00000000000E+00 -0.00000000000E+00 -0.11022967059E+02  0.11022967059E+02  0.00000000000E+00 0.  1.
         25    2    1    2    0    0 -0.21532570727E+02 -0.11854212631E+02  0.90093915569E+03  0.90991380751E+03  0.12509037085E+03 0.  0.
          5    1    3    3  502    0 -0.37843865790E+02  0.38763488973E+02  0.20989126152E+03  0.21681000972E+03  0.41800000000E+01 0. -1.
         -5    1    3    3    0  502  0.16311295063E+02 -0.50617701604E+02  0.69104789417E+03  0.69310379778E+03  0.41800000000E+01 0. -1.
        -11    1    1    2    0    0 -0.33581622962E+02  0.18756458328E+02  0.11837966194E+03  0.12447198275E+03  0.00000000000E+00 0.  1.
         11    1    1    2    0    0  0.55114193689E+02 -0.69022456974E+01  0.21754737037E+03  0.22452633186E+03  0.00000000000E+00 0. -1.
</event>
<event>
 7    1  0.2612321E-009  0.1072420E+03  0.7561462E-02  0.1265764E+00
         -1   -1    0    0    0  501 -0.00000000000E+00  0.00000000000E+00  0.13209149286E+03  0.13209149286E+03  0.00000000000E+00 0.  1.
          1   -1    0    0  501    0  0.00000000000E+00 -0.00000000000E+00 -0.10684115520E+03  0.10684115520E+03  0.00000000000E+00 0. -1.
         25    2    1    2    0    0 -0.46090862956E+02 -0.20783996262E+02  0.49824379819E+01  0.13501302838E+03  0.12508937203E+03 0.  0.
          5    1    3    3  502    0 -0.84167474952E+02  0.83675538273E+01  0.14573476791E+02  0.85930427805E+02  0.41800000000E+01 0.  1.
         -5    1    3    3    0  502  0.38076611996E+02 -0.29151550089E+02 -0.95910388091E+01  0.49082600575E+02  0.41800000000E+01 0.  1.
        -11    1    1    2    0    0  0.62411197460E+02  0.19028467406E+02  0.41315354822E+02  0.77228224661E+02  0.00000000000E+00 0.  1.
         11    1    1    2    0    0 -0.16320334504E+02  0.17555288555E+01 -0.21047455142E+02  0.26691395015E+02  0.00000000000E+00 0. -1.
</event>
<event>
 7    1  0.2612321E-009  0.1222146E+03  0.7561462E-02  0.1239488E+00
          1   -1    0    0  501    0  0.00000000000E+00  0.00000000000E+00  0.83672947709E+02  0.83672947709E+02  0.00000000000E+00 0. -1.
         -1   -1    0    0    0  501 -0.00000000000E+00 -0.00000000000E+00 -0.34562748692E+03  0.34562748692E+03  0.00000000000E+00 0.  1.
         25    2    1    2    0    0  0.78383243488E+02 -0.24833176594E+02 -0.11540132168E+02  0.15016062610E+03  0.12511762251E+03 0.  0.
          5    1    3    3  502    0  0.32688480813E+02  0.42823749941E+02 -0.35881739286E+02  0.64864334970E+02  0.41800000000E+01 0. -1.
         -5    1    3    3    0  502  0.45694762674E+02 -0.67656926536E+02  0.24341607118E+02  0.85296291134E+02  0.41800000000E+01 0. -1.
        -11    1    1    2    0    0 -0.64667307865E+02 -0.15112015902E+02 -0.21160789789E+03  0.22178398540E+03  0.00000000000E+00 0.  1.
         11    1    1    2    0    0 -0.13715935623E+02  0.39945192497E+02 -0.38806509156E+02  0.57355823126E+02  0.00000000000E+00 0. -1.
</event>
<event>
 7    1  0.2612321E-009  0.1037726E+03  0.7561462E-02  0.1272557E+00
         -2   -1    0    0    0  501 -0.00000000000E+00  0.00000000000E+00  0.37031098919E+02  0.37031098919E+02  0.00000000000E+00 0.  1.
          2   -1    0    0  501    0  0.00000000000E+00 -0.00000000000E+00 -0.42421097606E+03  0.42421097606E+03  0.00000000000E+00 0. -1.
         25    2    1    2    0    0 -0.34483411136E+02  0.28240219074E+02 -0.13929759482E+03  0.19244973291E+03  0.12508582717E+03 0.  0.
          5    1    3    3  502    0  0.15559605262E+02  0.51942550365E+02 -0.15158743256E+02  0.56456972567E+02  0.41800000000E+01 0.  1.
         -5    1    3    3    0  502 -0.50043016398E+02 -0.23702331292E+02 -0.12413885156E+03  0.13599276035E+03  0.41800000000E+01 0.  1.
        -11    1    1    2    0    0  0.38402139523E+02 -0.56932179342E+02 -0.12581040002E+03  0.14333266940E+03  0.00000000000E+00 0.  1.
         11    1    1    2    0    0 -0.39187283875E+01  0.28691960268E+02 -0.12207188231E+03  0.12545967267E+03  0.00000000000E+00 0. -1.
</event>
<event>
 7    1  0.2612321E-009  0.1597590E+03  0.7561462E-02  0.1188969E+00
         -1   -1    0    0    0  501 -0.00000000000E+00  0.00000000000E+00  0.23421488084E+02  0.23421488084E+02  0.00000000000E+00 0.  1.
          1   -1    0    0  501    0  0.00000000000E+00 -0.00000000000E+00 -0.16253400704E+04  0.16253400704E+04  0.00000000000E+00 0. -1.
         25    2    1    2    0    0  0.11423502645E+03 -0.90477217289E+02 -0.11308803562E+04  0.11470718118E+04  0.12509034008E+03 0.  0.
          5    1    3    3  502    0  0.14710024895E+02 -0.18987076157E+02 -0.26901615557E+02  0.36305140310E+02  0.41800000000E+01 0.  1.
         -5    1    3    3    0  502  0.99525001552E+02 -0.71490141132E+02 -0.11039787406E+04  0.11107666715E+04  0.41800000000E+01 0.  1.
        -11    1    1    2    0    0 -0.20906543133E+02  0.75080717868E+02 -0.22304828428E+03  0.23627258593E+03  0.00000000000E+00 0.  1.
         11    1    1    2    0    0 -0.93328483314E+02  0.15396499421E+02 -0.24798994184E+03  0.26541716080E+03  0.00000000000E+00 0. -1.
</event>
<event>
 7    1  0.3324129E-009  0.1392462E+03  0.7561462E-02  0.1214347E+00
          2   -1    0    0  501    0  0.00000000000E+00  0.00000000000E+00  0.13278185826E+03  0.13278185826E+03  0.00000000000E+00 0. -1.
         -2   -1    0    0    0  501 -0.00000000000E+00 -0.00000000000E+00 -0.19979357835E+03  0.19979357835E+03  0.00000000000E+00 0.  1.
         25    2    1    2    0    0  0.91362382197E+02 -0.74588380200E+02 -0.65062975593E+02  0.18382467808E+03  0.12509120726E+03 0.  0.
          5    1    3    3  502    0 -0.16833882135E+02 -0.41024196186E+02 -0.53892260892E+02  0.69915752477E+02  0.41800000000E+01 0. -1.
         -5    1    3    3    0  502  0.10819626433E+03 -0.33564184014E+02 -0.11170714701E+02  0.11390892560E+03  0.41800000000E+01 0. -1.
        -11    1    1    2    0    0 -0.77419231303E+02  0.73258436877E+02  0.32608981819E+02  0.11146246742E+03  0.00000000000E+00 0. -1.
         11    1    1    2    0    0 -0.13943150894E+02  0.13299433231E+01 -0.34557726315E+02  0.37288291114E+02  0.00000000000E+00 0.  1.
</event>
<event>
 7    1  0.2633203E-009  0.9716525E+02  0.7561462E-02  0.1286373E+00
         -2   -1    0    0    0  501 -0.00000000000E+00  0.00000000000E+00  0.31479804864E+02  0.31479804864E+02  0.00000000000E+00 0.  1.
          2   -1    0    0  501    0  0.00000000000E+00 -0.00000000000E+00 -0.65801666314E+03  0.65801666314E+03  0.00000000000E+00 0. -1.
         25    2    1    2    0    0 -0.38564925418E+02 -0.80547188534E+00 -0.54549740296E+03  0.56098475432E+03  0.12509426720E+03 0.  0.
          5    1    3    3  502    0  0.20930249166E+02 -0.45100731453E+02 -0.13737617002E+03  0.14615688762E+03  0.41800000000E+01 0.  1.
         -5    1    3    3    0  502 -0.59495174583E+02  0.44295259567E+02 -0.40812123294E+03  0.41482786670E+03  0.41800000000E+01 0.  1.
        -11    1    1    2    0    0  0.39664288410E+02  0.24370056410E+02 -0.26261119404E+01  0.46626729335E+02  0.00000000000E+00 0.  1.
         11    1    1    2    0    0 -0.10993629925E+01 -0.23564584525E+02 -0.78413343383E+02  0.81884984358E+02  0.00000000000E+00 0. -1.
</event>
<event>
 7    1  0.2612321E-009  0.1495922E+03  0.7561462E-02  0.1200975E+00
         -1   -1    0    0    0  501 -0.00000000000E+00  0.00000000000E+00  0.96870663380E+02  0.96870663380E+02  0.00000000000E+00 0.  1.
          1   -1    0    0  501    0  0.00000000000E+00 -0.00000000000E+00 -0.41316402181E+03  0.41316402181E+03  0.00000000000E+00 0. -1.
         25    2    1    2    0    0  0.13216683519E+03 -0.13516097633E+02 -0.34253005473E+02  0.18566631493E+03  0.12509178589E+03 0.  0.
          5    1    3    3  502    0  0.53370911515E+02 -0.25732217990E+02  0.43959729290E+02  0.73895408774E+02  0.41800000000E+01 0.  1.
         -5    1    3    3    0  502  0.78795923675E+02  0.12216120356E+02 -0.78212734763E+02  0.11177090616E+03  0.41800000000E+01 0.  1.
        -11    1    1    2    0    0 -0.13060211749E+03 -0.14928382072E+02 -0.23874161881E+03  0.27253867659E+03  0.00000000000E+00 0. -1.
         11    1    1    2    0    0 -0.15647176980E+01  0.28444479705E+02 -0.43298734144E+02  0.51829693667E+02  0.00000000000E+00 0.  1.
</event>
<event>
 7    1  0.2612321E-009  0.1333669E+03  0.7561462E-02  0.1222544E+00
         -2   -1    0    0    0  501 -0.00000000000E+00  0.00000000000E+00  0.22438688663E+02  0.22438688663E+02  0.00000000000E+00 0.  1.
          2   -1    0    0  501    0  0.00000000000E+00 -0.00000000000E+00 -0.12943668686E+04  0.12943668686E+04  0.00000000000E+00 0. -1.
         25    2    1    2    0    0 -0.28814690576E+02 -0.96769546641E+02 -0.99414066616E+03  0.10070540580E+04  0.12509028769E+03 0.  0.
          5    1    3    3  502    0 -0.47544981847E+02  0.10298347299E+02 -0.40744004291E+03  0.41035526343E+03  0.41800000000E+01 0.  1.
         -5    1    3    3    0  502  0.18730291272E+02 -0.10706789394E+03 -0.58670062325E+03  0.59669879458E+03  0.41800000000E+01 0.  1.
        -11    1    1    2    0    0 -0.36664498587E+01  0.59836400566E+02 -0.54197920486E+02  0.80816163435E+02  0.00000000000E+00 0.  1.
         11    1    1    2    0    0  0.32481140434E+02  0.36933146075E+02 -0.22358959331E+03  0.22893533584E+03  0.00000000000E+00 0. -1.
</event>
<event>
 7    1  0.2612321E-009  0.7894178E+02  0.7561462E-02  0.1332082E+00
         -3   -1    0    0    0  501 -0.00000000000E+00  0.00000000000E+00  0.40470373065E+03  0.40470373065E+03  0.00000000000E+00 0.  1.
          3   -1    0    0  501    0  0.00000000000E+00 -0.00000000000E+00 -0.29759087235E+02  0.29759087235E+02  0.00000000000E+00 0. -1.
         25    2    1    2    0    0  0.10564547500E+02 -0.11860840082E+02  0.24073801037E+03  0.27176238086E+03  0.12509081830E+03 0.  0.
          5    1    3    3  502    0 -0.28654720170E+02 -0.43067237608E+02  0.42012037955E+02  0.66770979298E+02  0.41800000000E+01 0. -1.
         -5    1    3    3    0  502  0.39219267671E+02  0.31206397526E+02  0.19872597241E+03  0.20499140156E+03  0.41800000000E+01 0. -1.
        -11    1    1    2    0    0 -0.18974274160E+02 -0.17095316906E+02  0.12972666231E+03  0.13221679112E+03  0.00000000000E+00 0.  1.
         11    1    1    2    0    0  0.84097266600E+01  0.28956156987E+02  0.44799707400E+01  0.30483645907E+02  0.00000000000E+00 0. -1.
</event>
<event>
 7    1  0.2612321E-009  0.1053567E+03  0.7561462E-02  0.1269418E+00
          1   -1    0    0  501    0  0.00000000000E+00  0.00000000000E+00  0.10169799184E+04  0.10169799184E+04  0.00000000000E+00 0. -1.
         -1   -1    0    0    0  501 -0.00000000000E+00 -0.00000000000E+00 -0.12223187748E+02  0.12223187748E+02  0.00000000000E+00 0.  1.
         25    2    1    2    0    0  0.10801583501E+02 -0.21026169856E+02  0.63707990404E+03  0.64967446741E+03  0.12508930988E+03 0.  0.
          5    1    3    3  502    0  0.51584439787E+02 -0.48979112083E+02  0.26951001215E+03  0.27877056319E+03  0.41800000000E+01 0. -1.
         -5    1    3    3    0  502 -0.40782856285E+02  0.27952942227E+02  0.36756989188E+03  0.37090390422E+03  0.41800000000E+01 0. -1.
        -11    1    1    2    0    0 -0.43044530823E+02 -0.10963357614E+02  0.23846047264E+03  0.24256220616E+03  0.00000000000E+00 0. -1.
         11    1    1    2    0    0  0.32242947322E+02  0.31989527470E+02  0.12921635394E+03  0.13696643255E+03  0.00000000000E+00 0.  1.
</event>
<event>
 7    1  0.2612321E-009  0.1490072E+03  0.7561462E-02  0.1201698E+00
         -3   -1    0    0    0  501 -0.00000000000E+00  0.00000000000E+00  0.13826980228E+03  0.13826980228E+03  0.00000000000E+00 0.  1.
          3   -1    0    0  501    0  0.00000000000E+00 -0.00000000000E+00 -0.18366095337E+03  0.18366095337E+03  0.00000000000E+00 0. -1.
         25    2    1    2    0    0  0.10775226466E+03 -0.20137874575E+02  0.14469799296E+02  0.16695642586E+03  0.12509591726E+03 0.  0.
          5    1    3    3  502    0  0.87014923535E+02  0.41522787551E+02 -0.10659865382E+02  0.97091935473E+02  0.41800000000E+01 0.  1.
         -5    1    3    3    0  502  0.20737341120E+02 -0.61660662126E+02  0.25129664678E+02  0.69864490389E+02  0.41800000000E+01 0.  1.
        -11    1    1    2    0    0 -0.10198807505E+03  0.44509046790E+02 -0.65746202556E+02  0.12924854292E+03  0.00000000000E+00 0.  1.
         11    1    1    2    0    0 -0.57641896096E+01 -0.24371172215E+02  0.58852521688E+01  0.25725786870E+02  0.00000000000E+00 0. -1.
</event>
<event>
 7    1  0.2612321E-009  0.2330164E+03  0.7561462E-02  0.1124535E+00
         -2   -1    0    0    0  501 -0.00000000000E+00  0.00000000000E+00  0.25243384104E+02  0.25243384104E+02  0.00000000000E+00 0. -1.
          2   -1    0    0  501    0  0.00000000000E+00 -0.00000000000E+00 -0.25870219638E+04  0.25870219638E+04  0.00000000000E+00 0.  1.
         25    2    1    2    0    0  0.71854749414E+02 -0.20965162622E+03 -0.16667892898E+04  0.16861043402E+04  0.12507757554E+03 0.  0.
          5    1    3    3  502    0 -0.21057119172E+02 -0.49731762233E+02 -0.67780548203E+03  0.67996646558E+03  0.41800000000E+01 0.  1.
         -5    1    3    3    0  502  0.92911868587E+02 -0.15991986398E+03 -0.98898380780E+03  0.10061378746E+04  0.41800000000E+01 0.  1.
        -11    1    1    2    0    0 -0.61358553760E+02  0.10442204562E+03 -0.33377057198E+03  0.35506567062E+03  0.00000000000E+00 0.  1.
         11    1    1    2    0    0 -0.10496195655E+02  0.10522958060E+03 -0.56121871790E+03  0.57109533712E+03  0.00000000000E+00 0. -1.
</event>
<event>
 7    1  0.2612321E-009  0.2293750E+03  0.7561462E-02  0.1127080E+00
          1   -1    0    0  501    0  0.00000000000E+00  0.00000000000E+00  0.20748713012E+03  0.20748713012E+03  0.00000000000E+00 0. -1.
         -1   -1    0    0    0  501 -0.00000000000E+00 -0.00000000000E+00 -0.27234473317E+03  0.27234473317E+03  0.00000000000E+00 0.  1.
         25    2    1    2    0    0  0.60044903166E+02 -0.20206360813E+03 -0.34849340562E+02  0.24758540203E+03  0.12509581382E+03 0.  0.
          5    1    3    3  502    0  0.96206323724E+02 -0.13023777635E+03 -0.40192730208E+02  0.16688458009E+03  0.41800000000E+01 0.  1.
         -5    1    3    3    0  502 -0.36161420558E+02 -0.71825831782E+02  0.53433896464E+01  0.80700821934E+02  0.41800000000E+01 0.  1.
        -11    1    1    2    0    0 -0.58170842555E+01  0.10426548526E+03  0.25361069145E+02  0.10746308070E+03  0.00000000000E+00 0. -1.
         11    1    1    2    0    0 -0.54227818911E+02  0.97798122865E+02 -0.55369331634E+02  0.12478338057E+03  0.00000000000E+00 0.  1.
</event>
<event>
 7    1  0.2612321E-009  0.1616361E+03  0.7561462E-02  0.1186862E+00
         -1   -1    0    0    0  501 -0.00000000000E+00  0.00000000000E+00  0.46573790827E+02  0.46573790827E+02  0.00000000000E+00 0.  1.
          1   -1    0    0  501    0  0.00000000000E+00 -0.00000000000E+00 -0.75425632747E+03  0.75425632747E+03  0.00000000000E+00 0. -1.
         25    2    1    2    0    0 -0.77550282946E+01  0.15373405711E+03 -0.39003670439E+03  0.43757345721E+03  0.12509036296E+03 0.  0.
          5    1    3    3  502    0 -0.34777795794E+02  0.10478210537E+03 -0.35419372045E+03  0.37102486263E+03  0.41800000000E+01 0.  1.
         -5    1    3    3    0  502  0.27022767499E+02  0.48951951742E+02 -0.35842983940E+02  0.66548594578E+02  0.41800000000E+01 0.  1.
        -11    1    1    2    0    0  0.19064944289E+02 -0.10141102561E+03 -0.27831997843E+03  0.29683274518E+03  0.00000000000E+00 0. -1.
         11    1    1    2    0    0 -0.11309915995E+02 -0.52323031500E+02 -0.39325853816E+02  0.66423915900E+02  0.00000000000E+00 0.  1.
</event>
<event>
 7    1  0.2612321E-009  0.1092645E+03  0.7561462E-02  0.1261938E+00
          1   -1    0    0  501    0  0.00000000000E+00  0.00000000000E+00  0.12169866467E+03  0.12169866467E+03  0.00000000000E+00 0. -1.
         -1   -1    0    0    0  501 -0.00000000000E+00 -0.00000000000E+00 -0.13089412745E+03  0.13089412745E+03  0.00000000000E+00 0.  1.
         25    2    1    2    0    0  0.31004369571E+02 -0.44676552582E+02  0.29662874020E+02  0.13958535450E+03  0.12508764852E+03 0.  0.
          5    1    3    3  502    0  0.40898633890E+01 -0.72933396898E+02  0.56156197792E+02  0.92233390461E+02  0.41800000000E+01 0.  1.
         -5    1    3    3    0  502  0.26914506182E+02  0.28256844316E+02 -0.26493323772E+02  0.47351964037E+02  0.41800000000E+01 0.  1.
        -11    1    1    2    0    0  0.76549956067E+01  0.62908029145E+02 -0.22884540216E+02  0.67377453719E+02  0.00000000000E+00 0.  1.
         11    1    1    2    0    0 -0.38659365177E+02 -0.18231476564E+02 -0.15973796577E+02  0.45629983900E+02  0.00000000000E+00 0. -1.
</event>
<event>
 7    1  0.2612321E-009  0.1170948E+03  0.7561462E-02  0.1247968E+00
         -1   -1    0    0    0  501 -0.00000000000E+00  0.00000000000E+00  0.47704487724E+03  0.47704487724E+03  0.00000000000E+00 0.  1.
          1   -1    0    0  501    0  0.00000000000E+00 -0.00000000000E+00 -0.74156056402E+02  0.74156056402E+02  0.00000000000E+00 0. -1.
         25    2    1    2    0    0 -0.24435677045E+02 -0.32132018724E+02  0.41802164678E+03  0.43820033530E+03  0.12509143752E+03 0.  0.
          5    1    3    3  502    0 -0.56296090959E+02 -0.61954002237E+02  0.22099353509E+03  0.23635389398E+03  0.41800000000E+01 0.  1.
         -5    1    3    3    0  502  0.31860413914E+02  0.29821983514E+02  0.19702811169E+03  0.20184644132E+03  0.41800000000E+01 0.  1.
        -11    1    1    2    0    0  0.37688934235E+02  0.62734707284E+02  0.61428007112E+01  0.73442720962E+02  0.00000000000E+00 0. -1.
         11    1    1    2    0    0 -0.13253257190E+02 -0.30602688560E+02 -0.21275626653E+02  0.39557877379E+02  0.00000000000E+00 0.  1.
</event>
<event>
 7    1  0.2612321E-009  0.2176275E+03  0.7561462E-02  0.1135664E+00
          3   -1    0    0  501    0  0.00000000000E+00  0.00000000000E+00  0.78312290908E+03  0.78312290908E+03  0.00000000000E+00 0. -1.
         -3   -1    0    0    0  501 -0.00000000000E+00 -0.00000000000E+00 -0.65524963091E+02  0.65524963091E+02  0.00000000000E+00 0.  1.
         25    2    1    2    0    0  0.17896647068E+03  0.91681347696E+02  0.35184230195E+03  0.42411485091E+03  0.12508370866E+03 0.  0.
          5    1    3    3  502    0  0.16697283079E+03  0.28170710388E+02  0.28120154457E+03  0.32827624985E+03  0.41800000000E+01 0.  1.
         -5    1    3    3    0  502  0.11993639891E+02  0.63510637308E+02  0.70640757383E+02  0.95838601058E+02  0.41800000000E+01 0.  1.
        -11    1    1    2    0    0 -0.53517045383E+02 -0.25982161546E+02  0.47273793254E+02  0.75986567193E+02  0.00000000000E+00 0.  1.
         11    1    1    2    0    0 -0.12544942530E+03 -0.65699186149E+02  0.31848185078E+03  0.34854645407E+03  0.00000000000E+00 0. -1.
</event>
<event>
 7    1  0.2612321E-009  0.1183694E+03  0.7561462E-02  0.1245812E+00
          1   -1    0    0  501    0  0.00000000000E+00  0.00000000000E+00  0.23398030377E+03  0.23398030377E+03  0.00000000000E+00 0. -1.
         -1   -1    0    0    0  501 -0.00000000000E+00 -0.00000000000E+00 -0.75028041743E+02  0.75028041743E+02  0.00000000000E+00 0.  1.
         25    2    1    2    0    0 -0.25102487991E+02  0.70666096124E+02  0.76596438557E+02  0.16473541207E+03  0.12508760749E+03 0.  0.
          5    1    3    3  502    0 -0.61291638233E+02  0.49218955499E+02  0.17059960879E+01  0.78737242270E+02  0.41800000000E+01 0. -1.
         -5    1    3    3    0  502  0.36189150242E+02  0.21447140625E+02  0.74890442469E+02  0.85998169803E+02  0.41800000000E+01 0. -1.
        -11    1    1    2    0    0 -0.28181648015E+02 -0.12131104292E+01  0.77428169231E+01  0.29251121955E+02  0.00000000000E+00 0. -1.
         11    1    1    2    0    0  0.53284136005E+02 -0.69452985695E+02  0.74613006551E+02  0.11502181149E+03  0.00000000000E+00 0.  1.
</event>
<event>
 7    1  0.2612321E-009  0.7385651E+02  0.7561462E-02  0.1347449E+00
          2   -1    0    0  501    0  0.00000000000E+00  0.00000000000E+00  0.24398667788E+03  0.24398667788E+03  0.00000000000E+00 0. -1.
         -2   -1    0    0    0  501 -0.00000000000E+00 -0.00000000000E+00 -0.50500839920E+02  0.50500839920E+02  0.00000000000E+00 0.  1.
         25    2    1    2    0    0 -0.13740875879E+02  0.20051724880E+01  0.12108632210E+03  0.17464839509E+03  0.12508929658E+03 0.  0.
          5    1    3    3  502    0  0.10130667074E+00  0.39221738384E+02  0.12816641572E+03  0.13409868583E+03  0.41800000000E+01 0. -1.
         -5    1    3    3    0  502 -0.13842182549E+02 -0.37216565896E+02 -0.70800936149E+01  0.40549709252E+02  0.41800000000E+01 0. -1.
        -11    1    1    2    0    0 -0.17703252339E+02 -0.24105895264E+02 -0.77975972640E+01  0.30907957761E+02  0.00000000000E+00 0.  1.
         11    1    1    2    0    0  0.31444128218E+02  0.22100722776E+02  0.80197113120E+02  0.88931164951E+02  0.00000000000E+00 0. -1.
</event>
<event>
 7    1  0.2612321E-009  0.9242596E+02  0.7561462E-02  0.1297081E+00
          2   -1    0    0  501    0  0.00000000000E+00  0.00000000000E+00  0.44233654469E+03  0.44233654469E+03  0.00000000000E+00 0. -1.
         -2   -1    0    0    0  501 -0.00000000000E+00 -0.00000000000E+00 -0.42927637090E+02  0.42927637090E+02  0.00000000000E+00 0.  1.
         25    2    1    2    0    0 -0.28870686921E+02 -0.98431154301E+01  0.35319624777E+03  0.37593309491E+03  0.12509076276E+03 0.  0.
          5    1    3    3  502    0 -0.15878853053E+02  0.35252465836E+02  0.30865882904E+03  0.31109905089E+03  0.41800000000E+01 0.  1.
         -5    1    3    3    0  502 -0.12991833868E+02 -0.45095581266E+02  0.44537418727E+02  0.64834044019E+02  0.41800000000E+01 0.  1.
        -11    1    1    2    0    0  0.41593909699E+02  0.45107852457E+02  0.32324077685E+02  0.69351407163E+02  0.00000000000E+00 0. -1.
         11    1    1    2    0    0 -0.12723222778E+02 -0.35264737027E+02  0.13888582151E+02  0.39979679709E+02  0.00000000000E+00 0.  1.
</event>
<event>
 7    1  0.2612321E-009  0.1290256E+03  0.7561462E-02  0.1228909E+00
         -2   -1    0    0    0  501 -0.00000000000E+00  0.00000000000E+00  0.64702436085E+02  0.64702436085E+02  0.00000000000E+00 0. -1.
          2   -1    0    0  501    0  0.00000000000E+00 -0.00000000000E+00 -0.34401247636E+03  0.34401247636E+03  0.00000000000E+00 0.  1.
         25    2    1    2    0    0  0.83793976190E+02  0.31591476606E+02 -0.80751133923E+02  0.17374758682E+03  0.12509207191E+03 0.  0.
          5    1    3    3  502    0  0.19813285432E+02  0.69338421792E+02 -0.13561974320E+02  0.73496820092E+02  0.41800000000E+01 0.  1.
         -5    1    3    3    0  502  0.63980690758E+02 -0.37746945186E+02 -0.67189159604E+02  0.10025076673E+03  0.41800000000E+01 0.  1.
        -11    1    1    2    0    0 -0.66727294179E+02  0.90457715635E+01 -0.16893646052E+03  0.18186227059E+03  0.00000000000E+00 0.  1.
         11    1    1    2    0    0 -0.17066682011E+02 -0.40637248170E+02 -0.29622445839E+02  0.53105055043E+02  0.00000000000E+00 0. -1.
</event>
<event>
 7    1  0.2612321E-009  0.6629610E+02  0.7561462E-02  0.1373161E+00
          2   -1    0    0  501    0  0.00000000000E+00  0.00000000000E+00  0.12313042390E+03  0.12313042390E+03  0.00000000000E+00 0. -1.
         -2   -1    0    0    0  501 -0.00000000000E+00 -0.00000000000E+00 -0.11208439140E+03  0.11208439140E+03  0.00000000000E+00 0.  1.
         25    2    1    2    0    0  0.19011605483E+02  0.39664774240E+02 -0.97037533273E+01  0.13295228165E+03  0.12508961151E+03 0.  0.
          5    1    3    3  502    0  0.23736152846E+02  0.43058724769E+02  0.51503661833E+02  0.71327121860E+02  0.41800000000E+01 0. -1.
         -5    1    3    3    0  502 -0.47245473630E+01 -0.33939505286E+01 -0.61207415160E+02  0.61625159785E+02  0.41800000000E+01 0. -1.
        -11    1    1    2    0    0 -0.61104198752E+01 -0.55400012317E+02 -0.17936820447E+02  0.58551072779E+02  0.00000000000E+00 0.  1.
         11    1    1    2    0    0 -0.12901185607E+02  0.15735238077E+02  0.38686606272E+02  0.43711460880E+02  0.00000000000E+00 0. -1.
</event>
<event>
 7    1  0.2612321E-009  0.1475168E+03  0.7561462E-02  0.1203558E+00
          2   -1    0    0  501    0  0.00000000000E+00  0.00000000000E+00  0.13741482474E+04  0.13741482474E+04  0.00000000000E+00 0. -1.
         -2   -1    0    0    0  501 -0.00000000000E+00 -0.00000000000E+00 -0.20233230698E+02  0.20233230698E+02  0.00000000000E+00 0.  1.
         25    2    1    2    0    0 -0.10624968967E+03  0.24809284148E+02  0.96462835212E+03  0.97880499074E+03  0.12508738964E+03 0.  0.
          5    1    3    3  502    0 -0.68353912269E+02  0.69877121846E+02  0.74440735928E+03  0.75080946880E+03  0.41800000000E+01 0.  1.
         -5    1    3    3    0  502 -0.37895777400E+02 -0.45067837699E+02  0.22022099284E+03  0.22799552194E+03  0.41800000000E+01 0.  1.
        -11    1    1    2    0    0  0.66388904056E+02  0.27955350623E+02  0.13720241342E+03  0.15496286800E+03  0.00000000000E+00 0.  1.
         11    1    1    2    0    0  0.39860785613E+02 -0.52764634770E+02  0.25208425117E+03  0.26061361936E+03  0.00000000000E+00 0. -1.
</event>
<event>
 7    1  0.2612321E-009  0.2131372E+03  0.7561462E-02  0.1139105E+00
         -2   -1    0    0    0  501 -0.00000000000E+00  0.00000000000E+00  0.10403069037E+03  0.10403069037E+03  0.00000000000E+00 0. -1.
          2   -1    0    0  501    0  0.00000000000E+00 -0.00000000000E+00 -0.50091386900E+03  0.50091386900E+03  0.00000000000E+00 0.  1.
         25    2    1    2    0    0 -0.18490277864E+03 -0.42521595285E+02 -0.29048146202E+03  0.36881594804E+03  0.12509436493E+03 0.  0.
          5    1    3    3  502    0 -0.18790005052E+03 -0.62868677389E+02 -0.28498541773E+03  0.34712110322E+03  0.41800000000E+01 0. -1.
         -5    1    3    3    0  502  0.29972718820E+01  0.20347082104E+02 -0.54960442907E+01  0.21694844819E+02  0.41800000000E+01 0. -1.
        -11    1    1    2    0    0  0.17573124897E+03  0.61373454277E+02 -0.10782677418E+03  0.21511575020E+03  0.00000000000E+00 0.  1.
         11    1    1    2    0    0  0.91715296654E+01 -0.18851858992E+02  0.14250575611E+01  0.21012861131E+02  0.00000000000E+00 0. -1.
</event>
<event>
 7    1  0.2612321E-009  0.9514715E+02  0.7561462E-02  0.1290845E+00
          3   -1    0    0  501    0  0.00000000000E+00  0.00000000000E+00  0.20519861546E+03  0.20519861546E+03  0.00000000000E+00 0. -1.
         -3   -1    0    0    0  501 -0.00000000000E+00 -0.00000000000E+00 -0.98024801494E+02  0.98024801494E+02  0.00000000000E+00 0.  1.
         25    2    1    2    0    0 -0.37126953494E+02 -0.72577996822E+02  0.13107682013E+02  0.14988348754E+03  0.12508905711E+03 0.  0.
          5    1    3    3  502    0  0.47875904117E+01 -0.65680862908E+02 -0.43464049290E+02  0.79015775355E+02  0.41800000000E+01 0.  1.
         -5    1    3    3    0  502 -0.41914543905E+02 -0.68971339139E+01  0.56571731303E+02  0.70867712180E+02  0.41800000000E+01 0.  1.
        -11    1    1    2    0    0  0.20872438629E+02  0.36360730699E+02  0.10424335388E+03  0.11235852553E+03  0.00000000000E+00 0. -1.
         11    1    1    2    0    0  0.16254514865E+02  0.36217266124E+02 -0.10177221923E+02  0.40981403893E+02  0.00000000000E+00 0.  1.
</event>
<event>
 7    1  0.2612321E-009  0.1364886E+03  0.7561462E-02  0.1218133E+00
          1   -1    0    0  501    0  0.00000000000E+00  0.00000000000E+00  0.52300979278E+03  0.52300979278E+03  0.00000000000E+00 0. -1.
         -1   -1    0    0    0  501 -0.00000000000E+00 -0.00000000000E+00 -0.59261655449E+02  0.59261655449E+02  0.00000000000E+00 0.  1.
         25    2    1    2    0    0 -0.87634734313E+02 -0.73415087052E+02  0.11743162033E+03  0.20617307461E+03  0.12509008585E+03 0.  0.
          5    1    3    3  502    0 -0.76982317837E+02 -0.15099800681E+02  0.46567452698E+01  0.78698404791E+02  0.41800000000E+01 0.  1.
         -5    1    3    3    0  502 -0.10652416476E+02 -0.58315286371E+02  0.11277487506E+03  0.12747466982E+03  0.41800000000E+01 0.  1.
        -11    1    1    2    0    0  0.74641037181E+02  0.16280596120E+02  0.26552229150E+03  0.27629409970E+03  0.00000000000E+00 0. -1.
         11    1    1    2    0    0  0.12993697132E+02  0.57134490932E+02  0.80794225497E+02  0.99804273921E+02  0.00000000000E+00 0.  1.
</event>
<event>
 7    1  0.2612321E-009  0.1585029E+03  0.7561462E-02  0.1190397E+00
         -2   -1    0    0    0  501 -0.00000000000E+00  0.00000000000E+00  0.29903710128E+02  0.29903710128E+02  0.00000000000E+00 0.  1.
          2   -1    0    0  501    0  0.00000000000E+00 -0.00000000000E+00 -0.12526854599E+04  0.12526854599E+04  0.00000000000E+00 0. -1.
         25    2    1    2    0    0  0.15384779169E+03 -0.15487643068E+02 -0.53806142248E+03  0.57364432439E+03  0.12509478984E+03 0.  0.
          5    1    3    3  502    0  0.55930676085E+02 -0.30204503030E+01 -0.48488205498E+02  0.74202035819E+02  0.41800000000E+01 0. -1.
         -5    1    3    3    0  502  0.97917115609E+02 -0.12467192765E+02 -0.48957321699E+03  0.49944228857E+03  0.41800000000E+01 0. -1.
        -11    1    1    2    0    0 -0.12467090895E+03 -0.75013271942E+01 -0.63337557305E+03  0.64557239872E+03  0.00000000000E+00 0. -1.
         11    1    1    2    0    0 -0.29176882744E+02  0.22988970262E+02 -0.51344754218E+02  0.63372446900E+02  0.00000000000E+00 0.  1.
</event>
<event>
 7    1  0.2612321E-009  0.1143998E+03  0.7561462E-02  0.1252632E+00
          2   -1    0    0  501    0  0.00000000000E+00  0.00000000000E+00  0.59878729925E+03  0.59878729925E+03  0.00000000000E+00 0. -1.
         -2   -1    0    0    0  501 -0.00000000000E+00 -0.00000000000E+00 -0.23132810475E+02  0.23132810475E+02  0.00000000000E+00 0.  1.
         25    2    1    2    0    0 -0.20129488201E+01 -0.43309280909E+02  0.34553013743E+03  0.37002481906E+03  0.12509014777E+03 0.  0.
          5    1    3    3  502    0 -0.51959924737E+02 -0.55662013899E+02  0.25086212626E+03  0.26219720129E+03  0.41800000000E+01 0.  1.
         -5    1    3    3    0  502  0.49946975916E+02  0.12352732990E+02  0.94668011172E+02  0.10782761777E+03  0.41800000000E+01 0.  1.
        -11    1    1    2    0    0 -0.18236054417E+02  0.67182873462E+02  0.13739205284E+03  0.15402164897E+03  0.00000000000E+00 0.  1.
         11    1    1    2    0    0  0.20249003237E+02 -0.23873592553E+02  0.92732298499E+02  0.97873641694E+02  0.00000000000E+00 0. -1.
</event>
<event>
 7    1  0.2612321E-009  0.9733089E+02  0.7561462E-02  0.1286011E+00
          1   -1    0    0  501    0  0.00000000000E+00  0.00000000000E+00  0.45277589366E+02  0.45277589366E+02  0.00000000000E+00 0. -1.
         -1   -1    0    0    0  501 -0.00000000000E+00 -0.00000000000E+00 -0.42223440104E+03  0.42223440104E+03  0.00000000000E+00 0.  1.
         25    2    1    2    0    0 -0.72240919021E+02 -0.31579301489E+02 -0.14668970673E+03  0.20827706412E+03  0.12508182408E+03 0.  0.
          5    1    3    3  502    0 -0.54820872313E+02 -0.15278745382E+02 -0.16711801759E+03  0.17659182401E+03  0.41800000000E+01 0.  1.
         -5    1    3    3    0  502 -0.17420046708E+02 -0.16300556108E+02  0.20428310860E+02  0.31685240117E+02  0.41800000000E+01 0.  1.
        -11    1    1    2    0    0 -0.14100356663E+02 -0.10255209587E+02 -0.13066941511E+02  0.21788399256E+02  0.00000000000E+00 0. -1.
         11    1    1    2    0    0  0.86341275684E+02  0.41834511076E+02 -0.21720016343E+03  0.23744652703E+03  0.00000000000E+00 0.  1.
</event>
<event>
 7    1  0.2612321E-009  0.1103566E+03  0.7561462E-02  0.1259911E+00
          2   -1    0    0  501    0  0.00000000000E+00  0.00000000000E+00  0.27070579863E+03  0.27070579863E+03  0.00000000000E+00 0. -1.
         -2   -1    0    0    0  501 -0.00000000000E+00 -0.00000000000E+00 -0.10759404134E+03  0.10759404134E+03  0.00000000000E+00 0.  1.
         25    2    1    2    0    0 -0.95558070231E+02 -0.50678505133E+02  0.53170315410E+01  0.16545535996E+03  0.12509016607E+03 0.  0.
          5    1    3    3  502    0 -0.72002624247E+02 -0.49964224547E+02 -0.52939615707E+02  0.10247378662E+03  0.41800000000E+01 0. -1.
         -5    1    3    3    0  502 -0.23555445984E+02 -0.71428058601E+00  0.58256647248E+02  0.62981573343E+02  0.41800000000E+01 0. -1.
        -11    1    1    2    0    0  0.66744666563E+02  0.42348981787E+02  0.35014745075E+02  0.86454144757E+02  0.00000000000E+00 0.  1.
         11    1    1    2    0    0  0.28813403669E+02  0.83295233462E+01  0.12277998067E+03  0.12639033525E+03  0.00000000000E+00 0. -1.
</event>
<event>
 7    1  0.2612321E-009  0.7914462E+02  0.7561462E-02  0.1331497E+00
          1   -1    0    0  501    0  0.00000000000E+00  0.00000000000E+00  0.58301511713E+03  0.58301511713E+03  0.00000000000E+00 0. -1.
         -1   -1    0    0    0  501 -0.00000000000E+00 -0.00000000000E+00 -0.58183252755E+02  0.58183252755E+02  0.00000000000E+00 0.  1.
         25    2    1    2    0    0 -0.58991773905E+02 -0.24558628706E+02  0.50777163843E+03  0.52684187189E+03  0.12508863080E+03 0.  0.
          5    1    3    3  502    0 -0.35600400371E+02 -0.33219635032E+02  0.49692590373E+03  0.49932330094E+03  0.41800000000E+01 0. -1.
         -5    1    3    3    0  502 -0.23391373535E+02  0.86610063259E+01  0.10845734697E+02  0.27518570957E+02  0.41800000000E+01 0. -1.
        -11    1    1    2    0    0  0.44308557385E+02 -0.11001953485E+02  0.47062681775E+02  0.65568187819E+02  0.00000000000E+00 0. -1.
         11    1    1    2    0    0  0.14683216520E+02  0.35560582191E+02 -0.30002455833E+02  0.48788310169E+02  0.00000000000E+00 0.  1.
</event>
<event>
 7    1  0.2612321E-009  0.1065730E+03  0.7561462E-02  0.1267051E+00
          2   -1    0    0  501    0  0.00000000000E+00  0.00000000000E+00  0.30010056788E+03  0.30010056788E+03  0.00000000000E+00 0. -1.
         -2   -1    0    0    0  501 -0.00000000000E+00 -0.00000000000E+00 -0.66678135565E+02  0.66678135565E+02  0.00000000000E+00 0.  1.
         25    2    1    2    0    0 -0.51272011160E+02  0.34745148030E+01  0.30280479817E+02  0.13858926015E+03  0.12509669935E+03 0.  0.
          5    1    3    3  502    0 -0.12155950493E+02  0.60373529259E+02  0.31720666720E+02  0.69400311705E+02  0.41800000000E+01 0.  1.
         -5    1    3    3    0  502 -0.39116060666E+02 -0.56899014456E+02 -0.14401869022E+01  0.69188948441E+02  0.41800000000E+01 0.  1.
        -11    1    1    2    0    0 -0.13350831883E+02 -0.10848770581E+02  0.26434229571E+01  0.17404833237E+02  0.00000000000E+00 0.  1.
         11    1    1    2    0    0  0.64622843043E+02  0.73742557776E+01  0.20049852954E+03  0.21078461006E+03  0.00000000000E+00 0. -1.
</event>
<event>
 7    1  0.2612321E-009  0.1703499E+03  0.7561462E-02  0.1177483E+00
         -2   -1    0    0    0  501 -0.00000000000E+00  0.00000000000E+00  0.51393328386E+02  0.51393328386E+02  0.00000000000E+00 0.  1.
          2   -1    0    0  501    0  0.00000000000E+00 -0.00000000000E+00 -0.63512006302E+03  0.63512006302E+03  0.00000000000E+00 0. -1.
         25    2    1    2    0    0 -0.25920152699E+02  0.14161992094E+03 -0.27409721692E+03  0.33392234791E+03  0.12508714478E+03 0.  0.
          5    1    3    3  502    0 -0.60245081578E+02  0.37882127561E+02 -0.16364038098E+03  0.17849417954E+03  0.41800000000E+01 0. -1.
         -5    1    3    3    0  502  0.34324928879E+02  0.10373779338E+03 -0.11045683595E+03  0.15542816838E+03  0.41800000000E+01 0. -1.
        -11    1    1    2    0    0  0.18802196279E+02 -0.54677304808E+00 -0.99254375644E+01  0.21268188840E+02  0.00000000000E+00 0.  1.
         11    1    1    2    0    0  0.71179564199E+01 -0.14107314789E+03 -0.29970408014E+03  0.33132285465E+03  0.00000000000E+00 0. -1.
</event>
<event>
 7    1  0.2612321E-009  0.1611029E+03  0.7561462E-02  0.1187457E+00
         -1   -1    0    0    0  501 -0.00000000000E+00  0.00000000000E+00  0.77905151607E+02  0.77905151607E+02  0.00000000000E+00 0.  1.
          1   -1    0    0  501    0  0.00000000000E+00 -0.00000000000E+00 -0.50127430160E+03  0.50127430160E+03  0.00000000000E+00 0. -1.
         25    2    1    2    0    0 -0.10688332983E+03  0.61525464461E+02 -0.38361792574E+03  0.42192321063E+03  0.12508818388E+03 0.  0.
          5    1    3    3  502    0 -0.13125184019E+03  0.29598555369E+02 -0.30980666041E+03  0.33778803897E+03  0.41800000000E+01 0. -1.
         -5    1    3    3    0  502  0.24368510358E+02  0.31926909093E+02 -0.73811265326E+02  0.84135171661E+02  0.41800000000E+01 0. -1.
        -11    1    1    2    0    0  0.11177327774E+03 -0.30577853618E+02 -0.14044395200E+02  0.11672838466E+03  0.00000000000E+00 0. -1.
         11    1    1    2    0    0 -0.48899479041E+01 -0.30947610843E+02 -0.25706829051E+02  0.40527857916E+02  0.00000000000E+00 0.  1.
</event>
<event>
 7    1  0.2688746E-009  0.1468728E+03  0.7561462E-02  0.1204369E+00
          2   -1    0    0  501    0  0.00000000000E+00  0.00000000000E+00  0.62562864668E+03  0.62562864668E+03  0.00000000000E+00 0.  1.
         -2   -1    0    0    0  501 -0.00000000000E+00 -0.00000000000E+00 -0.48708631436E+02  0.48708631436E+02  0.00000000000E+00 0. -1.
         25    2    1    2    0    0 -0.10650801804E+03 -0.55673196076E+02  0.42870825253E+03  0.46247323824E+03  0.12508903885E+03 0.  0.
          5    1    3    3  502    0  0.17766976042E+02  0.20490177814E+02  0.59953373665E+02  0.65934757438E+02  0.41800000000E+01 0.  1.
         -5    1    3    3    0  502 -0.12427499408E+03 -0.76163373890E+02  0.36875487886E+03  0.39653848081E+03  0.41800000000E+01 0.  1.
        -11    1    1    2    0    0  0.28874996534E+02  0.10863674974E+02  0.11031069125E+03  0.11454358762E+03  0.00000000000E+00 0.  1.
         11    1    1    2    0    0  0.77633021505E+02  0.44809521103E+02  0.37901071463E+02  0.97320452257E+02  0.00000000000E+00 0. -1.
</event>
<event>
 7    1  0.2612321E-009  0.2018595E+03  0.7561462E-02  0.1148180E+00
          1   -1    0    0  501    0  0.00000000000E+00  0.00000000000E+00  0.89015950578E+02  0.89015950578E+02  0.00000000000E+00 0. -1.
         -1   -1    0    0    0  501 -0.00000000000E+00 -0.00000000000E+00 -0.51362560492E+03  0.51362560492E+03  0.00000000000E+00 0.  1.
         25    2    1    2    0    0  0.17061870061E+03  0.37347267468E+02 -0.14046625827E+03  0.25668142801E+03  0.12509606863E+03 0.  0.
          5    1    3    3  502    0  0.63302579471E+02 -0.46288085506E+02 -0.46326040322E+02  0.91177726663E+02  0.41800000000E+01 0. -1.
         -5    1    3    3    0  502  0.10731612114E+03  0.83635352974E+02 -0.94140217944E+02  0.16550370134E+03  0.41800000000E+01 0. -1.
        -11    1    1    2    0    0 -0.46366749076E+02  0.22053910531E+02 -0.12712234637E+03  0.13709974958E+03  0.00000000000E+00 0. -1.
         11    1    1    2    0    0 -0.12425195154E+03 -0.59401177999E+02 -0.15702104970E+03  0.20886037791E+03  0.00000000000E+00 0.  1.
</event>
<event>
 7    1  0.2612321E-009  0.4038047E+02  0.7561462E-02  0.1505430E+00
          1   -1    0    0  501    0  0.00000000000E+00  0.00000000000E+00  0.61708252918E+03  0.61708252918E+03  0.00000000000E+00 0. -1.
         -1   -1    0    0    0  501 -0.00000000000E+00 -0.00000000000E+00 -0.22773956499E+02  0.22773956499E+02  0.00000000000E+00 0.  1.
         25    2    1    2    0    0 -0.15712393440E+02  0.78417823555E+01  0.46796488230E+03  0.48471387982E+03  0.12509213150E+03 0.  0.
          5    1    3    3  502    0  0.14702348667E+01  0.85642567442E+01  0.46688275865E+03  0.46698232387E+03  0.41800000000E+01 0. -1.
         -5    1    3    3    0  502 -0.17182628307E+02 -0.72247438875E+00  0.10821236529E+01  0.17731555949E+02  0.41800000000E+01 0. -1.
        -11    1    1    2    0    0  0.28042556737E+02  0.11641264894E+02  0.39765448150E+01  0.30622164283E+02  0.00000000000E+00 0.  1.
         11    1    1    2    0    0 -0.12330163297E+02 -0.19483047249E+02  0.12236714557E+03  0.12452044158E+03  0.00000000000E+00 0. -1.
</event>
<event>
 7    1  0.2612321E-009  0.3168686E+03  0.7561462E-02  0.1077100E+00
          2   -1    0    0  501    0  0.00000000000E+00  0.00000000000E+00  0.19905466078E+03  0.19905466078E+03  0.00000000000E+00 0.  1.
         -2   -1    0    0    0  501 -0.00000000000E+00 -0.00000000000E+00 -0.72420636933E+03  0.72420636933E+03  0.00000000000E+00 0. -1.
         25    2    1    2    0    0  0.22001594288E+03 -0.21529709362E+03 -0.50164147208E+03  0.60170717498E+03  0.12508998470E+03 0.  0.
          5    1    3    3  502    0  0.12198112759E+03 -0.63968303865E+02 -0.13400783734E+03  0.19221579606E+03  0.41800000000E+01 0.  1.
         -5    1    3    3    0  502  0.98034815292E+02 -0.15132878976E+03 -0.36763363474E+03  0.40949137892E+03  0.41800000000E+01 0.  1.
        -11    1    1    2    0    0 -0.12458241932E+03  0.73465126783E+02  0.17693343103E+02  0.14570847075E+03  0.00000000000E+00 0. -1.
         11    1    1    2    0    0 -0.95433523556E+02  0.14183196684E+03 -0.41203579574E+02  0.17584538438E+03  0.00000000000E+00 0.  1.
</event>
<event>
 7    1  0.2612321E-009  0.1288323E+03  0.7561462E-02  0.1229199E+00
          3   -1    0    0  501    0  0.00000000000E+00  0.00000000000E+00  0.48448892610E+02  0.48448892610E+02  0.00000000000E+00 0. -1.
         -3   -1    0    0    0  501 -0.00000000000E+00 -0.00000000000E+00 -0.57457820702E+03  0.57457820702E+03  0.00000000000E+00 0.  1.
         25    2    1    2    0    0  0.96283973194E+01  0.72772998501E+02 -0.47330975274E+03  0.49503678084E+03  0.12510266585E+03 0.  0.
          5    1    3    3  502    0 -0.35898467935E+02  0.88534331183E+02 -0.34149381014E+03  0.35463012078E+03  0.41800000000E+01 0. -1.
         -5    1    3    3    0  502  0.45526865254E+02 -0.15761332682E+02 -0.13181594260E+03  0.14040666006E+03  0.41800000000E+01 0. -1.
        -11    1    1    2    0    0  0.29729907633E+02 -0.67769242772E+02 -0.20426526308E+02  0.76770962289E+02  0.00000000000E+00 0. -1.
         11    1    1    2    0    0 -0.39358304952E+02 -0.50037557291E+01 -0.32393035364E+02  0.51219356500E+02  0.00000000000E+00 0.  1.
</event>
<event>
 7    1  0.2612321E-009  0.1380148E+03  0.7561462E-02  0.1216025E+00
         -2   -1    0    0    0  501 -0.00000000000E+00  0.00000000000E+00  0.19667629103E+02  0.19667629103E+02  0.00000000000E+00 0.  1.
          2   -1    0    0  501    0  0.00000000000E+00 -0.00000000000E+00 -0.11805883613E+04  0.11805883613E+04  0.00000000000E+00 0. -1.
         25    2    1    2    0    0  0.89561174946E+02 -0.54561692477E+02 -0.52485656318E+03  0.54965492521E+03  0.12509173655E+03 0.  0.
          5    1    3    3  502    0  0.22953548978E+02 -0.69331635218E+02 -0.13216610068E+03  0.15105989415E+03  0.41800000000E+01 0. -1.
         -5    1    3    3    0  502  0.66607625968E+02  0.14769942741E+02 -0.39269046249E+03  0.39859503105E+03  0.41800000000E+01 0. -1.
        -11    1    1    2    0    0 -0.58993987013E+02 -0.12964408942E+02 -0.34497274689E+03  0.35022073397E+03  0.00000000000E+00 0. -1.
         11    1    1    2    0    0 -0.30567187933E+02  0.67526101419E+02 -0.29109142211E+03  0.30038033121E+03  0.00000000000E+00 0.  1.
</event>
<event>
 7    1  0.2612321E-009  0.1120824E+03  0.7561462E-02  0.1256761E+00
         -2   -1    0    0    0  501 -0.00000000000E+00  0.00000000000E+00  0.11812980598E+03  0.11812980598E+03  0.00000000000E+00 0.  1.
          2   -1    0    0  501    0  0.00000000000E+00 -0.00000000000E+00 -0.15446004050E+03  0.15446004050E+03  0.00000000000E+00 0. -1.
         25    2    1    2    0    0  0.77295429796E+02 -0.34360171603E+01 -0.52051616008E+00  0.14708594977E+03  0.12509043129E+03 0.  0.
          5    1    3    3  502    0  0.37920668784E+02  0.46772210883E+02 -0.39560313076E+02  0.72167219723E+02  0.41800000000E+01 0.  1.
         -5    1    3    3    0  502  0.39374761011E+02 -0.50208228043E+02  0.39039796916E+02  0.74918730042E+02  0.41800000000E+01 0.  1.
        -11    1    1    2    0    0 -0.69871969300E+02  0.27190703202E+02  0.77089047171E+01  0.75371437869E+02  0.00000000000E+00 0.  1.
         11    1    1    2    0    0 -0.74234604955E+01 -0.23754686041E+02 -0.43518623079E+02  0.50132458840E+02  0.00000000000E+00 0. -1.
</event>
<event>
 7    1  0.2612321E-009  0.1128379E+03  0.7561462E-02  0.1255403E+00
         -1   -1    0    0    0  501 -0.00000000000E+00  0.00000000000E+00  0.22509951996E+02  0.22509951996E+02  0.00000000000E+00 0.  1.
          1   -1    0    0  501    0  0.00000000000E+00 -0.00000000000E+00 -0.72542512562E+03  0.72542512562E+03  0.00000000000E+00 0. -1.
         25    2    1    2    0    0  0.52412381918E+02  0.40919954635E+02 -0.42381625866E+03  0.44686604964E+03  0.12509014648E+03 0.  0.
          5    1    3    3  502    0 -0.39089417588E+02 -0.42148813246E+01 -0.12113086046E+03  0.12742019286E+03  0.41800000000E+01 0. -1.
         -5    1    3    3    0  502  0.91501799506E+02  0.45134835960E+02 -0.30268539820E+03  0.31944585678E+03  0.41800000000E+01 0. -1.
        -11    1    1    2    0    0 -0.72618456935E+01  0.12268370536E+02 -0.93281163335E+00  0.14286968048E+02  0.00000000000E+00 0.  1.
         11    1    1    2    0    0 -0.45150536224E+02 -0.53188325171E+02 -0.27816610333E+03  0.28678205993E+03  0.00000000000E+00 0. -1.
</event>
<event>
 7    1  0.2612321E-009  0.2364373E+03  0.7561462E-02  0.1122189E+00
         -1   -1    0    0    0  501 -0.00000000000E+00  0.00000000000E+00  0.15212151324E+03  0.15212151324E+03  0.00000000000E+00 0. -1.
          1   -1    0    0  501    0  0.00000000000E+00 -0.00000000000E+00 -0.62473797580E+03  0.62473797580E+03  0.00000000000E+00 0.  1.
         25    2    1    2    0    0  0.10986894476E+02  0.21394715232E+03  0.21475368116E+01  0.24808514734E+03  0.12509009785E+03 0.  0.
          5    1    3    3  502    0 -0.50455688548E+02  0.10682361329E+03 -0.26714570142E+02  0.12119489065E+03  0.41800000000E+01 0.  1.
         -5    1    3    3    0  502  0.61442583024E+02  0.10712353903E+03  0.28862106953E+02  0.12689025668E+03  0.41800000000E+01 0.  1.
        -11    1    1    2    0    0 -0.17386585583E+02 -0.33646357545E+00 -0.55908537657E+02  0.58550586239E+02  0.00000000000E+00 0.  1.
         11    1    1    2    0    0  0.63996911069E+01 -0.21361068874E+03 -0.41885546171E+03  0.47022375546E+03  0.00000000000E+00 0. -1.
</event>
<event>
 7    1  0.2612321E-009  0.1150249E+03  0.7561462E-02  0.1251538E+00
          2   -1    0    0  501    0  0.00000000000E+00  0.00000000000E+00  0.12008110621E+03  0.12008110621E+03  0.00000000000E+00 0. -1.
         -2   -1    0    0    0  501 -0.00000000000E+00 -0.00000000000E+00 -0.13076127363E+03  0.13076127363E+03  0.00000000000E+00 0.  1.
         25    2    1    2    0    0 -0.51164423787E+02 -0.18216734909E+02 -0.38033462832E+02  0.14157575206E+03  0.12508997396E+03 0.  0.
          5    1    3    3  502    0 -0.32995387137E+02 -0.70142314733E+02 -0.37942532218E+02  0.86404560293E+02  0.41800000000E+01 0.  1.
         -5    1    3    3    0  502 -0.18169036651E+02  0.51925579824E+02 -0.90930613716E-01  0.55171191769E+02  0.41800000000E+01 0.  1.
        -11    1    1    2    0    0  0.11015109466E+02  0.46727415382E+02 -0.79696412189E+01  0.48665174057E+02  0.00000000000E+00 0.  1.
         11    1    1    2    0    0  0.40149314322E+02 -0.28510680473E+02  0.35322936631E+02  0.60601453727E+02  0.00000000000E+00 0. -1.
</event>
<event>
 7    1  0.2612321E-009  0.9198920E+02  0.7561462E-02  0.1298105E+00
          1   -1    0    0  501    0  0.00000000000E+00  0.00000000000E+00  0.76679361603E+02  0.76679361603E+02  0.00000000000E+00 0. -1.
         -1   -1    0    0    0  501 -0.00000000000E+00 -0.00000000000E+00 -0.23893896168E+03  0.23893896168E+03  0.00000000000E+00 0.  1.
         25    2    1    2    0    0  0.72501239661E+02 -0.33798877912E+02 -0.97115315127E+02  0.17742003694E+03  0.12509073177E+03 0.  0.
          5    1    3    3  502    0  0.72803073423E+02 -0.75327184282E+01 -0.12112818438E+03  0.14158580013E+03  0.41800000000E+01 0.  1.
         -5    1    3    3    0  502 -0.30183376180E+00 -0.26266159483E+02  0.24012869258E+02  0.35834236808E+02  0.41800000000E+01 0.  1.
        -11    1    1    2    0    0 -0.21567478320E+02 -0.22271000552E+01 -0.72226470242E+02  0.75410735969E+02  0.00000000000E+00 0.  1.
         11    1    1    2    0    0 -0.50933761341E+02  0.36025977967E+02  0.70821852971E+01  0.62787550369E+02  0.00000000000E+00 0. -1.
</event>
<event>
 7    1  0.2612321E-009  0.1223394E+03  0.7561462E-02  0.1239287E+00
         -1   -1    0    0    0  501 -0.00000000000E+00  0.00000000000E+00  0.15430070317E+03  0.15430070317E+03  0.00000000000E+00 0.  1.
          1   -1    0    0  501    0  0.00000000000E+00 -0.00000000000E+00 -0.15325807020E+03  0.15325807020E+03  0.00000000000E+00 0. -1.
         25    2    1    2    0    0  0.10128034541E+03  0.40569924852E+02  0.29245923969E+01  0.16600950285E+03  0.12508786762E+03 0.  0.
          5    1    3    3  502    0  0.11808354239E+02 -0.17902081036E+01 -0.51453849728E+02  0.52986914675E+02  0.41800000000E+01 0. -1.
         -5    1    3    3    0  502  0.89471991176E+02  0.42360132956E+02  0.54378442125E+02  0.11302258817E+03  0.41800000000E+01 0. -1.
        -11    1    1    2    0    0 -0.69071739589E+02 -0.63166185874E+02  0.21149779284E+02  0.95959290387E+02  0.00000000000E+00 0.  1.
         11    1    1    2    0    0 -0.32208605826E+02  0.22596261022E+02 -0.23031738704E+02  0.45589980140E+02  0.00000000000E+00 0. -1.
</event>
<event>
 7    1  0.2612321E-009  0.9147147E+02  0.7561462E-02  0.1299327E+00
          3   -1    0    0  501    0  0.00000000000E+00  0.00000000000E+00  0.51001008617E+02  0.51001008617E+02  0.00000000000E+00 0. -1.
         -3   -1    0    0    0  501 -0.00000000000E+00 -0.00000000000E+00 -0.25121388040E+03  0.25121388040E+03  0.00000000000E+00 0.  1.
         25    2    1    2    0    0 -0.69858709948E+01 -0.27131229502E+01 -0.67339722960E+02  0.14226740102E+03  0.12509680921E+03 0.  0.
          5    1    3    3  502    0 -0.10801392563E+02  0.59456522670E+02 -0.19558071455E+02  0.63653269581E+02  0.41800000000E+01 0. -1.
         -5    1    3    3    0  502  0.38155215677E+01 -0.62169645620E+02 -0.47781651505E+02  0.78614131439E+02  0.41800000000E+01 0. -1.
        -11    1    1    2    0    0  0.33035734158E+02 -0.33219129909E+01 -0.12866333852E+03  0.13287832598E+03  0.00000000000E+00 0.  1.
         11    1    1    2    0    0 -0.26049863163E+02  0.60350359411E+01 -0.42098103104E+01  0.27069162021E+02  0.00000000000E+00 0. -1.
</event>
<event>
 7    1  0.3420574E-009  0.1284754E+03  0.7561462E-02  0.1229736E+00
          2   -1    0    0  501    0  0.00000000000E+00  0.00000000000E+00  0.96009882823E+03  0.96009882823E+03  0.00000000000E+00 0.  1.
         -2   -1    0    0    0  501 -0.00000000000E+00 -0.00000000000E+00 -0.25895203508E+02  0.25895203508E+02  0.00000000000E+00 0. -1.
         25    2    1    2    0    0 -0.10678255269E+03 -0.17972104859E+02  0.39020034278E+03  0.42382591735E+03  0.12508633261E+03 0.  0.
          5    1    3    3  502    0 -0.13988921192E+02 -0.17044304768E+02 -0.28413345514E+00  0.22444406273E+02  0.41800000000E+01 0.  1.
         -5    1    3    3    0  502 -0.92793631497E+02 -0.92780009133E+00  0.39048447623E+03  0.40138151108E+03  0.41800000000E+01 0.  1.
        -11    1    1    2    0    0  0.53327089190E+02  0.54984943394E+02  0.30643804421E+03  0.31586610673E+03  0.00000000000E+00 0.  1.
         11    1    1    2    0    0  0.53455463500E+02 -0.37012838535E+02  0.23756523774E+03  0.24630200766E+03  0.00000000000E+00 0. -1.
</event>
<event>
 7    1  0.2612321E-009  0.1550139E+03  0.7561462E-02  0.1194444E+00
         -3   -1    0    0    0  501 -0.00000000000E+00  0.00000000000E+00  0.27065883308E+02  0.27065883308E+02  0.00000000000E+00 0.  1.
          3   -1    0    0  501    0  0.00000000000E+00 -0.00000000000E+00 -0.11728559009E+04  0.11728559009E+04  0.00000000000E+00 0. -1.
         25    2    1    2    0    0  0.13129069383E+03 -0.42981729737E+02 -0.69904085395E+03  0.72345611859E+03  0.12508383052E+03 0.  0.
          5    1    3    3  502    0  0.12902353135E+03 -0.48235801936E+02 -0.37800255877E+03  0.40233962155E+03  0.41800000000E+01 0.  1.
         -5    1    3    3    0  502  0.22671624763E+01  0.52540721996E+01 -0.32103829518E+03  0.32111649704E+03  0.41800000000E+01 0.  1.
        -11    1    1    2    0    0 -0.94751769825E+02 -0.15661837800E+02 -0.24132032855E+03  0.25972811173E+03  0.00000000000E+00 0.  1.
         11    1    1    2    0    0 -0.36538924002E+02  0.58643567536E+02 -0.20542883509E+03  0.21673755389E+03  0.00000000000E+00 0. -1.
</event>
<event>
 7    1  0.2612321E-009  0.1044130E+03  0.7561462E-02  0.1271280E+00
          1   -1    0    0  501    0  0.00000000000E+00  0.00000000000E+00  0.21518672234E+02  0.21518672234E+02  0.00000000000E+00 0. -1.
         -1   -1    0    0    0  501 -0.00000000000E+00 -0.00000000000E+00 -0.65810745543E+03  0.65810745543E+03  0.00000000000E+00 0.  1.
         25    2    1    2    0    0 -0.12284999036E+02 -0.43996606632E+02 -0.41661603762E+03  0.43738134924E+03  0.12508756641E+03 0.  0.
          5    1    3    3  502    0 -0.65916140153E+02 -0.85040195946E+01 -0.17269618655E+03  0.18509106173E+03  0.41800000000E+01 0.  1.
         -5    1    3    3    0  502  0.53631141116E+02 -0.35492587038E+02 -0.24391985107E+03  0.25229028752E+03  0.41800000000E+01 0.  1.
        -11    1    1    2    0    0 -0.21931055244E+02  0.36770385859E+02 -0.19404169477E+03  0.19870886183E+03  0.00000000000E+00 0.  1.
         11    1    1    2    0    0  0.34216054280E+02  0.72262207737E+01 -0.25931050810E+02  0.43535916589E+02  0.00000000000E+00 0. -1.
</event>
<event>
 7    1  0.2681884E-009  0.5544455E+02  0.7561462E-02  0.1418008E+00
          1   -1    0    0  501    0  0.00000000000E+00  0.00000000000E+00  0.79068602333E+03  0.79068602333E+03  0.00000000000E+00 0. -1.
         -1   -1    0    0    0  501 -0.00000000000E+00 -0.00000000000E+00 -0.21787024420E+02  0.21787024420E+02  0.00000000000E+00 0.  1.
         25    2    1    2    0    0 -0.14904518387E+02 -0.18242545139E+02  0.63910313841E+03  0.65165593836E+03  0.12509078844E+03 0.  0.
          5    1    3    3  502    0 -0.52539122222E+01 -0.22852274809E+02  0.63971360681E+03  0.64015685672E+03  0.41800000000E+01 0. -1.
         -5    1    3    3    0  502 -0.96506061645E+01  0.46097296702E+01 -0.61046840318E+00  0.11499081644E+02  0.41800000000E+01 0. -1.
        -11    1    1    2    0    0  0.20997342531E+02  0.44195346263E+02  0.29713521116E+02  0.57245177629E+02  0.00000000000E+00 0.  1.
         11    1    1    2    0    0 -0.60928241444E+01 -0.25952801124E+02  0.10008233938E+03  0.10357193176E+03  0.00000000000E+00 0. -1.
</event>
<event>
 7    1  0.2612321E-009  0.9956607E+02  0.7561462E-02  0.1281211E+00
          1   -1    0    0  501    0  0.00000000000E+00  0.00000000000E+00  0.68962781290E+03  0.68962781290E+03  0.00000000000E+00 0. -1.
         -1   -1    0    0    0  501 -0.00000000000E+00 -0.00000000000E+00 -0.18640875172E+02  0.18640875172E+02  0.00000000000E+00 0.  1.
         25    2    1    2    0    0  0.31797982035E+02 -0.46981776649E+01  0.41694158507E+03  0.43648639852E+03  0.12508759410E+03 0.  0.
          5    1    3    3  502    0  0.69176857109E+02  0.30491479744E+02  0.28388628325E+03  0.29380956777E+03  0.41800000000E+01 0.  1.
         -5    1    3    3    0  502 -0.37378875075E+02 -0.35189657409E+02  0.13305530182E+03  0.14267683075E+03  0.41800000000E+01 0.  1.
        -11    1    1    2    0    0 -0.38690603164E+02  0.27903979224E+02  0.23801432228E+03  0.24274763117E+03  0.00000000000E+00 0. -1.
         11    1    1    2    0    0  0.68926211296E+01 -0.23205801559E+02  0.16031030376E+02  0.29034658375E+02  0.00000000000E+00 0.  1.
</event>
<event>
 7    1  0.2612321E-009  0.1706713E+03  0.7561462E-02  0.1177150E+00
          1   -1    0    0  501    0  0.00000000000E+00  0.00000000000E+00  0.71007048669E+03  0.71007048669E+03  0.00000000000E+00 0.  1.
         -1   -1    0    0    0  501 -0.00000000000E+00 -0.00000000000E+00 -0.50657799832E+02  0.50657799832E+02  0.00000000000E+00 0. -1.
         25    2    1    2    0    0 -0.12459706577E+03  0.85418552597E+02  0.27858791873E+03  0.34070450147E+03  0.12509025116E+03 0.  0.
          5    1    3    3  502    0 -0.24015269721E+02  0.64052750681E+02  0.36493668256E+02  0.77645014472E+02  0.41800000000E+01 0. -1.
         -5    1    3    3    0  502 -0.10058179605E+03  0.21365801916E+02  0.24209425048E+03  0.26305948700E+03  0.41800000000E+01 0. -1.
        -11    1    1    2    0    0  0.19265379751E+02 -0.57913233390E+02  0.19849932288E+03  0.20767060129E+03  0.00000000000E+00 0.  1.
         11    1    1    2    0    0  0.10533168602E+03 -0.27505319207E+02  0.18232544524E+03  0.21235318375E+03  0.00000000000E+00 0. -1.
</event>
<event>
 7    1  0.2612321E-009  0.1444313E+03  0.7561462E-02  0.1207488E+00
          2   -1    0    0  501    0  0.00000000000E+00  0.00000000000E+00  0.66278604813E+02  0.66278604813E+02  0.00000000000E+00 0. -1.
         -2   -1    0    0    0  501 -0.00000000000E+00 -0.00000000000E+00 -0.35119420356E+03  0.35119420356E+03  0.00000000000E+00 0.  1.
         25    2    1    2    0    0 -0.85783087769E+02  0.55499246613E+02 -0.10646465984E+03  0.19344230733E+03  0.12508516279E+03 0.  0.
          5    1    3    3  502    0  0.30704691301E+02 -0.10898402020E+01 -0.29138432719E+02  0.42549811761E+02  0.41800000000E+01 0. -1.
         -5    1    3    3    0  502 -0.11648777907E+03  0.56589086815E+02 -0.77326227124E+02  0.15089249557E+03  0.41800000000E+01 0. -1.
        -11    1    1    2    0    0  0.64117700617E+02 -0.75322285979E+02 -0.16346086055E+03  0.19106014558E+03  0.00000000000E+00 0.  1.
         11    1    1    2    0    0  0.21665387152E+02  0.19823039365E+02 -0.14990078359E+02  0.32970355463E+02  0.00000000000E+00 0. -1.
</event>
<event>
 7    1  0.2612321E-009  0.2802113E+03  0.7561462E-02  0.1095574E+00
         -1   -1    0    0    0  501 -0.00000000000E+00  0.00000000000E+00  0.13569539158E+04  0.13569539158E+04  0.00000000000E+00 0. -1.
          1   -1    0    0  501    0  0.00000000000E+00 -0.00000000000E+00 -0.10315658581E+03  0.10315658581E+03  0.00000000000E+00 0.  1.
         25    2    1    2    0    0  0.21871700388E+03  0.15393082903E+03  0.17243251819E+03  0.34191810930E+03  0.12507274775E+03 0.  0.
          5    1    3    3  502    0  0.79068942946E+02  0.86527872660E+01  0.99769412638E+02  0.12766431202E+03  0.41800000000E+01 0. -1.
         -5    1    3    3    0  502  0.13964806094E+03  0.14527804176E+03  0.72663105549E+02  0.21425379728E+03  0.41800000000E+01 0. -1.
        -11    1    1    2    0    0 -0.56478137006E+02 -0.13410506031E+01  0.14292746906E+03  0.15368747441E+03  0.00000000000E+00 0. -1.
         11    1    1    2    0    0 -0.16223886688E+03 -0.15258977842E+03  0.93843734275E+03  0.96450491791E+03  0.00000000000E+00 0.  1.
</event>
<event>
 7    1  0.2612321E-009  0.1226932E+03  0.7561462E-02  0.1238719E+00
          2   -1    0    0  501    0  0.00000000000E+00  0.00000000000E+00  0.52302686938E+03  0.52302686938E+03  0.00000000000E+00 0. -1.
         -2   -1    0    0    0  501 -0.00000000000E+00 -0.00000000000E+00 -0.46412024959E+02  0.46412024959E+02  0.00000000000E+00 0.  1.
         25    2    1    2    0    0 -0.33475614771E+02  0.10292117259E+03  0.30547170689E+03  0.34738159935E+03  0.12509047648E+03 0.  0.
          5    1    3    3  502    0  0.16473918333E+02  0.63271984031E+02  0.45739021717E+02  0.79901592325E+02  0.41800000000E+01 0.  1.
         -5    1    3    3    0  502 -0.49949533104E+02  0.39649188561E+02  0.25973268518E+03  0.26748000703E+03  0.41800000000E+01 0.  1.
        -11    1    1    2    0    0 -0.58407055234E+01 -0.48354768095E+02  0.13944507282E+03  0.14770655291E+03  0.00000000000E+00 0. -1.
         11    1    1    2    0    0  0.39316320295E+02 -0.54566404497E+02  0.31698064709E+02  0.74350742078E+02  0.00000000000E+00 0.  1.
</event>
<event>
 7    1  0.2612321E-009  0.9041769E+02  0.7561462E-02  0.1301843E+00
         -1   -1    0    0    0  501 -0.00000000000E+00  0.00000000000E+00  0.25000474592E+02  0.25000474592E+02  0.00000000000E+00 0.  1.
          1   -1    0    0  501    0  0.00000000000E+00 -0.00000000000E+00 -0.65119099829E+03  0.65119099829E+03  0.00000000000E+00 0. -1.
         25    2    1    2    0    0 -0.13164204737E+02 -0.81707447177E+01 -0.52157365751E+03  0.53658813304E+03  0.12509071494E+03 0.  0.
          5    1    3    3  502    0 -0.31722945566E+02  0.34234425078E+02 -0.44168366797E+03  0.44416244335E+03  0.41800000000E+01 0. -1.
         -5    1    3    3    0  502  0.18558740829E+02 -0.42405169796E+02 -0.79889989536E+02  0.92425689689E+02  0.41800000000E+01 0. -1.
        -11    1    1    2    0    0  0.31204373878E+02  0.40109123273E+02 -0.37639074890E+02  0.63238869989E+02  0.00000000000E+00 0.  1.
         11    1    1    2    0    0 -0.18040169142E+02 -0.31938378556E+02 -0.66977791301E+02  0.76364469847E+02  0.00000000000E+00 0. -1.
</event>
<event>
 7    1  0.2612321E-009  0.9692000E+02  0.7561462E-02  0.1286909E+00
         -3   -1    0    0    0  501 -0.00000000000E+00  0.00000000000E+00  0.16984419803E+02  0.16984419803E+02  0.00000000000E+00 0.  1.
          3   -1    0    0  501    0  0.00000000000E+00 -0.00000000000E+00 -0.69751812444E+03  0.69751812444E+03  0.00000000000E+00 0. -1.
         25    2    1    2    0    0  0.40301597179E+01 -0.79617507098E+01 -0.42468301652E+03  0.44281271923E+03  0.12509119926E+03 0.  0.
          5    1    3    3  502    0 -0.55006889289E+02 -0.29205109252E+02 -0.20237441758E+03  0.21178190094E+03  0.41800000000E+01 0.  1.
         -5    1    3    3    0  502  0.59037049006E+02  0.21243358542E+02 -0.22230859894E+03  0.23103081829E+03  0.41800000000E+01 0.  1.
        -11    1    1    2    0    0  0.67030434021E+01 -0.29147643569E+02 -0.29299023975E+02  0.41868230466E+02  0.00000000000E+00 0.  1.
         11    1    1    2    0    0 -0.10733203120E+02  0.37109394279E+02 -0.22655166414E+03  0.22982159454E+03  0.00000000000E+00 0. -1.
</event>
<event>
 7    1  0.2612321E-009  0.1073736E+03  0.7561462E-02  0.1265512E+00
         -1   -1    0    0    0  501 -0.00000000000E+00  0.00000000000E+00  0.37865498461E+02  0.37865498461E+02  0.00000000000E+00 0.  1.
          1   -1    0    0  501    0  0.00000000000E+00 -0.00000000000E+00 -0.38086412601E+03  0.38086412601E+03  0.00000000000E+00 0. -1.
         25    2    1    2    0    0  0.50395668357E+02 -0.71725315879E+01 -0.18758894571E+03  0.23114573223E+03  0.12509024094E+03 0.  0.
          5    1    3    3  502    0  0.37802418240E+02 -0.63917725440E+02 -0.83251684667E+02  0.11163697349E+03  0.41800000000E+01 0. -1.
         -5    1    3    3    0  502  0.12593250117E+02  0.56745193852E+02 -0.10433726105E+03  0.11950875874E+03  0.41800000000E+01 0. -1.
        -11    1    1    2    0    0 -0.11936251403E+02 -0.27710177645E+02 -0.12238408390E+03  0.12604837181E+03  0.00000000000E+00 0. -1.
         11    1    1    2    0    0 -0.38459416954E+02  0.34882709233E+02 -0.33025597936E+02  0.61535520433E+02  0.00000000000E+00 0.  1.
</event>
<event>
 7    1  0.2612321E-009  0.1017194E+03  0.7561462E-02  0.1276721E+00
         -1   -1    0    0    0  501 -0.00000000000E+00  0.00000000000E+00  0.54386121655E+03  0.54386121655E+03  0.00000000000E+00 0.  1.
          1   -1    0    0  501    0  0.00000000000E+00 -0.00000000000E+00 -0.32534733813E+02  0.32534733813E+02  0.00000000000E+00 0. -1.
         25    2    1    2    0    0 -0.78637272329E+01 -0.21758532732E+02  0.44065803484E+03  0.45865409588E+03  0.12509517994E+03 0.  0.
          5    1    3    3  502    0 -0.82708532365E+01 -0.69615951551E+02  0.33923507134E+03  0.34642848288E+03  0.41800000000E+01 0.  1.
         -5    1    3    3    0  502  0.40712600366E+00  0.47857418819E+02  0.10142296350E+03  0.11222561300E+03  0.41800000000E+01 0.  1.
        -11    1    1    2    0    0  0.45094900888E+02  0.12727742644E+02  0.13211094773E+02  0.48683452466E+02  0.00000000000E+00 0.  1.
         11    1    1    2    0    0 -0.37231173655E+02  0.90307900885E+01  0.57457353122E+02  0.69058402017E+02  0.00000000000E+00 0. -1.
</event>
<event>
 7    1  0.2612321E-009  0.1421134E+03  0.7561462E-02  0.1210513E+00
          2   -1    0    0  501    0  0.00000000000E+00  0.00000000000E+00  0.11682689636E+03  0.11682689636E+03  0.00000000000E+00 0. -1.
         -2   -1    0    0    0  501 -0.00000000000E+00 -0.00000000000E+00 -0.22873574177E+03  0.22873574177E+03  0.00000000000E+00 0.  1.
         25    2    1    2    0    0  0.29522494688E+02  0.11807564976E+03 -0.48119517862E+02  0.18104720758E+03  0.12509662911E+03 0.  0.
          5    1    3    3  502    0 -0.34187749197E+02  0.31673283275E+02 -0.56414647634E+02  0.73294501405E+02  0.41800000000E+01 0. -1.
         -5    1    3    3    0  502  0.63710243885E+02  0.86402366481E+02  0.82951297723E+01  0.10775270617E+03  0.41800000000E+01 0. -1.
        -11    1    1    2    0    0  0.12169357216E+02 -0.34928785442E+02 -0.61147130150E+02  0.71463870823E+02  0.00000000000E+00 0.  1.
         11    1    1    2    0    0 -0.41691851904E+02 -0.83146864314E+02 -0.26421973971E+01  0.93051559726E+02  0.00000000000E+00 0. -1.
</event>
<event>
 7    1  0.2612321E-009  0.9231086E+02  0.7561462E-02  0.1297350E+00
          2   -1    0    0  501    0  0.00000000000E+00  0.00000000000E+00  0.50636173133E+02  0.50636173133E+02  0.00000000000E+00 0.  1.
         -2   -1    0    0    0  501 -0.00000000000E+00 -0.00000000000E+00 -0.23364600200E+03  0.23364600200E+03  0.00000000000E+00 0. -1.
         25    2    1    2    0    0  0.13379912055E+02  0.12453678787E+01 -0.11357143545E+03  0.16948717282E+03  0.12508740069E+03 0.  0.
          5    1    3    3  502    0  0.58074856616E+02  0.33987502791E+01 -0.13614923188E+02  0.59892228276E+02  0.41800000000E+01 0.  1.
         -5    1    3    3    0  502 -0.44694944561E+02 -0.21533824005E+01 -0.99956512267E+02  0.10959494454E+03  0.41800000000E+01 0.  1.
        -11    1    1    2    0    0 -0.39079877235E+02  0.23564377560E+02 -0.12052268109E+02  0.47199299371E+02  0.00000000000E+00 0.  1.
         11    1    1    2    0    0  0.25699965180E+02 -0.24809745438E+02 -0.57386125298E+02  0.67595702938E+02  0.00000000000E+00 0. -1.
</event>
<event>
 7    1  0.2612321E-009  0.1541544E+03  0.7561462E-02  0.1195459E+00
          1   -1    0    0  501    0  0.00000000000E+00  0.00000000000E+00  0.27488463210E+02  0.27488463210E+02  0.00000000000E+00 0. -1.
         -1   -1    0    0    0  501 -0.00000000000E+00 -0.00000000000E+00 -0.91427482241E+03  0.91427482241E+03  0.00000000000E+00 0.  1.
         25    2    1    2    0    0  0.35113170419E+02 -0.10773658015E+03 -0.44039803106E+03  0.47163329067E+03  0.12508968652E+03 0.  0.
          5    1    3    3  502    0  0.54349156964E+02 -0.19206351855E+00 -0.20434286613E+03  0.21148840888E+03  0.41800000000E+01 0.  1.
         -5    1    3    3    0  502 -0.19235986545E+02 -0.10754451663E+03 -0.23605516492E+03  0.26014488179E+03  0.41800000000E+01 0.  1.
        -11    1    1    2    0    0 -0.59723788178E+02  0.38676784401E+02 -0.26749573468E+03  0.27679738546E+03  0.00000000000E+00 0.  1.
         11    1    1    2    0    0  0.24610617759E+02  0.69059795748E+02 -0.17889259346E+03  0.19333260949E+03  0.00000000000E+00 0. -1.
</event>
<event>
 7    1  0.2612321E-009  0.8926102E+02  0.7561462E-02  0.1304651E+00
          2   -1    0    0  501    0  0.00000000000E+00  0.00000000000E+00  0.20524010026E+03  0.20524010026E+03  0.00000000000E+00 0. -1.
         -2   -1    0    0    0  501 -0.00000000000E+00 -0.00000000000E+00 -0.69028117836E+02  0.69028117836E+02  0.00000000000E+00 0.  1.
         25    2    1    2    0    0 -0.20490861268E+01  0.13596800470E+02  0.24093475080E+02  0.12812538287E+03  0.12508615614E+03 0.  0.
          5    1    3    3  502    0  0.22234737420E+02 -0.51100410792E+02  0.17600134676E+02  0.58590721722E+02  0.41800000000E+01 0. -1.
         -5    1    3    3    0  502 -0.24283823547E+02  0.64697211262E+02  0.64933404036E+01  0.69534661147E+02  0.41800000000E+01 0. -1.
        -11    1    1    2    0    0 -0.11050220779E+02  0.16913317264E+02 -0.78422097148E+01  0.21671823489E+02  0.00000000000E+00 0.  1.
         11    1    1    2    0    0  0.13099306906E+02 -0.30510117734E+02  0.11996071705E+03  0.12447101173E+03  0.00000000000E+00 0. -1.
</event>
<event>
 7    1  0.2612321E-009  0.1452142E+03  0.7561462E-02  0.1206480E+00
          1   -1    0    0  501    0  0.00000000000E+00  0.00000000000E+00  0.45851546671E+03  0.45851546671E+03  0.00000000000E+00 0. -1.
         -1   -1    0    0    0  501 -0.00000000000E+00 -0.00000000000E+00 -0.67749463499E+02  0.67749463499E+02  0.00000000000E+00 0.  1.
         25    2    1    2    0    0  0.12207056774E+03 -0.61423263069E+02  0.14711242152E+03  0.23656644609E+03  0.12509027979E+03 0.  0.
          5    1    3    3  502    0  0.49209084677E+01 -0.10545820269E+02 -0.21619057059E+02  0.24905535396E+02  0.41800000000E+01 0. -1.
         -5    1    3    3    0  502  0.11714965927E+03 -0.50877442801E+02  0.16873147858E+03  0.21166091070E+03  0.41800000000E+01 0. -1.
        -11    1    1    2    0    0 -0.16033942570E+02  0.38615940539E+02  0.10932653558E+03  0.11704943212E+03  0.00000000000E+00 0.  1.
         11    1    1    2    0    0 -0.10603662517E+03  0.22807322530E+02  0.13432704611E+03  0.17264905199E+03  0.00000000000E+00 0. -1.
</event>
<event>
 7    1  0.2612321E-009  0.1213653E+03  0.7561462E-02  0.1240862E+00
          1   -1    0    0  501    0  0.00000000000E+00  0.00000000000E+00  0.56590577779E+02  0.56590577779E+02  0.00000000000E+00 0.  1.
         -1   -1    0    0    0  501 -0.00000000000E+00 -0.00000000000E+00 -0.49712476505E+03  0.49712476505E+03  0.00000000000E+00 0. -1.
         25    2    1    2    0    0  0.74908762935E+02  0.92170524909E+02 -0.31174139544E+03  0.35628248492E+03  0.12509109880E+03 0.  0.
          5    1    3    3  502    0  0.59756363964E+02  0.50417788141E+02 -0.30014145961E+03  0.31018566145E+03  0.41800000000E+01 0.  1.
         -5    1    3    3    0  502  0.15152398970E+02  0.41752736768E+02 -0.11599935835E+02  0.46096823464E+02  0.41800000000E+01 0.  1.
        -11    1    1    2    0    0 -0.49232737108E+02 -0.71740491594E+02 -0.13819090455E+03  0.16330121444E+03  0.00000000000E+00 0. -1.
         11    1    1    2    0    0 -0.25676025827E+02 -0.20430033315E+02  0.93981127201E+01  0.34131643474E+02  0.00000000000E+00 0.  1.
</event>
<event>
 7    1  0.2612321E-009  0.9261332E+02  0.7561462E-02  0.1296644E+00
          2   -1    0    0  501    0  0.00000000000E+00  0.00000000000E+00  0.68834016387E+03  0.68834016387E+03  0.00000000000E+00 0. -1.
         -2   -1    0    0    0  501 -0.00000000000E+00 -0.00000000000E+00 -0.25785175876E+02  0.25785175876E+02  0.00000000000E+00 0.  1.
         25    2    1    2    0    0  0.24107585424E+01 -0.46860968802E+02  0.52940172743E+03  0.54599935880E+03  0.12508936265E+03 0.  0.
          5    1    3    3  502    0  0.13338263311E+02  0.19950159483E+02  0.18431263880E+02  0.30546718642E+02  0.41800000000E+01 0.  1.
         -5    1    3    3    0  502 -0.10927504768E+02 -0.66811128285E+02  0.51097046355E+03  0.51545264016E+03  0.41800000000E+01 0.  1.
        -11    1    1    2    0    0 -0.41388911016E+02  0.23428514993E+02  0.10330346589E+03  0.11372573735E+03  0.00000000000E+00 0.  1.
         11    1    1    2    0    0  0.38978152473E+02  0.23432453809E+02  0.29849794669E+02  0.54400243598E+02  0.00000000000E+00 0. -1.
</event>
<event>
 7    1  0.2612321E-009  0.1422583E+03  0.7561462E-02  0.1210322E+00
         -1   -1    0    0    0  501 -0.00000000000E+00  0.00000000000E+00  0.78176756569E+02  0.78176756569E+02  0.00000000000E+00 0.  1.
          1   -1    0    0  501    0  0.00000000000E+00 -0.00000000000E+00 -0.45954600032E+03  0.45954600032E+03  0.00000000000E+00 0. -1.
         25    2    1    2    0    0 -0.10213935879E+03  0.26432329971E+02 -0.33224941205E+03  0.37036272558E+03  0.12509100693E+03 0.  0.
          5    1    3    3  502    0 -0.25783858828E+02  0.52691959606E+02 -0.51400605556E+02  0.78107263649E+02  0.41800000000E+01 0. -1.
         -5    1    3    3    0  502 -0.76355499960E+02 -0.26259629635E+02 -0.28084880649E+03  0.29225546194E+03  0.41800000000E+01 0. -1.
        -11    1    1    2    0    0 -0.17124656944E+02  0.10394320295E+02 -0.36843700266E+02  0.41937501346E+02  0.00000000000E+00 0.  1.
         11    1    1    2    0    0  0.11926401573E+03 -0.36826650266E+02 -0.12276131436E+02  0.12542252996E+03  0.00000000000E+00 0. -1.
</event>
<event>
 7    1  0.2612321E-009  0.8007770E+02  0.7561462E-02  0.1328831E+00
          1   -1    0    0  501    0  0.00000000000E+00  0.00000000000E+00  0.11007722350E+03  0.11007722350E+03  0.00000000000E+00 0. -1.
         -1   -1    0    0    0  501 -0.00000000000E+00 -0.00000000000E+00 -0.15425159914E+03  0.15425159914E+03  0.00000000000E+00 0.  1.
         25    2    1    2    0    0  0.52205775587E+02  0.20659801361E+02  0.20422185886E+02  0.13862817005E+03  0.12509369872E+03 0.  0.
          5    1    3    3  502    0  0.18470429463E+02 -0.14350224281E+02  0.67049357837E+02  0.71134903443E+02  0.41800000000E+01 0.  1.
         -5    1    3    3    0  502  0.33735346124E+02  0.35010025642E+02 -0.46627171952E+02  0.67493266611E+02  0.41800000000E+01 0.  1.
        -11    1    1    2    0    0  0.16142746622E+02  0.17400348194E+00  0.12623859080E+02  0.20493422452E+02  0.00000000000E+00 0. -1.
         11    1    1    2    0    0 -0.68348522209E+02 -0.20833804843E+02 -0.77220420611E+02  0.10520723013E+03  0.00000000000E+00 0.  1.
</event>
<event>
 7    1  0.2612321E-009  0.1006334E+03  0.7561462E-02  0.1278970E+00
         -2   -1    0    0    0  501 -0.00000000000E+00  0.00000000000E+00  0.72156530554E+02  0.72156530554E+02  0.00000000000E+00 0.  1.
          2   -1    0    0  501    0  0.00000000000E+00 -0.00000000000E+00 -0.19395340842E+03  0.19395340842E+03  0.00000000000E+00 0. -1.
         25    2    1    2    0    0  0.58494636520E+01 -0.39540339459E+02 -0.87080773783E+02  0.15757806851E+03  0.12510048699E+03 0.  0.
          5    1    3    3  502    0  0.74717106019E+01 -0.74260315200E+02 -0.13318086483E+02  0.75929340182E+02  0.41800000000E+01 0. -1.
         -5    1    3    3    0  502 -0.16222469498E+01  0.34719975740E+02 -0.73762687300E+02  0.81648728333E+02  0.41800000000E+01 0. -1.
        -11    1    1    2    0    0  0.36743309887E+02  0.30982342919E+02  0.66789771433E+01  0.48524067532E+02  0.00000000000E+00 0.  1.
         11    1    1    2    0    0 -0.42592773539E+02  0.85579965399E+01 -0.41395081225E+02  0.60007802927E+02  0.00000000000E+00 0. -1.
</event>
<event>
 7    1  0.2612321E-009  0.1178595E+03  0.7561462E-02  0.1246671E+00
         -1   -1    0    0    0  501 -0.00000000000E+00  0.00000000000E+00  0.21990501869E+03  0.21990501869E+03  0.00000000000E+00 0.  1.
          1   -1    0    0  501    0  0.00000000000E+00 -0.00000000000E+00 -0.84495695146E+02  0.84495695146E+02  0.00000000000E+00 0. -1.
         25    2    1    2    0    0 -0.55392075508E+02 -0.11306849176E+02  0.14174450154E+03  0.19731998149E+03  0.12509014553E+03 0.  0.
          5    1    3    3  502    0  0.72872879530E+01 -0.55941346988E+02  0.82896880631E+02  0.10035887647E+03  0.41800000000E+01 0. -1.
         -5    1    3    3    0  502 -0.62679363461E+02  0.44634497811E+02  0.58847620910E+02  0.96961105014E+02  0.41800000000E+01 0. -1.
        -11    1    1    2    0    0  0.72839521359E+02 -0.11110883200E+02 -0.18825340017E+02  0.76048938349E+02  0.00000000000E+00 0.  1.
         11    1    1    2    0    0 -0.17447445851E+02  0.22417732376E+02  0.12490162020E+02  0.31031794001E+02  0.00000000000E+00 0. -1.
</event>
<event>
 7    1  0.2612321E-009  0.1087253E+03  0.7561462E-02  0.1262949E+00
         -2   -1    0    0    0  501 -0.00000000000E+00  0.00000000000E+00  0.14031921176E+03  0.14031921176E+03  0.00000000000E+00 0. -1.
          2   -1    0    0  501    0  0.00000000000E+00 -0.00000000000E+00 -0.86573023429E+02  0.86573023429E+02  0.00000000000E+00 0.  1.
         25    2    1    2    0    0  0.36137642024E+01 -0.22077383303E+02  0.28605980927E+02  0.13025350655E+03  0.12508878319E+03 0.  0.
          5    1    3    3  502    0  0.62419370178E+02 -0.18136860904E+02  0.28675420085E+02  0.71167939509E+02  0.41800000000E+01 0. -1.
         -5    1    3    3    0  502 -0.58805605976E+02 -0.39405223990E+01 -0.69439157493E-01  0.59085567043E+02  0.41800000000E+01 0. -1.
        -11    1    1    2    0    0 -0.15200977220E+02  0.55663202209E+02  0.13593900245E+02  0.59281159844E+02  0.00000000000E+00 0.  1.
         11    1    1    2    0    0  0.11587213017E+02 -0.33585818907E+02  0.11546307158E+02  0.37357568793E+02  0.00000000000E+00 0. -1.
</event>
<event>
 7    1  0.2612321E-009  0.8922606E+02  0.7561462E-02  0.1304737E+00
         -2   -1    0    0    0  501 -0.00000000000E+00  0.00000000000E+00  0.11187815894E+03  0.11187815894E+03  0.00000000000E+00 0.  1.
          2   -1    0    0  501    0  0.00000000000E+00 -0.00000000000E+00 -0.10871016107E+03  0.10871016107E+03  0.00000000000E+00 0. -1.
         25    2    1    2    0    0 -0.14266217696E+02 -0.18518017579E+02 -0.20938840788E+01  0.12726598326E+03  0.12508318913E+03 0.  0.
          5    1    3    3  502    0  0.46912465337E+02 -0.17668038231E+02  0.29462466424E+02  0.58296211770E+02  0.41800000000E+01 0.  1.
         -5    1    3    3    0  502 -0.61178683033E+02 -0.84997934803E+00 -0.31556350502E+02  0.68969771491E+02  0.41800000000E+01 0.  1.
        -11    1    1    2    0    0  0.37384847162E+02  0.22098053712E+02 -0.28720811382E+02  0.52065687181E+02  0.00000000000E+00 0. -1.
         11    1    1    2    0    0 -0.23118629466E+02 -0.35800361332E+01  0.33982693334E+02  0.41256649565E+02  0.00000000000E+00 0.  1.
</event>
<event>
 7    1  0.2612321E-009  0.1553027E+03  0.7561462E-02  0.1194104E+00
         -2   -1    0    0    0  501 -0.00000000000E+00  0.00000000000E+00  0.22985227418E+02  0.22985227418E+02  0.00000000000E+00 0.  1.
          2   -1    0    0  501    0  0.00000000000E+00 -0.00000000000E+00 -0.12767744825E+04  0.12767744825E+04  0.00000000000E+00 0. -1.
         25    2    1    2    0    0 -0.54188700884E+02  0.12005638028E+03 -0.64592090468E+03  0.67097726725E+03  0.12508688306E+03 0.  0.
          5    1    3    3  502    0  0.18896174948E+02  0.29672724431E+02 -0.37691159917E+02  0.51726510985E+02  0.41800000000E+01 0. -1.
         -5    1    3    3    0  502 -0.73084875832E+02  0.90383655849E+02 -0.60822974477E+03  0.61925075627E+03  0.41800000000E+01 0. -1.
        -11    1    1    2    0    0  0.66960579973E+02 -0.40418775621E+02 -0.34820644426E+03  0.35688250800E+03  0.00000000000E+00 0.  1.
         11    1    1    2    0    0 -0.12771879089E+02 -0.79637604659E+02 -0.25966190618E+03  0.27189993470E+03  0.00000000000E+00 0. -1.
</event>
<event>
 7    1  0.2612321E-009  0.2230817E+03  0.7561462E-02  0.1131606E+00
          1   -1    0    0  501    0  0.00000000000E+00  0.00000000000E+00  0.13731748057E+04  0.13731748057E+04  0.00000000000E+00 0. -1.
         -1   -1    0    0    0  501 -0.00000000000E+00 -0.00000000000E+00 -0.40976814266E+02  0.40976814266E+02  0.00000000000E+00 0.  1.
         25    2    1    2    0    0 -0.67434410605E+02 -0.19577863913E+03  0.63510062340E+03  0.67961538250E+03  0.12509033139E+03 0.  0.
          5    1    3    3  502    0  0.32102966447E+02 -0.71917499475E+02  0.27294839659E+03  0.28411446071E+03  0.41800000000E+01 0.  1.
         -5    1    3    3    0  502 -0.99537377052E+02 -0.12386113965E+03  0.36215222682E+03  0.39550092179E+03  0.41800000000E+01 0.  1.
        -11    1    1    2    0    0  0.21763432693E+01  0.31488980860E+02  0.27072394940E+02  0.41583734241E+02  0.00000000000E+00 0.  1.
         11    1    1    2    0    0  0.65258067335E+02  0.16428965827E+03  0.67002497312E+03  0.69295250326E+03  0.00000000000E+00 0. -1.
</event>
<event>
 7    1  0.2612321E-009  0.9022111E+02  0.7561462E-02  0.1302317E+00
         -1   -1    0    0    0  501 -0.00000000000E+00  0.00000000000E+00  0.17805289235E+02  0.17805289235E+02  0.00000000000E+00 0.  1.
          1   -1    0    0  501    0  0.00000000000E+00 -0.00000000000E+00 -0.10887899670E+04  0.10887899670E+04  0.00000000000E+00 0. -1.
         25    2    1    2    0    0  0.29819446392E+02 -0.43569547735E+01 -0.91204994216E+03  0.92108130766E+03  0.12508995122E+03 0.  0.
          5    1    3    3  502    0  0.54727408873E+02 -0.41146535705E+02 -0.31583074345E+03  0.32319445786E+03  0.41800000000E+01 0. -1.
         -5    1    3    3    0  502 -0.24907962480E+02  0.36789580931E+02 -0.59621919871E+03  0.59788684980E+03  0.41800000000E+01 0. -1.
        -11    1    1    2    0    0  0.41534081737E+01 -0.23142621584E+02 -0.31603292907E+01  0.23723815343E+02  0.00000000000E+00 0.  1.
         11    1    1    2    0    0 -0.33972854566E+02  0.27499576357E+02 -0.15577440633E+03  0.16179013324E+03  0.00000000000E+00 0. -1.
</event>
<event>
 7    1  0.2612321E-009  0.8132744E+02  0.7561462E-02  0.1325326E+00
          1   -1    0    0  501    0  0.00000000000E+00  0.00000000000E+00  0.12680679370E+03  0.12680679370E+03  0.00000000000E+00 0. -1.
         -1   -1    0    0    0  501 -0.00000000000E+00 -0.00000000000E+00 -0.98522140506E+02  0.98522140506E+02  0.00000000000E+00 0.  1.
         25    2    1    2    0    0 -0.21453863501E+02  0.14528447350E+02  0.33697133354E+02  0.13211928313E+03  0.12509462073E+03 0.  0.
          5    1    3    3  502    0 -0.40227672394E+01 -0.34936007671E+02  0.62723892579E+02  0.72031009909E+02  0.41800000000E+01 0. -1.
         -5    1    3    3    0  502 -0.17431096262E+02  0.49464455021E+02 -0.29026759225E+02  0.60088273219E+02  0.41800000000E+01 0. -1.
        -11    1    1    2    0    0 -0.21765231549E+02 -0.21795903896E+02 -0.29966493652E+02  0.42974148890E+02  0.00000000000E+00 0.  1.
         11    1    1    2    0    0  0.43219095050E+02  0.72674565465E+01  0.24554013495E+02  0.50235502191E+02  0.00000000000E+00 0. -1.
</event>
<event>
 7    1  0.2612321E-009  0.1066230E+03  0.7561462E-02  0.1266955E+00
          1   -1    0    0  501    0  0.00000000000E+00  0.00000000000E+00  0.24241340910E+02  0.24241340910E+02  0.00000000000E+00 0. -1.
         -1   -1    0    0    0  501 -0.00000000000E+00 -0.00000000000E+00 -0.77668544051E+03  0.77668544051E+03  0.00000000000E+00 0.  1.
         25    2    1    2    0    0 -0.69108527612E+02  0.37231428319E+02 -0.32933635166E+03  0.36093206523E+03  0.12508938943E+03 0.  0.
          5    1    3    3  502    0 -0.77665871873E+02  0.29054835503E+02 -0.94631791264E+02  0.12589209442E+03  0.41800000000E+01 0. -1.
         -5    1    3    3    0  502  0.85573442614E+01  0.81765928158E+01 -0.23470456039E+03  0.23503997081E+03  0.41800000000E+01 0. -1.
        -11    1    1    2    0    0  0.89274336662E+02 -0.39002637262E+02 -0.30550726685E+03  0.32066462699E+03  0.00000000000E+00 0. -1.
         11    1    1    2    0    0 -0.20165809050E+02  0.17712089429E+01 -0.11760048109E+03  0.11933008920E+03  0.00000000000E+00 0.  1.
</event>
<event>
 7    1  0.2612321E-009  0.9128547E+02  0.7561462E-02  0.1299768E+00
         -3   -1    0    0    0  501 -0.00000000000E+00  0.00000000000E+00  0.28711795512E+02  0.28711795512E+02  0.00000000000E+00 0.  1.
          3   -1    0    0  501    0  0.00000000000E+00 -0.00000000000E+00 -0.44415535396E+03  0.44415535396E+03  0.00000000000E+00 0. -1.
         25    2    1    2    0    0  0.22210343653E+02  0.26226321252E+02 -0.26786682357E+03  0.29762699212E+03  0.12509225386E+03 0.  0.
          5    1    3    3  502    0  0.26591079433E+02  0.74928357571E+02 -0.18343374417E+03  0.19996688520E+03  0.41800000000E+01 0.  1.
         -5    1    3    3    0  502 -0.43807357802E+01 -0.48702036319E+02 -0.84433079398E+02  0.97660106923E+02  0.41800000000E+01 0.  1.
        -11    1    1    2    0    0 -0.22049576245E+02  0.50336811281E+01  0.17424149161E+01  0.22683865809E+02  0.00000000000E+00 0.  1.
         11    1    1    2    0    0 -0.16076740791E+00 -0.31260002380E+02 -0.14931914979E+03  0.15255629154E+03  0.00000000000E+00 0. -1.
</event>
<event>
 7    1  0.2612321E-009  0.9497467E+02  0.7561462E-02  0.1291233E+00
         -2   -1    0    0    0  501 -0.00000000000E+00  0.00000000000E+00  0.21096859159E+02  0.21096859159E+02  0.00000000000E+00 0. -1.
          2   -1    0    0  501    0  0.00000000000E+00 -0.00000000000E+00 -0.11237319999E+04  0.11237319999E+04  0.00000000000E+00 0.  1.
         25    2    1    2    0    0 -0.75435434554E+02 -0.21281955251E+02 -0.86602737773E+03  0.87852111085E+03  0.12510993895E+03 0.  0.
          5    1    3    3  502    0 -0.84680917479E+02  0.23941025829E+01 -0.82949850156E+03  0.83382361804E+03  0.41800000000E+01 0. -1.
         -5    1    3    3    0  502  0.92454829249E+01 -0.23676057834E+02 -0.36528876165E+02  0.44697492804E+02  0.41800000000E+01 0. -1.
        -11    1    1    2    0    0  0.20824721492E+02  0.17574181233E+00  0.17177164417E+01  0.20896182909E+02  0.00000000000E+00 0. -1.
         11    1    1    2    0    0  0.54610713062E+02  0.21106213439E+02 -0.23832547944E+03  0.24541156529E+03  0.00000000000E+00 0.  1.
</event>
<event>
 7    1  0.2612321E-009  0.1178462E+03  0.7561462E-02  0.1246693E+00
          1   -1    0    0  501    0  0.00000000000E+00  0.00000000000E+00  0.26808021723E+03  0.26808021723E+03  0.00000000000E+00 0. -1.
         -1   -1    0    0    0  501 -0.00000000000E+00 -0.00000000000E+00 -0.79134030209E+02  0.79134030209E+02  0.00000000000E+00 0.  1.
         25    2    1    2    0    0 -0.77622410582E+02  0.52858636886E+02  0.13155908954E+03  0.20438620174E+03  0.12508657522E+03 0.  0.
          5    1    3    3  502    0 -0.58597797327E+02  0.81989229164E+02  0.13572173548E+03  0.16909700598E+03  0.41800000000E+01 0.  1.
         -5    1    3    3    0  502 -0.19024613255E+02 -0.29130592278E+02 -0.41626459352E+01  0.35289195757E+02  0.41800000000E+01 0.  1.
        -11    1    1    2    0    0  0.27918441082E+02 -0.97354197086E+00  0.64830096756E+02  0.70592694961E+02  0.00000000000E+00 0. -1.
         11    1    1    2    0    0  0.49703969501E+02 -0.51885094915E+02 -0.74429992780E+01  0.72235350741E+02  0.00000000000E+00 0.  1.
</event>
<event>
 7    1  0.2612321E-009  0.2802899E+03  0.7561462E-02  0.1095531E+00
         -1   -1    0    0    0  501 -0.00000000000E+00  0.00000000000E+00  0.26933353338E+03  0.26933353338E+03  0.00000000000E+00 0.  1.
          1   -1    0    0  501    0  0.00000000000E+00 -0.00000000000E+00 -0.38332019586E+03  0.38332019586E+03  0.00000000000E+00 0. -1.
         25    2    1    2    0    0  0.27666141504E+03 -0.25258569711E+01  0.63884517691E+02  0.31028373064E+03  0.12508734299E+03 0.  0.
          5    1    3    3  502    0  0.21107607543E+03 -0.18065840551E+02 -0.74951545065E+01  0.21202154125E+03  0.41800000000E+01 0.  1.
         -5    1    3    3    0  502  0.65585339615E+02  0.15539983580E+02  0.71379672197E+02  0.98262189397E+02  0.41800000000E+01 0.  1.
        -11    1    1    2    0    0 -0.80061352231E+02  0.23513815846E+02 -0.12022876953E+02  0.84304621623E+02  0.00000000000E+00 0.  1.
         11    1    1    2    0    0 -0.19660006281E+03 -0.20987958875E+02 -0.16584830321E+03  0.25806537697E+03  0.00000000000E+00 0. -1.
</event>
<event>
 7    1  0.2612321E-009  0.1763031E+03  0.7561462E-02  0.1171430E+00
          2   -1    0    0  501    0  0.00000000000E+00  0.00000000000E+00  0.52857045001E+03  0.52857045001E+03  0.00000000000E+00 0. -1.
         -2   -1    0    0    0  501 -0.00000000000E+00 -0.00000000000E+00 -0.75323925216E+02  0.75323925216E+02  0.00000000000E+00 0.  1.
         25    2    1    2    0    0 -0.11318690211E+03  0.12611193894E+03  0.18612323785E+03  0.28107897218E+03  0.12509209800E+03 0.  0.
          5    1    3    3  502    0 -0.28021834691E+01  0.43874213398E+02  0.12087408921E+03  0.12868883664E+03  0.41800000000E+01 0.  1.
         -5    1    3    3    0  502 -0.11038471864E+03  0.82237725540E+02  0.65249148636E+02  0.15239013554E+03  0.41800000000E+01 0.  1.
        -11    1    1    2    0    0  0.64339925923E+02 -0.56107440459E+02  0.18777745896E+03  0.20627177469E+03  0.00000000000E+00 0. -1.
         11    1    1    2    0    0  0.48846976188E+02 -0.70004498479E+02  0.79345827987E+02  0.11654362835E+03  0.00000000000E+00 0.  1.
</event>
<event>
 7    1  0.2612321E-009  0.1054844E+03  0.7561462E-02  0.1269168E+00
          3   -1    0    0  501    0  0.00000000000E+00  0.00000000000E+00  0.54537298164E+02  0.54537298164E+02  0.00000000000E+00 0. -1.
         -3   -1    0    0    0  501 -0.00000000000E+00 -0.00000000000E+00 -0.27997569952E+03  0.27997569952E+03  0.00000000000E+00 0.  1.
         25    2    1    2    0    0 -0.37236620259E+02  0.37867975802E+02 -0.16125087524E+03  0.21087586766E+03  0.12508492041E+03 0.  0.
          5    1    3    3  502    0  0.27570396083E+02  0.36133437966E+02 -0.13192742719E+03  0.13959967953E+03  0.41800000000E+01 0.  1.
         -5    1    3    3    0  502 -0.64807016342E+02  0.17345378358E+01 -0.29323448050E+02  0.71276188129E+02  0.41800000000E+01 0.  1.
        -11    1    1    2    0    0  0.46197957709E+02  0.13569344623E+02 -0.11589529600E+02  0.49524696933E+02  0.00000000000E+00 0. -1.
         11    1    1    2    0    0 -0.89613374503E+01 -0.51437320425E+02 -0.52597996512E+02  0.74112433090E+02  0.00000000000E+00 0.  1.
</event>
<event>
 7    1  0.2612321E-009  0.1151841E+03  0.7561462E-02  0.1251260E+00
         -2   -1    0    0    0  501 -0.00000000000E+00  0.00000000000E+00  0.17551520575E+03  0.17551520575E+03  0.00000000000E+00 0. -1.
          2   -1    0    0  501    0  0.00000000000E+00 -0.00000000000E+00 -0.20013359194E+03  0.20013359194E+03  0.00000000000E+00 0.  1.
         25    2    1    2    0    0  0.48351665436E+02  0.89413893838E+02  0.10091008822E+03  0.19015273692E+03  0.12506993840E+03 0.  0.
          5    1    3    3  502    0  0.53083558988E+02  0.90765807258E+02  0.17721240811E+02  0.10671368599E+03  0.41800000000E+01 0. -1.
         -5    1    3    3    0  502 -0.47318935514E+01 -0.13519134201E+01  0.83188847408E+02  0.83439050927E+02  0.41800000000E+01 0. -1.
        -11    1    1    2    0    0 -0.94505411497E+01 -0.77386514306E+02 -0.33484815126E+02  0.84848206631E+02  0.00000000000E+00 0. -1.
         11    1    1    2    0    0 -0.38901124287E+02 -0.12027379531E+02 -0.92043659282E+02  0.10064785414E+03  0.00000000000E+00 0.  1.
</event>
<event>
 7    1  0.2612321E-009  0.1902560E+03  0.7561462E-02  0.1158231E+00
         -2   -1    0    0    0  501 -0.00000000000E+00  0.00000000000E+00  0.38663753882E+02  0.38663753882E+02  0.00000000000E+00 0.  1.
          2   -1    0    0  501    0  0.00000000000E+00 -0.00000000000E+00 -0.11772347388E+04  0.11772347388E+04  0.00000000000E+00 0. -1.
         25    2    1    2    0    0 -0.15641181365E+02 -0.16744692264E+03 -0.80419511122E+03  0.83105999811E+03  0.12509126707E+03 0.  0.
          5    1    3    3  502    0 -0.36726600077E+02 -0.21109238606E+02 -0.36835657558E+03  0.37080787786E+03  0.41800000000E+01 0.  1.
         -5    1    3    3    0  502  0.21085418712E+02 -0.14633768404E+03 -0.43583853564E+03  0.46025212025E+03  0.41800000000E+01 0.  1.
        -11    1    1    2    0    0  0.52329869799E+02  0.85344136800E+02 -0.16260053920E+03  0.19094756429E+03  0.00000000000E+00 0. -1.
         11    1    1    2    0    0 -0.36688688433E+02  0.82102785845E+02 -0.17177533447E+03  0.19389093026E+03  0.00000000000E+00 0.  1.
</event>
<event>
 7    1  0.2612321E-009  0.1677135E+03  0.7561462E-02  0.1180253E+00
          1   -1    0    0  501    0  0.00000000000E+00  0.00000000000E+00  0.10583121356E+04  0.10583121356E+04  0.00000000000E+00 0. -1.
         -1   -1    0    0    0  501 -0.00000000000E+00 -0.00000000000E+00 -0.37150772303E+02  0.37150772303E+02  0.00000000000E+00 0.  1.
         25    2    1    2    0    0 -0.16337241704E+03 -0.82566289537E+01  0.60127357670E+03  0.63555826541E+03  0.12508267713E+03 0.  0.
          5    1    3    3  502    0 -0.15596989171E+03 -0.19747441339E+02  0.34806654137E+03  0.38194810928E+03  0.41800000000E+01 0.  1.
         -5    1    3    3    0  502 -0.74025253243E+01  0.11490812385E+02  0.25320703533E+03  0.25361015613E+03  0.41800000000E+01 0.  1.
        -11    1    1    2    0    0  0.50119397272E+02  0.69759153173E+01  0.25431175105E+03  0.25929728903E+03  0.00000000000E+00 0. -1.
         11    1    1    2    0    0  0.11325301977E+03  0.12807136364E+01  0.16557603550E+03  0.20060735342E+03  0.00000000000E+00 0.  1.
</event>
<event>
 7    1  0.2612321E-009  0.1346736E+03  0.7561462E-02  0.1220681E+00
         -3   -1    0    0    0  501 -0.00000000000E+00  0.00000000000E+00  0.37016340000E+03  0.37016340000E+03  0.00000000000E+00 0. -1.
          3   -1    0    0  501    0  0.00000000000E+00 -0.00000000000E+00 -0.69988706629E+02  0.69988706629E+02  0.00000000000E+00 0.  1.
         25    2    1    2    0    0 -0.10686745754E+03  0.46938264083E+02  0.13432816010E+03  0.21752077031E+03  0.12508947519E+03 0.  0.
          5    1    3    3  502    0 -0.63367070570E+02  0.72375096754E+02  0.28795530416E+02  0.10049972754E+03  0.41800000000E+01 0.  1.
         -5    1    3    3    0  502 -0.43500386973E+02 -0.25436832671E+02  0.10553262969E+03  0.11702104277E+03  0.41800000000E+01 0.  1.
        -11    1    1    2    0    0  0.24974716075E+01 -0.12266565581E+02 -0.94547207244E+01  0.15687502655E+02  0.00000000000E+00 0.  1.
         11    1    1    2    0    0  0.10436998593E+03 -0.34671698502E+02  0.17530125400E+03  0.20694383367E+03  0.00000000000E+00 0. -1.
</event>
<event>
 7    1  0.2612321E-009  0.8560261E+02  0.7561462E-02  0.1313864E+00
          2   -1    0    0  501    0  0.00000000000E+00  0.00000000000E+00  0.27510359363E+02  0.27510359363E+02  0.00000000000E+00 0. -1.
         -2   -1    0    0    0  501 -0.00000000000E+00 -0.00000000000E+00 -0.47030539721E+03  0.47030539721E+03  0.00000000000E+00 0.  1.
         25    2    1    2    0    0 -0.18700677601E+02  0.31345072494E+02 -0.25174439836E+03  0.28346831850E+03  0.12508723587E+03 0.  0.
          5    1    3    3  502    0 -0.11368052344E+01 -0.43072396533E+02 -0.42554956880E+02  0.60703545401E+02  0.41800000000E+01 0. -1.
         -5    1    3    3    0  502 -0.17563872367E+02  0.74417469027E+02 -0.20918944148E+03  0.22276477310E+03  0.41800000000E+01 0. -1.
        -11    1    1    2    0    0  0.80586118167E+01  0.75328844005E+01  0.64480224308E+01  0.12777424039E+02  0.00000000000E+00 0. -1.
         11    1    1    2    0    0  0.10642065784E+02 -0.38877956894E+02 -0.19749866193E+03  0.20157001404E+03  0.00000000000E+00 0.  1.
</event>
<event>
 7    1  0.2612321E-009  0.1227296E+03  0.7561462E-02  0.1238661E+00
          2   -1    0    0  501    0  0.00000000000E+00  0.00000000000E+00  0.14814200457E+04  0.14814200457E+04  0.00000000000E+00 0. -1.
         -2   -1    0    0    0  501 -0.00000000000E+00 -0.00000000000E+00 -0.11023354777E+02  0.11023354777E+02  0.00000000000E+00 0.  1.
         25    2    1    2    0    0 -0.16216666271E+02 -0.64809737683E+02  0.92861714701E+03  0.93938634082E+03  0.12511438461E+03 0.  0.
          5    1    3    3  502    0 -0.35012189955E+02  0.24711944721E+02  0.17467019836E+03  0.17989909465E+03  0.41800000000E+01 0. -1.
         -5    1    3    3    0  502  0.18795523684E+02 -0.89521682405E+02  0.75394694864E+03  0.75948724617E+03  0.41800000000E+01 0. -1.
        -11    1    1    2    0    0  0.29348946061E+02 -0.12872397062E+02  0.13928340051E+03  0.14292279349E+03  0.00000000000E+00 0.  1.
         11    1    1    2    0    0 -0.13132279790E+02  0.77682134745E+02  0.40249614343E+03  0.41013426620E+03  0.00000000000E+00 0. -1.
</event>
<event>
 7    1  0.2612321E-009  0.1195514E+03  0.7561462E-02  0.1243839E+00
         -3   -1    0    0    0  501 -0.00000000000E+00  0.00000000000E+00  0.57255940489E+03  0.57255940489E+03  0.00000000000E+00 0. -1.
          3   -1    0    0  501    0  0.00000000000E+00 -0.00000000000E+00 -0.30802940703E+02  0.30802940703E+02  0.00000000000E+00 0.  1.
         25    2    1    2    0    0  0.11001978426E+02  0.76423985661E+02  0.28985636849E+03  0.32500120163E+03  0.12508955830E+03 0.  0.
          5    1    3    3  502    0 -0.45958561550E+02  0.74474316057E+02  0.14686094162E+03  0.17100941993E+03  0.41800000000E+01 0.  1.
         -5    1    3    3    0  502  0.56960539977E+02  0.19496696041E+01  0.14299542687E+03  0.15399178170E+03  0.41800000000E+01 0.  1.
        -11    1    1    2    0    0 -0.12604195768E+02  0.45143712981E+01 -0.39720278211E+00  0.13394143094E+02  0.00000000000E+00 0.  1.
         11    1    1    2    0    0  0.16022173419E+01 -0.80938356959E+02  0.25229729848E+03  0.26496700087E+03  0.00000000000E+00 0. -1.
</event>
<event>
 7    1  0.2612321E-009  0.1757515E+03  0.7561462E-02  0.1171979E+00
          2   -1    0    0  501    0  0.00000000000E+00  0.00000000000E+00  0.26285366519E+03  0.26285366519E+03  0.00000000000E+00 0. -1.
         -2   -1    0    0    0  501 -0.00000000000E+00 -0.00000000000E+00 -0.12802729656E+03  0.12802729656E+03  0.00000000000E+00 0.  1.
         25    2    1    2    0    0 -0.13906707329E+03 -0.16777825578E+02  0.21983283932E+02  0.18908005456E+03  0.12508739327E+03 0.  0.
          5    1    3    3  502    0  0.23166556472E+02 -0.20554129531E+01  0.10085196153E+02  0.25692365454E+02  0.41800000000E+01 0. -1.
         -5    1    3    3    0  502 -0.16223362976E+03 -0.14722412625E+02  0.11898087780E+02  0.16338768911E+03  0.41800000000E+01 0. -1.
        -11    1    1    2    0    0  0.10467662855E+03 -0.28096791342E+02  0.57521399114E+02  0.12270019399E+03  0.00000000000E+00 0.  1.
         11    1    1    2    0    0  0.34390444741E+02  0.44874616920E+02  0.55321685585E+02  0.79100713203E+02  0.00000000000E+00 0. -1.
</event>
<event>
 7    1  0.2612321E-009  0.1141094E+03  0.7561462E-02  0.1253144E+00
          1   -1    0    0  501    0  0.00000000000E+00  0.00000000000E+00  0.74746323704E+02  0.74746323704E+02  0.00000000000E+00 0. -1.
         -1   -1    0    0    0  501 -0.00000000000E+00 -0.00000000000E+00 -0.23324009421E+03  0.23324009421E+03  0.00000000000E+00 0.  1.
         25    2    1    2    0    0 -0.50126300771E+02  0.39236370978E+02 -0.52231744094E+02  0.14976099191E+03  0.12509220907E+03 0.  0.
          5    1    3    3  502    0 -0.50815759343E+02  0.75693894286E+02 -0.70307163043E+01  0.91535295933E+02  0.41800000000E+01 0.  1.
         -5    1    3    3    0  502  0.68945857179E+00 -0.36457523308E+02 -0.45201027790E+02  0.58225695978E+02  0.41800000000E+01 0.  1.
        -11    1    1    2    0    0  0.60752318429E+02 -0.12062488744E+01 -0.10170783230E+03  0.11847692764E+03  0.00000000000E+00 0. -1.
         11    1    1    2    0    0 -0.10626017657E+02 -0.38030122104E+02 -0.45541941125E+01  0.39748498368E+02  0.00000000000E+00 0.  1.
</event>
<event>
 7    1  0.2612321E-009  0.1303199E+03  0.7561462E-02  0.1226982E+00
         -2   -1    0    0    0  501 -0.00000000000E+00  0.00000000000E+00  0.50704982362E+02  0.50704982362E+02  0.00000000000E+00 0.  1.
          2   -1    0    0  501    0  0.00000000000E+00 -0.00000000000E+00 -0.58867533981E+03  0.58867533981E+03  0.00000000000E+00 0. -1.
         25    2    1    2    0    0 -0.83024887981E+01  0.12217395791E+03 -0.18551803612E+03  0.25506088972E+03  0.12507481132E+03 0.  0.
          5    1    3    3  502    0 -0.27376094910E+02  0.96016471463E+02 -0.42890736866E+02  0.10874603935E+03  0.41800000000E+01 0.  1.
         -5    1    3    3    0  502  0.19073606112E+02  0.26157486442E+02 -0.14262729925E+03  0.14631485037E+03  0.41800000000E+01 0.  1.
        -11    1    1    2    0    0  0.23346391683E+02 -0.75932271106E+02 -0.30919258390E+03  0.31923473767E+03  0.00000000000E+00 0. -1.
         11    1    1    2    0    0 -0.15043902885E+02 -0.46241686799E+02 -0.43259737431E+02  0.65084694780E+02  0.00000000000E+00 0.  1.
</event>
<event>
 7    1  0.2612321E-009  0.1018433E+03  0.7561462E-02  0.1276467E+00
          1   -1    0    0  501    0  0.00000000000E+00  0.00000000000E+00  0.69487317120E+03  0.69487317120E+03  0.00000000000E+00 0. -1.
         -1   -1    0    0    0  501 -0.00000000000E+00 -0.00000000000E+00 -0.17286340950E+02  0.17286340950E+02  0.00000000000E+00 0.  1.
         25    2    1    2    0    0 -0.77363209199E+00  0.24313798687E+01  0.46310677021E+03  0.47971233375E+03  0.12509809122E+03 0.  0.
          5    1    3    3  502    0  0.58899735334E+02 -0.11458143328E+02  0.17244972237E+03  0.18263856936E+03  0.41800000000E+01 0. -1.
         -5    1    3    3    0  502 -0.59673367426E+02  0.13889523197E+02  0.29065704784E+03  0.29707376439E+03  0.41800000000E+01 0. -1.
        -11    1    1    2    0    0 -0.58228085036E+01  0.39374785941E+02  0.15095493235E+03  0.15611428656E+03  0.00000000000E+00 0.  1.
         11    1    1    2    0    0  0.65964405956E+01 -0.41806165810E+02  0.63525127686E+02  0.76332891834E+02  0.00000000000E+00 0. -1.
</event>
<event>
 7    1  0.2612321E-009  0.6232247E+02  0.7561462E-02  0.1388336E+00
         -1   -1    0    0    0  501 -0.00000000000E+00  0.00000000000E+00  0.70936234645E+02  0.70936234645E+02  0.00000000000E+00 0.  1.
          1   -1    0    0  501    0  0.00000000000E+00 -0.00000000000E+00 -0.23341115263E+03  0.23341115263E+03  0.00000000000E+00 0. -1.
         25    2    1    2    0    0  0.46887086532E+02  0.19761830626E+02 -0.14620850963E+03  0.19903337099E+03  0.12509366749E+03 0.  0.
          5    1    3    3  502    0  0.89821903086E+01  0.19421119542E+02 -0.15770272768E+03  0.15920264554E+03  0.41800000000E+01 0. -1.
         -5    1    3    3    0  502  0.37904896223E+02  0.34071108382E+00  0.11494218052E+02  0.39830725456E+02  0.41800000000E+01 0. -1.
        -11    1    1    2    0    0 -0.48118437221E+02 -0.33351597427E+01  0.29591202284E+02  0.56587512260E+02  0.00000000000E+00 0.  1.
         11    1    1    2    0    0  0.12313506896E+01 -0.16426670883E+02 -0.45857610640E+02  0.48726504024E+02  0.00000000000E+00 0. -1.
</event>
<event>
 7    1  0.2612321E-009  0.7055947E+02  0.7561462E-02  0.1358201E+00
          3   -1    0    0  501    0  0.00000000000E+00  0.00000000000E+00  0.18979980250E+03  0.18979980250E+03  0.00000000000E+00 0. -1.
         -3   -1    0    0    0  501 -0.00000000000E+00 -0.00000000000E+00 -0.10632940227E+03  0.10632940227E+03  0.00000000000E+00 0.  1.
         25    2    1    2    0    0 -0.23885508693E+02  0.52695457040E+02  0.11985465247E+03  0.18265053495E+03  0.12509496985E+03 0.  0.
          5    1    3    3  502    0  0.97862775980E+01  0.26989164093E+02 -0.20798765305E+02  0.35696599920E+02  0.41800000000E+01 0. -1.
         -5    1    3    3    0  502 -0.33671786291E+02  0.25706292947E+02  0.14065341778E+03  0.14695393503E+03  0.41800000000E+01 0. -1.
        -11    1    1    2    0    0 -0.32479391535E+01 -0.39018657307E+02 -0.62273597685E+02  0.73559538440E+02  0.00000000000E+00 0.  1.
         11    1    1    2    0    0  0.27133447846E+02 -0.13676799733E+02  0.25889345437E+02  0.39919131380E+02  0.00000000000E+00 0. -1.
</event>
<event>
 7    1  0.2612321E-009  0.1402236E+03  0.7561462E-02  0.1213028E+00
          3   -1    0    0  501    0  0.00000000000E+00  0.00000000000E+00  0.16743043454E+03  0.16743043454E+03  0.00000000000E+00 0. -1.
         -3   -1    0    0    0  501 -0.00000000000E+00 -0.00000000000E+00 -0.15708367343E+03  0.15708367343E+03  0.00000000000E+00 0.  1.
         25    2    1    2    0    0  0.51880899830E+02 -0.10178333349E+03 -0.41399211323E+02  0.17439417045E+03  0.12509179527E+03 0.  0.
          5    1    3    3  502    0  0.69884979499E+02 -0.39687325371E+02  0.22328338630E+02  0.83516592727E+02  0.41800000000E+01 0. -1.
         -5    1    3    3    0  502 -0.18004079669E+02 -0.62096008123E+02 -0.63727549953E+02  0.90877577722E+02  0.41800000000E+01 0. -1.
        -11    1    1    2    0    0  0.17465811530E+02  0.99306688846E+01 -0.65169185708E+01  0.21122097068E+02  0.00000000000E+00 0.  1.
         11    1    1    2    0    0 -0.69346711360E+02  0.91852664610E+02  0.58262891012E+02  0.12899784045E+03  0.00000000000E+00 0. -1.
</event>
<event>
 7    1  0.2612321E-009  0.9767227E+02  0.7561462E-02  0.1285268E+00
         -2   -1    0    0    0  501 -0.00000000000E+00  0.00000000000E+00  0.58681027237E+02  0.58681027237E+02  0.00000000000E+00 0.  1.
          2   -1    0    0  501    0  0.00000000000E+00 -0.00000000000E+00 -0.34983121153E+03  0.34983121153E+03  0.00000000000E+00 0. -1.
         25    2    1    2    0    0 -0.54465582116E+02 -0.72388958080E+02 -0.12914671639E+03  0.20132753205E+03  0.12508892804E+03 0.  0.
          5    1    3    3  502    0 -0.26706694423E+02 -0.15656311980E+02 -0.13423838872E+03  0.13782519739E+03  0.41800000000E+01 0. -1.
         -5    1    3    3    0  502 -0.27758887693E+02 -0.56732646100E+02  0.50916723252E+01  0.63502334654E+02  0.41800000000E+01 0. -1.
        -11    1    1    2    0    0  0.52644394980E+02  0.34647538098E+02 -0.29848114659E+02  0.69733737658E+02  0.00000000000E+00 0.  1.
         11    1    1    2    0    0  0.18211871364E+01  0.37741419982E+02 -0.13215535324E+03  0.13745096906E+03  0.00000000000E+00 0. -1.
</event>
<event>
 7    1  0.3852983E-009  0.1254213E+03  0.7561462E-02  0.1234412E+00
          3   -1    0    0  501    0  0.00000000000E+00  0.00000000000E+00  0.31020404061E+03  0.31020404061E+03  0.00000000000E+00 0. -1.
         -3   -1    0    0    0  501 -0.00000000000E+00 -0.00000000000E+00 -0.77529327556E+02  0.77529327556E+02  0.00000000000E+00 0.  1.
         25    2    1    2    0    0 -0.92084454882E+02  0.59699743341E+02  0.13389991537E+03  0.21358822012E+03  0.12508850567E+03 0.  0.
          5    1    3    3  502    0 -0.70351429657E+02  0.75789701128E+02  0.32372378390E+02  0.10843821160E+03  0.41800000000E+01 0. -1.
         -5    1    3    3    0  502 -0.21733025225E+02 -0.16089957787E+02  0.10152753698E+03  0.10515000852E+03  0.41800000000E+01 0. -1.
        -11    1    1    2    0    0  0.40260555526E+01 -0.25026644671E+02 -0.12337624427E+02  0.28191471109E+02  0.00000000000E+00 0.  1.
         11    1    1    2    0    0  0.88058399330E+02 -0.34673098670E+02  0.11111242211E+03  0.14595367694E+03  0.00000000000E+00 0. -1.
</event>
<event>
 7    1  0.2612321E-009  0.1224765E+03  0.7561462E-02  0.1239067E+00
         -2   -1    0    0    0  501 -0.00000000000E+00  0.00000000000E+00  0.26627693371E+02  0.26627693371E+02  0.00000000000E+00 0.  1.
          2   -1    0    0  501    0  0.00000000000E+00 -0.00000000000E+00 -0.74786750178E+03  0.74786750178E+03  0.00000000000E+00 0. -1.
         25    2    1    2    0    0 -0.51259318674E+02 -0.65647834101E+02 -0.51608650189E+03  0.53752161651E+03  0.12508818854E+03 0.  0.
          5    1    3    3  502    0 -0.84589101376E+02 -0.64208229212E+02 -0.28827642177E+03  0.30724384537E+03  0.41800000000E+01 0. -1.
         -5    1    3    3    0  502  0.33329782701E+02 -0.14396048888E+01 -0.22781008012E+03  0.23027777114E+03  0.41800000000E+01 0. -1.
        -11    1    1    2    0    0  0.48862694917E+02  0.10661123630E+02 -0.43762255690E+02  0.66455680981E+02  0.00000000000E+00 0.  1.
         11    1    1    2    0    0  0.23966237573E+01  0.54986710471E+02 -0.16139105083E+03  0.17051789766E+03  0.00000000000E+00 0. -1.
</event>
<event>
 7    1  0.2612321E-009  0.3484403E+03  0.7561462E-02  0.1063257E+00
         -1   -1    0    0    0  501 -0.00000000000E+00  0.00000000000E+00  0.21821862477E+03  0.21821862477E+03  0.00000000000E+00 0.  1.
          1   -1    0    0  501    0  0.00000000000E+00 -0.00000000000E+00 -0.71170148976E+03  0.71170148976E+03  0.00000000000E+00 0. -1.
         25    2    1    2    0    0  0.55536169896E+02 -0.33631638389E+03 -0.44383816828E+03  0.57343973056E+03  0.12509128157E+03 0.  0.
          5    1    3    3  502    0  0.31165536989E+02 -0.29685290230E+03 -0.30403529988E+03  0.42608434878E+03  0.41800000000E+01 0.  1.
         -5    1    3    3    0  502  0.24370632906E+02 -0.39463481588E+02 -0.13980286840E+03  0.14735538178E+03  0.41800000000E+01 0.  1.
        -11    1    1    2    0    0  0.22320977143E+02  0.44659230140E+02  0.31597839824E+01  0.50026563865E+02  0.00000000000E+00 0. -1.
         11    1    1    2    0    0 -0.77857147039E+02  0.29165715375E+03 -0.52804480689E+02  0.30645382011E+03  0.00000000000E+00 0.  1.
</event>
<event>
 7    1  0.2612321E-009  0.1130077E+03  0.7561462E-02  0.1255099E+00
         -1   -1    0    0    0  501 -0.00000000000E+00  0.00000000000E+00  0.35003122903E+03  0.35003122903E+03  0.00000000000E+00 0.  1.
          1   -1    0    0  501    0  0.00000000000E+00 -0.00000000000E+00 -0.39532744023E+02  0.39532744023E+02  0.00000000000E+00 0. -1.
         25    2    1    2    0    0  0.39171236608E+02 -0.17708725696E+02  0.13504776185E+03  0.18900054276E+03  0.12504128295E+03 0.  0.
          5    1    3    3  502    0  0.72086831436E+02 -0.48265238446E+02  0.83132763978E+02  0.12022717395E+03  0.41800000000E+01 0. -1.
         -5    1    3    3    0  502 -0.32915594828E+02  0.30556512750E+02  0.51914997869E+02  0.68773368814E+02  0.41800000000E+01 0. -1.
        -11    1    1    2    0    0 -0.42597861767E+02 -0.26201875393E+02  0.11809295872E+03  0.12824610326E+03  0.00000000000E+00 0. -1.
         11    1    1    2    0    0  0.34266251589E+01  0.43910601089E+02  0.57357764438E+02  0.72317327034E+02  0.00000000000E+00 0.  1.
</event>
<event>
 7    1  0.2629363E-009  0.1037154E+03  0.7561462E-02  0.1272672E+00
          1   -1    0    0  501    0  0.00000000000E+00  0.00000000000E+00  0.24643645602E+03  0.24643645602E+03  0.00000000000E+00 0. -1.
         -1   -1    0    0    0  501 -0.00000000000E+00 -0.00000000000E+00 -0.65612508553E+02  0.65612508553E+02  0.00000000000E+00 0.  1.
         25    2    1    2    0    0 -0.14213498164E+02 -0.16944359813E+02  0.24554319190E+02  0.12938117401E+03  0.12508972275E+03 0.  0.
          5    1    3    3  502    0  0.34453388634E+01 -0.64804125726E+02 -0.12462933461E+02  0.66213610243E+02  0.41800000000E+01 0. -1.
         -5    1    3    3    0  502 -0.17658837028E+02  0.47859765912E+02  0.37017252651E+02  0.63167563766E+02  0.41800000000E+01 0. -1.
        -11    1    1    2    0    0  0.21320239999E+02  0.51604242771E+02  0.11803309722E+03  0.13057320761E+03  0.00000000000E+00 0.  1.
         11    1    1    2    0    0 -0.71067418345E+01 -0.34659882958E+02  0.38236531060E+02  0.52094582959E+02  0.00000000000E+00 0. -1.
</event>
<event>
 7    1  0.2612321E-009  0.3722472E+02  0.7561462E-02  0.1529688E+00
          1   -1    0    0  501    0  0.00000000000E+00  0.00000000000E+00  0.36295043425E+03  0.36295043425E+03  0.00000000000E+00 0. -1.
         -1   -1    0    0    0  501 -0.00000000000E+00 -0.00000000000E+00 -0.31490880041E+02  0.31490880041E+02  0.00000000000E+00 0.  1.
         25    2    1    2    0    0 -0.35690793850E+01  0.14797295046E+02  0.25440009650E+03  0.28389926025E+03  0.12509069750E+03 0.  0.
          5    1    3    3  502    0 -0.65902242276E+01 -0.11381410817E+01  0.26431681079E+03  0.26443444422E+03  0.41800000000E+01 0.  1.
         -5    1    3    3    0  502  0.30211448426E+01  0.15935436127E+02 -0.99167142938E+01  0.19464816031E+02  0.41800000000E+01 0.  1.
        -11    1    1    2    0    0  0.22517141303E+02  0.42857038076E+01 -0.56189800169E+01  0.23600039110E+02  0.00000000000E+00 0. -1.
         11    1    1    2    0    0 -0.18948061918E+02 -0.19082998853E+02  0.82678437722E+02  0.86942014929E+02  0.00000000000E+00 0.  1.
</event>
<event>
 7    1  0.2612321E-009  0.1623851E+03  0.7561462E-02  0.1186030E+00
         -1   -1    0    0    0  501 -0.00000000000E+00  0.00000000000E+00  0.67882207503E+03  0.67882207503E+03  0.00000000000E+00 0.  1.
          1   -1    0    0  501    0  0.00000000000E+00 -0.00000000000E+00 -0.51481209833E+02  0.51481209833E+02  0.00000000000E+00 0. -1.
         25    2    1    2    0    0  0.10755424790E+03 -0.99693216709E+02  0.40602395464E+03  0.44945674470E+03  0.12509700205E+03 0.  0.
          5    1    3    3  502    0  0.86410682274E+02 -0.53029975536E+02  0.37702353203E+03  0.39043975261E+03  0.41800000000E+01 0.  1.
         -5    1    3    3    0  502  0.21143565622E+02 -0.46663241173E+02  0.29000422604E+02  0.59016992089E+02  0.41800000000E+01 0.  1.
        -11    1    1    2    0    0  0.11698756002E+02  0.33548828953E+02  0.34247279267E+02  0.49348363228E+02  0.00000000000E+00 0. -1.
         11    1    1    2    0    0 -0.11925300390E+03  0.66144387756E+02  0.18706963130E+03  0.23149817693E+03  0.00000000000E+00 0.  1.
</event>
<event>
 7    1  0.2612321E-009  0.1551151E+03  0.7561462E-02  0.1194325E+00
         -2   -1    0    0    0  501 -0.00000000000E+00  0.00000000000E+00  0.21462787954E+03  0.21462787954E+03  0.00000000000E+00 0.  1.
          2   -1    0    0  501    0  0.00000000000E+00 -0.00000000000E+00 -0.11778852232E+03  0.11778852232E+03  0.00000000000E+00 0. -1.
         25    2    1    2    0    0 -0.91423199710E+02  0.69892441036E+02  0.41120394953E+02  0.17488509289E+03  0.12510297389E+03 0.  0.
          5    1    3    3  502    0 -0.88225163323E+02 -0.43946734042E+01 -0.27029155086E+01  0.88474689884E+02  0.41800000000E+01 0.  1.
         -5    1    3    3    0  502 -0.31980363871E+01  0.74287114440E+02  0.43823310462E+02  0.86410403010E+02  0.41800000000E+01 0.  1.
        -11    1    1    2    0    0  0.77101739411E+02 -0.92587774458E+02  0.44447401395E+02  0.12842408532E+03  0.00000000000E+00 0. -1.
         11    1    1    2    0    0  0.14321460299E+02  0.22695333422E+02  0.11271560872E+02  0.29107223652E+02  0.00000000000E+00 0.  1.
</event>
<event>
 7    1  0.2612321E-009  0.1891553E+03  0.7561462E-02  0.1159225E+00
          3   -1    0    0  501    0  0.00000000000E+00  0.00000000000E+00  0.10656478023E+04  0.10656478023E+04  0.00000000000E+00 0. -1.
         -3   -1    0    0    0  501 -0.00000000000E+00 -0.00000000000E+00 -0.37698163663E+02  0.37698163663E+02  0.00000000000E+00 0.  1.
         25    2    1    2    0    0 -0.31084410555E+02 -0.15663656061E+03  0.69295560259E+03  0.72203586370E+03  0.12508824331E+03 0.  0.
          5    1    3    3  502    0 -0.71364551659E+02 -0.12989281128E+03  0.58798081605E+03  0.60638597782E+03  0.41800000000E+01 0. -1.
         -5    1    3    3    0  502  0.40280141104E+02 -0.26743749328E+02  0.10497478654E+03  0.11564988588E+03  0.41800000000E+01 0. -1.
        -11    1    1    2    0    0  0.54610332222E+02  0.56210011051E+02  0.12911433455E+03  0.15103762814E+03  0.00000000000E+00 0.  1.
         11    1    1    2    0    0 -0.23525921667E+02  0.10042654956E+03  0.20587970146E+03  0.23027247408E+03  0.00000000000E+00 0. -1.
</event>
<event>
 7    1  0.2612321E-009  0.2666203E+03  0.7561462E-02  0.1103230E+00
          2   -1    0    0  501    0  0.00000000000E+00  0.00000000000E+00  0.10551237719E+04  0.10551237719E+04  0.00000000000E+00 0. -1.
         -2   -1    0    0    0  501 -0.00000000000E+00 -0.00000000000E+00 -0.71464647783E+02  0.71464647783E+02  0.00000000000E+00 0.  1.
         25    2    1    2    0    0 -0.30795248508E+02  0.25170363822E+03  0.45426291211E+03  0.53507499645E+03  0.12508952665E+03 0.  0.
          5    1    3    3  502    0 -0.46449643809E+02  0.25237416611E+03  0.37659327021E+03  0.45573046058E+03  0.41800000000E+01 0. -1.
         -5    1    3    3    0  502  0.15654395301E+02 -0.67052788460E+00  0.77669641899E+02  0.79344535871E+02  0.41800000000E+01 0. -1.
        -11    1    1    2    0    0  0.43987621826E+02 -0.11644736492E+03  0.30132073665E+03  0.32602006995E+03  0.00000000000E+00 0.  1.
         11    1    1    2    0    0 -0.13192373318E+02 -0.13525627330E+03  0.22807547533E+03  0.26549335326E+03  0.00000000000E+00 0. -1.
</event>
<event>
 7    1  0.2612321E-009  0.1274044E+03  0.7561462E-02  0.1231359E+00
         -1   -1    0    0    0  501 -0.00000000000E+00  0.00000000000E+00  0.33635167912E+03  0.33635167912E+03  0.00000000000E+00 0.  1.
          1   -1    0    0  501    0  0.00000000000E+00 -0.00000000000E+00 -0.53264107972E+02  0.53264107972E+02  0.00000000000E+00 0. -1.
         25    2    1    2    0    0 -0.68035708619E+02 -0.10603870629E+01  0.99936645186E+02  0.17395637372E+03  0.12507399745E+03 0.  0.
          5    1    3    3  502    0  0.70770014895E+01 -0.51013094304E+02  0.42804683403E+02  0.67097936345E+02  0.41800000000E+01 0. -1.
         -5    1    3    3    0  502 -0.75112710108E+02  0.49952707241E+02  0.57131961783E+02  0.10685843737E+03  0.41800000000E+01 0. -1.
        -11    1    1    2    0    0  0.69876790836E+02  0.35478198505E+02  0.11322372026E+03  0.13769923492E+03  0.00000000000E+00 0. -1.
         11    1    1    2    0    0 -0.18410822175E+01 -0.34417811442E+02  0.69927205693E+02  0.77960178452E+02  0.00000000000E+00 0.  1.
</event>
<event>
 7    1  0.2612321E-009  0.1481802E+03  0.7561462E-02  0.1202727E+00
         -2   -1    0    0    0  501 -0.00000000000E+00  0.00000000000E+00  0.14644765478E+03  0.14644765478E+03  0.00000000000E+00 0. -1.
          2   -1    0    0  501    0  0.00000000000E+00 -0.00000000000E+00 -0.21913008056E+03  0.21913008056E+03  0.00000000000E+00 0.  1.
         25    2    1    2    0    0  0.26433485073E+02 -0.12995467226E+03 -0.93283605479E+02  0.20478395767E+03  0.12509073624E+03 0.  0.
          5    1    3    3  502    0 -0.59216232408E+01 -0.10668355285E+03 -0.11677229736E+03  0.15833410214E+03  0.41800000000E+01 0. -1.
         -5    1    3    3    0  502  0.32355108314E+02 -0.23271119408E+02  0.23488691878E+02  0.46449855529E+02  0.41800000000E+01 0. -1.
        -11    1    1    2    0    0  0.18607453721E+02  0.79827827350E+02  0.39236570719E+02  0.90874792078E+02  0.00000000000E+00 0. -1.
         11    1    1    2    0    0 -0.45040938794E+02  0.50126844906E+02 -0.18635391017E+02  0.69918985591E+02  0.00000000000E+00 0.  1.
</event>
<event>
 7    1  0.2612321E-009  0.1130957E+03  0.7561462E-02  0.1254942E+00
          1   -1    0    0  501    0  0.00000000000E+00  0.00000000000E+00  0.23907182840E+02  0.23907182840E+02  0.00000000000E+00 0. -1.
         -1   -1    0    0    0  501 -0.00000000000E+00 -0.00000000000E+00 -0.90641528080E+03  0.90641528080E+03  0.00000000000E+00 0.  1.
         25    2    1    2    0    0 -0.37934040123E+02 -0.22214591011E+02 -0.75258998532E+03  0.76418018952E+03  0.12508875487E+03 0.  0.
          5    1    3    3  502    0  0.32456824233E+02  0.28308520631E+02 -0.18454581549E+03  0.18955064810E+03  0.41800000000E+01 0.  1.
         -5    1    3    3    0  502 -0.70390864356E+02 -0.50523111642E+02 -0.56804416983E+03  0.57462954142E+03  0.41800000000E+01 0.  1.
        -11    1    1    2    0    0  0.25254271937E+02 -0.31847883093E+02 -0.86775092726E+02  0.95822662383E+02  0.00000000000E+00 0.  1.
         11    1    1    2    0    0  0.12679768186E+02  0.54062474104E+02 -0.43143019910E+02  0.70319611734E+02  0.00000000000E+00 0. -1.
</event>
<event>
 7    1  0.2612321E-009  0.2187962E+03  0.7561462E-02  0.1134784E+00
         -1   -1    0    0    0  501 -0.00000000000E+00  0.00000000000E+00  0.91152366838E+02  0.91152366838E+02  0.00000000000E+00 0.  1.
          1   -1    0    0  501    0  0.00000000000E+00 -0.00000000000E+00 -0.68853693622E+03  0.68853693622E+03  0.00000000000E+00 0. -1.
         25    2    1    2    0    0 -0.11710989812E+03 -0.15564598822E+03 -0.13088374521E+03  0.26594796892E+03  0.12512939512E+03 0.  0.
          5    1    3    3  502    0 -0.13772748723E+03 -0.15878371840E+03 -0.11947432273E+03  0.24181132348E+03  0.41800000000E+01 0.  1.
         -5    1    3    3    0  502  0.20617589118E+02  0.31377301796E+01 -0.11409422488E+02  0.24136645443E+02  0.41800000000E+01 0.  1.
        -11    1    1    2    0    0  0.40664557167E+02  0.10431834506E+02 -0.16733832951E+03  0.17252404442E+03  0.00000000000E+00 0. -1.
         11    1    1    2    0    0  0.76445340950E+02  0.14521415372E+03 -0.29916249466E+03  0.34121728972E+03  0.00000000000E+00 0.  1.
</event>
<event>
 7    1  0.2612321E-009  0.1167272E+03  0.7561462E-02  0.1248596E+00
         -2   -1    0    0    0  501 -0.00000000000E+00  0.00000000000E+00  0.75115999168E+02  0.75115999168E+02  0.00000000000E+00 0.  1.
          2   -1    0    0  501    0  0.00000000000E+00 -0.00000000000E+00 -0.29876766070E+03  0.29876766070E+03  0.00000000000E+00 0. -1.
         25    2    1    2    0    0 -0.48762964094E+02  0.87129774947E+02 -0.91752476622E+02  0.18449750891E+03  0.12510551338E+03 0.  0.
          5    1    3    3  502    0 -0.13123959338E+02  0.24740383612E+02  0.31134592549E+02  0.42085153477E+02  0.41800000000E+01 0.  1.
         -5    1    3    3    0  502 -0.35639004756E+02  0.62389391336E+02 -0.12288706917E+03  0.14241235543E+03  0.41800000000E+01 0.  1.
        -11    1    1    2    0    0  0.74260700337E+02 -0.56491454750E+02 -0.10874900788E+03  0.14329090267E+03  0.00000000000E+00 0. -1.
         11    1    1    2    0    0 -0.25497736242E+02 -0.30638320197E+02 -0.23150177037E+02  0.46095248289E+02  0.00000000000E+00 0.  1.
</event>
<event>
 7    1  0.2612321E-009  0.1529816E+03  0.7561462E-02  0.1196856E+00
         -1   -1    0    0    0  501 -0.00000000000E+00  0.00000000000E+00  0.32538276036E+02  0.32538276036E+02  0.00000000000E+00 0.  1.
          1   -1    0    0  501    0  0.00000000000E+00 -0.00000000000E+00 -0.10253971114E+04  0.10253971114E+04  0.00000000000E+00 0. -1.
         25    2    1    2    0    0  0.11499420765E+03 -0.78652807054E+02 -0.39510865962E+03  0.43722859638E+03  0.12509220890E+03 0.  0.
          5    1    3    3  502    0  0.96799713884E+02 -0.15033911065E+02 -0.12373729258E+03  0.15787524526E+03  0.41800000000E+01 0.  1.
         -5    1    3    3    0  502  0.18194493771E+02 -0.63618895990E+02 -0.27137136704E+03  0.27935335112E+03  0.41800000000E+01 0.  1.
        -11    1    1    2    0    0 -0.96712225720E+02  0.76285715425E+02 -0.58608978307E+03  0.59889397960E+03  0.00000000000E+00 0. -1.
         11    1    1    2    0    0 -0.18281981934E+02  0.23670916299E+01 -0.11660392655E+02  0.21812811444E+02  0.00000000000E+00 0.  1.
</event>
<event>
 7    1  0.2612321E-009  0.1657491E+03  0.7561462E-02  0.1182355E+00
          2   -1    0    0  501    0  0.00000000000E+00  0.00000000000E+00  0.34924209946E+03  0.34924209946E+03  0.00000000000E+00 0. -1.
         -2   -1    0    0    0  501 -0.00000000000E+00 -0.00000000000E+00 -0.93463876142E+02  0.93463876142E+02  0.00000000000E+00 0.  1.
         25    2    1    2    0    0 -0.64403643492E+02  0.10757646295E+03  0.47650089716E+02  0.18339394491E+03  0.12506911411E+03 0.  0.
          5    1    3    3  502    0 -0.99101955184E+02  0.10044033676E+03  0.33988164516E+02  0.14519685430E+03  0.41800000000E+01 0.  1.
         -5    1    3    3    0  502  0.34698311692E+02  0.71361261831E+01  0.13661925200E+02  0.38197090613E+02  0.41800000000E+01 0.  1.
        -11    1    1    2    0    0  0.14120014397E+01 -0.88972447479E+02  0.12141934945E+03  0.15053487496E+03  0.00000000000E+00 0.  1.
         11    1    1    2    0    0  0.62991642052E+02 -0.18604015466E+02  0.86708784155E+02  0.10877715573E+03  0.00000000000E+00 0. -1.
</event>
<event>
 7    1  0.2612321E-009  0.2687761E+03  0.7561462E-02  0.1101982E+00
         -2   -1    0    0    0  501 -0.00000000000E+00  0.00000000000E+00  0.14042069952E+03  0.14042069952E+03  0.00000000000E+00 0.  1.
          2   -1    0    0  501    0  0.00000000000E+00 -0.00000000000E+00 -0.58784752904E+03  0.58784752904E+03  0.00000000000E+00 0. -1.
         25    2    1    2    0    0  0.13493296392E+03 -0.21882846177E+03 -0.14157186941E+03  0.31903386926E+03  0.12508882883E+03 0.  0.
          5    1    3    3  502    0  0.14947365950E+03 -0.21273708837E+03 -0.15049526988E+03  0.30044257739E+03  0.41800000000E+01 0. -1.
         -5    1    3    3    0  502 -0.14540695579E+02 -0.60913733968E+01  0.89234004644E+01  0.18591291876E+02  0.41800000000E+01 0. -1.
        -11    1    1    2    0    0 -0.12142020207E+03  0.16003295081E+03 -0.18026136334E+03  0.26990288981E+03  0.00000000000E+00 0.  1.
         11    1    1    2    0    0 -0.13512761855E+02  0.58795510952E+02 -0.12559359677E+03  0.13933146949E+03  0.00000000000E+00 0. -1.
</event>
<event>
 7    1  0.2612321E-009  0.1189286E+03  0.7561462E-02  0.1244875E+00
         -2   -1    0    0    0  501 -0.00000000000E+00  0.00000000000E+00  0.54881958804E+02  0.54881958804E+02  0.00000000000E+00 0. -1.
          2   -1    0    0  501    0  0.00000000000E+00 -0.00000000000E+00 -0.36692965602E+03  0.36692965602E+03  0.00000000000E+00 0.  1.
         25    2    1    2    0    0 -0.52002536922E+02 -0.64609205452E+02 -0.11155714180E+03  0.18701067507E+03  0.12509749568E+03 0.  0.
          5    1    3    3  502    0  0.22073785952E+02  0.15676918221E+01  0.14259028857E+02  0.26655243159E+02  0.41800000000E+01 0. -1.
         -5    1    3    3    0  502 -0.74076322874E+02 -0.66176897274E+02 -0.12581617066E+03  0.16035543191E+03  0.41800000000E+01 0. -1.
        -11    1    1    2    0    0  0.28007814956E+02 -0.15694611012E+02 -0.93706182708E+02  0.99053557186E+02  0.00000000000E+00 0.  1.
         11    1    1    2    0    0  0.23994721966E+02  0.80303816464E+02 -0.10678437271E+03  0.13574738257E+03  0.00000000000E+00 0. -1.
</event>
<event>
 7    1  0.2612321E-009  0.1508215E+03  0.7561462E-02  0.1199467E+00
         -2   -1    0    0    0  501 -0.00000000000E+00  0.00000000000E+00  0.20802596723E+03  0.20802596723E+03  0.00000000000E+00 0.  1.
          2   -1    0    0  501    0  0.00000000000E+00 -0.00000000000E+00 -0.14515867132E+03  0.14515867132E+03  0.00000000000E+00 0. -1.
         25    2    1    2    0    0  0.98960575592E+02  0.70962264795E+02 -0.33140549318E+02  0.17768994992E+03  0.12508630520E+03 0.  0.
          5    1    3    3  502    0  0.11848252343E+03  0.20992644499E+02 -0.28159790630E+02  0.12364968940E+03  0.41800000000E+01 0. -1.
         -5    1    3    3    0  502 -0.19521947836E+02  0.49969620296E+02 -0.49807586881E+01  0.54040260519E+02  0.41800000000E+01 0. -1.
        -11    1    1    2    0    0 -0.10015189788E+03 -0.60719837408E+02  0.48306941404E+02  0.12669199616E+03  0.00000000000E+00 0. -1.
         11    1    1    2    0    0  0.11913222842E+01 -0.10242427387E+02  0.47700903818E+02  0.48802692473E+02  0.00000000000E+00 0.  1.
</event>
<event>
 7    1  0.2612321E-009  0.1440808E+03  0.7561462E-02  0.1207941E+00
          2   -1    0    0  501    0  0.00000000000E+00  0.00000000000E+00  0.66146262115E+03  0.66146262115E+03  0.00000000000E+00 0. -1.
         -2   -1    0    0    0  501 -0.00000000000E+00 -0.00000000000E+00 -0.49727434604E+02  0.49727434604E+02  0.00000000000E+00 0.  1.
         25    2    1    2    0    0  0.54611905585E+02 -0.13155344692E+03  0.37888410943E+03  0.42366234852E+03  0.12509135682E+03 0.  0.
          5    1    3    3  502    0  0.15651585895E+02 -0.62340597118E+02  0.40565667970E+02  0.76120746239E+02  0.41800000000E+01 0.  1.
         -5    1    3    3    0  502  0.38960319689E+02 -0.69212849801E+02  0.33831844146E+03  0.34754160228E+03  0.41800000000E+01 0.  1.
        -11    1    1    2    0    0 -0.35750735894E+02  0.10954370807E+03  0.23140294868E+03  0.25850582924E+03  0.00000000000E+00 0. -1.
         11    1    1    2    0    0 -0.18861169690E+02  0.22009738849E+02  0.14481284432E+01  0.29021877993E+02  0.00000000000E+00 0.  1.
</event>
<event>
 7    1  0.2612321E-009  0.8211334E+02  0.7561462E-02  0.1323159E+00
         -3   -1    0    0    0  501 -0.00000000000E+00  0.00000000000E+00  0.39880897428E+02  0.39880897428E+02  0.00000000000E+00 0.  1.
          3   -1    0    0  501    0  0.00000000000E+00 -0.00000000000E+00 -0.39295815771E+03  0.39295815771E+03  0.00000000000E+00 0. -1.
         25    2    1    2    0    0  0.18225248868E+02 -0.46069801579E+02 -0.14204706248E+03  0.19565105766E+03  0.12508949632E+03 0.  0.
          5    1    3    3  502    0  0.43852596598E+02 -0.48046025407E+02 -0.16239162019E+02  0.67176287251E+02  0.41800000000E+01 0.  1.
         -5    1    3    3    0  502 -0.25627347730E+02  0.19762238276E+01 -0.12580790046E+03  0.12847477040E+03  0.41800000000E+01 0.  1.
        -11    1    1    2    0    0  0.91640444903E+01 -0.81453520998E+01  0.46537795135E+01  0.13114272226E+02  0.00000000000E+00 0.  1.
         11    1    1    2    0    0 -0.27389293358E+02  0.54215153679E+02 -0.21568397731E+03  0.22407372525E+03  0.00000000000E+00 0. -1.
</event>
<event>
 7    1  0.2612321E-009  0.1747301E+03  0.7561462E-02  0.1173003E+00
         -1   -1    0    0    0  501 -0.00000000000E+00  0.00000000000E+00  0.78084895948E+02  0.78084895948E+02  0.00000000000E+00 0.  1.
          1   -1    0    0  501    0  0.00000000000E+00 -0.00000000000E+00 -0.81163264634E+03  0.81163264634E+03  0.00000000000E+00 0. -1.
         25    2    1    2    0    0 -0.15127678407E+03 -0.21193587034E+02 -0.80784925374E+02  0.21332387272E+03  0.12508811684E+03 0.  0.
          5    1    3    3  502    0 -0.14745594633E+03  0.25471104487E+02 -0.69153741986E+02  0.16489919861E+03  0.41800000000E+01 0. -1.
         -5    1    3    3    0  502 -0.38208377454E+01 -0.46664691521E+02 -0.11631183388E+02  0.48424674112E+02  0.41800000000E+01 0. -1.
        -11    1    1    2    0    0  0.11487578757E+03  0.16315733954E+02 -0.60561454651E+03  0.61662924735E+03  0.00000000000E+00 0. -1.
         11    1    1    2    0    0  0.36400996500E+02  0.48778530801E+01 -0.47148278512E+02  0.59764422222E+02  0.00000000000E+00 0.  1.
</event>
<event>
 7    1  0.2612321E-009  0.9436185E+02  0.7561462E-02  0.1292620E+00
         -1   -1    0    0    0  501 -0.00000000000E+00  0.00000000000E+00  0.12926132837E+03  0.12926132837E+03  0.00000000000E+00 0.  1.
          1   -1    0    0  501    0  0.00000000000E+00 -0.00000000000E+00 -0.10097311953E+03  0.10097311953E+03  0.00000000000E+00 0. -1.
         25    2    1    2    0    0  0.49785579714E+01 -0.27091508342E+02  0.44218963445E+02  0.13550404743E+03  0.12508914533E+03 0.  0.
          5    1    3    3  502    0  0.60677893174E+02 -0.96315147740E+01  0.46145650825E+02  0.76951064235E+02  0.41800000000E+01 0.  1.
         -5    1    3    3    0  502 -0.55699335202E+02 -0.17459993568E+02 -0.19266873803E+01  0.58552983200E+02  0.41800000000E+01 0.  1.
        -11    1    1    2    0    0 -0.88043846920E+01  0.47270971400E+02  0.21002270542E+02  0.52470537398E+02  0.00000000000E+00 0.  1.
         11    1    1    2    0    0  0.38258267206E+01 -0.20179463058E+02 -0.36933025154E+02  0.42259863067E+02  0.00000000000E+00 0. -1.
</event>
<event>
 7    1  0.2612321E-009  0.1130455E+03  0.7561462E-02  0.1255032E+00
          1   -1    0    0  501    0  0.00000000000E+00  0.00000000000E+00  0.44112091555E+03  0.44112091555E+03  0.00000000000E+00 0. -1.
         -1   -1    0    0    0  501 -0.00000000000E+00 -0.00000000000E+00 -0.39042654746E+02  0.39042654746E+02  0.00000000000E+00 0.  1.
         25    2    1    2    0    0 -0.62359846616E+02 -0.36688401600E+02  0.20260467305E+03  0.24885677835E+03  0.12508498434E+03 0.  0.
          5    1    3    3  502    0 -0.79085918055E+02  0.20946532543E+02  0.13874240119E+03  0.16112189779E+03  0.41800000000E+01 0.  1.
         -5    1    3    3    0  502  0.16726071439E+02 -0.57634934142E+02  0.63862271857E+02  0.87734880556E+02  0.41800000000E+01 0.  1.
        -11    1    1    2    0    0  0.39762986003E+02  0.44895084868E+02  0.19837346942E+03  0.20724067426E+03  0.00000000000E+00 0. -1.
         11    1    1    2    0    0  0.22596860613E+02 -0.82066832682E+01  0.11001183367E+01  0.24066117680E+02  0.00000000000E+00 0.  1.
</event>
<event>
 7    1  0.2612321E-009  0.9802310E+02  0.7561462E-02  0.1284509E+00
         -1   -1    0    0    0  501 -0.00000000000E+00  0.00000000000E+00  0.38854828122E+02  0.38854828122E+02  0.00000000000E+00 0.  1.
          1   -1    0    0  501    0  0.00000000000E+00 -0.00000000000E+00 -0.33028696321E+03  0.33028696321E+03  0.00000000000E+00 0. -1.
         25    2    1    2    0    0  0.25936657494E+02 -0.90360866982E+01 -0.13415061547E+03  0.18546756826E+03  0.12508984843E+03 0.  0.
          5    1    3    3  502    0  0.17604364195E+02 -0.62159795345E+02 -0.10705669366E+03  0.12510939954E+03  0.41800000000E+01 0. -1.
         -5    1    3    3    0  502  0.83322932994E+01  0.53123708647E+02 -0.27093921817E+02  0.60358168722E+02  0.41800000000E+01 0. -1.
        -11    1    1    2    0    0 -0.49793832009E+02  0.16364153371E+02 -0.46344143101E+02  0.69964211004E+02  0.00000000000E+00 0.  1.
         11    1    1    2    0    0  0.23857174515E+02 -0.73280666723E+01 -0.11093737651E+03  0.11371001206E+03  0.00000000000E+00 0. -1.
</event>
<event>
 7    1  0.2612321E-009  0.1078397E+03  0.7561462E-02  0.1264624E+00
          2   -1    0    0  501    0  0.00000000000E+00  0.00000000000E+00  0.36756399039E+03  0.36756399039E+03  0.00000000000E+00 0. -1.
         -2   -1    0    0    0  501 -0.00000000000E+00 -0.00000000000E+00 -0.35110963081E+02  0.35110963081E+02  0.00000000000E+00 0.  1.
         25    2    1    2    0    0 -0.11151750066E+02 -0.29163716706E+02  0.20639637704E+03  0.24335972787E+03  0.12509839643E+03 0.  0.
          5    1    3    3  502    0  0.39422150420E+02 -0.58224478804E+02  0.11482352346E+03  0.13470749725E+03  0.41800000000E+01 0. -1.
         -5    1    3    3    0  502 -0.50573900486E+02  0.29060762098E+02  0.91572853583E+02  0.10865223061E+03  0.41800000000E+01 0. -1.
        -11    1    1    2    0    0 -0.35204192473E+02  0.15227574091E+02  0.21200780267E+02  0.43825646194E+02  0.00000000000E+00 0.  1.
         11    1    1    2    0    0  0.46355942539E+02  0.13936142615E+02  0.10485587000E+03  0.11548957941E+03  0.00000000000E+00 0. -1.
</event>
<event>
 7    1  0.2612321E-009  0.1557069E+03  0.7561462E-02  0.1193631E+00
          1   -1    0    0  501    0  0.00000000000E+00  0.00000000000E+00  0.65924528298E+03  0.65924528298E+03  0.00000000000E+00 0. -1.
         -1   -1    0    0    0  501 -0.00000000000E+00 -0.00000000000E+00 -0.54899700189E+02  0.54899700189E+02  0.00000000000E+00 0.  1.
         25    2    1    2    0    0  0.30402118397E+02  0.12244213646E+03  0.12823190893E+03  0.21910569829E+03  0.12509004346E+03 0.  0.
          5    1    3    3  502    0  0.49377892494E+02 -0.24811540173E+01  0.23338312395E+02  0.54831392631E+02  0.41800000000E+01 0. -1.
         -5    1    3    3    0  502 -0.18975774097E+02  0.12492329048E+03  0.10489359653E+03  0.16427430566E+03  0.41800000000E+01 0. -1.
        -11    1    1    2    0    0 -0.43694159436E+02 -0.83796115239E+02  0.34443741183E+03  0.35716676661E+03  0.00000000000E+00 0.  1.
         11    1    1    2    0    0  0.13292041039E+02 -0.38646021225E+02  0.13167626203E+03  0.13787251827E+03  0.00000000000E+00 0. -1.
</event>
<event>
 7    1  0.2612321E-009  0.7947323E+02  0.7561462E-02  0.1330553E+00
          2   -1    0    0  501    0  0.00000000000E+00  0.00000000000E+00  0.99441983032E+02  0.99441983032E+02  0.00000000000E+00 0. -1.
         -2   -1    0    0    0  501 -0.00000000000E+00 -0.00000000000E+00 -0.16369849171E+03  0.16369849171E+03  0.00000000000E+00 0.  1.
         25    2    1    2    0    0  0.45182951471E+02 -0.42657520690E+02 -0.92168984759E+01  0.13997484461E+03  0.12508734041E+03 0.  0.
          5    1    3    3  502    0  0.43731759314E+02 -0.50480149686E+02 -0.59104962992E+02  0.89283712598E+02  0.41800000000E+01 0.  1.
         -5    1    3    3    0  502  0.14511921576E+01  0.78226289969E+01  0.49888064516E+02  0.50691132008E+02  0.41800000000E+01 0.  1.
        -11    1    1    2    0    0 -0.10543810575E+02  0.46964951860E+02 -0.70193877289E+02  0.85112038241E+02  0.00000000000E+00 0.  1.
         11    1    1    2    0    0 -0.34639140896E+02 -0.43074311708E+01  0.15154267084E+02  0.38053591896E+02  0.00000000000E+00 0. -1.
</event>
<event>
 7    1  0.2612321E-009  0.1707559E+03  0.7561462E-02  0.1177062E+00
          2   -1    0    0  501    0  0.00000000000E+00  0.00000000000E+00  0.22727612964E+03  0.22727612964E+03  0.00000000000E+00 0.  1.
         -2   -1    0    0    0  501 -0.00000000000E+00 -0.00000000000E+00 -0.16087273645E+03  0.16087273645E+03  0.00000000000E+00 0. -1.
         25    2    1    2    0    0  0.14437667345E+03 -0.62139448857E+02  0.41199640138E+02  0.20505915068E+03  0.12508361200E+03 0.  0.
          5    1    3    3  502    0  0.11196314217E+03 -0.33863224061E+02 -0.30848582141E+02  0.12104367216E+03  0.41800000000E+01 0.  1.
         -5    1    3    3    0  502  0.32413531271E+02 -0.28276224796E+02  0.72048222279E+02  0.84015478525E+02  0.41800000000E+01 0.  1.
        -11    1    1    2    0    0  0.14269807841E+01  0.32414479290E+02  0.22127351878E+01  0.32521238273E+02  0.00000000000E+00 0. -1.
         11    1    1    2    0    0 -0.14580365423E+03  0.29724969567E+02  0.22991017863E+02  0.15056847713E+03  0.00000000000E+00 0.  1.
</event>
<event>
 7    1  0.2612321E-009  0.9791860E+02  0.7561462E-02  0.1284735E+00
          2   -1    0    0  501    0  0.00000000000E+00  0.00000000000E+00  0.46467714130E+02  0.46467714130E+02  0.00000000000E+00 0. -1.
         -2   -1    0    0    0  501 -0.00000000000E+00 -0.00000000000E+00 -0.30854955463E+03  0.30854955463E+03  0.00000000000E+00 0.  1.
         25    2    1    2    0    0  0.44399804470E+02 -0.23990549058E+02 -0.14192645331E+03  0.19580583325E+03  0.12509962872E+03 0.  0.
          5    1    3    3  502    0  0.59331381789E+02  0.20759392759E+02 -0.13361574997E+03  0.14772205757E+03  0.41800000000E+01 0.  1.
         -5    1    3    3    0  502 -0.14931577319E+02 -0.44749941817E+02 -0.83107033363E+01  0.48083775682E+02  0.41800000000E+01 0.  1.
        -11    1    1    2    0    0  0.26919001175E+01  0.36624216985E+02 -0.99861466591E+02  0.10639968095E+03  0.00000000000E+00 0.  1.
         11    1    1    2    0    0 -0.47091704587E+02 -0.12633667926E+02 -0.20293920599E+02  0.52811754558E+02  0.00000000000E+00 0. -1.
</event>
<event>
 6    1  0.2612321E-009  0.8383788E+02  0.7561462E-02  0.1318500E+00
         -4   -1    0    0    0  501 -0.00000000000E+00  0.00000000000E+00  0.11751265182E+03  0.11751265182E+03  0.00000000000E+00 0.  1.
          4   -1    0    0  501    0  0.00000000000E+00 -0.00000000000E+00 -0.11237258817E+03  0.11237258817E+03  0.00000000000E+00 0. -1.
          5    1    1    2  502    0 -0.20078151018E+02 -0.26517335116E+02 -0.59462163837E+02  0.68260695412E+02  0.41800000000E+01 0. -1.
         -5    1    1    2    0  502  0.44104985825E+02  0.27550631339E+02  0.33056654018E+02  0.61761653448E+02  0.41800000000E+01 0. -1.
        -11    1    1    2    0    0  0.97399676189E-02  0.36994821730E+02 -0.10321464014E+02  0.38407675653E+02  0.00000000000E+00 0. -1.
         11    1    1    2    0    0 -0.24036574774E+02 -0.38028117953E+02  0.41867037476E+02  0.61455215474E+02  0.00000000000E+00 0.  1.
</event>
<event>
 7    1  0.2612321E-009  0.2308364E+03  0.7561462E-02  0.1126052E+00
         -1   -1    0    0    0  501 -0.00000000000E+00  0.00000000000E+00  0.42978670342E+02  0.42978670342E+02  0.00000000000E+00 0.  1.
          1   -1    0    0  501    0  0.00000000000E+00 -0.00000000000E+00 -0.13678555919E+04  0.13678555919E+04  0.00000000000E+00 0. -1.
         25    2    1    2    0    0 -0.18324630974E+03  0.11287029513E+03 -0.61778300279E+03  0.66604946190E+03  0.12508850305E+03 0.  0.
          5    1    3    3  502    0 -0.14448046962E+03  0.25766318080E+02 -0.29597751417E+03  0.33039169260E+03  0.41800000000E+01 0.  1.
         -5    1    3    3    0  502 -0.38765840128E+02  0.87103977049E+02 -0.32180548863E+03  0.33565776930E+03  0.41800000000E+01 0.  1.
        -11    1    1    2    0    0  0.13386343979E+03 -0.10337690789E+03 -0.63322553153E+03  0.65542412175E+03  0.00000000000E+00 0. -1.
         11    1    1    2    0    0  0.49382869952E+02 -0.94933872360E+01 -0.73868387261E+02  0.89360678615E+02  0.00000000000E+00 0.  1.
</event>
<event>
 7    1  0.2612321E-009  0.8084284E+02  0.7561462E-02  0.1326676E+00
          1   -1    0    0  501    0  0.00000000000E+00  0.00000000000E+00  0.59163836603E+03  0.59163836603E+03  0.00000000000E+00 0. -1.
         -1   -1    0    0    0  501 -0.00000000000E+00 -0.00000000000E+00 -0.29062474635E+02  0.29062474635E+02  0.00000000000E+00 0.  1.
         25    2    1    2    0    0  0.15097703236E+02 -0.63081442720E+02  0.40141003361E+03  0.42542184520E+03  0.12508605930E+03 0.  0.
          5    1    3    3  502    0 -0.18660285028E+02 -0.52927892213E+02  0.60343518380E+02  0.82512911850E+02  0.41800000000E+01 0. -1.
         -5    1    3    3    0  502  0.33757988264E+02 -0.10153550507E+02  0.34106651523E+03  0.34290893335E+03  0.41800000000E+01 0. -1.
        -11    1    1    2    0    0  0.69260368997E+01  0.24766223887E+02 -0.24186242047E+01  0.25829935652E+02  0.00000000000E+00 0.  1.
         11    1    1    2    0    0 -0.22023740136E+02  0.38315218833E+02  0.16358448199E+03  0.16944905982E+03  0.00000000000E+00 0. -1.
</event>
<event>
 7    1  0.2612321E-009  0.1706509E+03  0.7561462E-02  0.1177171E+00
         -1   -1    0    0    0  501 -0.00000000000E+00  0.00000000000E+00  0.51437778718E+02  0.51437778718E+02  0.00000000000E+00 0.  1.
          1   -1    0    0  501    0  0.00000000000E+00 -0.00000000000E+00 -0.75854959769E+03  0.75854959769E+03  0.00000000000E+00 0. -1.
         25    2    1    2    0    0  0.14337781663E+03  0.35638438634E+02 -0.22172286945E+03  0.29433923740E+03  0.12508900523E+03 0.  0.
          5    1    3    3  502    0 -0.18702702529E+02  0.23254579709E+02 -0.45331881266E+02  0.54433614783E+02  0.41800000000E+01 0. -1.
         -5    1    3    3    0  502  0.16208051916E+03  0.12383858926E+02 -0.17639098818E+03  0.23990562262E+03  0.41800000000E+01 0. -1.
        -11    1    1    2    0    0 -0.13312762476E+03 -0.28706891975E+02 -0.48446156210E+03  0.50323956052E+03  0.00000000000E+00 0. -1.
         11    1    1    2    0    0 -0.10250191875E+02 -0.69315466588E+01 -0.92738742418E+00  0.12408578484E+02  0.00000000000E+00 0.  1.
</event>
<event>
 7    1  0.2612321E-009  0.1432374E+03  0.7561462E-02  0.1209038E+00
          2   -1    0    0  501    0  0.00000000000E+00  0.00000000000E+00  0.17351260554E+03  0.17351260554E+03  0.00000000000E+00 0. -1.
         -2   -1    0    0    0  501 -0.00000000000E+00 -0.00000000000E+00 -0.18326832382E+03  0.18326832382E+03  0.00000000000E+00 0.  1.
         25    2    1    2    0    0  0.87545261700E+02  0.10691825558E+03  0.21778728298E+02  0.18766110394E+03  0.12508673273E+03 0.  0.
          5    1    3    3  502    0  0.10293639360E+02  0.43952202603E+02 -0.47925379342E+02  0.65970216841E+02  0.41800000000E+01 0.  1.
         -5    1    3    3    0  502  0.77251622340E+02  0.62966052979E+02  0.69704107640E+02  0.12169088710E+03  0.41800000000E+01 0.  1.
        -11    1    1    2    0    0 -0.51416527563E+02 -0.39264802811E+02 -0.59095286749E+02  0.87622125987E+02  0.00000000000E+00 0.  1.
         11    1    1    2    0    0 -0.36128734137E+02 -0.67653452770E+02  0.27560840166E+02  0.81497699432E+02  0.00000000000E+00 0. -1.
</event>
<event>
 7    1  0.2612321E-009  0.1168618E+03  0.7561462E-02  0.1248366E+00
         -1   -1    0    0    0  501 -0.00000000000E+00  0.00000000000E+00  0.79027856962E+02  0.79027856962E+02  0.00000000000E+00 0.  1.
          1   -1    0    0  501    0  0.00000000000E+00 -0.00000000000E+00 -0.29220545392E+03  0.29220545392E+03  0.00000000000E+00 0. -1.
         25    2    1    2    0    0 -0.77408159466E+02  0.12950288393E+02 -0.20206934326E+03  0.25027872775E+03  0.12509072290E+03 0.  0.
          5    1    3    3  502    0 -0.10882257905E+02 -0.32609900326E+02 -0.15059688906E+03  0.15452742323E+03  0.41800000000E+01 0. -1.
         -5    1    3    3    0  502 -0.66525901561E+02  0.45560188718E+02 -0.51472454201E+02  0.95751304513E+02  0.41800000000E+01 0. -1.
        -11    1    1    2    0    0 -0.20008270283E+02 -0.49310477032E+01  0.65573882767E+01  0.21625111611E+02  0.00000000000E+00 0.  1.
         11    1    1    2    0    0  0.97416429749E+02 -0.80192406894E+01 -0.17665641968E+02  0.99329471520E+02  0.00000000000E+00 0. -1.
</event>
<event>
 7    1  0.2612321E-009  0.1366938E+03  0.7561462E-02  0.1217848E+00
         -2   -1    0    0    0  501 -0.00000000000E+00  0.00000000000E+00  0.70672008396E+02  0.70672008396E+02  0.00000000000E+00 0.  1.
          2   -1    0    0  501    0  0.00000000000E+00 -0.00000000000E+00 -0.35119722247E+03  0.35119722247E+03  0.00000000000E+00 0. -1.
         25    2    1    2    0    0  0.10367403930E+03 -0.55809886407E+01 -0.20703918579E+03  0.26323498199E+03  0.12509187597E+03 0.  0.
          5    1    3    3  502    0  0.12850864609E+03  0.94202062352E+01 -0.18910809246E+03  0.22887235622E+03  0.41800000000E+01 0.  1.
         -5    1    3    3    0  502 -0.24834606794E+02 -0.15001194876E+02 -0.17931093323E+02  0.34362625774E+02  0.41800000000E+01 0.  1.
        -11    1    1    2    0    0 -0.57262502503E+02  0.27849578337E+02 -0.84684290502E+02  0.10595292476E+03  0.00000000000E+00 0. -1.
         11    1    1    2    0    0 -0.46411536794E+02 -0.22268589696E+02  0.11198262211E+02  0.52681324122E+02  0.00000000000E+00 0.  1.
</event>
<event>
 7    1  0.2612321E-009  0.9965492E+02  0.7561462E-02  0.1281023E+00
         -1   -1    0    0    0  501 -0.00000000000E+00  0.00000000000E+00  0.27250547511E+02  0.27250547511E+02  0.00000000000E+00 0.  1.
          1   -1    0    0  501    0  0.00000000000E+00 -0.00000000000E+00 -0.51625405386E+03  0.51625405386E+03  0.00000000000E+00 0. -1.
         25    2    1    2    0    0  0.26804269201E+02 -0.42318876524E+02 -0.31051997436E+03  0.33849690828E+03  0.12509255084E+03 0.  0.
          5    1    3    3  502    0 -0.23468463839E+02  0.17881473981E+02 -0.20392504144E+03  0.20609078299E+03  0.41800000000E+01 0. -1.
         -5    1    3    3    0  502  0.50272733040E+02 -0.60200350504E+02 -0.10659493293E+03  0.13240612529E+03  0.41800000000E+01 0. -1.
        -11    1    1    2    0    0  0.23231725489E+02  0.32545906036E+02 -0.36469482121E+02  0.54119979629E+02  0.00000000000E+00 0.  1.
         11    1    1    2    0    0 -0.50035994690E+02  0.97729704878E+01 -0.14201404986E+03  0.15088771346E+03  0.00000000000E+00 0. -1.
</event>
<event>
 6    1  0.2612321E-009  0.9596405E+02  0.7561462E-02  0.1289019E+00
          2   -1    0    0  501    0  0.00000000000E+00  0.00000000000E+00  0.26785193353E+03  0.26785193353E+03  0.00000000000E+00 0. -1.
         -2   -1    0    0    0  501 -0.00000000000E+00 -0.00000000000E+00 -0.57060817928E+02  0.57060817928E+02  0.00000000000E+00 0.  1.
          5    1    1    2  502    0 -0.36952657162E+02  0.53780494257E+02  0.19566919448E+02  0.68250840072E+02  0.41800000000E+01 0. -1.
         -5    1    1    2    0  502  0.47136180333E+02  0.38496069542E+01  0.11692407123E+03  0.12619568061E+03  0.41800000000E+01 0. -1.
        -11    1    1    2    0    0  0.21574545818E+02 -0.30111625038E+02 -0.81466404619E+01  0.37928073251E+02  0.00000000000E+00 0.  1.
         11    1    1    2    0    0 -0.31758068990E+02 -0.27518476173E+02  0.82446765382E+02  0.92538157529E+02  0.00000000000E+00 0. -1.
</event>
<event>
 7    1  0.2612321E-009  0.8749822E+02  0.7561462E-02  0.1309026E+00
         -2   -1    0    0    0  501 -0.00000000000E+00  0.00000000000E+00  0.47148198175E+02  0.47148198175E+02  0.00000000000E+00 0.  1.
          2   -1    0    0  501    0  0.00000000000E+00 -0.00000000000E+00 -0.30715612770E+03  0.30715612770E+03  0.00000000000E+00 0. -1.
         25    2    1    2    0    0 -0.26514932032E+02 -0.18680980764E+02 -0.20814071712E+03  0.24499445057E+03  0.12509077514E+03 0.  0.
          5    1    3    3  502    0  0.17148466100E+02 -0.34961934937E+02 -0.19130128145E+03  0.19526919744E+03  0.41800000000E+01 0. -1.
         -5    1    3    3    0  502 -0.43663398133E+02  0.16280954173E+02 -0.16839435668E+02  0.49725253130E+02  0.41800000000E+01 0. -1.
        -11    1    1    2    0    0 -0.21054039166E+02  0.33196610815E+02 -0.27442348269E+01  0.39405816317E+02  0.00000000000E+00 0.  1.
         11    1    1    2    0    0  0.47568971198E+02 -0.14515630050E+02 -0.49122977574E+02  0.69904058983E+02  0.00000000000E+00 0. -1.
</event>
<event>
 7    1  0.2612321E-009  0.1311916E+03  0.7561462E-02  0.1225698E+00
         -2   -1    0    0    0  501 -0.00000000000E+00  0.00000000000E+00  0.12271481672E+03  0.12271481672E+03  0.00000000000E+00 0.  1.
          2   -1    0    0  501    0  0.00000000000E+00 -0.00000000000E+00 -0.17046997998E+03  0.17046997998E+03  0.00000000000E+00 0. -1.
         25    2    1    2    0    0 -0.84477796220E+02 -0.44642166043E+02 -0.40698694527E+02  0.16257091318E+03  0.12507396624E+03 0.  0.
          5    1    3    3  502    0 -0.46932487254E+02  0.39544010499E+02  0.50602832420E+00  0.61515165536E+02  0.41800000000E+01 0.  1.
         -5    1    3    3    0  502 -0.37545308966E+02 -0.84186176542E+02 -0.41204722851E+02  0.10105574764E+03  0.41800000000E+01 0.  1.
        -11    1    1    2    0    0  0.70635327326E+02  0.56435100402E+02  0.24959750244E+02  0.93793705312E+02  0.00000000000E+00 0.  1.
         11    1    1    2    0    0  0.13842468894E+02 -0.11792934360E+02 -0.32016218979E+02  0.36820178212E+02  0.00000000000E+00 0. -1.
</event>
<event>
 7    1  0.2612321E-009  0.1190847E+03  0.7561462E-02  0.1244615E+00
         -1   -1    0    0    0  501 -0.00000000000E+00  0.00000000000E+00  0.32292705305E+03  0.32292705305E+03  0.00000000000E+00 0.  1.
          1   -1    0    0  501    0  0.00000000000E+00 -0.00000000000E+00 -0.63856180902E+02  0.63856180902E+02  0.00000000000E+00 0. -1.
         25    2    1    2    0    0  0.64048667094E+02 -0.16855230771E+02  0.24499827599E+03  0.28294476424E+03  0.12508898358E+03 0.  0.
          5    1    3    3  502    0  0.17644034379E+02  0.50677851812E+02  0.13789635771E+03  0.14802849213E+03  0.41800000000E+01 0.  1.
         -5    1    3    3    0  502  0.46404632715E+02 -0.67533082583E+02  0.10710191828E+03  0.13491627211E+03  0.41800000000E+01 0.  1.
        -11    1    1    2    0    0  0.18410777942E+02  0.21023777962E+01 -0.16618365274E+01  0.18604796088E+02  0.00000000000E+00 0.  1.
         11    1    1    2    0    0 -0.82459445036E+02  0.14752852974E+02  0.15734432679E+02  0.85233673617E+02  0.00000000000E+00 0. -1.
</event>
<event>
 7    1  0.2612321E-009  0.7764530E+02  0.7561462E-02  0.1335870E+00
          1   -1    0    0  501    0  0.00000000000E+00  0.00000000000E+00  0.41178993768E+03  0.41178993768E+03  0.00000000000E+00 0. -1.
         -1   -1    0    0    0  501 -0.00000000000E+00 -0.00000000000E+00 -0.30441548684E+02  0.30441548684E+02  0.00000000000E+00 0.  1.
         25    2    1    2    0    0 -0.14933783321E+02  0.94253734252E+00  0.27250789085E+03  0.30022281558E+03  0.12509709093E+03 0.  0.
          5    1    3    3  502    0 -0.34402253692E+02  0.41965764380E+02  0.23487695003E+03  0.24110017523E+03  0.41800000000E+01 0.  1.
         -5    1    3    3    0  502  0.19468470371E+02 -0.41023227038E+02  0.37630940815E+02  0.59122640349E+02  0.41800000000E+01 0.  1.
        -11    1    1    2    0    0 -0.35045277536E+01 -0.24837251614E+02 -0.38226201909E+01  0.25372883313E+02  0.00000000000E+00 0.  1.
         11    1    1    2    0    0  0.18438311075E+02  0.23894714271E+02  0.11266311834E+03  0.11663578747E+03  0.00000000000E+00 0. -1.
</event>
<event>
 7    1  0.2612321E-009  0.9589484E+02  0.7561462E-02  0.1289173E+00
         -2   -1    0    0    0  501 -0.00000000000E+00  0.00000000000E+00  0.12944180442E+03  0.12944180442E+03  0.00000000000E+00 0. -1.
          2   -1    0    0  501    0  0.00000000000E+00 -0.00000000000E+00 -0.99357664004E+02  0.99357664004E+02  0.00000000000E+00 0.  1.
         25    2    1    2    0    0  0.32118255563E+02 -0.33155593232E+02  0.11401020139E+02  0.13382029641E+03  0.12508802008E+03 0.  0.
          5    1    3    3  502    0  0.64834836113E+01 -0.66597400476E+02 -0.31030179948E+02  0.73875528949E+02  0.41800000000E+01 0. -1.
         -5    1    3    3    0  502  0.25634771951E+02  0.33441807244E+02  0.42431200087E+02  0.59944767458E+02  0.41800000000E+01 0. -1.
        -11    1    1    2    0    0 -0.30207350826E+02 -0.15333880624E+02  0.29886743488E+02  0.45175539567E+02  0.00000000000E+00 0. -1.
         11    1    1    2    0    0 -0.19109047370E+01  0.48489473856E+02 -0.11203623214E+02  0.49803632446E+02  0.00000000000E+00 0.  1.
</event>
<event>
 7    1  0.2612321E-009  0.1530930E+03  0.7561462E-02  0.1196723E+00
         -2   -1    0    0    0  501 -0.00000000000E+00  0.00000000000E+00  0.60361820443E+02  0.60361820443E+02  0.00000000000E+00 0. -1.
          2   -1    0    0  501    0  0.00000000000E+00 -0.00000000000E+00 -0.45604420915E+03  0.45604420915E+03  0.00000000000E+00 0.  1.
         25    2    1    2    0    0 -0.10968473839E+03 -0.14730548606E+02 -0.30819031856E+03  0.35053723960E+03  0.12508938002E+03 0.  0.
          5    1    3    3  502    0 -0.12901336846E+03 -0.39590229476E+02 -0.25654816026E+03  0.28990734114E+03  0.41800000000E+01 0.  1.
         -5    1    3    3    0  502  0.19328630078E+02  0.24859680870E+02 -0.51642158295E+02  0.60629898458E+02  0.41800000000E+01 0.  1.
        -11    1    1    2    0    0  0.10817517451E+03  0.39072560006E+02 -0.80858885458E+02  0.14059407059E+03  0.00000000000E+00 0.  1.
         11    1    1    2    0    0  0.15095638724E+01 -0.24342011400E+02 -0.66331846932E+01  0.25274719410E+02  0.00000000000E+00 0. -1.
</event>
<event>
 7    1  0.2612321E-009  0.7056443E+02  0.7561462E-02  0.1358184E+00
          2   -1    0    0  501    0  0.00000000000E+00  0.00000000000E+00  0.55424235227E+03  0.55424235227E+03  0.00000000000E+00 0.  1.
         -2   -1    0    0    0  501 -0.00000000000E+00 -0.00000000000E+00 -0.47838676353E+02  0.47838676353E+02  0.00000000000E+00 0. -1.
         25    2    1    2    0    0  0.35653577380E+02 -0.59906278622E+02  0.45229126700E+03  0.47442069429E+03  0.12509062783E+03 0.  0.
          5    1    3    3  502    0  0.17711816529E+02 -0.22243563420E+02  0.10428191830E+02  0.30572931544E+02  0.41800000000E+01 0. -1.
         -5    1    3    3    0  502  0.17941760852E+02 -0.37662715201E+02  0.44186307517E+03  0.44384776275E+03  0.41800000000E+01 0. -1.
        -11    1    1    2    0    0 -0.30991244206E+02  0.43527659355E+02  0.80281824759E+02  0.96437989055E+02  0.00000000000E+00 0.  1.
         11    1    1    2    0    0 -0.46623331742E+01  0.16378619266E+02 -0.26169415835E+02  0.31222345281E+02  0.00000000000E+00 0. -1.
</event>
<event>
 7    1  0.2612321E-009  0.1075311E+03  0.7561462E-02  0.1265211E+00
         -1   -1    0    0    0  501 -0.00000000000E+00  0.00000000000E+00  0.94934849777E+01  0.94934849777E+01  0.00000000000E+00 0.  1.
          1   -1    0    0  501    0  0.00000000000E+00 -0.00000000000E+00 -0.17101957409E+04  0.17101957409E+04  0.00000000000E+00 0. -1.
         25    2    1    2    0    0  0.11361800733E+01 -0.27938474847E+02 -0.13501170675E+04  0.13561879572E+04  0.12509128698E+03 0.  0.
          5    1    3    3  502    0  0.42805863559E+02 -0.54509172698E+02 -0.52353464753E+03  0.52811891788E+03  0.41800000000E+01 0.  1.
         -5    1    3    3    0  502 -0.41669683486E+02  0.26570697851E+02 -0.82658241992E+03  0.82806903929E+03  0.41800000000E+01 0.  1.
        -11    1    1    2    0    0 -0.61583990572E+01 -0.33665026620E+02 -0.12301341011E+03  0.12768539057E+03  0.00000000000E+00 0. -1.
         11    1    1    2    0    0  0.50222189839E+01  0.61603501467E+02 -0.22757177832E+03  0.23581587811E+03  0.00000000000E+00 0.  1.
</event>
<event>
 7    1  0.2612321E-009  0.3106988E+03  0.7561462E-02  0.1080011E+00
          2   -1    0    0  501    0  0.00000000000E+00  0.00000000000E+00  0.25560284853E+03  0.25560284853E+03  0.00000000000E+00 0. -1.
         -2   -1    0    0    0  501 -0.00000000000E+00 -0.00000000000E+00 -0.45703344777E+03  0.45703344777E+03  0.00000000000E+00 0.  1.
         25    2    1    2    0    0 -0.92066871374E+02 -0.28039037971E+03  0.37053238115E+02  0.32266909999E+03  0.12508929529E+03 0.  0.
          5    1    3    3  502    0 -0.11446015156E+03 -0.15729302017E+03  0.11606128321E+02  0.19492151012E+03  0.41800000000E+01 0. -1.
         -5    1    3    3    0  502  0.22393280189E+02 -0.12309735953E+03  0.25447109794E+02  0.12774758987E+03  0.41800000000E+01 0. -1.
        -11    1    1    2    0    0  0.59426326130E+02  0.25024108591E+03 -0.22934519162E+03  0.34460311408E+03  0.00000000000E+00 0.  1.
         11    1    1    2    0    0  0.32640545244E+02  0.30149293799E+02 -0.91386457421E+01  0.45364082228E+02  0.00000000000E+00 0. -1.
</event>
<event>
 7    1  0.2612321E-009  0.1100232E+03  0.7561462E-02  0.1260527E+00
         -2   -1    0    0    0  501 -0.00000000000E+00  0.00000000000E+00  0.15380738848E+03  0.15380738848E+03  0.00000000000E+00 0.  1.
          2   -1    0    0  501    0  0.00000000000E+00 -0.00000000000E+00 -0.11354881310E+03  0.11354881310E+03  0.00000000000E+00 0. -1.
         25    2    1    2    0    0  0.14443025589E+01 -0.73336760370E+02  0.41444175959E+02  0.15081583422E+03  0.12508968662E+03 0.  0.
          5    1    3    3  502    0  0.42771797907E+02 -0.72828727105E+02 -0.94846926024E+01  0.85093372137E+02  0.41800000000E+01 0. -1.
         -5    1    3    3    0  502 -0.41327495348E+02 -0.50803326508E+00  0.50928868561E+02  0.65722462085E+02  0.41800000000E+01 0. -1.
        -11    1    1    2    0    0  0.16764656294E+02  0.73846624000E+02  0.29160874501E+02  0.81146375018E+02  0.00000000000E+00 0.  1.
         11    1    1    2    0    0 -0.18208958853E+02 -0.50986363060E+00 -0.30346475087E+02  0.35393992338E+02  0.00000000000E+00 0. -1.
</event>
<event>
 7    1  0.2612321E-009  0.1495530E+03  0.7561462E-02  0.1201023E+00
         -1   -1    0    0    0  501 -0.00000000000E+00  0.00000000000E+00  0.44390094162E+03  0.44390094162E+03  0.00000000000E+00 0.  1.
          1   -1    0    0  501    0  0.00000000000E+00 -0.00000000000E+00 -0.64372650430E+02  0.64372650430E+02  0.00000000000E+00 0. -1.
         25    2    1    2    0    0  0.11130969637E+03  0.20054088274E+02  0.95694820829E+02  0.19389771311E+03  0.12508720739E+03 0.  0.
          5    1    3    3  502    0  0.13369735301E+03  0.38442299164E+02  0.82483386250E+02  0.16178310781E+03  0.41800000000E+01 0. -1.
         -5    1    3    3    0  502 -0.22387656643E+02 -0.18388210889E+02  0.13211434580E+02  0.32114605296E+02  0.41800000000E+01 0. -1.
        -11    1    1    2    0    0 -0.25353585235E+02  0.23258467096E+02  0.11496034667E+03  0.11999850783E+03  0.00000000000E+00 0.  1.
         11    1    1    2    0    0 -0.85956111131E+02 -0.43312555370E+02  0.16887312369E+03  0.19437737111E+03  0.00000000000E+00 0. -1.
</event>
<event>
 7    1  0.2612321E-009  0.1016560E+03  0.7561462E-02  0.1276852E+00
          2   -1    0    0  501    0  0.00000000000E+00  0.00000000000E+00  0.25064360734E+03  0.25064360734E+03  0.00000000000E+00 0. -1.
         -2   -1    0    0    0  501 -0.00000000000E+00 -0.00000000000E+00 -0.10653651722E+03  0.10653651722E+03  0.00000000000E+00 0.  1.
         25    2    1    2    0    0  0.61295473385E+01  0.68319181150E+01  0.20978657567E+03  0.24442469480E+03  0.12509507441E+03 0.  0.
          5    1    3    3  502    0 -0.57493342872E+01  0.63957476299E+02  0.85040897321E+02  0.10664445713E+03  0.41800000000E+01 0.  1.
         -5    1    3    3    0  502  0.11878881626E+02 -0.57125558184E+02  0.12474567835E+03  0.13778023767E+03  0.41800000000E+01 0.  1.
        -11    1    1    2    0    0  0.34066192871E+02  0.11943364539E+02 -0.57122641650E+02  0.67573261296E+02  0.00000000000E+00 0.  1.
         11    1    1    2    0    0 -0.40195740209E+02 -0.18775282654E+02 -0.85568438963E+01  0.45182168465E+02  0.00000000000E+00 0. -1.
</event>
<event>
 7    1  0.2612321E-009  0.1354623E+03  0.7561462E-02  0.1219569E+00
         -2   -1    0    0    0  501 -0.00000000000E+00  0.00000000000E+00  0.96944385853E+02  0.96944385853E+02  0.00000000000E+00 0.  1.
          2   -1    0    0  501    0  0.00000000000E+00 -0.00000000000E+00 -0.31212234645E+03  0.31212234645E+03  0.00000000000E+00 0. -1.
         25    2    1    2    0    0 -0.24392178058E+02  0.87357091778E+02  0.42672959793E+01  0.15456780813E+03  0.12508700037E+03 0.  0.
          5    1    3    3  502    0  0.45643183099E+02  0.57873218754E+02  0.20780240090E+02  0.76693548559E+02  0.41800000000E+01 0.  1.
         -5    1    3    3    0  502 -0.70035361157E+02  0.29483873024E+02 -0.16512944110E+02  0.77874259574E+02  0.41800000000E+01 0.  1.
        -11    1    1    2    0    0  0.49322521329E+01 -0.98465758520E+02 -0.13522518717E+03  0.16734898851E+03  0.00000000000E+00 0.  1.
         11    1    1    2    0    0  0.19459925925E+02  0.11108666742E+02 -0.84220069409E+02  0.87149935657E+02  0.00000000000E+00 0. -1.
</event>
<event>
 7    1  0.2612321E-009  0.1491512E+03  0.7561462E-02  0.1201520E+00
          2   -1    0    0  501    0  0.00000000000E+00  0.00000000000E+00  0.89880876083E+03  0.89880876083E+03  0.00000000000E+00 0. -1.
         -2   -1    0    0    0  501 -0.00000000000E+00 -0.00000000000E+00 -0.40384719696E+02  0.40384719696E+02  0.00000000000E+00 0.  1.
         25    2    1    2    0    0  0.78742793849E+02  0.10966236466E+03  0.65965551493E+03  0.68484963943E+03  0.12508944178E+03 0.  0.
          5    1    3    3  502    0  0.61689075179E+02  0.30821887013E+02  0.51116389144E+03  0.51581152278E+03  0.41800000000E+01 0. -1.
         -5    1    3    3    0  502  0.17053718669E+02  0.78840477645E+02  0.14849162349E+03  0.16903811665E+03  0.41800000000E+01 0. -1.
        -11    1    1    2    0    0  0.10557043973E+02 -0.14587574186E+02  0.65240602133E+02  0.67680016732E+02  0.00000000000E+00 0. -1.
         11    1    1    2    0    0 -0.89299837822E+02 -0.95074790473E+02  0.13352792406E+03  0.18666382436E+03  0.00000000000E+00 0.  1.
</event>
<event>
 7    1  0.2612321E-009  0.8731897E+02  0.7561462E-02  0.1309477E+00
          3   -1    0    0  501    0  0.00000000000E+00  0.00000000000E+00  0.17336193397E+03  0.17336193397E+03  0.00000000000E+00 0. -1.
         -3   -1    0    0    0  501 -0.00000000000E+00 -0.00000000000E+00 -0.87374986811E+02  0.87374986811E+02  0.00000000000E+00 0.  1.
         25    2    1    2    0    0 -0.52501015976E+02  0.15589278633E+02  0.57953638365E+02  0.14834267591E+03  0.12509013954E+03 0.  0.
          5    1    3    3  502    0 -0.79887185485E+01  0.53712971659E+02 -0.13224161754E+02  0.56046889322E+02  0.41800000000E+01 0.  1.
         -5    1    3    3    0  502 -0.44512297428E+02 -0.38123693026E+02  0.71177800119E+02  0.92295786589E+02  0.41800000000E+01 0.  1.
        -11    1    1    2    0    0  0.22225328287E+02 -0.21098507382E+02  0.60402606710E+02  0.67731729113E+02  0.00000000000E+00 0. -1.
         11    1    1    2    0    0  0.30275687689E+02  0.55092287488E+01 -0.32369297915E+02  0.44662515759E+02  0.00000000000E+00 0.  1.
</event>
<event>
 7    1  0.2612321E-009  0.1224235E+03  0.7561462E-02  0.1239152E+00
          2   -1    0    0  501    0  0.00000000000E+00  0.00000000000E+00  0.28826613890E+03  0.28826613890E+03  0.00000000000E+00 0. -1.
         -2   -1    0    0    0  501 -0.00000000000E+00 -0.00000000000E+00 -0.52704752065E+02  0.52704752065E+02  0.00000000000E+00 0.  1.
         25    2    1    2    0    0 -0.18346271350E+02 -0.54950819415E+02  0.14402095102E+03  0.19936701783E+03  0.12509594413E+03 0.  0.
          5    1    3    3  502    0 -0.11052435090E+02  0.39999707590E+02  0.34119439824E+02  0.53886375853E+02  0.41800000000E+01 0. -1.
         -5    1    3    3    0  502 -0.72938362605E+01 -0.94950527005E+02  0.10990151120E+03  0.14548064197E+03  0.41800000000E+01 0. -1.
        -11    1    1    2    0    0  0.31266893683E+02 -0.16398864100E+02  0.25795956373E+02  0.43726110615E+02  0.00000000000E+00 0.  1.
         11    1    1    2    0    0 -0.12920622333E+02  0.71349683515E+02  0.65744479440E+02  0.97877762520E+02  0.00000000000E+00 0. -1.
</event>
<event>
 7    1  0.2612321E-009  0.1262740E+03  0.7561462E-02  0.1233092E+00
          2   -1    0    0  501    0  0.00000000000E+00  0.00000000000E+00  0.18907378304E+03  0.18907378304E+03  0.00000000000E+00 0. -1.
         -2   -1    0    0    0  501 -0.00000000000E+00 -0.00000000000E+00 -0.15083815352E+03  0.15083815352E+03  0.00000000000E+00 0.  1.
         25    2    1    2    0    0 -0.51065967092E+01  0.77375466620E+02 -0.85075648774E+02  0.16999510116E+03  0.12508968079E+03 0.  0.
          5    1    3    3  502    0 -0.52687832271E+02  0.99821409019E+01 -0.35011630287E+01  0.53901589485E+02  0.41800000000E+01 0.  1.
         -5    1    3    3    0  502  0.47581235562E+02  0.67393325718E+02 -0.81574485745E+02  0.11609351168E+03  0.41800000000E+01 0.  1.
        -11    1    1    2    0    0 -0.40667096248E+02 -0.40284340552E+02  0.70353659214E+02  0.90698832273E+02  0.00000000000E+00 0.  1.
         11    1    1    2    0    0  0.45773692958E+02 -0.37091126068E+02  0.52957619083E+02  0.79218003124E+02  0.00000000000E+00 0. -1.
</event>
<event>
 7    1  0.2612321E-009  0.6898222E+02  0.7561462E-02  0.1363589E+00
         -2   -1    0    0    0  501 -0.00000000000E+00  0.00000000000E+00  0.71888144508E+02  0.71888144508E+02  0.00000000000E+00 0.  1.
          2   -1    0    0  501    0  0.00000000000E+00 -0.00000000000E+00 -0.23757086649E+03  0.23757086649E+03  0.00000000000E+00 0. -1.
         25    2    1    2    0    0 -0.27242365346E+02 -0.25750611133E+02 -0.16592754715E+03  0.21114614889E+03  0.12508199248E+03 0.  0.
          5    1    3    3  502    0  0.14266321093E+01 -0.45765383515E+02 -0.48139956328E+01  0.46229347404E+02  0.41800000000E+01 0.  1.
         -5    1    3    3    0  502 -0.28668997456E+02  0.20014772382E+02 -0.16111355152E+03  0.16491680149E+03  0.41800000000E+01 0.  1.
        -11    1    1    2    0    0 -0.49634210535E+01  0.24012920631E+02  0.40124225735E+02  0.47023498345E+02  0.00000000000E+00 0.  1.
         11    1    1    2    0    0  0.32205786400E+02  0.17376905015E+01 -0.39879400565E+02  0.51289363764E+02  0.00000000000E+00 0. -1.
</event>
<event>
 7    1  0.2612321E-009  0.1131653E+03  0.7561462E-02  0.1254818E+00
          1   -1    0    0  501    0  0.00000000000E+00  0.00000000000E+00  0.51487113386E+02  0.51487113386E+02  0.00000000000E+00 0. -1.
         -1   -1    0    0    0  501 -0.00000000000E+00 -0.00000000000E+00 -0.53819203715E+03  0.53819203715E+03  0.00000000000E+00 0.  1.
         25    2    1    2    0    0 -0.63120664606E+02 -0.16692914300E+02 -0.68847542568E+02  0.15700190266E+03  0.12508693630E+03 0.  0.
          5    1    3    3  502    0 -0.34576075005E+02  0.38971101855E+02  0.13041288156E+02  0.53868351927E+02  0.41800000000E+01 0. -1.
         -5    1    3    3    0  502 -0.28544589601E+02 -0.55664016155E+02 -0.81888830724E+02  0.10313355074E+03  0.41800000000E+01 0. -1.
        -11    1    1    2    0    0  0.82872264520E+02 -0.37317090700E+01 -0.28569273095E+03  0.29749298210E+03  0.00000000000E+00 0.  1.
         11    1    1    2    0    0 -0.19751599914E+02  0.20424623370E+02 -0.13216465025E+03  0.13518426578E+03  0.00000000000E+00 0. -1.
</event>
<event>
 7    1  0.2612321E-009  0.1018129E+03  0.7561462E-02  0.1276529E+00
          1   -1    0    0  501    0  0.00000000000E+00  0.00000000000E+00  0.53891362882E+03  0.53891362882E+03  0.00000000000E+00 0. -1.
         -1   -1    0    0    0  501 -0.00000000000E+00 -0.00000000000E+00 -0.27319831302E+02  0.27319831302E+02  0.00000000000E+00 0.  1.
         25    2    1    2    0    0  0.20437048349E+02 -0.20866566000E+02  0.39652368233E+03  0.41681062926E+03  0.12508790307E+03 0.  0.
          5    1    3    3  502    0  0.58539918379E+02 -0.50061912808E+02  0.19732553087E+03  0.21186777644E+03  0.41800000000E+01 0. -1.
         -5    1    3    3    0  502 -0.38102870030E+02  0.29195346808E+02  0.19919815145E+03  0.20494285282E+03  0.41800000000E+01 0. -1.
        -11    1    1    2    0    0 -0.42915664263E+02 -0.59326024295E+01  0.10411485812E+03  0.11276902807E+03  0.00000000000E+00 0. -1.
         11    1    1    2    0    0  0.22478615914E+02  0.26799168430E+02  0.10955257077E+02  0.36653802798E+02  0.00000000000E+00 0.  1.
</event>
<event>
 7    1  0.2612321E-009  0.1250028E+03  0.7561462E-02  0.1235065E+00
          2   -1    0    0  501    0  0.00000000000E+00  0.00000000000E+00  0.90702834380E+02  0.90702834380E+02  0.00000000000E+00 0. -1.
         -2   -1    0    0    0  501 -0.00000000000E+00 -0.00000000000E+00 -0.25603304634E+03  0.25603304634E+03  0.00000000000E+00 0.  1.
         25    2    1    2    0    0  0.88955667729E+02  0.42495032248E+02 -0.36391414854E+02  0.16337286991E+03  0.12508965169E+03 0.  0.
          5    1    3    3  502    0  0.10423626022E+03  0.39460135695E+02 -0.66041213296E+02  0.12961949894E+03  0.41800000000E+01 0.  1.
         -5    1    3    3    0  502 -0.15280592488E+02  0.30348965536E+01  0.29649798443E+02  0.33753370966E+02  0.41800000000E+01 0.  1.
        -11    1    1    2    0    0 -0.77359339207E+02  0.96075103170E+00 -0.48813682093E+02  0.91477680144E+02  0.00000000000E+00 0. -1.
         11    1    1    2    0    0 -0.11596328522E+02 -0.43455783280E+02 -0.80125115012E+02  0.91885330665E+02  0.00000000000E+00 0.  1.
</event>
<event>
 7    1  0.2612321E-009  0.8437080E+02  0.7561462E-02  0.1317086E+00
         -3   -1    0    0    0  501 -0.00000000000E+00  0.00000000000E+00  0.24977176592E+03  0.24977176592E+03  0.00000000000E+00 0.  1.
          3   -1    0    0  501    0  0.00000000000E+00 -0.00000000000E+00 -0.71144180571E+02  0.71144180571E+02  0.00000000000E+00 0. -1.
         25    2    1    2    0    0  0.48145076893E+02 -0.46376973061E+02  0.45170268682E+02  0.14884947684E+03  0.12508813502E+03 0.  0.
          5    1    3    3  502    0  0.46248083959E+02 -0.57214690368E+02  0.81964735419E+02  0.11021840280E+03  0.41800000000E+01 0. -1.
         -5    1    3    3    0  502  0.18969929348E+01  0.10837717307E+02 -0.36794466738E+02  0.38631074035E+02  0.41800000000E+01 0. -1.
        -11    1    1    2    0    0 -0.34657099964E+02  0.56594505280E+02  0.40854501547E+02  0.77930372144E+02  0.00000000000E+00 0. -1.
         11    1    1    2    0    0 -0.13487976929E+02 -0.10217532218E+02  0.92602815117E+02  0.94136097507E+02  0.00000000000E+00 0.  1.
</event>
<event>
 7    1  0.2612321E-009  0.1328609E+03  0.7561462E-02  0.1223271E+00
          1   -1    0    0  501    0  0.00000000000E+00  0.00000000000E+00  0.86021029861E+02  0.86021029861E+02  0.00000000000E+00 0. -1.
         -1   -1    0    0    0  501 -0.00000000000E+00 -0.00000000000E+00 -0.29299813365E+03  0.29299813365E+03  0.00000000000E+00 0.  1.
         25    2    1    2    0    0  0.53860462715E+02 -0.96877036381E+02 -0.72507792437E+02  0.18218431014E+03  0.12509050033E+03 0.  0.
          5    1    3    3  502    0 -0.12551255713E+02 -0.42399309304E+02 -0.84393879337E+02  0.95367891446E+02  0.41800000000E+01 0.  1.
         -5    1    3    3    0  502  0.66411718429E+02 -0.54477727077E+02  0.11886086899E+02  0.86816418689E+02  0.41800000000E+01 0.  1.
        -11    1    1    2    0    0 -0.61294088840E+02  0.30404254533E+02 -0.10112554451E+03  0.12209733729E+03  0.00000000000E+00 0.  1.
         11    1    1    2    0    0  0.74336261250E+01  0.66472781848E+02 -0.33343766845E+02  0.74737516091E+02  0.00000000000E+00 0. -1.
</event>
<event>
 7    1  0.2612321E-009  0.1015733E+03  0.7561462E-02  0.1277022E+00
          1   -1    0    0  501    0  0.00000000000E+00  0.00000000000E+00  0.31844793768E+03  0.31844793768E+03  0.00000000000E+00 0. -1.
         -1   -1    0    0    0  501 -0.00000000000E+00 -0.00000000000E+00 -0.46292048552E+02  0.46292048552E+02  0.00000000000E+00 0.  1.
         25    2    1    2    0    0  0.38345596944E+02 -0.92330902690E+01  0.21444928963E+03  0.25137944695E+03  0.12508994270E+03 0.  0.
          5    1    3    3  502    0  0.52790071415E+02 -0.52045313587E+02  0.78475593732E+02  0.10803424234E+03  0.41800000000E+01 0. -1.
         -5    1    3    3    0  502 -0.14444474471E+02  0.42812223318E+02  0.13597369590E+03  0.14334520461E+03  0.41800000000E+01 0. -1.
        -11    1    1    2    0    0 -0.41473736638E+01 -0.30680936458E+02  0.51962710660E+02  0.60486724736E+02  0.00000000000E+00 0.  1.
         11    1    1    2    0    0 -0.34198223280E+02  0.39914026727E+02  0.57438888308E+01  0.52873814540E+02  0.00000000000E+00 0. -1.
</event>
<event>
 7    1  0.2612321E-009  0.1138887E+03  0.7561462E-02  0.1253533E+00
          1   -1    0    0  501    0  0.00000000000E+00  0.00000000000E+00  0.49298124060E+03  0.49298124060E+03  0.00000000000E+00 0. -1.
         -1   -1    0    0    0  501 -0.00000000000E+00 -0.00000000000E+00 -0.36729988011E+02  0.36729988011E+02  0.00000000000E+00 0.  1.
         25    2    1    2    0    0 -0.31536903349E+02 -0.59063433531E+02  0.16066211007E+03  0.21434733276E+03  0.12509756191E+03 0.  0.
          5    1    3    3  502    0  0.40534387095E+02 -0.55460986001E+02  0.89637121459E+02  0.11300992633E+03  0.41800000000E+01 0. -1.
         -5    1    3    3    0  502 -0.72071290444E+02 -0.36024475303E+01  0.71024988615E+02  0.10133740643E+03  0.41800000000E+01 0. -1.
        -11    1    1    2    0    0  0.39334220773E+02  0.15274732475E+02  0.48425638604E+02  0.64230373268E+02  0.00000000000E+00 0.  1.
         11    1    1    2    0    0 -0.77973174240E+01  0.43788701057E+02  0.24716350391E+03  0.25113352258E+03  0.00000000000E+00 0. -1.
</event>
<event>
 7    1  0.2612321E-009  0.3521100E+03  0.7561462E-02  0.1061752E+00
         -2   -1    0    0    0  501 -0.00000000000E+00  0.00000000000E+00  0.11830658046E+03  0.11830658046E+03  0.00000000000E+00 0.  1.
          2   -1    0    0  501    0  0.00000000000E+00 -0.00000000000E+00 -0.12995874128E+04  0.12995874128E+04  0.00000000000E+00 0. -1.
         25    2    1    2    0    0  0.11182884363E+03  0.32299808374E+03 -0.31201865048E+03  0.47941293335E+03  0.12509064730E+03 0.  0.
          5    1    3    3  502    0  0.23138312938E+02  0.23411692677E+03 -0.17307620080E+03  0.29209409547E+03  0.41800000000E+01 0. -1.
         -5    1    3    3    0  502  0.88690530692E+02  0.88881156972E+02 -0.13894244968E+03  0.18731883788E+03  0.41800000000E+01 0. -1.
        -11    1    1    2    0    0 -0.11739684258E+02 -0.74110716633E+02 -0.10942689656E+03  0.13268181562E+03  0.00000000000E+00 0.  1.
         11    1    1    2    0    0 -0.10008915937E+03 -0.24888736711E+03 -0.75983528528E+03  0.80579924428E+03  0.00000000000E+00 0. -1.
</event>
<event>
 7    1  0.2612321E-009  0.9485845E+02  0.7561462E-02  0.1291495E+00
         -2   -1    0    0    0  501 -0.00000000000E+00  0.00000000000E+00  0.19772829328E+02  0.19772829328E+02  0.00000000000E+00 0.  1.
          2   -1    0    0  501    0  0.00000000000E+00 -0.00000000000E+00 -0.67595723304E+03  0.67595723304E+03  0.00000000000E+00 0. -1.
         25    2    1    2    0    0  0.37373223789E+02  0.10272000938E+00 -0.45401779167E+03  0.47241548919E+03  0.12508985116E+03 0.  0.
          5    1    3    3  502    0  0.70344042236E+02 -0.20606937458E+01 -0.41574795339E+03  0.42168277637E+03  0.41800000000E+01 0.  1.
         -5    1    3    3    0  502 -0.32970818447E+02  0.21634137552E+01 -0.38269838282E+02  0.50732712822E+02  0.41800000000E+01 0.  1.
        -11    1    1    2    0    0  0.11796899589E+02 -0.27287927057E+02 -0.12100335024E+03  0.12460180003E+03  0.00000000000E+00 0. -1.
         11    1    1    2    0    0 -0.49170123378E+02  0.27185207048E+02 -0.81163261798E+02  0.98712773140E+02  0.00000000000E+00 0.  1.
</event>
<event>
 7    1  0.2612321E-009  0.1103819E+03  0.7561462E-02  0.1259864E+00
          1   -1    0    0  501    0  0.00000000000E+00  0.00000000000E+00  0.50805472395E+02  0.50805472395E+02  0.00000000000E+00 0. -1.
         -1   -1    0    0    0  501 -0.00000000000E+00 -0.00000000000E+00 -0.38219545705E+03  0.38219545705E+03  0.00000000000E+00 0.  1.
         25    2    1    2    0    0  0.13655311187E+02  0.32994243038E+01 -0.49875306333E+02  0.13539786682E+03  0.12509069683E+03 0.  0.
          5    1    3    3  502    0  0.57920881622E+02  0.36643540388E+02 -0.38312178474E+02  0.78631246966E+02  0.41800000000E+01 0.  1.
         -5    1    3    3    0  502 -0.44265570435E+02 -0.33344116084E+02 -0.11563127860E+02  0.56766619850E+02  0.41800000000E+01 0.  1.
        -11    1    1    2    0    0  0.78212439915E+01 -0.47096598584E+02 -0.14058177634E+03  0.14846715898E+03  0.00000000000E+00 0.  1.
         11    1    1    2    0    0 -0.21476555179E+02  0.43797174280E+02 -0.14093290198E+03  0.14913590365E+03  0.00000000000E+00 0. -1.
</event>
<event>
 7    1  0.2612321E-009  0.1052372E+03  0.7561462E-02  0.1269653E+00
         -2   -1    0    0    0  501 -0.00000000000E+00  0.00000000000E+00  0.12244602537E+03  0.12244602537E+03  0.00000000000E+00 0.  1.
          2   -1    0    0  501    0  0.00000000000E+00 -0.00000000000E+00 -0.13789388011E+03  0.13789388011E+03  0.00000000000E+00 0. -1.
         25    2    1    2    0    0 -0.46031079644E+02 -0.73889099611E+01  0.45552303618E+02  0.14105138252E+03  0.12508806442E+03 0.  0.
          5    1    3    3  502    0 -0.81465222035E+02  0.24625367344E+02  0.34004841357E+02  0.91743080141E+02  0.41800000000E+01 0.  1.
         -5    1    3    3    0  502  0.35434142391E+02 -0.32014277306E+02  0.11547462261E+02  0.49308302374E+02  0.41800000000E+01 0.  1.
        -11    1    1    2    0    0  0.33704496541E+01  0.29215201653E+02 -0.64857483624E+02  0.71213630160E+02  0.00000000000E+00 0. -1.
         11    1    1    2    0    0  0.42660629990E+02 -0.21826291692E+02  0.38573252610E+01  0.48074892806E+02  0.00000000000E+00 0.  1.
</event>
<event>
 7    1  0.4067958E-009  0.1190882E+03  0.7561462E-02  0.1244609E+00
          4   -1    0    0  501    0  0.00000000000E+00  0.00000000000E+00  0.43974518508E+03  0.43974518508E+03  0.00000000000E+00 0. -1.
         -4   -1    0    0    0  501 -0.00000000000E+00 -0.00000000000E+00 -0.48237378959E+02  0.48237378959E+02  0.00000000000E+00 0.  1.
         25    2    1    2    0    0  0.27180975154E+02 -0.93277773323E+02  0.20889547252E+03  0.26215431948E+03  0.12509204762E+03 0.  0.
          5    1    3    3  502    0  0.21337085956E+02  0.14427059568E+02 -0.10170911151E+01  0.26113562745E+02  0.41800000000E+01 0.  1.
         -5    1    3    3    0  502  0.58438891977E+01 -0.10770483289E+03  0.20991256363E+03  0.23604075673E+03  0.41800000000E+01 0.  1.
        -11    1    1    2    0    0 -0.24404659929E+02  0.22153847557E+02  0.13787123144E+03  0.14175632913E+03  0.00000000000E+00 0. -1.
         11    1    1    2    0    0 -0.27763152247E+01  0.71123925765E+02  0.44741102165E+02  0.84071915438E+02  0.00000000000E+00 0.  1.
</event>
<event>
 7    1  0.2612321E-009  0.1071500E+03  0.7561462E-02  0.1265941E+00
          2   -1    0    0  501    0  0.00000000000E+00  0.00000000000E+00  0.11067269543E+03  0.11067269543E+03  0.00000000000E+00 0.  1.
         -2   -1    0    0    0  501 -0.00000000000E+00 -0.00000000000E+00 -0.18869602739E+03  0.18869602739E+03  0.00000000000E+00 0. -1.
         25    2    1    2    0    0 -0.86170323576E+02  0.12434461783E+01 -0.28441022627E+00  0.15190190278E+03  0.12508891380E+03 0.  0.
          5    1    3    3  502    0 -0.25895309587E+02 -0.15892066463E+02  0.58390381784E+02  0.65954786938E+02  0.41800000000E+01 0.  1.
         -5    1    3    3    0  502 -0.60275013989E+02  0.17135512642E+02 -0.58674792011E+02  0.85947115847E+02  0.41800000000E+01 0.  1.
        -11    1    1    2    0    0  0.79127257776E+01  0.34066445390E+02 -0.41515533495E+02  0.54283270462E+02  0.00000000000E+00 0. -1.
         11    1    1    2    0    0  0.78257597799E+02 -0.35309891568E+02 -0.36223388244E+02  0.93183549576E+02  0.00000000000E+00 0.  1.
</event>
<event>
 7    1  0.2612321E-009  0.1387041E+03  0.7561462E-02  0.1215083E+00
          4   -1    0    0  501    0  0.00000000000E+00  0.00000000000E+00  0.18296679972E+03  0.18296679972E+03  0.00000000000E+00 0. -1.
         -4   -1    0    0    0  501 -0.00000000000E+00 -0.00000000000E+00 -0.22434970102E+03  0.22434970102E+03  0.00000000000E+00 0.  1.
         25    2    1    2    0    0  0.78892167701E+02  0.52488201825E+02 -0.16414815055E+03  0.22709164068E+03  0.12508801894E+03 0.  0.
          5    1    3    3  502    0 -0.31057687317E+02 -0.51297068504E+01 -0.44204426449E+02  0.54427911512E+02  0.41800000000E+01 0.  1.
         -5    1    3    3    0  502  0.10994985502E+03  0.57617908675E+02 -0.11994372410E+03  0.17266372917E+03  0.41800000000E+01 0.  1.
        -11    1    1    2    0    0 -0.15625726231E+02 -0.55948864903E+02  0.23934534752E+02  0.62827547764E+02  0.00000000000E+00 0. -1.
         11    1    1    2    0    0 -0.63266441470E+02  0.34606630789E+01  0.98830714503E+02  0.11739731230E+03  0.00000000000E+00 0.  1.
</event>
<event>
 7    1  0.2612321E-009  0.9803024E+02  0.7561462E-02  0.1284493E+00
          2   -1    0    0  501    0  0.00000000000E+00  0.00000000000E+00  0.16565433789E+03  0.16565433789E+03  0.00000000000E+00 0. -1.
         -2   -1    0    0    0  501 -0.00000000000E+00 -0.00000000000E+00 -0.91328021549E+02  0.91328021549E+02  0.00000000000E+00 0.  1.
         25    2    1    2    0    0  0.28152490865E+01 -0.46217147912E+02  0.90294229734E+01  0.13368779018E+03  0.12508774670E+03 0.  0.
          5    1    3    3  502    0  0.35985814972E+02  0.26667309170E+02 -0.18876006789E+02  0.48784221731E+02  0.41800000000E+01 0. -1.
         -5    1    3    3    0  502 -0.33170565886E+02 -0.72884457082E+02  0.27905429762E+02  0.84903568450E+02  0.41800000000E+01 0. -1.
        -11    1    1    2    0    0 -0.17988022596E+02  0.51712807617E+02 -0.13029660237E+01  0.54767519106E+02  0.00000000000E+00 0.  1.
         11    1    1    2    0    0  0.15172773510E+02 -0.54956597048E+01  0.66599859393E+02  0.68527050154E+02  0.00000000000E+00 0. -1.
</event>
<event>
 7    1  0.2612321E-009  0.1229437E+03  0.7561462E-02  0.1238318E+00
          1   -1    0    0  501    0  0.00000000000E+00  0.00000000000E+00  0.35212720742E+02  0.35212720742E+02  0.00000000000E+00 0. -1.
         -1   -1    0    0    0  501 -0.00000000000E+00 -0.00000000000E+00 -0.59344055008E+03  0.59344055008E+03  0.00000000000E+00 0.  1.
         25    2    1    2    0    0 -0.10156708047E+02  0.91608648828E+02 -0.35466165890E+03  0.38720511403E+03  0.12509038644E+03 0.  0.
          5    1    3    3  502    0 -0.38855389961E+02  0.72406972068E+02 -0.33938425163E+03  0.34921576938E+03  0.41800000000E+01 0. -1.
         -5    1    3    3    0  502  0.28698681913E+02  0.19201676760E+02 -0.15277407273E+02  0.37989344650E+02  0.41800000000E+01 0. -1.
        -11    1    1    2    0    0  0.37355996426E+02 -0.45682179532E+01 -0.73836842612E+02  0.82874715150E+02  0.00000000000E+00 0.  1.
         11    1    1    2    0    0 -0.27199288379E+02 -0.87040430875E+02 -0.12972932783E+03  0.15857344164E+03  0.00000000000E+00 0. -1.
</event>
<event>
 7    1  0.2612321E-009  0.1154722E+03  0.7561462E-02  0.1250759E+00
         -2   -1    0    0    0  501 -0.00000000000E+00  0.00000000000E+00  0.66667081466E+02  0.66667081466E+02  0.00000000000E+00 0.  1.
          2   -1    0    0  501    0  0.00000000000E+00 -0.00000000000E+00 -0.25929152728E+03  0.25929152728E+03  0.00000000000E+00 0. -1.
         25    2    1    2    0    0 -0.66008161069E+02  0.15328562296E+02 -0.14587392140E+03  0.20376181390E+03  0.12509050208E+03 0.  0.
          5    1    3    3  502    0 -0.73315837297E+02 -0.38666901654E+02 -0.11224766422E+03  0.13959710529E+03  0.41800000000E+01 0. -1.
         -5    1    3    3    0  502  0.73076762286E+01  0.53995463951E+02 -0.33626257171E+02  0.64164708606E+02  0.41800000000E+01 0. -1.
        -11    1    1    2    0    0  0.69101537893E+02  0.81877434265E+01 -0.62657540668E+02  0.93637754587E+02  0.00000000000E+00 0. -1.
         11    1    1    2    0    0 -0.30933768244E+01 -0.23516305723E+02  0.15907016246E+02  0.28559040265E+02  0.00000000000E+00 0.  1.
</event>
<event>
 7    1  0.2612321E-009  0.1035926E+03  0.7561462E-02  0.1272918E+00
          3   -1    0    0  501    0  0.00000000000E+00  0.00000000000E+00  0.27379052019E+02  0.27379052019E+02  0.00000000000E+00 0. -1.
         -3   -1    0    0    0  501 -0.00000000000E+00 -0.00000000000E+00 -0.43813329767E+03  0.43813329767E+03  0.00000000000E+00 0.  1.
         25    2    1    2    0    0 -0.97228215800E+01  0.59238810728E+01 -0.19934821192E+03  0.23561963094E+03  0.12508906931E+03 0.  0.
          5    1    3    3  502    0 -0.18843764197E+02 -0.57007278500E+02 -0.77628127963E+02  0.98226859373E+02  0.41800000000E+01 0. -1.
         -5    1    3    3    0  502  0.91209426169E+01  0.62931159573E+02 -0.12172008396E+03  0.13739277157E+03  0.41800000000E+01 0. -1.
        -11    1    1    2    0    0  0.45299368085E+02 -0.12723878111E+02 -0.16158788178E+03  0.16829905930E+03  0.00000000000E+00 0.  1.
         11    1    1    2    0    0 -0.35576546505E+02  0.67999970386E+01 -0.49818151938E+02  0.61593659442E+02  0.00000000000E+00 0. -1.
</event>
<event>
 7    1  0.2612321E-009  0.9202311E+02  0.7561462E-02  0.1298025E+00
          2   -1    0    0  501    0  0.00000000000E+00  0.00000000000E+00  0.39771513717E+02  0.39771513717E+02  0.00000000000E+00 0. -1.
         -2   -1    0    0    0  501 -0.00000000000E+00 -0.00000000000E+00 -0.36053423338E+03  0.36053423338E+03  0.00000000000E+00 0.  1.
         25    2    1    2    0    0  0.30982922724E+02 -0.40599279822E+02 -0.20692737892E+03  0.24713338189E+03  0.12509086808E+03 0.  0.
          5    1    3    3  502    0  0.99675417564E+01  0.18344671580E+02  0.83766501367E+01  0.22880549197E+02  0.41800000000E+01 0. -1.
         -5    1    3    3    0  502  0.21015380967E+02 -0.58943951402E+02 -0.21530402905E+03  0.22425283269E+03  0.41800000000E+01 0. -1.
        -11    1    1    2    0    0 -0.21746930514E+02 -0.25374998120E+02 -0.23175237237E+02  0.40668306301E+02  0.00000000000E+00 0. -1.
         11    1    1    2    0    0 -0.92359922095E+01  0.65974277941E+02 -0.90660103507E+02  0.11250405890E+03  0.00000000000E+00 0.  1.
</event>
<event>
 7    1  0.2612321E-009  0.1726249E+03  0.7561462E-02  0.1175138E+00
         -1   -1    0    0    0  501 -0.00000000000E+00  0.00000000000E+00  0.77762629557E+03  0.77762629557E+03  0.00000000000E+00 0.  1.
          1   -1    0    0  501    0  0.00000000000E+00 -0.00000000000E+00 -0.52898413523E+02  0.52898413523E+02  0.00000000000E+00 0. -1.
         25    2    1    2    0    0  0.70693062937E+02 -0.14617152168E+03  0.48060868349E+03  0.52248937367E+03  0.12508723377E+03 0.  0.
          5    1    3    3  502    0  0.82120605216E+02 -0.10983618186E+03  0.45774992517E+03  0.47787053376E+03  0.41800000000E+01 0. -1.
         -5    1    3    3    0  502 -0.11427542279E+02 -0.36335339824E+02  0.22858758322E+02  0.44618839908E+02  0.41800000000E+01 0. -1.
        -11    1    1    2    0    0 -0.22756095466E+02  0.10211168581E+03  0.20979516932E+03  0.23443261149E+03  0.00000000000E+00 0. -1.
         11    1    1    2    0    0 -0.47936967472E+02  0.44059835871E+02  0.34324029232E+02  0.73602723931E+02  0.00000000000E+00 0.  1.
</event>
<event>
 7    1  0.2612321E-009  0.1884746E+03  0.7561462E-02  0.1159844E+00
         -2   -1    0    0    0  501 -0.00000000000E+00  0.00000000000E+00  0.19869271315E+03  0.19869271315E+03  0.00000000000E+00 0.  1.
          2   -1    0    0  501    0  0.00000000000E+00 -0.00000000000E+00 -0.35800918701E+03  0.35800918701E+03  0.00000000000E+00 0. -1.
         25    2    1    2    0    0  0.14379479129E+03 -0.69139443079E+02  0.10990083820E+03  0.23061452641E+03  0.12509061101E+03 0.  0.
          5    1    3    3  502    0  0.14989987492E+03 -0.18758314850E+02  0.73723744483E+02  0.16815025953E+03  0.41800000000E+01 0.  1.
         -5    1    3    3    0  502 -0.61050836331E+01 -0.50381128229E+02  0.36177093714E+02  0.62464266884E+02  0.41800000000E+01 0.  1.
        -11    1    1    2    0    0 -0.50654255388E+02  0.63997922451E+02 -0.75968678641E+02  0.11150259101E+03  0.00000000000E+00 0.  1.
         11    1    1    2    0    0 -0.93140535903E+02  0.51415206285E+01 -0.19324863342E+03  0.21458478273E+03  0.00000000000E+00 0. -1.
</event>
<event>
 7    1  0.2612321E-009  0.1000892E+03  0.7561462E-02  0.1280109E+00
          2   -1    0    0  501    0  0.00000000000E+00  0.00000000000E+00  0.77333106711E+03  0.77333106711E+03  0.00000000000E+00 0. -1.
         -2   -1    0    0    0  501 -0.00000000000E+00 -0.00000000000E+00 -0.23179852015E+02  0.23179852015E+02  0.00000000000E+00 0.  1.
         25    2    1    2    0    0  0.37686268252E+02 -0.23351952681E+02  0.60603297002E+03  0.62038559758E+03  0.12504703284E+03 0.  0.
          5    1    3    3  502    0 -0.80676047222E+01  0.33662476671E+02  0.40384175959E+03  0.40534415966E+03  0.41800000000E+01 0.  1.
         -5    1    3    3    0  502  0.45753872974E+02 -0.57014429352E+02  0.20219121043E+03  0.21504143791E+03  0.41800000000E+01 0.  1.
        -11    1    1    2    0    0 -0.13891045330E+02  0.52588760728E+02  0.46777423481E+02  0.71740269325E+02  0.00000000000E+00 0. -1.
         11    1    1    2    0    0 -0.23795222922E+02 -0.29236808047E+02  0.97340821594E+02  0.10438505222E+03  0.00000000000E+00 0.  1.
</event>
<event>
 7    1  0.2612321E-009  0.1933361E+03  0.7561462E-02  0.1155486E+00
         -2   -1    0    0    0  501 -0.00000000000E+00  0.00000000000E+00  0.33973414907E+03  0.33973414907E+03  0.00000000000E+00 0.  1.
          2   -1    0    0  501    0  0.00000000000E+00 -0.00000000000E+00 -0.14328017281E+03  0.14328017281E+03  0.00000000000E+00 0. -1.
         25    2    1    2    0    0 -0.10077542124E+03 -0.14217942068E+03  0.18960261562E+03  0.28629942322E+03  0.12509010630E+03 0.  0.
          5    1    3    3  502    0 -0.47947644104E+02  0.60406661483E+00  0.71924643496E+01  0.48667704025E+02  0.41800000000E+01 0. -1.
         -5    1    3    3    0  502 -0.52827777134E+02 -0.14278348729E+03  0.18241015127E+03  0.23763171919E+03  0.41800000000E+01 0. -1.
        -11    1    1    2    0    0 -0.90865839128E+01  0.19771296050E+02  0.22735859885E+02  0.31470454071E+02  0.00000000000E+00 0.  1.
         11    1    1    2    0    0  0.10986200515E+03  0.12240812463E+03 -0.15884499254E+02  0.16524444459E+03  0.00000000000E+00 0. -1.
</event>
<event>
 7    1  0.2612321E-009  0.1463895E+03  0.7561462E-02  0.1204981E+00
         -2   -1    0    0    0  501 -0.00000000000E+00  0.00000000000E+00  0.46640261674E+02  0.46640261674E+02  0.00000000000E+00 0. -1.
          2   -1    0    0  501    0  0.00000000000E+00 -0.00000000000E+00 -0.56698654465E+03  0.56698654465E+03  0.00000000000E+00 0.  1.
         25    2    1    2    0    0  0.19486821584E+02 -0.97497864504E+02 -0.14797962612E+03  0.21779700503E+03  0.12510793682E+03 0.  0.
          5    1    3    3  502    0  0.72062842746E+02 -0.43575214916E+02 -0.81085492007E+02  0.11697940876E+03  0.41800000000E+01 0.  1.
         -5    1    3    3    0  502 -0.52576021161E+02 -0.53922649588E+02 -0.66894134110E+02  0.10081759627E+03  0.41800000000E+01 0.  1.
        -11    1    1    2    0    0  0.31563410081E+02  0.65706541711E+02 -0.17720751484E+03  0.19161446134E+03  0.00000000000E+00 0. -1.
         11    1    1    2    0    0 -0.51050231666E+02  0.31791322793E+02 -0.19515914202E+03  0.20421533995E+03  0.00000000000E+00 0.  1.
</event>
<event>
 7    1  0.2612321E-009  0.1123870E+03  0.7561462E-02  0.1256212E+00
         -2   -1    0    0    0  501 -0.00000000000E+00  0.00000000000E+00  0.23638074426E+02  0.23638074426E+02  0.00000000000E+00 0.  1.
          2   -1    0    0  501    0  0.00000000000E+00 -0.00000000000E+00 -0.77195174331E+03  0.77195174331E+03  0.00000000000E+00 0. -1.
         25    2    1    2    0    0 -0.10740331866E+02 -0.77903094842E+02 -0.44273462725E+03  0.46673979303E+03  0.12509131590E+03 0.  0.
          5    1    3    3  502    0 -0.46069037734E+02 -0.42252468383E+02 -0.85633979372E+02  0.10610503355E+03  0.41800000000E+01 0. -1.
         -5    1    3    3    0  502  0.35328705868E+02 -0.35650626459E+02 -0.35710064788E+03  0.36063475948E+03  0.41800000000E+01 0. -1.
        -11    1    1    2    0    0  0.44657109344E+02  0.33201976686E+02 -0.87727078981E+02  0.10388777145E+03  0.00000000000E+00 0.  1.
         11    1    1    2    0    0 -0.33916777478E+02  0.44701118157E+02 -0.21785196265E+03  0.22496225326E+03  0.00000000000E+00 0. -1.
</event>
<event>
 7    1  0.2612321E-009  0.9170429E+02  0.7561462E-02  0.1298776E+00
          3   -1    0    0  501    0  0.00000000000E+00  0.00000000000E+00  0.34480871031E+03  0.34480871031E+03  0.00000000000E+00 0. -1.
         -3   -1    0    0    0  501 -0.00000000000E+00 -0.00000000000E+00 -0.62863921566E+02  0.62863921566E+02  0.00000000000E+00 0.  1.
         25    2    1    2    0    0  0.44790801993E+02 -0.51622505847E+02  0.53446136138E+02  0.15223185208E+03  0.12508776226E+03 0.  0.
          5    1    3    3  502    0  0.36488029877E+02 -0.35715106535E+02  0.94355178184E+02  0.10736534455E+03  0.41800000000E+01 0. -1.
         -5    1    3    3    0  502  0.83027721168E+01 -0.15907399312E+02 -0.40909042046E+02  0.44866507540E+02  0.41800000000E+01 0. -1.
        -11    1    1    2    0    0  0.14778265641E+02  0.52129734809E+02  0.11994591666E+03  0.13161659968E+03  0.00000000000E+00 0.  1.
         11    1    1    2    0    0 -0.59569067635E+02 -0.50722896122E+00  0.10855273595E+03  0.12382418012E+03  0.00000000000E+00 0. -1.
</event>
<event>
 7    1  0.2612321E-009  0.1702503E+03  0.7561462E-02  0.1177587E+00
          2   -1    0    0  501    0  0.00000000000E+00  0.00000000000E+00  0.10346389746E+04  0.10346389746E+04  0.00000000000E+00 0. -1.
         -2   -1    0    0    0  501 -0.00000000000E+00 -0.00000000000E+00 -0.34957673105E+02  0.34957673105E+02  0.00000000000E+00 0.  1.
         25    2    1    2    0    0 -0.11833515833E+03 -0.80341099928E+02  0.70313971395E+03  0.72836250166E+03  0.12509426227E+03 0.  0.
          5    1    3    3  502    0 -0.78754592773E+02 -0.11112044518E+03  0.44618405611E+03  0.46652730204E+03  0.41800000000E+01 0.  1.
         -5    1    3    3    0  502 -0.39580565554E+02  0.30779345255E+02  0.25695565784E+03  0.26183519962E+03  0.41800000000E+01 0.  1.
        -11    1    1    2    0    0  0.14479594520E+01  0.24218475657E+02  0.11863674364E+03  0.12109214711E+03  0.00000000000E+00 0. -1.
         11    1    1    2    0    0  0.11688719887E+03  0.56122624270E+02  0.17790484394E+03  0.22014199898E+03  0.00000000000E+00 0.  1.
</event>
<event>
 7    1  0.2612321E-009  0.8867290E+02  0.7561462E-02  0.1306098E+00
          2   -1    0    0  501    0  0.00000000000E+00  0.00000000000E+00  0.24012193105E+03  0.24012193105E+03  0.00000000000E+00 0.  1.
         -2   -1    0    0    0  501 -0.00000000000E+00 -0.00000000000E+00 -0.93005971965E+02  0.93005971965E+02  0.00000000000E+00 0. -1.
         25    2    1    2    0    0 -0.61604113305E+02 -0.15997028897E+02 -0.97126980955E+01  0.14068647658E+03  0.12508947389E+03 0.  0.
          5    1    3    3  502    0 -0.13816962092E+02  0.15306916426E+02 -0.60549296931E+02  0.64100701172E+02  0.41800000000E+01 0.  1.
         -5    1    3    3    0  502 -0.47787151213E+02 -0.31303945323E+02  0.50836598836E+02  0.76585775409E+02  0.41800000000E+01 0.  1.
        -11    1    1    2    0    0  0.23884979274E+02 -0.30764192635E+02  0.21759947247E+02  0.44614157927E+02  0.00000000000E+00 0.  1.
         11    1    1    2    0    0  0.37719134031E+02  0.46761221531E+02  0.13506870994E+03  0.14782726851E+03  0.00000000000E+00 0. -1.
</event>
<event>
 7    1  0.2612321E-009  0.1103121E+03  0.7561462E-02  0.1259993E+00
         -2   -1    0    0    0  501 -0.00000000000E+00  0.00000000000E+00  0.74880685406E+02  0.74880685406E+02  0.00000000000E+00 0.  1.
          2   -1    0    0  501    0  0.00000000000E+00 -0.00000000000E+00 -0.26883048034E+03  0.26883048034E+03  0.00000000000E+00 0. -1.
         25    2    1    2    0    0 -0.23644731249E+02  0.17272761056E+02 -0.21131622504E+03  0.24730411562E+03  0.12508939622E+03 0.  0.
          5    1    3    3  502    0 -0.19108973577E+02  0.71363114310E+02 -0.12457303812E+03  0.14489223990E+03  0.41800000000E+01 0. -1.
         -5    1    3    3    0  502 -0.45357576714E+01 -0.54090353254E+02 -0.86743186919E+02  0.10241187573E+03  0.41800000000E+01 0. -1.
        -11    1    1    2    0    0  0.36762706564E+02 -0.47014701322E+02  0.27677614711E+00  0.59682119092E+02  0.00000000000E+00 0. -1.
         11    1    1    2    0    0 -0.13117975315E+02  0.29741940266E+02  0.17089653957E+02  0.36724931035E+02  0.00000000000E+00 0.  1.
</event>
<event>
 7    1  0.2612321E-009  0.1099771E+03  0.7561462E-02  0.1260612E+00
         -3   -1    0    0    0  501 -0.00000000000E+00  0.00000000000E+00  0.24756930956E+02  0.24756930956E+02  0.00000000000E+00 0.  1.
          3   -1    0    0  501    0  0.00000000000E+00 -0.00000000000E+00 -0.70162864263E+03  0.70162864263E+03  0.00000000000E+00 0. -1.
         25    2    1    2    0    0  0.43939195473E+02  0.54927847894E+02 -0.40564903779E+03  0.43029152303E+03  0.12510767987E+03 0.  0.
          5    1    3    3  502    0  0.31474100950E+02  0.81254992999E+02 -0.38393156199E+03  0.39371805853E+03  0.41800000000E+01 0. -1.
         -5    1    3    3    0  502  0.12465094523E+02 -0.26327145104E+02 -0.21717475794E+02  0.36573464502E+02  0.41800000000E+01 0. -1.
        -11    1    1    2    0    0 -0.64898127726E+02 -0.32460604920E+02 -0.24557339779E+03  0.25606981774E+03  0.00000000000E+00 0. -1.
         11    1    1    2    0    0  0.20958932253E+02 -0.22467242975E+02 -0.25649276089E+02  0.40024232809E+02  0.00000000000E+00 0.  1.
</event>
<event>
 7    1  0.2612321E-009  0.1082201E+03  0.7561462E-02  0.1263902E+00
         -2   -1    0    0    0  501 -0.00000000000E+00  0.00000000000E+00  0.86867615624E+02  0.86867615624E+02  0.00000000000E+00 0.  1.
          2   -1    0    0  501    0  0.00000000000E+00 -0.00000000000E+00 -0.15510386772E+03  0.15510386772E+03  0.00000000000E+00 0. -1.
         25    2    1    2    0    0 -0.92466355690E+01  0.14712041264E+02 -0.75086179922E+02  0.14693126544E+03  0.12509563510E+03 0.  0.
          5    1    3    3  502    0  0.56167354217E+02  0.21375771237E+02 -0.32073756331E+02  0.68248762047E+02  0.41800000000E+01 0. -1.
         -5    1    3    3    0  502 -0.65413989786E+02 -0.66637299728E+01 -0.43012423591E+02  0.78682503392E+02  0.41800000000E+01 0. -1.
        -11    1    1    2    0    0 -0.38726291636E+02  0.37547603190E+01  0.17305903849E+02  0.42583074067E+02  0.00000000000E+00 0.  1.
         11    1    1    2    0    0  0.47972927205E+02 -0.18466801583E+02 -0.10455976026E+02  0.52457143841E+02  0.00000000000E+00 0. -1.
</event>
<event>
 7    1  0.2612321E-009  0.9152798E+02  0.7561462E-02  0.1299193E+00
         -2   -1    0    0    0  501 -0.00000000000E+00  0.00000000000E+00  0.67356303566E+02  0.67356303566E+02  0.00000000000E+00 0.  1.
          2   -1    0    0  501    0  0.00000000000E+00 -0.00000000000E+00 -0.19349377375E+03  0.19349377375E+03  0.00000000000E+00 0. -1.
         25    2    1    2    0    0  0.17053373287E+02 -0.20211944745E+02 -0.44916762590E+02  0.13551448052E+03  0.12508924261E+03 0.  0.
          5    1    3    3  502    0 -0.20187499876E+02  0.42902025150E+02  0.32687146202E+01  0.47710332303E+02  0.41800000000E+01 0. -1.
         -5    1    3    3    0  502  0.37240873162E+02 -0.63113969895E+02 -0.48185477210E+02  0.87804148215E+02  0.41800000000E+01 0. -1.
        -11    1    1    2    0    0 -0.36417287041E+02  0.36931795622E+01  0.35978082742E+01  0.36780464857E+02  0.00000000000E+00 0.  1.
         11    1    1    2    0    0  0.19363913754E+02  0.16518765183E+02 -0.84818515865E+02  0.88555131938E+02  0.00000000000E+00 0. -1.
</event>
<event>
 7    1  0.2612321E-009  0.9725569E+02  0.7561462E-02  0.1286175E+00
          2   -1    0    0  501    0  0.00000000000E+00  0.00000000000E+00  0.87971334027E+03  0.87971334027E+03  0.00000000000E+00 0.  1.
         -2   -1    0    0    0  501 -0.00000000000E+00 -0.00000000000E+00 -0.13818842350E+02  0.13818842350E+02  0.00000000000E+00 0. -1.
         25    2    1    2    0    0  0.33152719403E+01  0.28122991818E+02  0.47590684451E+03  0.49288528265E+03  0.12508670396E+03 0.  0.
          5    1    3    3  502    0 -0.26099623883E+02 -0.28982964198E+02  0.57809288084E+02  0.69861210763E+02  0.41800000000E+01 0. -1.
         -5    1    3    3    0  502  0.29414895823E+02  0.57105956016E+02  0.41809755642E+03  0.42302407189E+03  0.41800000000E+01 0. -1.
        -11    1    1    2    0    0 -0.42784127659E+02 -0.28561816573E+02  0.24774284733E+03  0.25302722649E+03  0.00000000000E+00 0. -1.
         11    1    1    2    0    0  0.39468855718E+02  0.43882475488E+00  0.14224480608E+03  0.14761967347E+03  0.00000000000E+00 0.  1.
</event>
<event>
 7    1  0.2612321E-009  0.8476926E+02  0.7561462E-02  0.1316037E+00
          1   -1    0    0  501    0  0.00000000000E+00  0.00000000000E+00  0.10307426584E+04  0.10307426584E+04  0.00000000000E+00 0. -1.
         -1   -1    0    0    0  501 -0.00000000000E+00 -0.00000000000E+00 -0.13574047800E+02  0.13574047800E+02  0.00000000000E+00 0.  1.
         25    2    1    2    0    0  0.53593006397E+01 -0.45964800087E+02  0.64043678234E+03  0.65417703910E+03  0.12508733491E+03 0.  0.
          5    1    3    3  502    0 -0.30218435681E+02 -0.91032909390E+01  0.38094503550E+02  0.49645617748E+02  0.41800000000E+01 0.  1.
         -5    1    3    3    0  502  0.35577736320E+02 -0.36861509148E+02  0.60234227879E+03  0.60453142135E+03  0.41800000000E+01 0.  1.
        -11    1    1    2    0    0  0.19165134068E+02 -0.12514339801E+02  0.30418025762E+02  0.38067930805E+02  0.00000000000E+00 0.  1.
         11    1    1    2    0    0 -0.24524434708E+02  0.58479139888E+02  0.34631380250E+03  0.35207173630E+03  0.00000000000E+00 0. -1.
</event>
<event>
 7    1  0.2612321E-009  0.1221580E+03  0.7561462E-02  0.1239579E+00
          3   -1    0    0  501    0  0.00000000000E+00  0.00000000000E+00  0.43705570443E+02  0.43705570443E+02  0.00000000000E+00 0. -1.
         -3   -1    0    0    0  501 -0.00000000000E+00 -0.00000000000E+00 -0.63728671969E+03  0.63728671969E+03  0.00000000000E+00 0.  1.
         25    2    1    2    0    0  0.88681819242E+02 -0.28131988525E+02 -0.14195145740E+03  0.21084363101E+03  0.12509574988E+03 0.  0.
          5    1    3    3  502    0  0.68218486926E+02 -0.49649287875E+02 -0.15624849715E+03  0.17762285609E+03  0.41800000000E+01 0.  1.
         -5    1    3    3    0  502  0.20463332317E+02  0.21517299350E+02  0.14297039746E+02  0.33220774920E+02  0.41800000000E+01 0.  1.
        -11    1    1    2    0    0 -0.73863479767E+02  0.59704169632E+02 -0.35212954559E+03  0.36471306309E+03  0.00000000000E+00 0. -1.
         11    1    1    2    0    0 -0.14818339475E+02 -0.31572181106E+02 -0.99500146256E+02  0.10543559603E+03  0.00000000000E+00 0.  1.
</event>
<event>
 7    1  0.2618553E-009  0.3315172E+03  0.7561462E-02  0.1070468E+00
         -1   -1    0    0    0  501 -0.00000000000E+00  0.00000000000E+00  0.12883447038E+03  0.12883447038E+03  0.00000000000E+00 0.  1.
          1   -1    0    0  501    0  0.00000000000E+00 -0.00000000000E+00 -0.11198375563E+04  0.11198375563E+04  0.00000000000E+00 0. -1.
         25    2    1    2    0    0  0.33526188280E+02 -0.32233336760E+03 -0.23030423508E+03  0.41678549206E+03  0.12508917031E+03 0.  0.
          5    1    3    3  502    0 -0.35182697311E+02 -0.11568872166E+03 -0.12804549233E+03  0.17616703158E+03  0.41800000000E+01 0.  1.
         -5    1    3    3    0  502  0.68708885592E+02 -0.20664464595E+03 -0.10225874275E+03  0.24061846048E+03  0.41800000000E+01 0.  1.
        -11    1    1    2    0    0 -0.14991466344E+02  0.19267873510E+03 -0.55833725119E+03  0.59083866248E+03  0.00000000000E+00 0. -1.
         11    1    1    2    0    0 -0.18534721937E+02  0.12965463250E+03 -0.20236159968E+03  0.24104787216E+03  0.00000000000E+00 0.  1.
</event>
<event>
 7    1  0.2612321E-009  0.3266414E+03  0.7561462E-02  0.1072633E+00
         -2   -1    0    0    0  501 -0.00000000000E+00  0.00000000000E+00  0.56532400388E+02  0.56532400388E+02  0.00000000000E+00 0.  1.
          2   -1    0    0  501    0  0.00000000000E+00 -0.00000000000E+00 -0.21816217379E+04  0.21816217379E+04  0.00000000000E+00 0. -1.
         25    2    1    2    0    0 -0.12472701042E+03 -0.28868915996E+03 -0.72379285235E+03  0.79901235570E+03  0.12508554371E+03 0.  0.
          5    1    3    3  502    0  0.11591200177E+02 -0.49128642289E+02 -0.20910540904E+03  0.21515232722E+03  0.41800000000E+01 0.  1.
         -5    1    3    3    0  502 -0.13631821060E+03 -0.23956051767E+03 -0.51468744330E+03  0.58386002848E+03  0.41800000000E+01 0.  1.
        -11    1    1    2    0    0  0.56436447278E+01  0.12191355516E+03 -0.57547433707E+03  0.58827330237E+03  0.00000000000E+00 0. -1.
         11    1    1    2    0    0  0.11908336569E+03  0.16677560479E+03 -0.82582214807E+03  0.85086848019E+03  0.00000000000E+00 0.  1.
</event>
<event>
 7    1  0.2612321E-009  0.1237439E+03  0.7561462E-02  0.1237045E+00
         -2   -1    0    0    0  501 -0.00000000000E+00  0.00000000000E+00  0.11786464661E+02  0.11786464661E+02  0.00000000000E+00 0.  1.
          2   -1    0    0  501    0  0.00000000000E+00 -0.00000000000E+00 -0.14142953699E+04  0.14142953699E+04  0.00000000000E+00 0. -1.
         25    2    1    2    0    0 -0.66559856359E+02  0.11422463419E+02 -0.89473578903E+03  0.90596004977E+03  0.12510312734E+03 0.  0.
          5    1    3    3  502    0  0.29676444945E+02  0.23093515049E+02 -0.14037364652E+03  0.14538306249E+03  0.41800000000E+01 0. -1.
         -5    1    3    3    0  502 -0.96236301304E+02 -0.11671051630E+02 -0.75436214251E+03  0.76057698729E+03  0.41800000000E+01 0. -1.
        -11    1    1    2    0    0  0.23465506070E+02  0.39479836711E+02 -0.21410367819E+03  0.21897413660E+03  0.00000000000E+00 0.  1.
         11    1    1    2    0    0  0.43094350288E+02 -0.50902300130E+02 -0.29366943798E+03  0.30114764815E+03  0.00000000000E+00 0. -1.
</event>
<event>
 7    1  0.2616798E-009  0.1413668E+03  0.7561462E-02  0.1211502E+00
         -1   -1    0    0    0  501 -0.00000000000E+00  0.00000000000E+00  0.60132818263E+02  0.60132818263E+02  0.00000000000E+00 0.  1.
          1   -1    0    0  501    0  0.00000000000E+00 -0.00000000000E+00 -0.47171272628E+03  0.47171272628E+03  0.00000000000E+00 0. -1.
         25    2    1    2    0    0 -0.92341123608E+02  0.83893156621E+02 -0.26709708327E+03  0.32024053159E+03  0.12509277096E+03 0.  0.
          5    1    3    3  502    0 -0.51844971155E+02 -0.12012437933E+02 -0.29937598627E+02  0.61204018747E+02  0.41800000000E+01 0. -1.
         -5    1    3    3    0  502 -0.40496152453E+02  0.95905594554E+02 -0.23715948464E+03  0.25903651284E+03  0.41800000000E+01 0. -1.
        -11    1    1    2    0    0  0.58521466555E+02 -0.59554648903E+02 -0.28275330680E+02  0.88153346951E+02  0.00000000000E+00 0.  1.
         11    1    1    2    0    0  0.33819657053E+02 -0.24338507718E+02 -0.11620749407E+03  0.12345166600E+03  0.00000000000E+00 0. -1.
</event>
<event>
 7    1  0.2612321E-009  0.9202120E+02  0.7561462E-02  0.1298030E+00
         -2   -1    0    0    0  501 -0.00000000000E+00  0.00000000000E+00  0.33349044943E+02  0.33349044943E+02  0.00000000000E+00 0.  1.
          2   -1    0    0  501    0  0.00000000000E+00 -0.00000000000E+00 -0.40354203241E+03  0.40354203241E+03  0.00000000000E+00 0. -1.
         25    2    1    2    0    0  0.34159141848E+02 -0.19875699923E+02 -0.18693338495E+03  0.22836917114E+03  0.12508596044E+03 0.  0.
          5    1    3    3  502    0  0.17348150925E+02 -0.64426283747E+02 -0.50433729904E+02  0.83742091507E+02  0.41800000000E+01 0.  1.
         -5    1    3    3    0  502  0.16810990924E+02  0.44550583824E+02 -0.13649965505E+03  0.14462707963E+03  0.41800000000E+01 0.  1.
        -11    1    1    2    0    0 -0.37449678441E+02 -0.10455148382E+02 -0.17145586112E+03  0.17580927408E+03  0.00000000000E+00 0. -1.
         11    1    1    2    0    0  0.32905365926E+01  0.30330848305E+02 -0.11803741403E+02  0.32712632133E+02  0.00000000000E+00 0.  1.
</event>
<event>
 7    1  0.2612321E-009  0.2616484E+03  0.7561462E-02  0.1106157E+00
         -3   -1    0    0    0  501 -0.00000000000E+00  0.00000000000E+00  0.13406776114E+04  0.13406776114E+04  0.00000000000E+00 0.  1.
          3   -1    0    0  501    0  0.00000000000E+00 -0.00000000000E+00 -0.54964654992E+02  0.54964654992E+02  0.00000000000E+00 0. -1.
         25    2    1    2    0    0 -0.77853105918E+01  0.24540910049E+03  0.55665460854E+03  0.62112610021E+03  0.12508813489E+03 0.  0.
          5    1    3    3  502    0  0.40304374456E+02  0.23212066721E+02  0.72526795659E+02  0.86260368248E+02  0.41800000000E+01 0. -1.
         -5    1    3    3    0  502 -0.48089685048E+02  0.22219703377E+03  0.48412781288E+03  0.53486573197E+03  0.41800000000E+01 0. -1.
        -11    1    1    2    0    0  0.22856202516E+02 -0.20156371182E+03  0.47880635093E+03  0.52000563228E+03  0.00000000000E+00 0.  1.
         11    1    1    2    0    0 -0.15070891924E+02 -0.43845388675E+02  0.25025199691E+03  0.25451053386E+03  0.00000000000E+00 0. -1.
</event>
<event>
 7    1  0.2612321E-009  0.6250954E+02  0.7561462E-02  0.1387592E+00
         -1   -1    0    0    0  501 -0.00000000000E+00  0.00000000000E+00  0.44248891999E+02  0.44248891999E+02  0.00000000000E+00 0. -1.
          1   -1    0    0  501    0  0.00000000000E+00 -0.00000000000E+00 -0.32437158333E+03  0.32437158333E+03  0.00000000000E+00 0.  1.
         25    2    1    2    0    0  0.10301547896E+02  0.13424190548E+02 -0.82534315522E+02  0.15081573886E+03  0.12508854092E+03 0.  0.
          5    1    3    3  502    0 -0.30236745408E+02  0.60188131224E+01  0.22178740794E+02  0.38208059719E+02  0.41800000000E+01 0.  1.
         -5    1    3    3    0  502  0.40538293304E+02  0.74053774259E+01 -0.10471305632E+03  0.11260767914E+03  0.41800000000E+01 0.  1.
        -11    1    1    2    0    0 -0.28775468407E+02 -0.17348157470E+02 -0.19599200184E+03  0.19885132872E+03  0.00000000000E+00 0.  1.
         11    1    1    2    0    0  0.18473920511E+02  0.39239669215E+01 -0.15963739729E+01  0.18953407749E+02  0.00000000000E+00 0. -1.
</event>
<event>
 7    1  0.2612321E-009  0.7497370E+02  0.7561462E-02  0.1343952E+00
          2   -1    0    0  501    0  0.00000000000E+00  0.00000000000E+00  0.10634947898E+04  0.10634947898E+04  0.00000000000E+00 0.  1.
         -2   -1    0    0    0  501 -0.00000000000E+00 -0.00000000000E+00 -0.14027034942E+02  0.14027034942E+02  0.00000000000E+00 0. -1.
         25    2    1    2    0    0 -0.45568567811E+02 -0.22686460272E+02  0.73730851777E+03  0.74957398390E+03  0.12508451986E+03 0.  0.
          5    1    3    3  502    0 -0.14979944897E+02 -0.65965460860E+01  0.69308707753E+03  0.69329292698E+03  0.41800000000E+01 0. -1.
         -5    1    3    3    0  502 -0.30588622914E+02 -0.16089914186E+02  0.44221440241E+02  0.56281056914E+02  0.41800000000E+01 0. -1.
        -11    1    1    2    0    0  0.55993430877E+01  0.49689525578E+02  0.12396339575E+03  0.13366871392E+03  0.00000000000E+00 0. -1.
         11    1    1    2    0    0  0.39969224723E+02 -0.27003065306E+02  0.18819584132E+03  0.19427912691E+03  0.00000000000E+00 0.  1.
</event>
<event>
 7    1  0.2612321E-009  0.2392097E+03  0.7561462E-02  0.1120320E+00
         -1   -1    0    0    0  501 -0.00000000000E+00  0.00000000000E+00  0.51990862117E+02  0.51990862117E+02  0.00000000000E+00 0.  1.
          1   -1    0    0  501    0  0.00000000000E+00 -0.00000000000E+00 -0.14252708236E+04  0.14252708236E+04  0.00000000000E+00 0. -1.
         25    2    1    2    0    0  0.20626799792E+03 -0.84252947860E+02 -0.10129771966E+04  0.10447035682E+04  0.12505078357E+03 0.  0.
          5    1    3    3  502    0  0.10449278030E+03  0.20864440266E+02 -0.35657465328E+03  0.37217874975E+03  0.41800000000E+01 0. -1.
         -5    1    3    3    0  502  0.10177521761E+03 -0.10511738813E+03 -0.65640254333E+03  0.67252481850E+03  0.41800000000E+01 0. -1.
        -11    1    1    2    0    0 -0.95922666059E+02  0.57605292094E+02 -0.10626279390E+03  0.15430913424E+03  0.00000000000E+00 0. -1.
         11    1    1    2    0    0 -0.11034533186E+03  0.26647655766E+02 -0.25403997101E+03  0.27824898327E+03  0.00000000000E+00 0.  1.
</event>
<event>
 7    1  0.2612321E-009  0.2433516E+03  0.7561462E-02  0.1117580E+00
         -1   -1    0    0    0  501 -0.00000000000E+00  0.00000000000E+00  0.40052244400E+03  0.40052244400E+03  0.00000000000E+00 0.  1.
          1   -1    0    0  501    0  0.00000000000E+00 -0.00000000000E+00 -0.16727191585E+03  0.16727191585E+03  0.00000000000E+00 0. -1.
         25    2    1    2    0    0  0.65019524856E+02 -0.21410882544E+03  0.19698337887E+03  0.32329509096E+03  0.12508851485E+03 0.  0.
          5    1    3    3  502    0  0.52745264876E+02 -0.12550835229E+02  0.41989567183E+02  0.68703584943E+02  0.41800000000E+01 0.  1.
         -5    1    3    3    0  502  0.12274259980E+02 -0.20155799022E+03  0.15499381168E+03  0.25459150602E+03  0.41800000000E+01 0.  1.
        -11    1    1    2    0    0 -0.67397160523E+02  0.13203740838E+03  0.58607168153E+02  0.15940845215E+03  0.00000000000E+00 0.  1.
         11    1    1    2    0    0  0.23776356664E+01  0.82071417065E+02 -0.22340018867E+02  0.85090816740E+02  0.00000000000E+00 0. -1.
</event>
<event>
 7    1  0.2612321E-009  0.1084334E+03  0.7561462E-02  0.1263499E+00
          1   -1    0    0  501    0  0.00000000000E+00  0.00000000000E+00  0.18876736870E+03  0.18876736870E+03  0.00000000000E+00 0. -1.
         -1   -1    0    0    0  501 -0.00000000000E+00 -0.00000000000E+00 -0.76988237414E+02  0.76988237414E+02  0.00000000000E+00 0.  1.
         25    2    1    2    0    0 -0.49230043721E+02  0.31505253768E+01  0.85443908079E+02  0.15931003544E+03  0.12508198491E+03 0.  0.
          5    1    3    3  502    0 -0.35884136918E+02 -0.58452145585E+02  0.59944508256E+02  0.91187395378E+02  0.41800000000E+01 0. -1.
         -5    1    3    3    0  502 -0.13345906803E+02  0.61602670962E+02  0.25499399823E+02  0.68122640064E+02  0.41800000000E+01 0. -1.
        -11    1    1    2    0    0  0.64391487836E+02  0.96854919019E+01  0.45028087531E+02  0.79168182534E+02  0.00000000000E+00 0. -1.
         11    1    1    2    0    0 -0.15161444115E+02 -0.12836017279E+02 -0.18692864321E+02  0.27277388140E+02  0.00000000000E+00 0.  1.
</event>
<event>
 7    1  0.2612321E-009  0.2058344E+03  0.7561462E-02  0.1144908E+00
         -2   -1    0    0    0  501 -0.00000000000E+00  0.00000000000E+00  0.28438625628E+03  0.28438625628E+03  0.00000000000E+00 0.  1.
          2   -1    0    0  501    0  0.00000000000E+00 -0.00000000000E+00 -0.25866285621E+03  0.25866285621E+03  0.00000000000E+00 0. -1.
         25    2    1    2    0    0  0.19739855504E+02  0.19238932188E+03 -0.14282145746E+03  0.27101426594E+03  0.12508977001E+03 0.  0.
          5    1    3    3  502    0  0.21815734982E+02  0.20372450512E+03 -0.10302250924E+03  0.22937024674E+03  0.41800000000E+01 0.  1.
         -5    1    3    3    0  502 -0.20758794779E+01 -0.11335183249E+02 -0.39798948224E+02  0.41644019194E+02  0.41800000000E+01 0.  1.
        -11    1    1    2    0    0  0.24925300077E+01 -0.72646430785E+02  0.12128120015E+03  0.14139606119E+03  0.00000000000E+00 0.  1.
         11    1    1    2    0    0 -0.22232385512E+02 -0.11974289109E+03  0.47263657386E+02  0.13063878537E+03  0.00000000000E+00 0. -1.
</event>
<event>
 7    1  0.2612321E-009  0.1256093E+03  0.7561462E-02  0.1234120E+00
          1   -1    0    0  501    0  0.00000000000E+00  0.00000000000E+00  0.97337881582E+02  0.97337881582E+02  0.00000000000E+00 0. -1.
         -1   -1    0    0    0  501 -0.00000000000E+00 -0.00000000000E+00 -0.28722038802E+03  0.28722038802E+03  0.00000000000E+00 0.  1.
         25    2    1    2    0    0 -0.71869576386E+02  0.12874073147E+02 -0.22131804789E+03  0.26449781350E+03  0.12508571963E+03 0.  0.
          5    1    3    3  502    0 -0.53820211555E+02 -0.47731985015E+02 -0.70073711861E+02  0.10051246221E+03  0.41800000000E+01 0. -1.
         -5    1    3    3    0  502 -0.18049364831E+02  0.60606058162E+02 -0.15124433603E+03  0.16398535129E+03  0.41800000000E+01 0. -1.
        -11    1    1    2    0    0  0.20041586780E+02 -0.48778822101E+02  0.16630016321E+02  0.55295534440E+02  0.00000000000E+00 0.  1.
         11    1    1    2    0    0  0.51827989606E+02  0.35904748953E+02  0.14805525129E+02  0.64764921666E+02  0.00000000000E+00 0. -1.
</event>
<event>
 7    1  0.2612321E-009  0.1440888E+03  0.7561462E-02  0.1207931E+00
         -2   -1    0    0    0  501 -0.00000000000E+00  0.00000000000E+00  0.26164905236E+02  0.26164905236E+02  0.00000000000E+00 0.  1.
          2   -1    0    0  501    0  0.00000000000E+00 -0.00000000000E+00 -0.10989823551E+04  0.10989823551E+04  0.00000000000E+00 0. -1.
         25    2    1    2    0    0  0.11174427792E+03  0.11184987952E+02 -0.79097953526E+03  0.80864573159E+03  0.12508959352E+03 0.  0.
          5    1    3    3  502    0  0.38453975627E+02  0.65157954243E+02 -0.40798599783E+03  0.41496302735E+03  0.41800000000E+01 0. -1.
         -5    1    3    3    0  502  0.73290302293E+02 -0.53972966291E+02 -0.38299353743E+03  0.39368270423E+03  0.41800000000E+01 0. -1.
        -11    1    1    2    0    0 -0.41461776876E+02 -0.26697614102E+02 -0.20650981831E+03  0.21231614776E+03  0.00000000000E+00 0. -1.
         11    1    1    2    0    0 -0.70282501044E+02  0.15512626150E+02 -0.75328096325E+02  0.10418538102E+03  0.00000000000E+00 0.  1.
</event>
<event>
 7    1  0.2612321E-009  0.1059567E+03  0.7561462E-02  0.1268246E+00
         -2   -1    0    0    0  501 -0.00000000000E+00  0.00000000000E+00  0.13947397256E+03  0.13947397256E+03  0.00000000000E+00 0.  1.
          2   -1    0    0  501    0  0.00000000000E+00 -0.00000000000E+00 -0.15270656313E+03  0.15270656313E+03  0.00000000000E+00 0. -1.
         25    2    1    2    0    0  0.57260213532E+02  0.25047335354E+02 -0.83051299458E+02  0.16263568826E+03  0.12508696052E+03 0.  0.
          5    1    3    3  502    0 -0.62647995938E+01  0.43936560981E+02  0.12480261015E+02  0.46291450829E+02  0.41800000000E+01 0. -1.
         -5    1    3    3    0  502  0.63525013126E+02 -0.18889225627E+02 -0.95531560473E+02  0.11634423743E+03  0.41800000000E+01 0. -1.
        -11    1    1    2    0    0 -0.62281575492E+02  0.12099241607E+02  0.66504361809E+02  0.91914179716E+02  0.00000000000E+00 0.  1.
         11    1    1    2    0    0  0.50213619601E+01 -0.37146576961E+02  0.33143470842E+01  0.37630667712E+02  0.00000000000E+00 0. -1.
</event>
<event>
 7    1  0.2612321E-009  0.1094604E+03  0.7561462E-02  0.1261572E+00
         -4   -1    0    0    0  501 -0.00000000000E+00  0.00000000000E+00  0.26637984405E+02  0.26637984405E+02  0.00000000000E+00 0.  1.
          4   -1    0    0  501    0  0.00000000000E+00 -0.00000000000E+00 -0.48435609649E+03  0.48435609649E+03  0.00000000000E+00 0. -1.
         25    2    1    2    0    0  0.57668736999E+01  0.24583876111E+02 -0.20557695842E+03  0.24196571148E+03  0.12509155008E+03 0.  0.
          5    1    3    3  502    0 -0.13685280989E+02 -0.48029081356E+02 -0.60885968095E+02  0.78858436977E+02  0.41800000000E+01 0.  1.
         -5    1    3    3    0  502  0.19452154689E+02  0.72612957466E+02 -0.14469099033E+03  0.16310727451E+03  0.41800000000E+01 0.  1.
        -11    1    1    2    0    0  0.20730713750E+02 -0.51639988044E+02 -0.13935977914E+03  0.15005865153E+03  0.00000000000E+00 0.  1.
         11    1    1    2    0    0 -0.26497587450E+02  0.27056111933E+02 -0.11278137453E+03  0.11896971789E+03  0.00000000000E+00 0. -1.
</event>
<event>
 7    1  0.2612321E-009  0.1857612E+03  0.7561462E-02  0.1162341E+00
          1   -1    0    0  501    0  0.00000000000E+00  0.00000000000E+00  0.61556631961E+02  0.61556631961E+02  0.00000000000E+00 0. -1.
         -1   -1    0    0    0  501 -0.00000000000E+00 -0.00000000000E+00 -0.98238803587E+03  0.98238803587E+03  0.00000000000E+00 0.  1.
         25    2    1    2    0    0 -0.17267036030E+03  0.29998365964E+02 -0.75676402118E+03  0.78680048832E+03  0.12509304286E+03 0.  0.
          5    1    3    3  502    0 -0.24110077081E+02  0.14262259242E+02 -0.38616244209E+03  0.38719970550E+03  0.41800000000E+01 0. -1.
         -5    1    3    3    0  502 -0.14856028322E+03  0.15736106722E+02 -0.37060157909E+03  0.39960078282E+03  0.41800000000E+01 0. -1.
        -11    1    1    2    0    0 -0.78310883380E+01 -0.91573072698E+01  0.41063324869E+00  0.12056153643E+02  0.00000000000E+00 0.  1.
         11    1    1    2    0    0  0.18050144864E+03 -0.20841058694E+02 -0.16447801598E+03  0.24508802587E+03  0.00000000000E+00 0. -1.
</event>
<event>
 7    1  0.2612321E-009  0.1472112E+03  0.7561462E-02  0.1203942E+00
          2   -1    0    0  501    0  0.00000000000E+00  0.00000000000E+00  0.81804695160E+03  0.81804695160E+03  0.00000000000E+00 0. -1.
         -2   -1    0    0    0  501 -0.00000000000E+00 -0.00000000000E+00 -0.27502718033E+02  0.27502718033E+02  0.00000000000E+00 0.  1.
         25    2    1    2    0    0  0.77345399474E+02 -0.70713449398E+02  0.49819697527E+03  0.52424218886E+03  0.12508774389E+03 0.  0.
          5    1    3    3  502    0  0.86322705861E+02 -0.99707419412E+02  0.38560353895E+03  0.40755458614E+03  0.41800000000E+01 0.  1.
         -5    1    3    3    0  502 -0.89773063865E+01  0.28993970014E+02  0.11259343632E+03  0.11668760273E+03  0.41800000000E+01 0.  1.
        -11    1    1    2    0    0 -0.12734705516E+02  0.65817881840E+02  0.12477139946E+03  0.14164063124E+03  0.00000000000E+00 0.  1.
         11    1    1    2    0    0 -0.64610693958E+02  0.48955675580E+01  0.16757585884E+03  0.17966684954E+03  0.00000000000E+00 0. -1.
</event>
<event>
 7    1  0.2612321E-009  0.7433022E+02  0.7561462E-02  0.1345958E+00
         -1   -1    0    0    0  501 -0.00000000000E+00  0.00000000000E+00  0.11433556571E+03  0.11433556571E+03  0.00000000000E+00 0.  1.
          1   -1    0    0  501    0  0.00000000000E+00 -0.00000000000E+00 -0.12005678298E+03  0.12005678298E+03  0.00000000000E+00 0. -1.
         25    2    1    2    0    0  0.25959797587E+02 -0.44474426634E+02 -0.70371266690E+01  0.13545835342E+03  0.12509020204E+03 0.  0.
          5    1    3    3  502    0  0.36086610202E+02 -0.11808052265E+02 -0.60680789781E+02  0.71702888245E+02  0.41800000000E+01 0. -1.
         -5    1    3    3    0  502 -0.10126812615E+02 -0.32666374369E+02  0.53643663112E+02  0.63755465179E+02  0.41800000000E+01 0. -1.
        -11    1    1    2    0    0  0.17804895445E+02  0.11271405593E+02 -0.29264094967E+02  0.36061699073E+02  0.00000000000E+00 0. -1.
         11    1    1    2    0    0 -0.43764693032E+02  0.33203021040E+02  0.30580004363E+02  0.62872296198E+02  0.00000000000E+00 0.  1.
</event>
<event>
 7    1  0.2612321E-009  0.1502957E+03  0.7561462E-02  0.1200110E+00
          1   -1    0    0  501    0  0.00000000000E+00  0.00000000000E+00  0.46785621725E+02  0.46785621725E+02  0.00000000000E+00 0. -1.
         -1   -1    0    0    0  501 -0.00000000000E+00 -0.00000000000E+00 -0.58938779493E+03  0.58938779493E+03  0.00000000000E+00 0.  1.
         25    2    1    2    0    0  0.29227672020E+01 -0.10802020724E+03 -0.40205599686E+03  0.43471090228E+03  0.12509051209E+03 0.  0.
          5    1    3    3  502    0  0.59082181675E+02 -0.59339106869E+02 -0.27454906122E+03  0.28706531176E+03  0.41800000000E+01 0.  1.
         -5    1    3    3    0  502 -0.56159414473E+02 -0.48681100368E+02 -0.12750693563E+03  0.14764559053E+03  0.41800000000E+01 0.  1.
        -11    1    1    2    0    0 -0.46982501295E+02  0.68878625202E+02 -0.65420861301E+02  0.10597881643E+03  0.00000000000E+00 0.  1.
         11    1    1    2    0    0  0.44059734093E+02  0.39141582035E+02 -0.75125315048E+02  0.95483697947E+02  0.00000000000E+00 0. -1.
</event>
<event>
 7    1  0.2612321E-009  0.1149176E+03  0.7561462E-02  0.1251725E+00
         -1   -1    0    0    0  501 -0.00000000000E+00  0.00000000000E+00  0.74516573558E+02  0.74516573558E+02  0.00000000000E+00 0.  1.
          1   -1    0    0  501    0  0.00000000000E+00 -0.00000000000E+00 -0.19488132132E+03  0.19488132132E+03  0.00000000000E+00 0. -1.
         25    2    1    2    0    0  0.48206569521E+02  0.11819471971E+02 -0.46419152705E+02  0.14236412418E+03  0.12509689386E+03 0.  0.
          5    1    3    3  502    0  0.86249554857E+02  0.24150075533E+02 -0.48800981400E+02  0.10208437710E+03  0.41800000000E+01 0. -1.
         -5    1    3    3    0  502 -0.38042985336E+02 -0.12330603562E+02  0.23818286953E+01  0.40279747087E+02  0.41800000000E+01 0. -1.
        -11    1    1    2    0    0  0.25146239999E+02  0.23395247893E+01 -0.33892948237E+02  0.42267466243E+02  0.00000000000E+00 0. -1.
         11    1    1    2    0    0 -0.73352809520E+02 -0.14158996761E+02 -0.40052646824E+02  0.84766304458E+02  0.00000000000E+00 0.  1.
</event>
<event>
 7    1  0.2612321E-009  0.7883015E+02  0.7561462E-02  0.1332404E+00
         -2   -1    0    0    0  501 -0.00000000000E+00  0.00000000000E+00  0.17268318591E+03  0.17268318591E+03  0.00000000000E+00 0. -1.
          2   -1    0    0  501    0  0.00000000000E+00 -0.00000000000E+00 -0.82833396970E+02  0.82833396970E+02  0.00000000000E+00 0.  1.
         25    2    1    2    0    0  0.46593598259E+02 -0.11313910543E+02  0.37577112116E+02  0.13913495027E+03  0.12509007579E+03 0.  0.
          5    1    3    3  502    0 -0.15348166996E+02  0.15153562126E+02  0.63227552301E+02  0.66935733695E+02  0.41800000000E+01 0.  1.
         -5    1    3    3    0  502  0.61941765255E+02 -0.26467472669E+02 -0.25650440185E+02  0.72199216575E+02  0.41800000000E+01 0.  1.
        -11    1    1    2    0    0  0.76694844397E+01 -0.75410917555E+01 -0.20809379980E+02  0.23424759371E+02  0.00000000000E+00 0.  1.
         11    1    1    2    0    0 -0.54263082699E+02  0.18855002299E+02  0.73082056804E+02  0.92956873239E+02  0.00000000000E+00 0. -1.
</event>
<event>
 7    1  0.2612321E-009  0.1153982E+03  0.7561462E-02  0.1250888E+00
         -2   -1    0    0    0  501 -0.00000000000E+00  0.00000000000E+00  0.10383230130E+02  0.10383230130E+02  0.00000000000E+00 0.  1.
          2   -1    0    0  501    0  0.00000000000E+00 -0.00000000000E+00 -0.18889663768E+04  0.18889663768E+04  0.00000000000E+00 0. -1.
         25    2    1    2    0    0  0.49753321755E+02 -0.22318071929E+02 -0.14935946121E+04  0.14998149740E+04  0.12508637621E+03 0.  0.
          5    1    3    3  502    0  0.69030348353E+02  0.26558399649E+02 -0.58166944006E+03  0.58636792842E+03  0.41800000000E+01 0. -1.
         -5    1    3    3    0  502 -0.19277026597E+02 -0.48876471579E+02 -0.91192517204E+03  0.91344704555E+03  0.41800000000E+01 0. -1.
        -11    1    1    2    0    0 -0.18427355546E+02  0.55438280733E+02 -0.16976325368E+03  0.17953421040E+03  0.00000000000E+00 0.  1.
         11    1    1    2    0    0 -0.31325966209E+02 -0.33120208804E+02 -0.21522528086E+03  0.22000042253E+03  0.00000000000E+00 0. -1.
</event>
<event>
 7    1  0.2612321E-009  0.7836616E+02  0.7561462E-02  0.1333753E+00
          2   -1    0    0  501    0  0.00000000000E+00  0.00000000000E+00  0.45670158768E+02  0.45670158768E+02  0.00000000000E+00 0.  1.
         -2   -1    0    0    0  501 -0.00000000000E+00 -0.00000000000E+00 -0.43591435727E+03  0.43591435727E+03  0.00000000000E+00 0. -1.
         25    2    1    2    0    0 -0.16887942657E+02  0.22589068640E+01 -0.64315029811E+02  0.14168303585E+03  0.12508938532E+03 0.  0.
          5    1    3    3  502    0 -0.32356159380E+02  0.18791313967E+02 -0.95653592162E+02  0.10279648157E+03  0.41800000000E+01 0.  1.
         -5    1    3    3    0  502  0.15468216724E+02 -0.16532407103E+02  0.31338562351E+02  0.38886554276E+02  0.41800000000E+01 0.  1.
        -11    1    1    2    0    0  0.51978960170E+02 -0.21254941922E+02 -0.20543212332E+03  0.21296934556E+03  0.00000000000E+00 0.  1.
         11    1    1    2    0    0 -0.35091017513E+02  0.18996035058E+02 -0.12049704537E+03  0.12693213463E+03  0.00000000000E+00 0. -1.
</event>
<event>
 7    1  0.2612321E-009  0.1434122E+03  0.7561462E-02  0.1208810E+00
          1   -1    0    0  501    0  0.00000000000E+00  0.00000000000E+00  0.10723533636E+03  0.10723533636E+03  0.00000000000E+00 0. -1.
         -1   -1    0    0    0  501 -0.00000000000E+00 -0.00000000000E+00 -0.21258191801E+03  0.21258191801E+03  0.00000000000E+00 0.  1.
         25    2    1    2    0    0 -0.76915377421E+02  0.70573706477E+02 -0.47296098118E+02  0.16964847458E+03  0.12508821168E+03 0.  0.
          5    1    3    3  502    0 -0.53677130662E+02  0.10620641380E+03 -0.25945550475E+02  0.12186747178E+03  0.41800000000E+01 0. -1.
         -5    1    3    3    0  502 -0.23238246759E+02 -0.35632707328E+02 -0.21350547643E+02  0.47781002800E+02  0.41800000000E+01 0. -1.
        -11    1    1    2    0    0 -0.80728329149E+00 -0.42287996222E+02 -0.52295944300E+02  0.67259141543E+02  0.00000000000E+00 0.  1.
         11    1    1    2    0    0  0.77722660713E+02 -0.28285710255E+02 -0.57545392322E+01  0.82909638250E+02  0.00000000000E+00 0. -1.
</event>
<event>
 7    1  0.2612321E-009  0.2554402E+03  0.7561462E-02  0.1109914E+00
         -2   -1    0    0    0  501 -0.00000000000E+00  0.00000000000E+00  0.43488899711E+02  0.43488899711E+02  0.00000000000E+00 0.  1.
          2   -1    0    0  501    0  0.00000000000E+00 -0.00000000000E+00 -0.15918349157E+04  0.15918349157E+04  0.00000000000E+00 0. -1.
         25    2    1    2    0    0  0.23153806182E+03  0.65081580119E+02 -0.69230190156E+03  0.74348793351E+03  0.12508756226E+03 0.  0.
          5    1    3    3  502    0  0.75584705904E+02  0.84086955697E+02 -0.26212448612E+03  0.28550023206E+03  0.41800000000E+01 0. -1.
         -5    1    3    3    0  502  0.15595335592E+03 -0.19005375578E+02 -0.43017741544E+03  0.45798770145E+03  0.41800000000E+01 0. -1.
        -11    1    1    2    0    0 -0.68756718531E+02 -0.21980883495E+02 -0.38228791622E+03  0.38904330925E+03  0.00000000000E+00 0. -1.
         11    1    1    2    0    0 -0.16278134329E+03 -0.43100696624E+02 -0.47375619826E+03  0.50279257270E+03  0.00000000000E+00 0.  1.
</event>
<event>
 7    1  0.2612321E-009  0.1316449E+03  0.7561462E-02  0.1225035E+00
          1   -1    0    0  501    0  0.00000000000E+00  0.00000000000E+00  0.10474725953E+04  0.10474725953E+04  0.00000000000E+00 0. -1.
         -1   -1    0    0    0  501 -0.00000000000E+00 -0.00000000000E+00 -0.19544132806E+02  0.19544132806E+02  0.00000000000E+00 0.  1.
         25    2    1    2    0    0 -0.88015127436E+02  0.26101532864E+02  0.50288926346E+03  0.52628209062E+03  0.12508906797E+03 0.  0.
          5    1    3    3  502    0 -0.10157334259E+03 -0.28653299998E+01  0.46735321974E+03  0.47829055859E+03  0.41800000000E+01 0.  1.
         -5    1    3    3    0  502  0.13558215156E+02  0.28966862864E+02  0.35536043723E+02  0.47991532023E+02  0.41800000000E+01 0.  1.
        -11    1    1    2    0    0  0.73229398586E+02 -0.58496815270E+02  0.37968353549E+03  0.39108056630E+03  0.00000000000E+00 0.  1.
         11    1    1    2    0    0  0.14785728851E+02  0.32395282406E+02  0.14535566355E+03  0.14965407120E+03  0.00000000000E+00 0. -1.
</event>
<event>
 7    1  0.2612321E-009  0.1132523E+03  0.7561462E-02  0.1254663E+00
          2   -1    0    0  501    0  0.00000000000E+00  0.00000000000E+00  0.57766415988E+03  0.57766415988E+03  0.00000000000E+00 0. -1.
         -2   -1    0    0    0  501 -0.00000000000E+00 -0.00000000000E+00 -0.24736275022E+02  0.24736275022E+02  0.00000000000E+00 0.  1.
         25    2    1    2    0    0  0.88696852720E+00 -0.51202126244E+02  0.29641785436E+03  0.32578128621E+03  0.12508979822E+03 0.  0.
          5    1    3    3  502    0 -0.57814972218E+02 -0.71238712200E+01  0.16723239299E+03  0.17713685732E+03  0.41800000000E+01 0. -1.
         -5    1    3    3    0  502  0.58701940745E+02 -0.44078255024E+02  0.12918546136E+03  0.14864442889E+03  0.41800000000E+01 0. -1.
        -11    1    1    2    0    0 -0.33514281855E+02 -0.40777955163E+00  0.42823320626E+02  0.54380236868E+02  0.00000000000E+00 0.  1.
         11    1    1    2    0    0  0.32627313328E+02  0.51609905796E+02  0.21368670987E+03  0.22223891182E+03  0.00000000000E+00 0. -1.
</event>
<event>
 7    1  0.2612321E-009  0.1720829E+03  0.7561462E-02  0.1175693E+00
          2   -1    0    0  501    0  0.00000000000E+00  0.00000000000E+00  0.68519679498E+02  0.68519679498E+02  0.00000000000E+00 0. -1.
         -2   -1    0    0    0  501 -0.00000000000E+00 -0.00000000000E+00 -0.75695129575E+03  0.75695129575E+03  0.00000000000E+00 0.  1.
         25    2    1    2    0    0  0.10956269971E+03  0.74858727015E+02 -0.62157082081E+03  0.64777033563E+03  0.12509319831E+03 0.  0.
          5    1    3    3  502    0  0.13484496975E+03  0.77492028391E+02 -0.50676041794E+03  0.53010543660E+03  0.41800000000E+01 0.  1.
         -5    1    3    3    0  502 -0.25282270043E+02 -0.26333013764E+01 -0.11481040288E+03  0.11766489903E+03  0.41800000000E+01 0.  1.
        -11    1    1    2    0    0 -0.12659807149E+03 -0.59484517037E+02 -0.47638896720E+02  0.14776651837E+03  0.00000000000E+00 0. -1.
         11    1    1    2    0    0  0.17035371782E+02 -0.15374209978E+02 -0.19221898724E+02  0.29934121245E+02  0.00000000000E+00 0.  1.
</event>
<event>
 7    1  0.2612321E-009  0.2671574E+03  0.7561462E-02  0.1102918E+00
          1   -1    0    0  501    0  0.00000000000E+00  0.00000000000E+00  0.44669346549E+03  0.44669346549E+03  0.00000000000E+00 0. -1.
         -1   -1    0    0    0  501 -0.00000000000E+00 -0.00000000000E+00 -0.17146236446E+03  0.17146236446E+03  0.00000000000E+00 0.  1.
         25    2    1    2    0    0 -0.25219883540E+03  0.12010813750E+02  0.11141633130E+03  0.30300188772E+03  0.12509209749E+03 0.  0.
          5    1    3    3  502    0 -0.93558849516E+02  0.47331253266E+02  0.91471470780E+02  0.13920491451E+03  0.41800000000E+01 0. -1.
         -5    1    3    3    0  502 -0.15863998589E+03 -0.35320439516E+02  0.19944860523E+02  0.16379697320E+03  0.41800000000E+01 0. -1.
        -11    1    1    2    0    0  0.10506960015E+03  0.37509047860E+02  0.47895683572E+02  0.12141065048E+03  0.00000000000E+00 0. -1.
         11    1    1    2    0    0  0.14712923526E+03 -0.49519861610E+02  0.11591908616E+03  0.19374329175E+03  0.00000000000E+00 0.  1.
</event>
<event>
 7    1  0.2612321E-009  0.8778321E+02  0.7561462E-02  0.1308311E+00
          1   -1    0    0  501    0  0.00000000000E+00  0.00000000000E+00  0.12207220787E+04  0.12207220787E+04  0.00000000000E+00 0. -1.
         -1   -1    0    0    0  501 -0.00000000000E+00 -0.00000000000E+00 -0.16546042541E+02  0.16546042541E+02  0.00000000000E+00 0.  1.
         25    2    1    2    0    0 -0.20014179527E+02  0.68223456170E+02  0.92582925776E+03  0.93694344239E+03  0.12509273503E+03 0.  0.
          5    1    3    3  502    0 -0.32270289060E+01  0.10528905932E+02  0.30058427184E+01  0.12156441344E+02  0.41800000000E+01 0.  1.
         -5    1    3    3    0  502 -0.16787150621E+02  0.57694550237E+02  0.92282341504E+03  0.92478700105E+03  0.41800000000E+01 0.  1.
        -11    1    1    2    0    0  0.25174900753E+02  0.85660427147E+01  0.28890740821E+02  0.39266112883E+02  0.00000000000E+00 0.  1.
         11    1    1    2    0    0 -0.51607212265E+01 -0.76789498884E+02  0.24945603760E+03  0.26105856599E+03  0.00000000000E+00 0. -1.
</event>
<event>
 7    1  0.2612321E-009  0.8460217E+02  0.7561462E-02  0.1316476E+00
          2   -1    0    0  501    0  0.00000000000E+00  0.00000000000E+00  0.25324686713E+03  0.25324686713E+03  0.00000000000E+00 0. -1.
         -2   -1    0    0    0  501 -0.00000000000E+00 -0.00000000000E+00 -0.64428652904E+02  0.64428652904E+02  0.00000000000E+00 0.  1.
         25    2    1    2    0    0  0.56863881754E+00 -0.25970344675E+02  0.28243616808E+02  0.13084389783E+03  0.12509053344E+03 0.  0.
          5    1    3    3  502    0  0.21760271037E+01  0.31942039573E+02  0.57395258905E+02  0.65853755632E+02  0.41800000000E+01 0. -1.
         -5    1    3    3    0  502 -0.16073882862E+01 -0.57912384248E+02 -0.29151642097E+02  0.64990142202E+02  0.41800000000E+01 0. -1.
        -11    1    1    2    0    0  0.36903212955E+02  0.14407796915E+02  0.27826186398E+02  0.48412068617E+02  0.00000000000E+00 0. -1.
         11    1    1    2    0    0 -0.37471851772E+02  0.11562547760E+02  0.13274841102E+03  0.13841955358E+03  0.00000000000E+00 0.  1.
</event>
<event>
 7    1  0.2612321E-009  0.1249329E+03  0.7561462E-02  0.1235174E+00
         -2   -1    0    0    0  501 -0.00000000000E+00  0.00000000000E+00  0.17722344761E+03  0.17722344761E+03  0.00000000000E+00 0.  1.
          2   -1    0    0  501    0  0.00000000000E+00 -0.00000000000E+00 -0.15690366554E+03  0.15690366554E+03  0.00000000000E+00 0. -1.
         25    2    1    2    0    0  0.33155295241E+02  0.71987737182E+02 -0.75082210180E+02  0.16603066877E+03  0.12508931521E+03 0.  0.
          5    1    3    3  502    0  0.63384231514E+02 -0.21065507431E+01 -0.13516004347E+02  0.64978097342E+02  0.41800000000E+01 0. -1.
         -5    1    3    3    0  502 -0.30228936273E+02  0.74094287925E+02 -0.61566205834E+02  0.10105257143E+03  0.41800000000E+01 0. -1.
        -11    1    1    2    0    0 -0.18749014667E+02 -0.84829864493E+02  0.11261834275E+03  0.14223404158E+03  0.00000000000E+00 0.  1.
         11    1    1    2    0    0 -0.14406280575E+02  0.12842127312E+02 -0.17216350507E+02  0.25862402801E+02  0.00000000000E+00 0. -1.
</event>
<event>
 7    1  0.2612321E-009  0.1065575E+03  0.7561462E-02  0.1267081E+00
         -2   -1    0    0    0  501 -0.00000000000E+00  0.00000000000E+00  0.58542566856E+02  0.58542566856E+02  0.00000000000E+00 0.  1.
          2   -1    0    0  501    0  0.00000000000E+00 -0.00000000000E+00 -0.29206468657E+03  0.29206468657E+03  0.00000000000E+00 0. -1.
         25    2    1    2    0    0 -0.52446357043E+00  0.35158074171E+02 -0.21490487710E+03  0.25113451778E+03  0.12509226426E+03 0.  0.
          5    1    3    3  502    0  0.45118066277E+02 -0.24207346388E+02 -0.59713808043E+02  0.78770849905E+02  0.41800000000E+01 0.  1.
         -5    1    3    3    0  502 -0.45642529847E+02  0.59365420559E+02 -0.15519106905E+03  0.17236366787E+03  0.41800000000E+01 0.  1.
        -11    1    1    2    0    0  0.39702268174E+02 -0.22144754423E+02  0.13215435172E+02  0.47342454239E+02  0.00000000000E+00 0.  1.
         11    1    1    2    0    0 -0.39177804603E+02 -0.13013319748E+02 -0.31832677787E+02  0.52130281406E+02  0.00000000000E+00 0. -1.
</event>
<event>
 7    1  0.2612321E-009  0.1546888E+03  0.7561462E-02  0.1194827E+00
          2   -1    0    0  501    0  0.00000000000E+00  0.00000000000E+00  0.27018830630E+03  0.27018830630E+03  0.00000000000E+00 0. -1.
         -2   -1    0    0    0  501 -0.00000000000E+00 -0.00000000000E+00 -0.10934317685E+03  0.10934317685E+03  0.00000000000E+00 0.  1.
         25    2    1    2    0    0  0.10227885092E+03 -0.45196315843E+02  0.16298355716E+03  0.23391421697E+03  0.12509416727E+03 0.  0.
          5    1    3    3  502    0  0.28324923864E+02  0.43593383950E+02  0.50246078778E+02  0.72421165889E+02  0.41800000000E+01 0. -1.
         -5    1    3    3    0  502  0.73953927058E+02 -0.88789699793E+02  0.11273747838E+03  0.16149305108E+03  0.41800000000E+01 0. -1.
        -11    1    1    2    0    0 -0.16303324216E+02  0.52820911932E+02 -0.17425188690E+02  0.57961058640E+02  0.00000000000E+00 0. -1.
         11    1    1    2    0    0 -0.85975526705E+02 -0.76245960886E+01  0.15286760983E+02  0.87656207533E+02  0.00000000000E+00 0.  1.
</event>
<event>
 7    1  0.2612321E-009  0.1461332E+03  0.7561462E-02  0.1205307E+00
         -2   -1    0    0    0  501 -0.00000000000E+00  0.00000000000E+00  0.25797255245E+03  0.25797255245E+03  0.00000000000E+00 0.  1.
          2   -1    0    0  501    0  0.00000000000E+00 -0.00000000000E+00 -0.91440496295E+02  0.91440496295E+02  0.00000000000E+00 0. -1.
         25    2    1    2    0    0  0.71760117528E+01 -0.10095256938E+03  0.13508925876E+03  0.21009259862E+03  0.12508747241E+03 0.  0.
          5    1    3    3  502    0 -0.25227932155E+02  0.19916951793E+02  0.12139865184E+02  0.34611880276E+02  0.41800000000E+01 0.  1.
         -5    1    3    3    0  502  0.32403943908E+02 -0.12086952117E+03  0.12294939358E+03  0.17548071834E+03  0.41800000000E+01 0.  1.
        -11    1    1    2    0    0 -0.47860270940E+02  0.61969483031E+02  0.26899830094E+02  0.82791444127E+02  0.00000000000E+00 0.  1.
         11    1    1    2    0    0  0.40684259187E+02  0.38983086348E+02  0.45429672941E+01  0.56529005994E+02  0.00000000000E+00 0. -1.
</event>
<event>
 7    1  0.2612321E-009  0.1037749E+03  0.7561462E-02  0.1272552E+00
          1   -1    0    0  501    0  0.00000000000E+00  0.00000000000E+00  0.41244259379E+02  0.41244259379E+02  0.00000000000E+00 0. -1.
         -1   -1    0    0    0  501 -0.00000000000E+00 -0.00000000000E+00 -0.30279860781E+03  0.30279860781E+03  0.00000000000E+00 0.  1.
         25    2    1    2    0    0 -0.29013093140E+01 -0.23975604279E+02 -0.15655524379E+03  0.20184270217E+03  0.12509070655E+03 0.  0.
          5    1    3    3  502    0  0.27277626671E+02 -0.68182890679E+02 -0.85540944781E+02  0.11281711365E+03  0.41800000000E+01 0. -1.
         -5    1    3    3    0  502 -0.30178935985E+02  0.44207286401E+02 -0.71014299009E+02  0.89025588523E+02  0.41800000000E+01 0. -1.
        -11    1    1    2    0    0 -0.13482870920E+02 -0.25140761095E+02 -0.41394162692E+01  0.28826731409E+02  0.00000000000E+00 0. -1.
         11    1    1    2    0    0  0.16384180234E+02  0.49116365373E+02 -0.10085968837E+03  0.11337343361E+03  0.00000000000E+00 0.  1.
</event>
<event>
 7    1  0.2612321E-009  0.8419361E+02  0.7561462E-02  0.1317555E+00
          2   -1    0    0  501    0  0.00000000000E+00  0.00000000000E+00  0.30579554335E+03  0.30579554335E+03  0.00000000000E+00 0. -1.
         -2   -1    0    0    0  501 -0.00000000000E+00 -0.00000000000E+00 -0.55435210542E+02  0.55435210542E+02  0.00000000000E+00 0.  1.
         25    2    1    2    0    0  0.28270420026E+02  0.44878478689E+02  0.20977827671E+03  0.24993495455E+03  0.12508901482E+03 0.  0.
          5    1    3    3  502    0  0.66658711267E+02  0.25272966956E+02  0.57694817967E+02  0.91805615661E+02  0.41800000000E+01 0. -1.
         -5    1    3    3    0  502 -0.38388291241E+02  0.19605511733E+02  0.15208345875E+03  0.15812933889E+03  0.41800000000E+01 0. -1.
        -11    1    1    2    0    0 -0.16562216860E+02 -0.33356641200E+02  0.69035969767E+02  0.78440663314E+02  0.00000000000E+00 0. -1.
         11    1    1    2    0    0 -0.11708203166E+02 -0.11521837489E+02 -0.28453913667E+02  0.32855136029E+02  0.00000000000E+00 0.  1.
</event>
<event>
 7    1  0.2612321E-009  0.1026091E+03  0.7561462E-02  0.1274903E+00
         -2   -1    0    0    0  501 -0.00000000000E+00  0.00000000000E+00  0.27625332307E+03  0.27625332307E+03  0.00000000000E+00 0.  1.
          2   -1    0    0  501    0  0.00000000000E+00 -0.00000000000E+00 -0.55361000280E+02  0.55361000280E+02  0.00000000000E+00 0. -1.
         25    2    1    2    0    0  0.76183723912E+01 -0.38772774150E+02  0.18045483117E+03  0.22309783746E+03  0.12508929360E+03 0.  0.
          5    1    3    3  502    0 -0.16328240809E+02  0.40899900102E+02  0.89041392541E+02  0.99424621004E+02  0.41800000000E+01 0.  1.
         -5    1    3    3    0  502  0.23946613200E+02 -0.79672674252E+02  0.91413438628E+02  0.12367321645E+03  0.41800000000E+01 0.  1.
        -11    1    1    2    0    0  0.29254970988E+02  0.10016409465E+02  0.51861494653E+02  0.60380430718E+02  0.00000000000E+00 0.  1.
         11    1    1    2    0    0 -0.36873343379E+02  0.28756364684E+02 -0.11424003036E+02  0.48136055169E+02  0.00000000000E+00 0. -1.
</event>
<event>
 7    1  0.2612321E-009  0.8415710E+02  0.7561462E-02  0.1317652E+00
         -1   -1    0    0    0  501 -0.00000000000E+00  0.00000000000E+00  0.50521060898E+03  0.50521060898E+03  0.00000000000E+00 0.  1.
          1   -1    0    0  501    0  0.00000000000E+00 -0.00000000000E+00 -0.31978714337E+02  0.31978714337E+02  0.00000000000E+00 0. -1.
         25    2    1    2    0    0 -0.56621213934E+02 -0.28250734482E+02  0.29057588402E+03  0.32262399964E+03  0.12509130627E+03 0.  0.
          5    1    3    3  502    0  0.10149259668E+02 -0.16116070140E+02  0.23217741885E+03  0.23299476692E+03  0.41800000000E+01 0.  1.
         -5    1    3    3    0  502 -0.66770473602E+02 -0.12134664341E+02  0.58398465168E+02  0.89629232718E+02  0.41800000000E+01 0.  1.
        -11    1    1    2    0    0 -0.63257029278E+01  0.15301449199E+02 -0.41032617138E+01  0.17058300672E+02  0.00000000000E+00 0. -1.
         11    1    1    2    0    0  0.62946916862E+02  0.12949285282E+02  0.18675927233E+03  0.19750702300E+03  0.00000000000E+00 0.  1.
</event>
<event>
 7    1  0.2612321E-009  0.1090449E+03  0.7561462E-02  0.1262349E+00
          1   -1    0    0  501    0  0.00000000000E+00  0.00000000000E+00  0.23455135696E+03  0.23455135696E+03  0.00000000000E+00 0. -1.
         -1   -1    0    0    0  501 -0.00000000000E+00 -0.00000000000E+00 -0.13506684348E+03  0.13506684348E+03  0.00000000000E+00 0.  1.
         25    2    1    2    0    0 -0.38735589300E+02  0.68417198012E+01 -0.87354420978E+02  0.15756215145E+03  0.12509109359E+03 0.  0.
          5    1    3    3  502    0 -0.34551277251E+02  0.60208815908E+02 -0.75359714300E+02  0.10254487414E+03  0.41800000000E+01 0.  1.
         -5    1    3    3    0  502 -0.41843120489E+01 -0.53367096106E+02 -0.11994706678E+02  0.55017277308E+02  0.41800000000E+01 0.  1.
        -11    1    1    2    0    0 -0.23420109640E+02 -0.20601174335E+02  0.32220005146E+02  0.44844605597E+02  0.00000000000E+00 0. -1.
         11    1    1    2    0    0  0.62155698940E+02  0.13759454533E+02  0.15461892931E+03  0.16721144339E+03  0.00000000000E+00 0.  1.
</event>
<event>
 7    1  0.2612321E-009  0.8110851E+02  0.7561462E-02  0.1325935E+00
         -1   -1    0    0    0  501 -0.00000000000E+00  0.00000000000E+00  0.93199234593E+02  0.93199234593E+02  0.00000000000E+00 0.  1.
          1   -1    0    0  501    0  0.00000000000E+00 -0.00000000000E+00 -0.19812648111E+03  0.19812648111E+03  0.00000000000E+00 0. -1.
         25    2    1    2    0    0 -0.60712377020E+02  0.11979411639E+02  0.86994616309E-02  0.13955976726E+03  0.12508968596E+03 0.  0.
          5    1    3    3  502    0 -0.40505155354E+02 -0.23837483810E+02  0.53904024863E+02  0.71638045346E+02  0.41800000000E+01 0. -1.
         -5    1    3    3    0  502 -0.20207221666E+02  0.35816895450E+02 -0.53895325401E+02  0.67921721910E+02  0.41800000000E+01 0. -1.
        -11    1    1    2    0    0  0.26828914732E+02 -0.25689320625E+02 -0.10884209580E+03  0.11500579846E+03  0.00000000000E+00 0. -1.
         11    1    1    2    0    0  0.33883462288E+02  0.13709908985E+02  0.39061498226E+01  0.36760149993E+02  0.00000000000E+00 0.  1.
</event>
<event>
 7    1  0.2612321E-009  0.1147836E+03  0.7561462E-02  0.1251959E+00
          1   -1    0    0  501    0  0.00000000000E+00  0.00000000000E+00  0.31237245576E+03  0.31237245576E+03  0.00000000000E+00 0. -1.
         -1   -1    0    0    0  501 -0.00000000000E+00 -0.00000000000E+00 -0.53527542613E+02  0.53527542613E+02  0.00000000000E+00 0.  1.
         25    2    1    2    0    0  0.51323504424E+02 -0.31951585738E+02  0.10190929728E+03  0.17230585549E+03  0.12509515189E+03 0.  0.
          5    1    3    3  502    0  0.51610985628E+02 -0.76902332626E+02  0.58177351738E+02  0.10945199521E+03  0.41800000000E+01 0. -1.
         -5    1    3    3    0  502 -0.28748120428E+00  0.44950746888E+02  0.43731945542E+02  0.62853860280E+02  0.41800000000E+01 0. -1.
        -11    1    1    2    0    0  0.14094888774E+02  0.21136901842E+02  0.10862113499E+03  0.11155261304E+03  0.00000000000E+00 0. -1.
         11    1    1    2    0    0 -0.65418393197E+02  0.10814683897E+02  0.48314480872E+02  0.82041529838E+02  0.00000000000E+00 0.  1.
</event>
<event>
 7    1  0.2612321E-009  0.1020476E+03  0.7561462E-02  0.1276048E+00
          2   -1    0    0  501    0  0.00000000000E+00  0.00000000000E+00  0.63589682335E+02  0.63589682335E+02  0.00000000000E+00 0. -1.
         -2   -1    0    0    0  501 -0.00000000000E+00 -0.00000000000E+00 -0.31067897778E+03  0.31067897778E+03  0.00000000000E+00 0.  1.
         25    2    1    2    0    0  0.49938972779E+02  0.34249037655E+02 -0.46794986050E+02  0.14664264061E+03  0.12508955089E+03 0.  0.
          5    1    3    3  502    0 -0.15930269177E+02 -0.15857590874E+02 -0.58634639786E+02  0.62934331229E+02  0.41800000000E+01 0.  1.
         -5    1    3    3    0  502  0.65869241957E+02  0.50106628529E+02  0.11839653736E+02  0.83708309379E+02  0.41800000000E+01 0.  1.
        -11    1    1    2    0    0 -0.61258587834E+02  0.10793667013E+01 -0.16660783502E+03  0.17751605647E+03  0.00000000000E+00 0.  1.
         11    1    1    2    0    0  0.11319615055E+02 -0.35328404357E+02 -0.33686474373E+02  0.50109963032E+02  0.00000000000E+00 0. -1.
</event>
<event>
 7    1  0.2612321E-009  0.6277207E+02  0.7561462E-02  0.1386554E+00
          2   -1    0    0  501    0  0.00000000000E+00  0.00000000000E+00  0.49523673020E+03  0.49523673020E+03  0.00000000000E+00 0. -1.
         -2   -1    0    0    0  501 -0.00000000000E+00 -0.00000000000E+00 -0.25139051411E+02  0.25139051411E+02  0.00000000000E+00 0.  1.
         25    2    1    2    0    0  0.16355856383E+02  0.15159666919E+02  0.23119502992E+03  0.26381074653E+03  0.12509052156E+03 0.  0.
          5    1    3    3  502    0  0.45894736495E+01  0.32150036712E+02  0.11111265190E+01  0.32762709459E+02  0.41800000000E+01 0. -1.
         -5    1    3    3    0  502  0.11766382734E+02 -0.16990369793E+02  0.23008390340E+03  0.23104803707E+03  0.41800000000E+01 0. -1.
        -11    1    1    2    0    0 -0.10490654843E+00 -0.41102386016E+02  0.21157169507E+03  0.21552725883E+03  0.00000000000E+00 0. -1.
         11    1    1    2    0    0 -0.16250949835E+02  0.25942719097E+02  0.27330953794E+02  0.41037776255E+02  0.00000000000E+00 0.  1.
</event>
<event>
 7    1  0.2612321E-009  0.1721620E+03  0.7561462E-02  0.1175612E+00
          2   -1    0    0  501    0  0.00000000000E+00  0.00000000000E+00  0.63153185463E+03  0.63153185463E+03  0.00000000000E+00 0. -1.
         -2   -1    0    0    0  501 -0.00000000000E+00 -0.00000000000E+00 -0.52765220577E+02  0.52765220577E+02  0.00000000000E+00 0.  1.
         25    2    1    2    0    0  0.13521000283E+03  0.49612447833E+02  0.25038864076E+03  0.31477796548E+03  0.12509019259E+03 0.  0.
          5    1    3    3  502    0  0.22443708448E+02  0.57397975265E+02  0.33756297456E+02  0.70393235693E+02  0.41800000000E+01 0.  1.
         -5    1    3    3    0  502  0.11276629438E+03 -0.77855274319E+01  0.21663234331E+03  0.24438472979E+03  0.41800000000E+01 0.  1.
        -11    1    1    2    0    0 -0.14680368360E+03 -0.54853700792E+02  0.30456026444E+03  0.34251599187E+03  0.00000000000E+00 0. -1.
         11    1    1    2    0    0  0.11593680771E+02  0.52412529591E+01  0.23817728850E+02  0.27003117856E+02  0.00000000000E+00 0.  1.
</event>
<event>
 7    1  0.2612321E-009  0.7800127E+02  0.7561462E-02  0.1334821E+00
          1   -1    0    0  501    0  0.00000000000E+00  0.00000000000E+00  0.11587040009E+03  0.11587040009E+03  0.00000000000E+00 0. -1.
         -1   -1    0    0    0  501 -0.00000000000E+00 -0.00000000000E+00 -0.15090514035E+03  0.15090514035E+03  0.00000000000E+00 0.  1.
         25    2    1    2    0    0  0.18543211205E+02  0.50858509538E+02  0.33152320881E+02  0.14027532097E+03  0.12509056967E+03 0.  0.
          5    1    3    3  502    0  0.19139153405E+01  0.59141469066E+02 -0.35432259649E+02  0.69096265160E+02  0.41800000000E+01 0.  1.
         -5    1    3    3    0  502  0.16629295865E+02 -0.82829595280E+01  0.68584580530E+02  0.71179055810E+02  0.41800000000E+01 0.  1.
        -11    1    1    2    0    0  0.19855673563E+02 -0.21789007559E+02 -0.72383818409E+02  0.78156418741E+02  0.00000000000E+00 0.  1.
         11    1    1    2    0    0 -0.38398884769E+02 -0.29069501979E+02  0.41967572705E+01  0.48343800724E+02  0.00000000000E+00 0. -1.
</event>
<event>
 7    1  0.2612321E-009  0.1305104E+03  0.7561462E-02  0.1226700E+00
          1   -1    0    0  501    0  0.00000000000E+00  0.00000000000E+00  0.93439450301E+02  0.93439450301E+02  0.00000000000E+00 0. -1.
         -1   -1    0    0    0  501 -0.00000000000E+00 -0.00000000000E+00 -0.22754235747E+03  0.22754235747E+03  0.00000000000E+00 0.  1.
         25    2    1    2    0    0 -0.61919235466E+02  0.43586402991E+02 -0.74420220257E+01  0.14640945582E+03  0.12508628548E+03 0.  0.
          5    1    3    3  502    0  0.35742634825E+02  0.70499303272E+01  0.15081026370E+02  0.39650311704E+02  0.41800000000E+01 0. -1.
         -5    1    3    3    0  502 -0.97661870291E+02  0.36536472664E+02 -0.22523048396E+02  0.10675914412E+03  0.41800000000E+01 0. -1.
        -11    1    1    2    0    0  0.84687995976E+02 -0.47180456616E+02 -0.10557395671E+03  0.14333147764E+03  0.00000000000E+00 0.  1.
         11    1    1    2    0    0 -0.22768760510E+02  0.35940536249E+01 -0.21086928439E+02  0.31240874309E+02  0.00000000000E+00 0. -1.
</event>
<event>
 7    1  0.2612321E-009  0.1590593E+03  0.7561462E-02  0.1189763E+00
         -4   -1    0    0    0  501 -0.00000000000E+00  0.00000000000E+00  0.21847412938E+03  0.21847412938E+03  0.00000000000E+00 0.  1.
          4   -1    0    0  501    0  0.00000000000E+00 -0.00000000000E+00 -0.12557213653E+03  0.12557213653E+03  0.00000000000E+00 0. -1.
         25    2    1    2    0    0  0.79829037768E+02  0.96232875649E+02  0.43775622626E+02  0.18220198004E+03  0.12509122578E+03 0.  0.
          5    1    3    3  502    0  0.75490433899E+02  0.17390866220E+01 -0.48094725251E+01  0.75778845719E+02  0.41800000000E+01 0. -1.
         -5    1    3    3    0  502  0.43386038687E+01  0.94493789027E+02  0.48585095151E+02  0.10642313432E+03  0.41800000000E+01 0. -1.
        -11    1    1    2    0    0 -0.94313682320E+02 -0.68652788817E+02  0.56819040043E+02  0.12975623067E+03  0.00000000000E+00 0.  1.
         11    1    1    2    0    0  0.14484644552E+02 -0.27580086831E+02 -0.76926698206E+01  0.32088055198E+02  0.00000000000E+00 0. -1.
</event>
<event>
 7    1  0.2612321E-009  0.2168027E+03  0.7561462E-02  0.1136289E+00
          1   -1    0    0  501    0  0.00000000000E+00  0.00000000000E+00  0.54887506377E+03  0.54887506377E+03  0.00000000000E+00 0.  1.
         -1   -1    0    0    0  501 -0.00000000000E+00 -0.00000000000E+00 -0.10373740323E+03  0.10373740323E+03  0.00000000000E+00 0. -1.
         25    2    1    2    0    0 -0.20047265739E+03 -0.38362424097E+01  0.13448487577E+03  0.27191318040E+03  0.12508634117E+03 0.  0.
          5    1    3    3  502    0  0.14433176005E+02 -0.97704469019E+01 -0.67128486659E+00  0.17936031490E+02  0.41800000000E+01 0.  1.
         -5    1    3    3    0  502 -0.21490583340E+03  0.59342044921E+01  0.13515616063E+03  0.25397714891E+03  0.41800000000E+01 0.  1.
        -11    1    1    2    0    0  0.42190665598E+02  0.39101211834E+01  0.14716739823E+03  0.15314563139E+03  0.00000000000E+00 0.  1.
         11    1    1    2    0    0  0.15828199179E+03 -0.73878773642E-01  0.16348538655E+03  0.22755365521E+03  0.00000000000E+00 0. -1.
</event>
<event>
 7    1  0.2612321E-009  0.1010036E+03  0.7561462E-02  0.1278200E+00
          1   -1    0    0  501    0  0.00000000000E+00  0.00000000000E+00  0.43235941625E+03  0.43235941625E+03  0.00000000000E+00 0. -1.
         -1   -1    0    0    0  501 -0.00000000000E+00 -0.00000000000E+00 -0.35697749127E+02  0.35697749127E+02  0.00000000000E+00 0.  1.
         25    2    1    2    0    0 -0.33786310249E+02 -0.56156350756E+02  0.21126446008E+03  0.25412055600E+03  0.12509809911E+03 0.  0.
          5    1    3    3  502    0 -0.21285171524E+02 -0.78051640096E+02  0.21361094009E+03  0.22845617343E+03  0.41800000000E+01 0. -1.
         -5    1    3    3    0  502 -0.12501138724E+02  0.21895289339E+02 -0.23464800163E+01  0.25664382578E+02  0.41800000000E+01 0. -1.
        -11    1    1    2    0    0  0.98141359087E+01  0.67998328137E+02  0.16934460785E+03  0.18275033817E+03  0.00000000000E+00 0.  1.
         11    1    1    2    0    0  0.23972174340E+02 -0.11841977380E+02  0.16052599200E+02  0.31186271209E+02  0.00000000000E+00 0. -1.
</event>
<event>
 7    1  0.2612321E-009  0.1230378E+03  0.7561462E-02  0.1238168E+00
         -1   -1    0    0    0  501 -0.00000000000E+00  0.00000000000E+00  0.39950880208E+03  0.39950880208E+03  0.00000000000E+00 0.  1.
          1   -1    0    0  501    0  0.00000000000E+00 -0.00000000000E+00 -0.67963169824E+02  0.67963169824E+02  0.00000000000E+00 0. -1.
         25    2    1    2    0    0  0.10217630609E+03 -0.47691639819E+02  0.10401142125E+03  0.19793957150E+03  0.12508880118E+03 0.  0.
          5    1    3    3  502    0  0.98844763811E+02 -0.60308352600E+02  0.12653900295E+03  0.17157207347E+03  0.41800000000E+01 0. -1.
         -5    1    3    3    0  502  0.33315422817E+01  0.12616712781E+02 -0.22527581701E+02  0.26367498036E+02  0.41800000000E+01 0. -1.
        -11    1    1    2    0    0 -0.29567729549E+02 -0.12552731903E+00  0.41897162114E+01  0.29863357308E+02  0.00000000000E+00 0. -1.
         11    1    1    2    0    0 -0.72608576544E+02  0.47817167138E+02  0.22334449479E+03  0.23966904309E+03  0.00000000000E+00 0.  1.
</event>
<event>
 7    1  0.2612321E-009  0.9119964E+02  0.7561462E-02  0.1299972E+00
         -1   -1    0    0    0  501 -0.00000000000E+00  0.00000000000E+00  0.37702887358E+02  0.37702887358E+02  0.00000000000E+00 0.  1.
          1   -1    0    0  501    0  0.00000000000E+00 -0.00000000000E+00 -0.34265395999E+03  0.34265395999E+03  0.00000000000E+00 0. -1.
         25    2    1    2    0    0 -0.30278757622E+02  0.16595036146E+02 -0.20618799711E+03  0.24362449875E+03  0.12508879985E+03 0.  0.
          5    1    3    3  502    0  0.52187455360E+01 -0.51369566461E+02 -0.99462309771E+02  0.11214406417E+03  0.41800000000E+01 0. -1.
         -5    1    3    3    0  502 -0.35497503158E+02  0.67964602608E+02 -0.10672568734E+03  0.13148043458E+03  0.41800000000E+01 0. -1.
        -11    1    1    2    0    0  0.26314609726E+00 -0.23093641726E+02  0.89182136695E+01  0.24757222564E+02  0.00000000000E+00 0.  1.
         11    1    1    2    0    0  0.30015611525E+02  0.64986055794E+01 -0.10768128919E+03  0.11197512604E+03  0.00000000000E+00 0. -1.
</event>
<event>
 7    1  0.2612321E-009  0.1258860E+03  0.7561462E-02  0.1233691E+00
          1   -1    0    0  501    0  0.00000000000E+00  0.00000000000E+00  0.60680183359E+02  0.60680183359E+02  0.00000000000E+00 0. -1.
         -1   -1    0    0    0  501 -0.00000000000E+00 -0.00000000000E+00 -0.48557779762E+03  0.48557779762E+03  0.00000000000E+00 0.  1.
         25    2    1    2    0    0  0.90742538198E+02 -0.23439085327E+02 -0.37556309549E+03  0.40679114608E+03  0.12509116226E+03 0.  0.
          5    1    3    3  502    0 -0.28194204471E+02  0.12459827689E+02 -0.59033369470E+02  0.66727592365E+02  0.41800000000E+01 0.  1.
         -5    1    3    3    0  502  0.11893674267E+03 -0.35898913016E+02 -0.31652972602E+03  0.34006355371E+03  0.41800000000E+01 0.  1.
        -11    1    1    2    0    0 -0.33198659234E+02 -0.23878533947E+01  0.25257095667E+02  0.41782456849E+02  0.00000000000E+00 0. -1.
         11    1    1    2    0    0 -0.57543878964E+02  0.25826938721E+02 -0.74591614437E+02  0.97684378046E+02  0.00000000000E+00 0.  1.
</event>
<event>
 7    1  0.2612321E-009  0.1021361E+03  0.7561462E-02  0.1275867E+00
         -1   -1    0    0    0  501 -0.00000000000E+00  0.00000000000E+00  0.75800617006E+02  0.75800617006E+02  0.00000000000E+00 0.  1.
          1   -1    0    0  501    0  0.00000000000E+00 -0.00000000000E+00 -0.20698858194E+03  0.20698858194E+03  0.00000000000E+00 0. -1.
         25    2    1    2    0    0 -0.20799227977E+02 -0.57851426825E+02 -0.63475354917E+02  0.15315984639E+03  0.12509765143E+03 0.  0.
          5    1    3    3  502    0  0.18127192889E+02 -0.50613309505E+02 -0.90283950111E+02  0.10516161975E+03  0.41800000000E+01 0.  1.
         -5    1    3    3    0  502 -0.38926420866E+02 -0.72381173197E+01  0.26808595193E+02  0.47998226634E+02  0.41800000000E+01 0.  1.
        -11    1    1    2    0    0 -0.75605511131E+01  0.76318605535E+02 -0.46479414444E+02  0.89677351940E+02  0.00000000000E+00 0.  1.
         11    1    1    2    0    0  0.28359779090E+02 -0.18467178711E+02 -0.21233195578E+02  0.39952000626E+02  0.00000000000E+00 0. -1.
</event>
<event>
 7    1  0.2612321E-009  0.1157860E+03  0.7561462E-02  0.1250215E+00
         -1   -1    0    0    0  501 -0.00000000000E+00  0.00000000000E+00  0.47075311450E+03  0.47075311450E+03  0.00000000000E+00 0.  1.
          1   -1    0    0  501    0  0.00000000000E+00 -0.00000000000E+00 -0.40780270848E+02  0.40780270848E+02  0.00000000000E+00 0. -1.
         25    2    1    2    0    0  0.52296415323E+02 -0.65739309010E+02  0.27636841876E+03  0.31477598146E+03  0.12509134187E+03 0.  0.
          5    1    3    3  502    0  0.31697788696E+01  0.22913001428E+02  0.15420714944E+03  0.15598836646E+03  0.41800000000E+01 0.  1.
         -5    1    3    3    0  502  0.49126636454E+02 -0.88652310439E+02  0.12216126932E+03  0.15878761500E+03  0.41800000000E+01 0.  1.
        -11    1    1    2    0    0 -0.67977468463E+02  0.49808776882E+02  0.15266981561E+03  0.17438441178E+03  0.00000000000E+00 0.  1.
         11    1    1    2    0    0  0.15681053139E+02  0.15930532128E+02  0.93460928264E+00  0.22372992110E+02  0.00000000000E+00 0. -1.
</event>
<event>
 7    1  0.2612321E-009  0.1201167E+03  0.7561462E-02  0.1242905E+00
         -1   -1    0    0    0  501 -0.00000000000E+00  0.00000000000E+00  0.23384620553E+03  0.23384620553E+03  0.00000000000E+00 0.  1.
          1   -1    0    0  501    0  0.00000000000E+00 -0.00000000000E+00 -0.99531920568E+02  0.99531920568E+02  0.00000000000E+00 0. -1.
         25    2    1    2    0    0  0.69465720709E+02 -0.44766499468E+02 -0.46694978892E+01  0.15000786154E+03  0.12510407061E+03 0.  0.
          5    1    3    3  502    0  0.24128940704E+02 -0.74623548870E+02 -0.36859428367E+02  0.86758110198E+02  0.41800000000E+01 0.  1.
         -5    1    3    3    0  502  0.45336780005E+02  0.29857049403E+02  0.32189930478E+02  0.63249751339E+02  0.41800000000E+01 0.  1.
        -11    1    1    2    0    0 -0.11223260454E+02  0.47631573134E+02  0.10508384230E+03  0.11591955076E+03  0.00000000000E+00 0.  1.
         11    1    1    2    0    0 -0.58242460255E+02 -0.28650736662E+01  0.33899940548E+02  0.67450713805E+02  0.00000000000E+00 0. -1.
</event>
<event>
 7    1  0.2612321E-009  0.1094719E+03  0.7561462E-02  0.1261551E+00
         -4   -1    0    0    0  501 -0.00000000000E+00  0.00000000000E+00  0.67050475431E+02  0.67050475431E+02  0.00000000000E+00 0.  1.
          4   -1    0    0  501    0  0.00000000000E+00 -0.00000000000E+00 -0.35385539796E+03  0.35385539796E+03  0.00000000000E+00 0. -1.
         25    2    1    2    0    0  0.43280268150E+02  0.41905192115E+01 -0.29114139983E+03  0.31984883582E+03  0.12509684654E+03 0.  0.
          5    1    3    3  502    0  0.49961387075E+01  0.54351334807E+02 -0.20975882240E+03  0.21678391308E+03  0.41800000000E+01 0.  1.
         -5    1    3    3    0  502  0.38284129443E+02 -0.50160815595E+02 -0.81382577435E+02  0.10306492273E+03  0.41800000000E+01 0.  1.
        -11    1    1    2    0    0 -0.66827646971E+00 -0.43192492350E+02  0.19162693367E+01  0.43240144276E+02  0.00000000000E+00 0.  1.
         11    1    1    2    0    0 -0.42611991681E+02  0.39001973139E+02  0.24202079704E+01  0.57816893295E+02  0.00000000000E+00 0. -1.
</event>
<event>
 7    1  0.2612321E-009  0.9272013E+02  0.7561462E-02  0.1296395E+00
          2   -1    0    0  501    0  0.00000000000E+00  0.00000000000E+00  0.31801411561E+03  0.31801411561E+03  0.00000000000E+00 0. -1.
         -2   -1    0    0    0  501 -0.00000000000E+00 -0.00000000000E+00 -0.82008502547E+02  0.82008502547E+02  0.00000000000E+00 0.  1.
         25    2    1    2    0    0 -0.41804415805E+02  0.56500876080E+02  0.24577114109E+03  0.28458891462E+03  0.12508972121E+03 0.  0.
          5    1    3    3  502    0 -0.21384901112E+02  0.15781941605E+02 -0.69285492023E+01  0.27782384175E+02  0.41800000000E+01 0.  1.
         -5    1    3    3    0  502 -0.20419514692E+02  0.40718934475E+02  0.25269969030E+03  0.25680653045E+03  0.41800000000E+01 0.  1.
        -11    1    1    2    0    0 -0.65051166856E+01  0.20713299859E+02  0.70218729906E+01  0.22818063775E+02  0.00000000000E+00 0. -1.
         11    1    1    2    0    0  0.48309532490E+02 -0.77214175939E+02 -0.16787401020E+02  0.92615639761E+02  0.00000000000E+00 0.  1.
</event>
<event>
 7    1  0.2612321E-009  0.8916296E+02  0.7561462E-02  0.1304891E+00
         -2   -1    0    0    0  501 -0.00000000000E+00  0.00000000000E+00  0.65574523704E+02  0.65574523704E+02  0.00000000000E+00 0.  1.
          2   -1    0    0  501    0  0.00000000000E+00 -0.00000000000E+00 -0.18852526567E+03  0.18852526567E+03  0.00000000000E+00 0. -1.
         25    2    1    2    0    0 -0.94496332531E+01 -0.20033543065E+02 -0.58127966624E+02  0.13970270429E+03  0.12508935473E+03 0.  0.
          5    1    3    3  502    0  0.35562188811E+02 -0.36839595883E+01 -0.79367136081E+02  0.87148468265E+02  0.41800000000E+01 0.  1.
         -5    1    3    3    0  502 -0.45011822064E+02 -0.16349583477E+02  0.21239169457E+02  0.52554236029E+02  0.41800000000E+01 0.  1.
        -11    1    1    2    0    0 -0.10344847245E+02  0.53980123591E+02 -0.37854817483E+02  0.66737222104E+02  0.00000000000E+00 0.  1.
         11    1    1    2    0    0  0.19794480498E+02 -0.33946580526E+02 -0.26967957857E+02  0.47659862973E+02  0.00000000000E+00 0. -1.
</event>
<event>
 7    1  0.2612321E-009  0.1521541E+03  0.7561462E-02  0.1197851E+00
          2   -1    0    0  501    0  0.00000000000E+00  0.00000000000E+00  0.11611792406E+04  0.11611792406E+04  0.00000000000E+00 0. -1.
         -2   -1    0    0    0  501 -0.00000000000E+00 -0.00000000000E+00 -0.35797954907E+02  0.35797954907E+02  0.00000000000E+00 0.  1.
         25    2    1    2    0    0  0.35591054257E+01  0.13946705511E+03  0.88303389617E+03  0.90269583320E+03  0.12508868371E+03 0.  0.
          5    1    3    3  502    0 -0.36874287635E+02  0.74401558928E+02  0.21911608858E+03  0.23436006002E+03  0.41800000000E+01 0. -1.
         -5    1    3    3    0  502  0.40433393060E+02  0.65065496183E+02  0.66391780759E+03  0.66833577317E+03  0.41800000000E+01 0. -1.
        -11    1    1    2    0    0  0.15194970864E+02 -0.32879391378E+02  0.93990558792E+01  0.37420365690E+02  0.00000000000E+00 0.  1.
         11    1    1    2    0    0 -0.18754076290E+02 -0.10658766373E+03  0.23294833364E+03  0.25686099662E+03  0.00000000000E+00 0. -1.
</event>
<event>
 7    1  0.2612321E-009  0.1736167E+03  0.7561462E-02  0.1174128E+00
         -2   -1    0    0    0  501 -0.00000000000E+00  0.00000000000E+00  0.14102680014E+02  0.14102680014E+02  0.00000000000E+00 0.  1.
          2   -1    0    0  501    0  0.00000000000E+00 -0.00000000000E+00 -0.34437645073E+04  0.34437645073E+04  0.00000000000E+00 0. -1.
         25    2    1    2    0    0 -0.14779179337E+03 -0.37179792704E+02 -0.26907770824E+04  0.26979906948E+04  0.12509089083E+03 0.  0.
          5    1    3    3  502    0 -0.15781035370E+03 -0.31451950284E+02 -0.18140496737E+04  0.18211773730E+04  0.41800000000E+01 0.  1.
         -5    1    3    3    0  502  0.10018560336E+02 -0.57278424199E+01 -0.87672740867E+03  0.87681332177E+03  0.41800000000E+01 0.  1.
        -11    1    1    2    0    0  0.10378567527E+03  0.64498615486E+02 -0.58106153692E+03  0.59377103961E+03  0.00000000000E+00 0.  1.
         11    1    1    2    0    0  0.44006118094E+02 -0.27318822782E+02 -0.15782320803E+03  0.16610545295E+03  0.00000000000E+00 0. -1.
</event>
<event>
 7    1  0.2612321E-009  0.1345964E+03  0.7561462E-02  0.1220791E+00
          2   -1    0    0  501    0  0.00000000000E+00  0.00000000000E+00  0.10874969471E+04  0.10874969471E+04  0.00000000000E+00 0. -1.
         -2   -1    0    0    0  501 -0.00000000000E+00 -0.00000000000E+00 -0.19962853857E+02  0.19962853857E+02  0.00000000000E+00 0.  1.
         25    2    1    2    0    0  0.80626023382E+02  0.43507271684E+02  0.66465269003E+03  0.68249838735E+03  0.12508961602E+03 0.  0.
          5    1    3    3  502    0 -0.24613871638E+02 -0.16735467203E+02  0.20088667321E+03  0.20312273731E+03  0.41800000000E+01 0.  1.
         -5    1    3    3    0  502  0.10523989502E+03  0.60242738887E+02  0.46376601682E+03  0.47937565004E+03  0.41800000000E+01 0.  1.
        -11    1    1    2    0    0 -0.37421841420E+02  0.18880220521E+02  0.56415230829E+02  0.70281827037E+02  0.00000000000E+00 0.  1.
         11    1    1    2    0    0 -0.43204181962E+02 -0.62387492205E+02  0.34646617236E+03  0.35467958655E+03  0.00000000000E+00 0. -1.
</event>
<event>
 7    1  0.2655507E-009  0.1678078E+03  0.7561462E-02  0.1180153E+00
          2   -1    0    0  501    0  0.00000000000E+00  0.00000000000E+00  0.43028757341E+03  0.43028757341E+03  0.00000000000E+00 0. -1.
         -2   -1    0    0    0  501 -0.00000000000E+00 -0.00000000000E+00 -0.85649585990E+02  0.85649585990E+02  0.00000000000E+00 0.  1.
         25    2    1    2    0    0 -0.10987197712E+03 -0.10556886267E+03  0.12423474980E+03  0.23301868651E+03  0.12508716593E+03 0.  0.
          5    1    3    3  502    0 -0.10969243517E+03 -0.46850944774E+02  0.12674889412E+03  0.17409823641E+03  0.41800000000E+01 0. -1.
         -5    1    3    3    0  502 -0.17954194764E+00 -0.58717917901E+02 -0.25141443180E+01  0.58920450097E+02  0.41800000000E+01 0. -1.
        -11    1    1    2    0    0  0.73041504649E+02  0.93481882575E+02  0.95982818553E+02  0.15259955842E+03  0.00000000000E+00 0.  1.
         11    1    1    2    0    0  0.36830472472E+02  0.12086980099E+02  0.12442041907E+03  0.13031891448E+03  0.00000000000E+00 0. -1.
</event>
<event>
 7    1  0.2612321E-009  0.2784252E+03  0.7561462E-02  0.1096552E+00
          2   -1    0    0  501    0  0.00000000000E+00  0.00000000000E+00  0.22433870452E+03  0.22433870452E+03  0.00000000000E+00 0. -1.
         -2   -1    0    0    0  501 -0.00000000000E+00 -0.00000000000E+00 -0.39300533093E+03  0.39300533093E+03  0.00000000000E+00 0.  1.
         25    2    1    2    0    0 -0.25562364895E+03  0.95870321686E+02 -0.12936432047E+03  0.32697975723E+03  0.12508423461E+03 0.  0.
          5    1    3    3  502    0 -0.23449446714E+03  0.71468404729E+02 -0.63123817818E+02  0.25317479489E+03  0.41800000000E+01 0.  1.
         -5    1    3    3    0  502 -0.21129181814E+02  0.24401916957E+02 -0.66240502648E+02  0.73804962342E+02  0.41800000000E+01 0.  1.
        -11    1    1    2    0    0  0.80991945229E+02 -0.60127448635E+02  0.19350517802E+02  0.10271050487E+03  0.00000000000E+00 0. -1.
         11    1    1    2    0    0  0.17463170372E+03 -0.35742873051E+02 -0.58652823751E+02  0.18765377335E+03  0.00000000000E+00 0.  1.
</event>
<event>
 7    1  0.2612321E-009  0.1323079E+03  0.7561462E-02  0.1224071E+00
         -2   -1    0    0    0  501 -0.00000000000E+00  0.00000000000E+00  0.43669382735E+02  0.43669382735E+02  0.00000000000E+00 0.  1.
          2   -1    0    0  501    0  0.00000000000E+00 -0.00000000000E+00 -0.47951822783E+03  0.47951822783E+03  0.00000000000E+00 0. -1.
         25    2    1    2    0    0 -0.60664834748E+02 -0.68015052198E+02 -0.19259390785E+03  0.24707356147E+03  0.12508661774E+03 0.  0.
          5    1    3    3  502    0 -0.38798974112E+02  0.19658683828E+02 -0.12980259929E+03  0.13695988984E+03  0.41800000000E+01 0. -1.
         -5    1    3    3    0  502 -0.21865860636E+02 -0.87673736026E+02 -0.62791308558E+02  0.11011367163E+03  0.41800000000E+01 0. -1.
        -11    1    1    2    0    0  0.16756860464E+01 -0.22424671083E+02 -0.47502626827E+02  0.52556382604E+02  0.00000000000E+00 0.  1.
         11    1    1    2    0    0  0.58989148702E+02  0.90439723281E+02 -0.19575231042E+03  0.22355766649E+03  0.00000000000E+00 0. -1.
</event>
<event>
 7    1  0.3958804E-009  0.1332481E+03  0.7561462E-02  0.1222714E+00
          2   -1    0    0  501    0  0.00000000000E+00  0.00000000000E+00  0.20461100338E+03  0.20461100338E+03  0.00000000000E+00 0. -1.
         -2   -1    0    0    0  501 -0.00000000000E+00 -0.00000000000E+00 -0.10138587039E+03  0.10138587039E+03  0.00000000000E+00 0.  1.
         25    2    1    2    0    0  0.37292021441E+02  0.82673031569E+02  0.84086626807E+02  0.17590867933E+03  0.12509107739E+03 0.  0.
          5    1    3    3  502    0  0.70130009907E+02  0.24298660199E+02  0.84862780189E+01  0.74820668880E+02  0.41800000000E+01 0.  1.
         -5    1    3    3    0  502 -0.32837988467E+02  0.58374371370E+02  0.75600348788E+02  0.10108801045E+03  0.41800000000E+01 0.  1.
        -11    1    1    2    0    0  0.22457142218E+02 -0.54595070125E+02 -0.62361788001E+01  0.59361897246E+02  0.00000000000E+00 0.  1.
         11    1    1    2    0    0 -0.59749163659E+02 -0.28077961444E+02  0.25374684989E+02  0.70726297196E+02  0.00000000000E+00 0. -1.
</event>
<event>
 7    1  0.2612321E-009  0.1542853E+03  0.7561462E-02  0.1195304E+00
          3   -1    0    0  501    0  0.00000000000E+00  0.00000000000E+00  0.38189689362E+03  0.38189689362E+03  0.00000000000E+00 0. -1.
         -3   -1    0    0    0  501 -0.00000000000E+00 -0.00000000000E+00 -0.83982038979E+02  0.83982038979E+02  0.00000000000E+00 0.  1.
         25    2    1    2    0    0  0.94825932020E+02  0.56104437075E+02  0.40523836089E+02  0.17155068207E+03  0.12509112672E+03 0.  0.
          5    1    3    3  502    0  0.98717691604E+02  0.89102681688E+02  0.29355354573E+02  0.13624859545E+03  0.41800000000E+01 0.  1.
         -5    1    3    3    0  502 -0.38917595838E+01 -0.32998244614E+02  0.11168481516E+02  0.35302086618E+02  0.41800000000E+01 0.  1.
        -11    1    1    2    0    0 -0.43746927916E+01 -0.51266173159E+02  0.10781496772E+03  0.11946307259E+03  0.00000000000E+00 0.  1.
         11    1    1    2    0    0 -0.90451239228E+02 -0.48382639161E+01  0.14957605084E+03  0.17486517795E+03  0.00000000000E+00 0. -1.
</event>
<event>
 7    1  0.2612321E-009  0.9694498E+02  0.7561462E-02  0.1286855E+00
         -4   -1    0    0    0  501 -0.00000000000E+00  0.00000000000E+00  0.37595462441E+03  0.37595462441E+03  0.00000000000E+00 0.  1.
          4   -1    0    0  501    0  0.00000000000E+00 -0.00000000000E+00 -0.51443522241E+02  0.51443522241E+02  0.00000000000E+00 0. -1.
         25    2    1    2    0    0 -0.82741395887E+02 -0.17907389857E+01  0.24201601387E+03  0.28472561594E+03  0.12509028766E+03 0.  0.
          5    1    3    3  502    0 -0.49753362574E+02  0.15607718960E+02  0.14706850601E+02  0.54339321243E+02  0.41800000000E+01 0. -1.
         -5    1    3    3    0  502 -0.32988033313E+02 -0.17398457946E+02  0.22730916327E+03  0.23038629470E+03  0.41800000000E+01 0. -1.
        -11    1    1    2    0    0 -0.10682003524E+01 -0.17921733488E+02  0.45593506966E+02  0.49000994486E+02  0.00000000000E+00 0.  1.
         11    1    1    2    0    0  0.83809596239E+02  0.19712472474E+02  0.36901581334E+02  0.93671536220E+02  0.00000000000E+00 0. -1.
</event>
<event>
 7    1  0.2612321E-009  0.1161379E+03  0.7561462E-02  0.1249608E+00
          2   -1    0    0  501    0  0.00000000000E+00  0.00000000000E+00  0.13562297224E+04  0.13562297224E+04  0.00000000000E+00 0. -1.
         -2   -1    0    0    0  501 -0.00000000000E+00 -0.00000000000E+00 -0.11433095861E+02  0.11433095861E+02  0.00000000000E+00 0.  1.
         25    2    1    2    0    0 -0.56148942353E+02  0.49000170367E+01  0.86865561715E+03  0.87942265139E+03  0.12507959337E+03 0.  0.
          5    1    3    3  502    0 -0.49343615640E+02  0.58240988790E+02  0.63700723029E+03  0.64157812386E+03  0.41800000000E+01 0. -1.
         -5    1    3    3    0  502 -0.68053267128E+01 -0.53340971753E+02  0.23164838687E+03  0.23784452753E+03  0.41800000000E+01 0. -1.
        -11    1    1    2    0    0  0.74175353302E+02  0.14316370216E+02  0.41250189154E+03  0.41936231592E+03  0.00000000000E+00 0. -1.
         11    1    1    2    0    0 -0.18026410949E+02 -0.19216387253E+02  0.63639117895E+02  0.68877850991E+02  0.00000000000E+00 0.  1.
</event>
<event>
 7    1  0.2612321E-009  0.7267793E+02  0.7561462E-02  0.1351216E+00
          1   -1    0    0  501    0  0.00000000000E+00  0.00000000000E+00  0.30184060502E+03  0.30184060502E+03  0.00000000000E+00 0. -1.
         -1   -1    0    0    0  501 -0.00000000000E+00 -0.00000000000E+00 -0.49355663925E+02  0.49355663925E+02  0.00000000000E+00 0.  1.
         25    2    1    2    0    0  0.42784352604E+02  0.51918258454E+01  0.20213863240E+03  0.24158836266E+03  0.12508978529E+03 0.  0.
          5    1    3    3  502    0  0.90331201169E+01 -0.84604566659E+01 -0.15850705581E+02  0.20540054855E+02  0.41800000000E+01 0. -1.
         -5    1    3    3    0  502  0.33751232487E+02  0.13652282511E+02  0.21798933798E+03  0.22104830781E+03  0.41800000000E+01 0. -1.
        -11    1    1    2    0    0 -0.17141154004E+02 -0.45078239318E+02  0.35620222657E+02  0.59955542553E+02  0.00000000000E+00 0.  1.
         11    1    1    2    0    0 -0.25643198600E+02  0.39886413473E+02  0.14726086044E+02  0.49652363734E+02  0.00000000000E+00 0. -1.
</event>
<event>
 7    1  0.2612321E-009  0.1037497E+03  0.7561462E-02  0.1272603E+00
         -1   -1    0    0    0  501 -0.00000000000E+00  0.00000000000E+00  0.48507525922E+02  0.48507525922E+02  0.00000000000E+00 0. -1.
          1   -1    0    0  501    0  0.00000000000E+00 -0.00000000000E+00 -0.25169491515E+03  0.25169491515E+03  0.00000000000E+00 0.  1.
         25    2    1    2    0    0 -0.12714725606E+02  0.17041535154E+02 -0.11394762035E+03  0.17053376754E+03  0.12508248287E+03 0.  0.
          5    1    3    3  502    0 -0.45327464278E+00  0.71122549183E+02 -0.65462984090E+02  0.96754830092E+02  0.41800000000E+01 0.  1.
         -5    1    3    3    0  502 -0.12261450963E+02 -0.54081014029E+02 -0.48484636263E+02  0.73778937453E+02  0.41800000000E+01 0.  1.
        -11    1    1    2    0    0 -0.23176740665E+02  0.18856746653E+02 -0.68684388840E+02  0.74901825562E+02  0.00000000000E+00 0.  1.
         11    1    1    2    0    0  0.35891466271E+02 -0.35898281807E+02 -0.20555380036E+02  0.54766847966E+02  0.00000000000E+00 0. -1.
</event>
<event>
 7    1  0.2612321E-009  0.2356716E+03  0.7561462E-02  0.1122710E+00
         -2   -1    0    0    0  501 -0.00000000000E+00  0.00000000000E+00  0.17308275015E+03  0.17308275015E+03  0.00000000000E+00 0. -1.
          2   -1    0    0  501    0  0.00000000000E+00 -0.00000000000E+00 -0.61551284960E+03  0.61551284960E+03  0.00000000000E+00 0.  1.
         25    2    1    2    0    0  0.20349997469E+03  0.10254279612E+03  0.25134390140E+02  0.26116336623E+03  0.12508917443E+03 0.  0.
          5    1    3    3  502    0  0.23758376931E+02  0.37111041480E+02 -0.39387977256E+02  0.59250105709E+02  0.41800000000E+01 0. -1.
         -5    1    3    3    0  502  0.17974159776E+03  0.65431754635E+02  0.64522367397E+02  0.20191326052E+03  0.41800000000E+01 0. -1.
        -11    1    1    2    0    0 -0.13038516406E+03 -0.96846848959E+02 -0.37973293376E+03  0.41300932694E+03  0.00000000000E+00 0.  1.
         11    1    1    2    0    0 -0.73114810636E+02 -0.56959471568E+01 -0.87831555831E+02  0.11442290657E+03  0.00000000000E+00 0. -1.
</event>
<event>
 7    1  0.2612321E-009  0.1215780E+03  0.7561462E-02  0.1240516E+00
          1   -1    0    0  501    0  0.00000000000E+00  0.00000000000E+00  0.13070479328E+03  0.13070479328E+03  0.00000000000E+00 0. -1.
         -1   -1    0    0    0  501 -0.00000000000E+00 -0.00000000000E+00 -0.44401648217E+03  0.44401648217E+03  0.00000000000E+00 0.  1.
         25    2    1    2    0    0  0.86882298291E+02 -0.51056698592E+02 -0.38772249355E+03  0.41967976869E+03  0.12508819296E+03 0.  0.
          5    1    3    3  502    0  0.76049620983E+02 -0.55991689556E+02 -0.12532484797E+03  0.15697899245E+03  0.41800000000E+01 0.  1.
         -5    1    3    3    0  502  0.10832677308E+02  0.49349909638E+01 -0.26239764558E+03  0.26270077624E+03  0.41800000000E+01 0.  1.
        -11    1    1    2    0    0 -0.39291678876E+02 -0.24796764312E+02  0.26281790458E+02  0.53380221608E+02  0.00000000000E+00 0.  1.
         11    1    1    2    0    0 -0.47590619415E+02  0.75853462904E+02  0.48129014203E+02  0.10166128515E+03  0.00000000000E+00 0. -1.
</event>
<event>
 7    1  0.2612321E-009  0.8871686E+02  0.7561462E-02  0.1305989E+00
          1   -1    0    0  501    0  0.00000000000E+00  0.00000000000E+00  0.11075748368E+03  0.11075748368E+03  0.00000000000E+00 0. -1.
         -1   -1    0    0    0  501 -0.00000000000E+00 -0.00000000000E+00 -0.15358036343E+03  0.15358036343E+03  0.00000000000E+00 0.  1.
         25    2    1    2    0    0  0.35317869205E+01 -0.65093169004E+02  0.89304046395E+01  0.14133778901E+03  0.12508806620E+03 0.  0.
          5    1    3    3  502    0  0.27948489226E+02 -0.69397239099E+02 -0.41014597611E+02  0.85421100799E+02  0.41800000000E+01 0.  1.
         -5    1    3    3    0  502 -0.24416702306E+02  0.43040700951E+01  0.49945002251E+02  0.55916688213E+02  0.41800000000E+01 0.  1.
        -11    1    1    2    0    0  0.16818854795E+02  0.12464958341E+02  0.21847814493E+02  0.30258487424E+02  0.00000000000E+00 0. -1.
         11    1    1    2    0    0 -0.20350641715E+02  0.52628210663E+02 -0.73601098876E+02  0.92741570676E+02  0.00000000000E+00 0.  1.
</event>
<event>
 7    1  0.2612321E-009  0.1698674E+03  0.7561462E-02  0.1177986E+00
          1   -1    0    0  501    0  0.00000000000E+00  0.00000000000E+00  0.97387838743E+03  0.97387838743E+03  0.00000000000E+00 0. -1.
         -1   -1    0    0    0  501 -0.00000000000E+00 -0.00000000000E+00 -0.33903006781E+02  0.33903006781E+02  0.00000000000E+00 0.  1.
         25    2    1    2    0    0 -0.19982229655E+02  0.13099999862E+03  0.65475485973E+03  0.67964206004E+03  0.12509641998E+03 0.  0.
          5    1    3    3  502    0 -0.68682715733E+02  0.99405831130E+02  0.37914002634E+03  0.39794907548E+03  0.41800000000E+01 0.  1.
         -5    1    3    3    0  502  0.48700486079E+02  0.31594167493E+02  0.27561483339E+03  0.28169298455E+03  0.41800000000E+01 0.  1.
        -11    1    1    2    0    0 -0.32804047659E+02 -0.83159446029E+02  0.13547556066E+03  0.16231212691E+03  0.00000000000E+00 0.  1.
         11    1    1    2    0    0  0.52786277313E+02 -0.47840552594E+02  0.14974496026E+03  0.16582720726E+03  0.00000000000E+00 0. -1.
</event>
<event>
 7    1  0.2612321E-009  0.1567803E+03  0.7561462E-02  0.1192380E+00
          2   -1    0    0  501    0  0.00000000000E+00  0.00000000000E+00  0.50767975501E+02  0.50767975501E+02  0.00000000000E+00 0. -1.
         -2   -1    0    0    0  501 -0.00000000000E+00 -0.00000000000E+00 -0.58010227970E+03  0.58010227970E+03  0.00000000000E+00 0.  1.
         25    2    1    2    0    0 -0.37077614627E+02 -0.11939331005E+03 -0.35657252873E+03  0.39801919643E+03  0.12508317431E+03 0.  0.
          5    1    3    3  502    0  0.20506849245E+02 -0.11362852974E+03 -0.27129954756E+03  0.29487775525E+03  0.41800000000E+01 0. -1.
         -5    1    3    3    0  502 -0.57584463873E+02 -0.57647803130E+01 -0.85272981169E+02  0.10314144118E+03  0.41800000000E+01 0. -1.
        -11    1    1    2    0    0 -0.17171648683E+02  0.42999531115E+02 -0.11195828865E+03  0.12115479187E+03  0.00000000000E+00 0.  1.
         11    1    1    2    0    0  0.54249263311E+02  0.76393778938E+02 -0.60803486819E+02  0.11169626690E+03  0.00000000000E+00 0. -1.
</event>
<event>
 7    1  0.3726122E-009  0.2722355E+03  0.7561462E-02  0.1100007E+00
          1   -1    0    0  501    0  0.00000000000E+00  0.00000000000E+00  0.78626317688E+03  0.78626317688E+03  0.00000000000E+00 0. -1.
         -1   -1    0    0    0  501 -0.00000000000E+00 -0.00000000000E+00 -0.10733328420E+03  0.10733328420E+03  0.00000000000E+00 0.  1.
         25    2    1    2    0    0  0.17183285680E+03 -0.20242881293E+03  0.27926467103E+03  0.40514126855E+03  0.12508691384E+03 0.  0.
          5    1    3    3  502    0  0.40764594405E+02 -0.97371986342E+02  0.40416024145E+02  0.11311049151E+03  0.41800000000E+01 0. -1.
         -5    1    3    3    0  502  0.13106826239E+03 -0.10505682659E+03  0.23884864689E+03  0.29203077704E+03  0.41800000000E+01 0. -1.
        -11    1    1    2    0    0 -0.10765227356E+03  0.16342970238E+03  0.22421953009E+03  0.29761162157E+03  0.00000000000E+00 0.  1.
         11    1    1    2    0    0 -0.64180583241E+02  0.38999110550E+02  0.17544569156E+03  0.19084357096E+03  0.00000000000E+00 0. -1.
</event>
<event>
 7    1  0.2612321E-009  0.1735779E+03  0.7561462E-02  0.1174167E+00
         -1   -1    0    0    0  501 -0.00000000000E+00  0.00000000000E+00  0.31339603885E+02  0.31339603885E+02  0.00000000000E+00 0.  1.
          1   -1    0    0  501    0  0.00000000000E+00 -0.00000000000E+00 -0.11463168990E+04  0.11463168990E+04  0.00000000000E+00 0. -1.
         25    2    1    2    0    0  0.19355694131E+02  0.15286965634E+03 -0.63127954737E+03  0.66174326303E+03  0.12508598850E+03 0.  0.
          5    1    3    3  502    0 -0.31254051573E+02  0.61066071100E+02 -0.42285173070E+03  0.42840044274E+03  0.41800000000E+01 0. -1.
         -5    1    3    3    0  502  0.50609745703E+02  0.91803585239E+02 -0.20842781666E+03  0.23334282029E+03  0.41800000000E+01 0. -1.
        -11    1    1    2    0    0 -0.50623971944E+02 -0.88567638830E+02 -0.21677384373E+03  0.23957861447E+03  0.00000000000E+00 0.  1.
         11    1    1    2    0    0  0.31268277813E+02 -0.64302017510E+02 -0.26692390399E+03  0.27633462536E+03  0.00000000000E+00 0. -1.
</event>
<event>
 7    1  0.2612321E-009  0.2055556E+03  0.7561462E-02  0.1145135E+00
          1   -1    0    0  501    0  0.00000000000E+00  0.00000000000E+00  0.15448607414E+04  0.15448607414E+04  0.00000000000E+00 0. -1.
         -1   -1    0    0    0  501 -0.00000000000E+00 -0.00000000000E+00 -0.30430053735E+02  0.30430053735E+02  0.00000000000E+00 0.  1.
         25    2    1    2    0    0  0.17158779210E+03  0.64501484126E+02  0.10367157306E+04  0.10602023016E+04  0.12508637981E+03 0.  0.
          5    1    3    3  502    0  0.16645822252E+03  0.12251622637E+02  0.71739467479E+03  0.73656706003E+03  0.41800000000E+01 0.  1.
         -5    1    3    3    0  502  0.51295695751E+01  0.52249861489E+02  0.31932105585E+03  0.32363524162E+03  0.41800000000E+01 0.  1.
        -11    1    1    2    0    0 -0.15399769659E+02 -0.26641370296E+02  0.58012561162E+02  0.65668658958E+02  0.00000000000E+00 0. -1.
         11    1    1    2    0    0 -0.15618802244E+03 -0.37860113831E+02  0.41970239584E+03  0.44941983451E+03  0.00000000000E+00 0.  1.
</event>
<event>
 7    1  0.2612321E-009  0.9913423E+02  0.7561462E-02  0.1282127E+00
         -1   -1    0    0    0  501 -0.00000000000E+00  0.00000000000E+00  0.18303745658E+02  0.18303745658E+02  0.00000000000E+00 0.  1.
          1   -1    0    0  501    0  0.00000000000E+00 -0.00000000000E+00 -0.83261556943E+03  0.83261556943E+03  0.00000000000E+00 0. -1.
         25    2    1    2    0    0  0.27437135851E+02 -0.50303679837E+02 -0.40617036084E+03  0.42884135162E+03  0.12508911307E+03 0.  0.
          5    1    3    3  502    0 -0.32569351584E+02 -0.11916841228E+02 -0.30252821319E+02  0.46211247172E+02  0.41800000000E+01 0.  1.
         -5    1    3    3    0  502  0.60006487435E+02 -0.38386838609E+02 -0.37591753952E+03  0.38263010445E+03  0.41800000000E+01 0.  1.
        -11    1    1    2    0    0 -0.41627057337E+02  0.61251146200E+02 -0.38847174832E+03  0.39546784200E+03  0.00000000000E+00 0. -1.
         11    1    1    2    0    0  0.14189921486E+02 -0.10947466363E+02 -0.19669714620E+02  0.26610121473E+02  0.00000000000E+00 0.  1.
</event>
<event>
 7    1  0.2612321E-009  0.1165979E+03  0.7561462E-02  0.1248817E+00
          2   -1    0    0  501    0  0.00000000000E+00  0.00000000000E+00  0.78280966984E+03  0.78280966984E+03  0.00000000000E+00 0. -1.
         -2   -1    0    0    0  501 -0.00000000000E+00 -0.00000000000E+00 -0.18315320022E+02  0.18315320022E+02  0.00000000000E+00 0.  1.
         25    2    1    2    0    0 -0.47481474761E+02  0.12071838016E+02  0.41053088551E+03  0.43195305578E+03  0.12509042619E+03 0.  0.
          5    1    3    3  502    0 -0.58525144235E+02 -0.46299664345E+02  0.23411570212E+03  0.24575696492E+03  0.41800000000E+01 0.  1.
         -5    1    3    3    0  502  0.11043669474E+02  0.58371502361E+02  0.17641518338E+03  0.18619609086E+03  0.41800000000E+01 0.  1.
        -11    1    1    2    0    0 -0.19110862834E+02 -0.24588311896E+02  0.17623227819E+03  0.17896263866E+03  0.00000000000E+00 0. -1.
         11    1    1    2    0    0  0.66592337595E+02  0.12516473880E+02  0.17773118613E+03  0.19020929543E+03  0.00000000000E+00 0.  1.
</event>
<event>
 7    1  0.2612321E-009  0.1146355E+03  0.7561462E-02  0.1252219E+00
          1   -1    0    0  501    0  0.00000000000E+00  0.00000000000E+00  0.75845651199E+02  0.75845651199E+02  0.00000000000E+00 0. -1.
         -1   -1    0    0    0  501 -0.00000000000E+00 -0.00000000000E+00 -0.26548921449E+03  0.26548921449E+03  0.00000000000E+00 0.  1.
         25    2    1    2    0    0 -0.12222423244E+02 -0.72776846768E+02 -0.40996384965E+02  0.15090867504E+03  0.12508743968E+03 0.  0.
          5    1    3    3  502    0  0.42702193308E+02 -0.43680986860E+02 -0.60053094612E+02  0.85763351723E+02  0.41800000000E+01 0.  1.
         -5    1    3    3    0  502 -0.54924616552E+02 -0.29095859908E+02  0.19056709647E+02  0.65145323314E+02  0.41800000000E+01 0. -1.
        -11    1    1    2    0    0 -0.31350251399E+02  0.19498206206E+02 -0.14522493834E+02  0.39672674918E+02  0.00000000000E+00 0. -1.
         11    1    1    2    0    0  0.43572674643E+02  0.53278640562E+02 -0.13412468449E+03  0.15075351573E+03  0.00000000000E+00 0.  1.
</event>
<event>
 7    1  0.2612321E-009  0.1390682E+03  0.7561462E-02  0.1214588E+00
         -1   -1    0    0    0  501 -0.00000000000E+00  0.00000000000E+00  0.73532691649E+02  0.73532691649E+02  0.00000000000E+00 0.  1.
          1   -1    0    0  501    0  0.00000000000E+00 -0.00000000000E+00 -0.33210754826E+03  0.33210754826E+03  0.00000000000E+00 0. -1.
         25    2    1    2    0    0 -0.99546712157E+02 -0.47842113024E+02 -0.16143753243E+03  0.23217769876E+03  0.12508393680E+03 0.  0.
          5    1    3    3  502    0  0.10972529691E+02 -0.52610030253E+02 -0.71525300319E+02  0.89563121187E+02  0.41800000000E+01 0. -1.
         -5    1    3    3    0  502 -0.11051924185E+03  0.47679172289E+01 -0.89912232116E+02  0.14261457758E+03  0.41800000000E+01 0. -1.
        -11    1    1    2    0    0  0.76355949740E+02  0.48274122640E+02 -0.19476437607E+02  0.92411869363E+02  0.00000000000E+00 0.  1.
         11    1    1    2    0    0  0.23190762417E+02 -0.43200961590E+00 -0.77660886571E+02  0.81050671785E+02  0.00000000000E+00 0. -1.
</event>
<event>
 7    1  0.2612321E-009  0.9593461E+02  0.7561462E-02  0.1289085E+00
          3   -1    0    0  501    0  0.00000000000E+00  0.00000000000E+00  0.21660833755E+03  0.21660833755E+03  0.00000000000E+00 0. -1.
         -3   -1    0    0    0  501 -0.00000000000E+00 -0.00000000000E+00 -0.56167810281E+02  0.56167810281E+02  0.00000000000E+00 0.  1.
         25    2    1    2    0    0 -0.27799279261E+01 -0.75361051576E+01  0.99349779158E+02  0.15994589039E+03  0.12509112020E+03 0.  0.
          5    1    3    3  502    0  0.52496453574E+02  0.56404916404E+01  0.86672298011E+02  0.10157387669E+03  0.41800000000E+01 0.  1.
         -5    1    3    3    0  502 -0.55276381500E+02 -0.13176596798E+02  0.12677481147E+02  0.58372013698E+02  0.41800000000E+01 0.  1.
        -11    1    1    2    0    0  0.41685948524E+02  0.10245193250E+02  0.60051195548E+02  0.73816179635E+02  0.00000000000E+00 0. -1.
         11    1    1    2    0    0 -0.38906020598E+02 -0.27090880927E+01  0.10395525580E+01  0.39014077800E+02  0.00000000000E+00 0.  1.
</event>
<event>
 7    1  0.2612321E-009  0.1386256E+03  0.7561462E-02  0.1215190E+00
         -1   -1    0    0    0  501 -0.00000000000E+00  0.00000000000E+00  0.52970418544E+02  0.52970418544E+02  0.00000000000E+00 0.  1.
          1   -1    0    0  501    0  0.00000000000E+00 -0.00000000000E+00 -0.53586286887E+03  0.53586286887E+03  0.00000000000E+00 0. -1.
         25    2    1    2    0    0 -0.65314036206E+02  0.86410812501E+02 -0.38878756685E+03  0.42253486983E+03  0.12508873749E+03 0.  0.
          5    1    3    3  502    0 -0.51694973775E+02 -0.16271693681E+02 -0.19888903254E+03  0.20618306912E+03  0.41800000000E+01 0.  1.
         -5    1    3    3    0  502 -0.13619062431E+02  0.10268250618E+03 -0.18989853431E+03  0.21635180071E+03  0.41800000000E+01 0.  1.
        -11    1    1    2    0    0 -0.83865763471E+01 -0.74618774053E+01  0.10912265404E+02  0.15655408442E+02  0.00000000000E+00 0.  1.
         11    1    1    2    0    0  0.73700612553E+02 -0.78948935096E+02 -0.10501714889E+03  0.15064300915E+03  0.00000000000E+00 0. -1.
</event>
<event>
 7    1  0.2612321E-009  0.1944089E+03  0.7561462E-02  0.1154544E+00
          2   -1    0    0  501    0  0.00000000000E+00  0.00000000000E+00  0.35116141394E+03  0.35116141394E+03  0.00000000000E+00 0. -1.
         -2   -1    0    0    0  501 -0.00000000000E+00 -0.00000000000E+00 -0.11249928925E+03  0.11249928925E+03  0.00000000000E+00 0.  1.
         25    2    1    2    0    0 -0.12985216887E+03 -0.10387511873E+03  0.12776059306E+03  0.24416920575E+03  0.12507679981E+03 0.  0.
          5    1    3    3  502    0 -0.14012936979E+03 -0.54442743731E+02  0.65862633034E+02  0.16418164165E+03  0.41800000000E+01 0.  1.
         -5    1    3    3    0  502  0.10277200925E+02 -0.49432375000E+02  0.61897960022E+02  0.79987564108E+02  0.41800000000E+01 0.  1.
        -11    1    1    2    0    0  0.40379351244E+01  0.51214270274E+02  0.17864471657E+02  0.54390677026E+02  0.00000000000E+00 0.  1.
         11    1    1    2    0    0  0.12581423374E+03  0.52660848457E+02  0.93037059972E+02  0.16510082041E+03  0.00000000000E+00 0. -1.
</event>
<event>
 7    1  0.2612321E-009  0.1312033E+03  0.7561462E-02  0.1225681E+00
          2   -1    0    0  501    0  0.00000000000E+00  0.00000000000E+00  0.37774753038E+03  0.37774753038E+03  0.00000000000E+00 0. -1.
         -2   -1    0    0    0  501 -0.00000000000E+00 -0.00000000000E+00 -0.85868325744E+02  0.85868325744E+02  0.00000000000E+00 0.  1.
         25    2    1    2    0    0 -0.16390819159E+02  0.11234301709E+03  0.42037750357E+02  0.17408539065E+03  0.12509571672E+03 0.  0.
          5    1    3    3  502    0 -0.17030563692E+02  0.25777343930E+02 -0.42703017419E+02  0.52872787485E+02  0.41800000000E+01 0. -1.
         -5    1    3    3    0  502  0.63974453335E+00  0.86565673160E+02  0.84740767776E+02  0.12121260316E+03  0.41800000000E+01 0. -1.
        -11    1    1    2    0    0  0.53436917268E+02 -0.58832759168E+02  0.11484479718E+03  0.13966433015E+03  0.00000000000E+00 0.  1.
         11    1    1    2    0    0 -0.37046098109E+02 -0.53510257922E+02  0.13499665711E+03  0.14986613533E+03  0.00000000000E+00 0. -1.
</event>
<event>
 7    1  0.2612321E-009  0.1008389E+03  0.7561462E-02  0.1278542E+00
         -1   -1    0    0    0  501 -0.00000000000E+00  0.00000000000E+00  0.30340655770E+02  0.30340655770E+02  0.00000000000E+00 0.  1.
          1   -1    0    0  501    0  0.00000000000E+00 -0.00000000000E+00 -0.60107348189E+03  0.60107348189E+03  0.00000000000E+00 0. -1.
         25    2    1    2    0    0 -0.43700025974E+01 -0.31054630495E+02 -0.48738580822E+03  0.50415821943E+03  0.12508835746E+03 0.  0.
          5    1    3    3  502    0  0.14457189018E+02 -0.66720788591E+02 -0.15644783807E+03  0.17074563649E+03  0.41800000000E+01 0.  1.
         -5    1    3    3    0  502 -0.18827191615E+02  0.35666158097E+02 -0.33093797015E+03  0.33341258294E+03  0.41800000000E+01 0.  1.
        -11    1    1    2    0    0  0.27284153036E+02  0.53878352992E+02 -0.69502888998E+02  0.92075803049E+02  0.00000000000E+00 0. -1.
         11    1    1    2    0    0 -0.22914150439E+02 -0.22823722498E+02 -0.13844128908E+02  0.35180115182E+02  0.00000000000E+00 0.  1.
</event>
<event>
 7    1  0.2612321E-009  0.1048249E+03  0.7561462E-02  0.1270465E+00
          2   -1    0    0  501    0  0.00000000000E+00  0.00000000000E+00  0.67529204596E+03  0.67529204596E+03  0.00000000000E+00 0.  1.
         -2   -1    0    0    0  501 -0.00000000000E+00 -0.00000000000E+00 -0.26913748507E+02  0.26913748507E+02  0.00000000000E+00 0. -1.
         25    2    1    2    0    0 -0.67683072398E+02 -0.40816361063E+02  0.31528426852E+03  0.34827829896E+03  0.12508648981E+03 0.  0.
          5    1    3    3  502    0 -0.34799612761E+02 -0.50584978162E+02  0.30650617605E+03  0.31262335393E+03  0.41800000000E+01 0. -1.
         -5    1    3    3    0  502 -0.32883459637E+02  0.97686170991E+01  0.87780924624E+01  0.35654945029E+02  0.41800000000E+01 0. -1.
        -11    1    1    2    0    0  0.46753065036E+02 -0.18781821429E+02  0.20506301021E+03  0.21116212744E+03  0.00000000000E+00 0.  1.
         11    1    1    2    0    0  0.20930007361E+02  0.59598182492E+02  0.12803101872E+03  0.14276536807E+03  0.00000000000E+00 0. -1.
</event>
<event>
 7    1  0.2612321E-009  0.1079815E+03  0.7561462E-02  0.1264354E+00
         -2   -1    0    0    0  501 -0.00000000000E+00  0.00000000000E+00  0.24905201045E+03  0.24905201045E+03  0.00000000000E+00 0.  1.
          2   -1    0    0  501    0  0.00000000000E+00 -0.00000000000E+00 -0.54871850481E+02  0.54871850481E+02  0.00000000000E+00 0. -1.
         25    2    1    2    0    0 -0.26430518656E+02  0.16060203571E+02  0.14023161985E+03  0.19042487590E+03  0.12506087998E+03 0.  0.
          5    1    3    3  502    0  0.21802315362E+02  0.59644649747E+02  0.71796607708E+02  0.95942954286E+02  0.41800000000E+01 0.  1.
         -5    1    3    3    0  502 -0.48232834018E+02 -0.43584446177E+02  0.68435012139E+02  0.94481921617E+02  0.41800000000E+01 0.  1.
        -11    1    1    2    0    0  0.12393223061E+02 -0.49438966495E+02  0.57825480136E+02  0.77081706902E+02  0.00000000000E+00 0.  1.
         11    1    1    2    0    0  0.14037295595E+02  0.33378762925E+02 -0.38769400171E+01  0.36417278123E+02  0.00000000000E+00 0. -1.
</event>
<event>
 7    1  0.2612321E-009  0.9876316E+02  0.7561462E-02  0.1282919E+00
         -2   -1    0    0    0  501 -0.00000000000E+00  0.00000000000E+00  0.61224083853E+02  0.61224083853E+02  0.00000000000E+00 0.  1.
          2   -1    0    0  501    0  0.00000000000E+00 -0.00000000000E+00 -0.21949535433E+03  0.21949535433E+03  0.00000000000E+00 0. -1.
         25    2    1    2    0    0  0.39252450679E+02  0.59962401138E+01 -0.11118708420E+03  0.17200836335E+03  0.12509036569E+03 0.  0.
          5    1    3    3  502    0  0.73656710048E+02  0.27841321499E+02 -0.36650115428E+02  0.86954893357E+02  0.41800000000E+01 0. -1.
         -5    1    3    3    0  502 -0.34404259369E+02 -0.21845081385E+02 -0.74536968771E+02  0.85053469988E+02  0.41800000000E+01 0. -1.
        -11    1    1    2    0    0 -0.54676938432E+02  0.98882368997E+01 -0.61037149976E+02  0.82540162966E+02  0.00000000000E+00 0. -1.
         11    1    1    2    0    0  0.15424487753E+02 -0.15884477014E+02  0.13952963696E+02  0.26170911874E+02  0.00000000000E+00 0.  1.
</event>
<event>
 7    1  0.2612321E-009  0.1314040E+03  0.7561462E-02  0.1225387E+00
          2   -1    0    0  501    0  0.00000000000E+00  0.00000000000E+00  0.81798695317E+03  0.81798695317E+03  0.00000000000E+00 0. -1.
         -2   -1    0    0    0  501 -0.00000000000E+00 -0.00000000000E+00 -0.24555663521E+02  0.24555663521E+02  0.00000000000E+00 0.  1.
         25    2    1    2    0    0  0.27873885856E+01 -0.86755347498E+02  0.34851286649E+03  0.38031903423E+03  0.12508832815E+03 0.  0.
          5    1    3    3  502    0 -0.16306714343E+02 -0.11256017096E+03  0.21883399443E+03  0.24666067894E+03  0.41800000000E+01 0.  1.
         -5    1    3    3    0  502  0.19094102929E+02  0.25804823461E+02  0.12967887206E+03  0.13365835529E+03  0.41800000000E+01 0.  1.
        -11    1    1    2    0    0  0.26272439944E+02  0.12351749790E+01  0.44042867421E+02  0.51298547041E+02  0.00000000000E+00 0.  1.
         11    1    1    2    0    0 -0.29059828530E+02  0.85520172519E+02  0.40087555574E+03  0.41092503542E+03  0.00000000000E+00 0. -1.
</event>
<event>
 7    1  0.2612321E-009  0.2034207E+03  0.7561462E-02  0.1146885E+00
         -2   -1    0    0    0  501 -0.00000000000E+00  0.00000000000E+00  0.39774667260E+03  0.39774667260E+03  0.00000000000E+00 0.  1.
          2   -1    0    0  501    0  0.00000000000E+00 -0.00000000000E+00 -0.11593351696E+03  0.11593351696E+03  0.00000000000E+00 0. -1.
         25    2    1    2    0    0  0.87586983324E+02 -0.16409215404E+03  0.12256664225E+03  0.25547560116E+03  0.12508991299E+03 0.  0.
          5    1    3    3  502    0  0.54427911500E+02 -0.13114471262E+01  0.12088103278E+02  0.55925951799E+02  0.41800000000E+01 0. -1.
         -5    1    3    3    0  502  0.33159071824E+02 -0.16278070691E+03  0.11047853898E+03  0.19954964936E+03  0.41800000000E+01 0. -1.
        -11    1    1    2    0    0 -0.33852219530E+02  0.58732390963E+02  0.11185060859E+03  0.13079000404E+03  0.00000000000E+00 0.  1.
         11    1    1    2    0    0 -0.53734763794E+02  0.10535976307E+03  0.47395904805E+02  0.12741458436E+03  0.00000000000E+00 0. -1.
</event>
<event>
 7    1  0.2612321E-009  0.1379405E+03  0.7561462E-02  0.1216127E+00
          4   -1    0    0  501    0  0.00000000000E+00  0.00000000000E+00  0.54902397600E+03  0.54902397600E+03  0.00000000000E+00 0. -1.
         -4   -1    0    0    0  501 -0.00000000000E+00 -0.00000000000E+00 -0.39455256927E+02  0.39455256927E+02  0.00000000000E+00 0.  1.
         25    2    1    2    0    0  0.93556208152E+01 -0.98168301901E+02  0.24887720923E+03  0.29548740830E+03  0.12509356518E+03 0.  0.
          5    1    3    3  502    0 -0.53381206074E+02 -0.35845120641E+02  0.65621394720E+02  0.91967742609E+02  0.41800000000E+01 0. -1.
         -5    1    3    3    0  502  0.62736826889E+02 -0.62323181260E+02  0.18325581451E+03  0.20351966569E+03  0.41800000000E+01 0. -1.
        -11    1    1    2    0    0  0.31971771296E+02  0.34752822729E+02  0.48447749020E+02  0.67654543325E+02  0.00000000000E+00 0.  1.
         11    1    1    2    0    0 -0.41327392111E+02  0.63415479172E+02  0.21224376082E+03  0.22533728130E+03  0.00000000000E+00 0. -1.
</event>
<event>
 7    1  0.2613735E-009  0.1354578E+03  0.7561462E-02  0.1219575E+00
          1   -1    0    0  501    0  0.00000000000E+00  0.00000000000E+00  0.86577410787E+03  0.86577410787E+03  0.00000000000E+00 0. -1.
         -1   -1    0    0    0  501 -0.00000000000E+00 -0.00000000000E+00 -0.31163619032E+02  0.31163619032E+02  0.00000000000E+00 0.  1.
         25    2    1    2    0    0 -0.30003996151E+02 -0.11638416120E+03  0.51598304065E+03  0.54436310157E+03  0.12508866997E+03 0.  0.
          5    1    3    3  502    0 -0.56165814003E+02 -0.39712960273E+02  0.10600449527E+03  0.12643632110E+03  0.41800000000E+01 0. -1.
         -5    1    3    3    0  502  0.26161817853E+02 -0.76671200922E+02  0.40997854538E+03  0.41792678047E+03  0.41800000000E+01 0. -1.
        -11    1    1    2    0    0  0.12283926713E+02  0.25730962679E+02  0.96746868988E+01  0.30109414848E+02  0.00000000000E+00 0.  1.
         11    1    1    2    0    0  0.17720069437E+02  0.90653198516E+02  0.30895276129E+03  0.32246521049E+03  0.00000000000E+00 0. -1.
</event>
<event>
 7    1  0.2612321E-009  0.1013762E+03  0.7561462E-02  0.1277428E+00
         -2   -1    0    0    0  501 -0.00000000000E+00  0.00000000000E+00  0.16419824209E+02  0.16419824209E+02  0.00000000000E+00 0.  1.
          2   -1    0    0  501    0  0.00000000000E+00 -0.00000000000E+00 -0.10503696703E+04  0.10503696703E+04  0.00000000000E+00 0. -1.
         25    2    1    2    0    0 -0.56142737720E+02 -0.35343613753E+02 -0.70834729352E+03  0.72236056056E+03  0.12509081976E+03 0.  0.
          5    1    3    3  502    0 -0.52204380656E+02 -0.58376652341E+02 -0.68354366403E+03  0.68802801100E+03  0.41800000000E+01 0. -1.
         -5    1    3    3    0  502 -0.39383570639E+01  0.23033038589E+02 -0.24803629492E+02  0.34332549555E+02  0.41800000000E+01 0. -1.
        -11    1    1    2    0    0  0.28282641381E+02  0.58098245236E+02 -0.12591227550E+03  0.14152460925E+03  0.00000000000E+00 0.  1.
         11    1    1    2    0    0  0.27860096338E+02 -0.22754631484E+02 -0.19969027706E+03  0.20290432468E+03  0.00000000000E+00 0. -1.
</event>
<event>
 7    1  0.2612321E-009  0.1380729E+03  0.7561462E-02  0.1215946E+00
          1   -1    0    0  501    0  0.00000000000E+00  0.00000000000E+00  0.29557592487E+02  0.29557592487E+02  0.00000000000E+00 0. -1.
         -1   -1    0    0    0  501 -0.00000000000E+00 -0.00000000000E+00 -0.74788698107E+03  0.74788698107E+03  0.00000000000E+00 0.  1.
         25    2    1    2    0    0 -0.89403143237E+02 -0.70447153448E+01 -0.26970899518E+03  0.31053674339E+03  0.12509027492E+03 0.  0.
          5    1    3    3  502    0 -0.11105836511E+03 -0.30273176048E+02 -0.24266703465E+03  0.26861717695E+03  0.41800000000E+01 0.  1.
         -5    1    3    3    0  502  0.21655221871E+02  0.23228460703E+02 -0.27041960530E+02  0.41919566436E+02  0.41800000000E+01 0.  1.
        -11    1    1    2    0    0  0.34386190198E+02 -0.42653602954E+02 -0.17133138429E+03  0.17987824539E+03  0.00000000000E+00 0.  1.
         11    1    1    2    0    0  0.55016953038E+02  0.49698318298E+02 -0.27728900912E+03  0.28702958478E+03  0.00000000000E+00 0. -1.
</event>
<event>
 7    1  0.2612321E-009  0.1399859E+03  0.7561462E-02  0.1213348E+00
          2   -1    0    0  501    0  0.00000000000E+00  0.00000000000E+00  0.11069600600E+04  0.11069600600E+04  0.00000000000E+00 0.  1.
         -2   -1    0    0    0  501 -0.00000000000E+00 -0.00000000000E+00 -0.41859722587E+02  0.41859722587E+02  0.00000000000E+00 0. -1.
         25    2    1    2    0    0 -0.36715052722E+01  0.12247986557E+03  0.92207689017E+03  0.93855652110E+03  0.12509098485E+03 0.  0.
          5    1    3    3  502    0  0.15507854678E+02  0.40560985877E+02  0.71074701218E+02  0.83395279754E+02  0.41800000000E+01 0.  1.
         -5    1    3    3    0  502 -0.19179359950E+02  0.81918879691E+02  0.85100218895E+03  0.85516124135E+03  0.41800000000E+01 0.  1.
        -11    1    1    2    0    0  0.38686854503E+02 -0.19469694088E+02  0.26174841616E+02  0.50604980316E+02  0.00000000000E+00 0. -1.
         11    1    1    2    0    0 -0.35015349230E+02 -0.10301017148E+03  0.11684860563E+03  0.15965828118E+03  0.00000000000E+00 0.  1.
</event>
<event>
 7    1  0.2612321E-009  0.1110507E+03  0.7561462E-02  0.1258636E+00
         -1   -1    0    0    0  501 -0.00000000000E+00  0.00000000000E+00  0.11493256740E+03  0.11493256740E+03  0.00000000000E+00 0.  1.
          1   -1    0    0  501    0  0.00000000000E+00 -0.00000000000E+00 -0.13069526126E+03  0.13069526126E+03  0.00000000000E+00 0. -1.
         25    2    1    2    0    0  0.33595495438E+02  0.44784428197E+02 -0.20628691910E+02  0.13859716979E+03  0.12509728303E+03 0.  0.
          5    1    3    3  502    0  0.24627907706E+02  0.81913825729E+02 -0.41176587762E+02  0.95023115415E+02  0.41800000000E+01 0.  1.
         -5    1    3    3    0  502  0.89675877319E+01 -0.37129397531E+02  0.20547895852E+02  0.43574054375E+02  0.41800000000E+01 0.  1.
        -11    1    1    2    0    0  0.25372494337E+02 -0.25385811575E+01 -0.17725639816E+02  0.31054889632E+02  0.00000000000E+00 0.  1.
         11    1    1    2    0    0 -0.58967989775E+02 -0.42245847040E+02  0.22591637868E+02  0.75975769241E+02  0.00000000000E+00 0. -1.
</event>
<event>
 7    1  0.2612321E-009  0.9993325E+02  0.7561462E-02  0.1280436E+00
          1   -1    0    0  501    0  0.00000000000E+00  0.00000000000E+00  0.18529895348E+03  0.18529895348E+03  0.00000000000E+00 0. -1.
         -1   -1    0    0    0  501 -0.00000000000E+00 -0.00000000000E+00 -0.10656665018E+03  0.10656665018E+03  0.00000000000E+00 0.  1.
         25    2    1    2    0    0  0.24647584334E+01 -0.45169315929E+02 -0.37186191101E+02  0.13811722770E+03  0.12508882301E+03 0.  0.
          5    1    3    3  502    0 -0.37816602772E+02 -0.50758046291E+02  0.21163047163E+02  0.66871680656E+02  0.41800000000E+01 0. -1.
         -5    1    3    3    0  502  0.40281361206E+02  0.55887303619E+01 -0.58349238264E+02  0.71245547044E+02  0.41800000000E+01 0. -1.
        -11    1    1    2    0    0  0.35957797651E+02 -0.38013057416E+00  0.20907363349E+02  0.41595980014E+02  0.00000000000E+00 0.  1.
         11    1    1    2    0    0 -0.38422556084E+02  0.45549446503E+02  0.95011131047E+02  0.11215239594E+03  0.00000000000E+00 0. -1.
</event>
<event>
 7    1  0.2612321E-009  0.1161973E+03  0.7561462E-02  0.1249505E+00
         -2   -1    0    0    0  501 -0.00000000000E+00  0.00000000000E+00  0.22992509250E+03  0.22992509250E+03  0.00000000000E+00 0.  1.
          2   -1    0    0  501    0  0.00000000000E+00 -0.00000000000E+00 -0.10869849941E+03  0.10869849941E+03  0.00000000000E+00 0. -1.
         25    2    1    2    0    0  0.51699763117E+01 -0.99704716722E+02  0.12629407236E+03  0.20387299760E+03  0.12508496010E+03 0.  0.
          5    1    3    3  502    0 -0.16513787307E+02 -0.98633316607E+02  0.29160012972E+02  0.10425456859E+03  0.41800000000E+01 0. -1.
         -5    1    3    3    0  502  0.21683763619E+02 -0.10714001143E+01  0.97134059391E+02  0.99618429002E+02  0.41800000000E+01 0. -1.
        -11    1    1    2    0    0 -0.23310957584E+02  0.29054297583E+02  0.35354785705E+02  0.51356731047E+02  0.00000000000E+00 0.  1.
         11    1    1    2    0    0  0.18140981273E+02  0.70650419139E+02 -0.40422264978E+02  0.83393863275E+02  0.00000000000E+00 0. -1.
</event>
<event>
 7    1  0.3725139E-009  0.1365594E+03  0.7561462E-02  0.1218035E+00
          1   -1    0    0  501    0  0.00000000000E+00  0.00000000000E+00  0.33454087186E+03  0.33454087186E+03  0.00000000000E+00 0. -1.
         -1   -1    0    0    0  501 -0.00000000000E+00 -0.00000000000E+00 -0.71548856726E+02  0.71548856726E+02  0.00000000000E+00 0.  1.
         25    2    1    2    0    0  0.10335649549E+03  0.84854080081E+01  0.19076581253E+03  0.25058838908E+03  0.12509347785E+03 0.  0.
          5    1    3    3  502    0  0.11084840208E+03 -0.36356957336E+02  0.14104930569E+03  0.18308898281E+03  0.41800000000E+01 0. -1.
         -5    1    3    3    0  502 -0.74919065906E+01  0.44842365344E+02  0.49716506845E+02  0.67499406271E+02  0.41800000000E+01 0. -1.
        -11    1    1    2    0    0 -0.29671071047E+02 -0.20509864051E+02  0.72348215043E+02  0.80841147940E+02  0.00000000000E+00 0. -1.
         11    1    1    2    0    0 -0.73685424440E+02  0.12024456043E+02 -0.12201244108E+00  0.74660191569E+02  0.00000000000E+00 0.  1.
</event>
<event>
 7    1  0.2612321E-009  0.9683696E+02  0.7561462E-02  0.1287092E+00
         -1   -1    0    0    0  501 -0.00000000000E+00  0.00000000000E+00  0.37008393139E+02  0.37008393139E+02  0.00000000000E+00 0.  1.
          1   -1    0    0  501    0  0.00000000000E+00 -0.00000000000E+00 -0.51625093513E+03  0.51625093513E+03  0.00000000000E+00 0. -1.
         25    2    1    2    0    0 -0.39122458911E+02 -0.53209544526E+02 -0.37503709284E+03  0.40082477504E+03  0.12508339964E+03 0.  0.
          5    1    3    3  502    0 -0.22700400325E+02 -0.83825658471E+02 -0.34136063694E+03  0.35225928809E+03  0.41800000000E+01 0. -1.
         -5    1    3    3    0  502 -0.16422058586E+02  0.30616113946E+02 -0.33676455898E+02  0.48565486955E+02  0.41800000000E+01 0. -1.
        -11    1    1    2    0    0  0.12064343612E+02  0.39699417268E+02  0.24595113142E+01  0.41564904837E+02  0.00000000000E+00 0.  1.
         11    1    1    2    0    0  0.27058115300E+02  0.13510127258E+02 -0.10666496047E+03  0.11086964839E+03  0.00000000000E+00 0. -1.
</event>
<event>
 7    1  0.2612321E-009  0.1055741E+03  0.7561462E-02  0.1268993E+00
          1   -1    0    0  501    0  0.00000000000E+00  0.00000000000E+00  0.19246287331E+03  0.19246287331E+03  0.00000000000E+00 0. -1.
         -1   -1    0    0    0  501 -0.00000000000E+00 -0.00000000000E+00 -0.60643989187E+02  0.60643989187E+02  0.00000000000E+00 0.  1.
         25    2    1    2    0    0 -0.86760442757E+01  0.28536518263E+02  0.57283710498E+02  0.14077988668E+03  0.12509175187E+03 0.  0.
          5    1    3    3  502    0 -0.66437444696E+02  0.16091467614E+02  0.22499193316E+02  0.72087138156E+02  0.41800000000E+01 0.  1.
         -5    1    3    3    0  502  0.57761400420E+02  0.12445050650E+02  0.34784517182E+02  0.68692748524E+02  0.41800000000E+01 0.  1.
        -11    1    1    2    0    0 -0.21637428667E+02 -0.44269506921E+02  0.50555308628E+02  0.70596081994E+02  0.00000000000E+00 0.  1.
         11    1    1    2    0    0  0.30313472942E+02  0.15732988658E+02  0.23979864992E+02  0.41730893819E+02  0.00000000000E+00 0. -1.
</event>
<event>
 7    1  0.3200941E-009  0.1217188E+03  0.7561462E-02  0.1240288E+00
         -2   -1    0    0    0  501 -0.00000000000E+00  0.00000000000E+00  0.42711169928E+02  0.42711169928E+02  0.00000000000E+00 0.  1.
          2   -1    0    0  501    0  0.00000000000E+00 -0.00000000000E+00 -0.54109526046E+03  0.54109526046E+03  0.00000000000E+00 0. -1.
         25    2    1    2    0    0 -0.94367715634E+02 -0.20561418972E+02 -0.18488928204E+03  0.24322656416E+03  0.12508827761E+03 0.  0.
          5    1    3    3  502    0 -0.10359585765E+03 -0.49173778528E+02 -0.97038693181E+02  0.15028021357E+03  0.41800000000E+01 0.  1.
         -5    1    3    3    0  502  0.92281420178E+01  0.28612359556E+02 -0.87850588855E+02  0.92946350583E+02  0.41800000000E+01 0.  1.
        -11    1    1    2    0    0  0.47655777453E+02  0.92976408771E+00 -0.39399807394E+02  0.61840782730E+02  0.00000000000E+00 0.  1.
         11    1    1    2    0    0  0.46711938181E+02  0.19631654884E+02 -0.27409500111E+03  0.27873908351E+03  0.00000000000E+00 0. -1.
</event>
<event>
 7    1  0.2612321E-009  0.1978561E+03  0.7561462E-02  0.1151561E+00
          1   -1    0    0  501    0  0.00000000000E+00  0.00000000000E+00  0.23739839228E+03  0.23739839228E+03  0.00000000000E+00 0. -1.
         -1   -1    0    0    0  501 -0.00000000000E+00 -0.00000000000E+00 -0.18409374439E+03  0.18409374439E+03  0.00000000000E+00 0.  1.
         25    2    1    2    0    0 -0.15843403235E+03 -0.80521501115E+02  0.16607022673E+02  0.21796489098E+03  0.12509134962E+03 0.  0.
          5    1    3    3  502    0 -0.19506398068E+02 -0.75476104179E+02  0.17032068348E+01  0.78086587716E+02  0.41800000000E+01 0. -1.
         -5    1    3    3    0  502 -0.13892763429E+03 -0.50453969359E+01  0.14903815839E+02  0.13987830327E+03  0.41800000000E+01 0. -1.
        -11    1    1    2    0    0  0.87766839099E+02  0.34917768490E+02 -0.26752593113E+02  0.98173162525E+02  0.00000000000E+00 0.  1.
         11    1    1    2    0    0  0.70667193255E+02  0.45603732625E+02  0.63450218328E+02  0.10535408316E+03  0.00000000000E+00 0. -1.
</event>
<event>
 7    1  0.2612321E-009  0.1123739E+03  0.7561462E-02  0.1256236E+00
          2   -1    0    0  501    0  0.00000000000E+00  0.00000000000E+00  0.73451277901E+03  0.73451277901E+03  0.00000000000E+00 0. -1.
         -2   -1    0    0    0  501 -0.00000000000E+00 -0.00000000000E+00 -0.30621579475E+02  0.30621579475E+02  0.00000000000E+00 0.  1.
         25    2    1    2    0    0  0.40723226818E+02  0.98512463556E+01  0.60990983880E+03  0.62401257865E+03  0.12508500550E+03 0.  0.
          5    1    3    3  502    0  0.60633639792E+02 -0.41882258143E+02  0.40632245956E+03  0.41297212419E+03  0.41800000000E+01 0. -1.
         -5    1    3    3    0  502 -0.19910412974E+02  0.51733504499E+02  0.20358737924E+03  0.21104045446E+03  0.41800000000E+01 0. -1.
        -11    1    1    2    0    0  0.22183321480E+02 -0.22039675163E+02  0.62152051560E+02  0.69575315639E+02  0.00000000000E+00 0. -1.
         11    1    1    2    0    0 -0.62906548298E+02  0.12188428808E+02  0.31829309178E+02  0.71546464192E+02  0.00000000000E+00 0.  1.
</event>
<event>
 7    1  0.2612321E-009  0.8664573E+02  0.7561462E-02  0.1311184E+00
         -4   -1    0    0    0  501 -0.00000000000E+00  0.00000000000E+00  0.35502843203E+03  0.35502843203E+03  0.00000000000E+00 0.  1.
          4   -1    0    0  501    0  0.00000000000E+00 -0.00000000000E+00 -0.50573024787E+02  0.50573024787E+02  0.00000000000E+00 0. -1.
         25    2    1    2    0    0  0.78214852700E+02 -0.80034723554E+01  0.17930383180E+03  0.23233390669E+03  0.12509021284E+03 0.  0.
          5    1    3    3  502    0  0.34089832987E+02 -0.11732537838E+02  0.18405724904E+03  0.18760147249E+03  0.41800000000E+01 0.  1.
         -5    1    3    3    0  502  0.44125019713E+02  0.37290654827E+01 -0.47534172406E+01  0.44732434200E+02  0.41800000000E+01 0.  1.
        -11    1    1    2    0    0 -0.21291332727E+01  0.15883695172E+02 -0.93370607525E+01  0.18547390229E+02  0.00000000000E+00 0. -1.
         11    1    1    2    0    0 -0.76085719428E+02 -0.78802228163E+01  0.13448863620E+03  0.15472015990E+03  0.00000000000E+00 0.  1.
</event>
<event>
 7    1  0.2613218E-009  0.1487590E+03  0.7561462E-02  0.1202006E+00
          1   -1    0    0  501    0  0.00000000000E+00  0.00000000000E+00  0.64669914791E+03  0.64669914791E+03  0.00000000000E+00 0. -1.
         -1   -1    0    0    0  501 -0.00000000000E+00 -0.00000000000E+00 -0.37852446910E+02  0.37852446910E+02  0.00000000000E+00 0.  1.
         25    2    1    2    0    0  0.32893331460E+02 -0.10700708580E+03  0.31955183130E+03  0.36096111960E+03  0.12508824609E+03 0.  0.
          5    1    3    3  502    0  0.66808321875E+02 -0.38861183412E+02  0.88068249392E+02  0.11724773942E+03  0.41800000000E+01 0. -1.
         -5    1    3    3    0  502 -0.33914990415E+02 -0.68145902388E+02  0.23148358191E+03  0.24371338018E+03  0.41800000000E+01 0. -1.
        -11    1    1    2    0    0  0.23808988936E+02  0.75177288299E+02  0.17812336403E+03  0.19479842259E+03  0.00000000000E+00 0.  1.
         11    1    1    2    0    0 -0.56702320396E+02  0.31829797501E+02  0.11117150567E+03  0.12879205263E+03  0.00000000000E+00 0. -1.
</event>
<event>
 7    1  0.2612321E-009  0.1029473E+03  0.7561462E-02  0.1274218E+00
         -1   -1    0    0    0  501 -0.00000000000E+00  0.00000000000E+00  0.33263560089E+02  0.33263560089E+02  0.00000000000E+00 0.  1.
          1   -1    0    0  501    0  0.00000000000E+00 -0.00000000000E+00 -0.45055105770E+03  0.45055105770E+03  0.00000000000E+00 0. -1.
         25    2    1    2    0    0 -0.15481237189E+02 -0.34535434378E+02 -0.32053179297E+03  0.34615399518E+03  0.12509833387E+03 0.  0.
          5    1    3    3  502    0 -0.27307964830E+01  0.36006584276E+02 -0.21780954886E+03  0.22082210790E+03  0.41800000000E+01 0.  1.
         -5    1    3    3    0  502 -0.12750440706E+02 -0.70542018653E+02 -0.10272224411E+03  0.12533188728E+03  0.41800000000E+01 0.  1.
        -11    1    1    2    0    0  0.11704030659E+02  0.65502522506E+02 -0.69757969087E+02  0.96404040577E+02  0.00000000000E+00 0. -1.
         11    1    1    2    0    0  0.37772065298E+01 -0.30967088129E+02 -0.26997735549E+02  0.41256582034E+02  0.00000000000E+00 0.  1.
</event>
<event>
 7    1  0.2612321E-009  0.9123155E+02  0.7561462E-02  0.1299896E+00
         -1   -1    0    0    0  501 -0.00000000000E+00  0.00000000000E+00  0.16145460451E+03  0.16145460451E+03  0.00000000000E+00 0.  1.
          1   -1    0    0  501    0  0.00000000000E+00 -0.00000000000E+00 -0.79983513209E+02  0.79983513209E+02  0.00000000000E+00 0. -1.
         25    2    1    2    0    0 -0.34605611396E+02  0.10544544667E+02  0.32910594447E+02  0.13430973601E+03  0.12508901709E+03 0.  0.
          5    1    3    3  502    0 -0.56744576450E+02 -0.38407819150E+02  0.40784081765E+02  0.79849366019E+02  0.41800000000E+01 0. -1.
         -5    1    3    3    0  502  0.22138965053E+02  0.48952363817E+02 -0.78734873179E+01  0.54460369990E+02  0.41800000000E+01 0. -1.
        -11    1    1    2    0    0  0.93243477961E+01 -0.27797277009E+02  0.65773964807E+02  0.72012821895E+02  0.00000000000E+00 0.  1.
         11    1    1    2    0    0  0.25281263600E+02  0.17252732342E+02 -0.17213467950E+02  0.35115559818E+02  0.00000000000E+00 0. -1.
</event>
<event>
 7    1  0.2612321E-009  0.1036264E+03  0.7561462E-02  0.1272850E+00
          2   -1    0    0  501    0  0.00000000000E+00  0.00000000000E+00  0.13539958783E+04  0.13539958783E+04  0.00000000000E+00 0. -1.
         -2   -1    0    0    0  501 -0.00000000000E+00 -0.00000000000E+00 -0.24966511887E+02  0.24966511887E+02  0.00000000000E+00 0.  1.
         25    2    1    2    0    0 -0.17085344005E+02 -0.56488135230E+02  0.12107485363E+04  0.12186234407E+04  0.12509298035E+03 0.  0.
          5    1    3    3  502    0 -0.29134020986E+02  0.32008269795E+02  0.57157183104E+03  0.57322347383E+03  0.41800000000E+01 0.  1.
         -5    1    3    3    0  502  0.12048676980E+02 -0.88496405025E+02  0.63917670524E+03  0.64539996688E+03  0.41800000000E+01 0.  1.
        -11    1    1    2    0    0  0.18053105696E+02  0.19164763231E+00 -0.97181011526E+01  0.20503483707E+02  0.00000000000E+00 0.  1.
         11    1    1    2    0    0 -0.96776169106E+00  0.56296487597E+02  0.12799893131E+03  0.13983546580E+03  0.00000000000E+00 0. -1.
</event>
<event>
 7    1  0.2612321E-009  0.2020395E+03  0.7561462E-02  0.1148030E+00
         -1   -1    0    0    0  501 -0.00000000000E+00  0.00000000000E+00  0.48559893316E+03  0.48559893316E+03  0.00000000000E+00 0.  1.
          1   -1    0    0  501    0  0.00000000000E+00 -0.00000000000E+00 -0.10015276379E+03  0.10015276379E+03  0.00000000000E+00 0. -1.
         25    2    1    2    0    0  0.16356153154E+03  0.96027632352E+02  0.16686904015E+03  0.28189687550E+03  0.12508753369E+03 0.  0.
          5    1    3    3  502    0  0.10066904000E+03  0.36319876966E+02  0.16644274173E+02  0.10838769921E+03  0.41800000000E+01 0.  1.
         -5    1    3    3    0  502  0.62892491540E+02  0.59707755386E+02  0.15022476597E+03  0.17350917629E+03  0.41800000000E+01 0.  1.
        -11    1    1    2    0    0 -0.54150356114E+02  0.13007187521E+02  0.45863067785E+02  0.72144777920E+02  0.00000000000E+00 0.  1.
         11    1    1    2    0    0 -0.10941117543E+03 -0.10903481987E+03  0.17271406144E+03  0.23171004353E+03  0.00000000000E+00 0. -1.
</event>
<event>
 7    1  0.2612321E-009  0.2577479E+03  0.7561462E-02  0.1108504E+00
         -2   -1    0    0    0  501 -0.00000000000E+00  0.00000000000E+00  0.39360952960E+03  0.39360952960E+03  0.00000000000E+00 0.  1.
          2   -1    0    0  501    0  0.00000000000E+00 -0.00000000000E+00 -0.18897398362E+03  0.18897398362E+03  0.00000000000E+00 0. -1.
         25    2    1    2    0    0 -0.71103457193E+02 -0.23977081030E+03  0.99008886603E+02  0.29663822817E+03  0.12508291525E+03 0.  0.
          5    1    3    3  502    0 -0.25169038710E+02 -0.81831249008E+02 -0.26474827061E+02  0.89711887126E+02  0.41800000000E+01 0.  1.
         -5    1    3    3    0  502 -0.45934418483E+02 -0.15793956130E+03  0.12548371366E+03  0.20692634105E+03  0.41800000000E+01 0.  1.
        -11    1    1    2    0    0  0.40307627654E+02  0.23229174615E+02  0.25181988950E+02  0.52900207635E+02  0.00000000000E+00 0. -1.
         11    1    1    2    0    0  0.30795829540E+02  0.21654163569E+03  0.80444670431E+02  0.23304507741E+03  0.00000000000E+00 0.  1.
</event>
<event>
 7    1  0.2612321E-009  0.2854832E+03  0.7561462E-02  0.1092731E+00
         -2   -1    0    0    0  501 -0.00000000000E+00  0.00000000000E+00  0.49676731175E+02  0.49676731175E+02  0.00000000000E+00 0.  1.
          2   -1    0    0  501    0  0.00000000000E+00 -0.00000000000E+00 -0.18644863165E+04  0.18644863165E+04  0.00000000000E+00 0. -1.
         25    2    1    2    0    0 -0.27025869506E+03 -0.60245403108E+02 -0.11152817140E+04  0.11559279607E+04  0.12508748067E+03 0.  0.
          5    1    3    3  502    0 -0.13155231625E+03 -0.44217516857E+02 -0.78710190250E+03  0.79925470160E+03  0.41800000000E+01 0. -1.
         -5    1    3    3    0  502 -0.13870637880E+03 -0.16027886252E+02 -0.32817981149E+03  0.35667325906E+03  0.41800000000E+01 0. -1.
        -11    1    1    2    0    0  0.19931964124E+03  0.85831516859E+02 -0.50966394591E+03  0.55394287289E+03  0.00000000000E+00 0.  1.
         11    1    1    2    0    0  0.70939053817E+02 -0.25586113751E+02 -0.18986392544E+03  0.20429221414E+03  0.00000000000E+00 0. -1.
</event>
<event>
 7    1  0.2612321E-009  0.9672370E+02  0.7561462E-02  0.1287340E+00
         -2   -1    0    0    0  501 -0.00000000000E+00  0.00000000000E+00  0.23955795457E+03  0.23955795457E+03  0.00000000000E+00 0.  1.
          2   -1    0    0  501    0  0.00000000000E+00 -0.00000000000E+00 -0.61630639489E+02  0.61630639489E+02  0.00000000000E+00 0. -1.
         25    2    1    2    0    0  0.67082786772E+01  0.13007973792E+02  0.16471727221E+03  0.20734850717E+03  0.12508962898E+03 0.  0.
          5    1    3    3  502    0  0.22239331396E+02 -0.39913548061E+02  0.15857678144E+02  0.48545005262E+02  0.41800000000E+01 0.  1.
         -5    1    3    3    0  502 -0.15531052719E+02  0.52921521852E+02  0.14885959407E+03  0.15880350191E+03  0.41800000000E+01 0.  1.
        -11    1    1    2    0    0  0.41618178979E+02 -0.14021781814E+02  0.11834674015E+02  0.45483433202E+02  0.00000000000E+00 0.  1.
         11    1    1    2    0    0 -0.48326457656E+02  0.10138080222E+01  0.13753688593E+01  0.48356653687E+02  0.00000000000E+00 0. -1.
</event>
<event>
 7    1  0.2612321E-009  0.9190144E+02  0.7561462E-02  0.1298311E+00
         -1   -1    0    0    0  501 -0.00000000000E+00  0.00000000000E+00  0.77189931645E+02  0.77189931645E+02  0.00000000000E+00 0.  1.
          1   -1    0    0  501    0  0.00000000000E+00 -0.00000000000E+00 -0.15052802273E+03  0.15052802273E+03  0.00000000000E+00 0. -1.
         25    2    1    2    0    0  0.95698396269E+01  0.11922481527E+02 -0.35787235089E+02  0.13100353246E+03  0.12508985540E+03 0.  0.
          5    1    3    3  502    0 -0.53638986516E+02 -0.12668100701E+02 -0.24831478115E+01  0.55328655080E+02  0.41800000000E+01 0. -1.
         -5    1    3    3    0  502  0.63208826143E+02  0.24590582228E+02 -0.33304087277E+02  0.75674877377E+02  0.41800000000E+01 0. -1.
        -11    1    1    2    0    0 -0.33170014031E+02  0.19054973042E+01  0.15777322490E+02  0.36780492870E+02  0.00000000000E+00 0.  1.
         11    1    1    2    0    0  0.23600174404E+02 -0.13827978831E+02 -0.53328178489E+02  0.59933929051E+02  0.00000000000E+00 0. -1.
</event>
<event>
 7    1  0.2612321E-009  0.1377606E+03  0.7561462E-02  0.1216374E+00
         -2   -1    0    0    0  501 -0.00000000000E+00  0.00000000000E+00  0.41388254681E+02  0.41388254681E+02  0.00000000000E+00 0.  1.
          2   -1    0    0  501    0  0.00000000000E+00 -0.00000000000E+00 -0.61569259493E+03  0.61569259493E+03  0.00000000000E+00 0. -1.
         25    2    1    2    0    0  0.11552174862E+03  0.13731746448E+02 -0.33974616898E+03  0.38027538575E+03  0.12509226357E+03 0.  0.
          5    1    3    3  502    0  0.68448493404E+02 -0.46308340347E+02 -0.24477453506E+03  0.25838286331E+03  0.41800000000E+01 0. -1.
         -5    1    3    3    0  502  0.47073255217E+02  0.60040086795E+02 -0.94971633917E+02  0.12189252244E+03  0.41800000000E+01 0. -1.
        -11    1    1    2    0    0 -0.33867507109E+02 -0.27989304029E+01 -0.68685308992E+01  0.34670142283E+02  0.00000000000E+00 0. -1.
         11    1    1    2    0    0 -0.81654241512E+02 -0.10932816045E+02 -0.22768964037E+03  0.24213532158E+03  0.00000000000E+00 0.  1.
</event>
<event>
 7    1  0.2612321E-009  0.8939898E+02  0.7561462E-02  0.1304314E+00
          2   -1    0    0  501    0  0.00000000000E+00  0.00000000000E+00  0.30286877708E+04  0.30286877708E+04  0.00000000000E+00 0. -1.
         -2   -1    0    0    0  501 -0.00000000000E+00 -0.00000000000E+00 -0.90216873878E+01  0.90216873878E+01  0.00000000000E+00 0.  1.
         25    2    1    2    0    0  0.58957730050E+02  0.31952688879E+02  0.25707210693E+04  0.25746355490E+04  0.12507760003E+03 0.  0.
          5    1    3    3  502    0  0.15962474898E+02  0.21427445714E+02  0.10231112586E+03  0.10582520923E+03  0.41800000000E+01 0.  1.
         -5    1    3    3    0  502  0.42995255152E+02  0.10525243165E+02  0.24684099434E+04  0.24688103398E+04  0.41800000000E+01 0.  1.
        -11    1    1    2    0    0 -0.20280397282E+02 -0.57477904385E+02  0.32676519779E+03  0.33240111085E+03  0.00000000000E+00 0.  1.
         11    1    1    2    0    0 -0.38677332768E+02  0.25525215506E+02  0.12217981634E+03  0.13067279831E+03  0.00000000000E+00 0. -1.
</event>
<event>
 7    1  0.2612321E-009  0.1155727E+03  0.7561462E-02  0.1250585E+00
          2   -1    0    0  501    0  0.00000000000E+00  0.00000000000E+00  0.30297439656E+03  0.30297439656E+03  0.00000000000E+00 0. -1.
         -2   -1    0    0    0  501 -0.00000000000E+00 -0.00000000000E+00 -0.11366065504E+03  0.11366065504E+03  0.00000000000E+00 0.  1.
         25    2    1    2    0    0  0.47015485133E+02  0.76198208943E+02  0.23524849774E+03  0.28107974272E+03  0.12508934084E+03 0.  0.
          5    1    3    3  502    0 -0.17524952658E+02  0.74725270179E+02  0.71356686122E+02  0.10488202431E+03  0.41800000000E+01 0. -1.
         -5    1    3    3    0  502  0.64540437791E+02  0.14729387634E+01  0.16389181162E+03  0.17619771841E+03  0.41800000000E+01 0. -1.
        -11    1    1    2    0    0 -0.10230781423E+02 -0.14297198433E+02 -0.59709318596E+02  0.62243726582E+02  0.00000000000E+00 0.  1.
         11    1    1    2    0    0 -0.36784703710E+02 -0.61901010509E+02  0.13774562378E+02  0.73311582290E+02  0.00000000000E+00 0. -1.
</event>
<event>
 7    1  0.2612321E-009  0.2568512E+03  0.7561462E-02  0.1109050E+00
          2   -1    0    0  501    0  0.00000000000E+00  0.00000000000E+00  0.10919086312E+04  0.10919086312E+04  0.00000000000E+00 0. -1.
         -2   -1    0    0    0  501 -0.00000000000E+00 -0.00000000000E+00 -0.73022981682E+02  0.73022981682E+02  0.00000000000E+00 0.  1.
         25    2    1    2    0    0 -0.48244078570E+02 -0.24925531585E+03  0.64141549008E+03  0.70108288630E+03  0.12509068290E+03 0.  0.
          5    1    3    3  502    0 -0.20254795954E+02 -0.22025529667E+02  0.14217124546E+02  0.33391312442E+02  0.41800000000E+01 0. -1.
         -5    1    3    3    0  502 -0.27989282616E+02 -0.22722978618E+03  0.62719836553E+03  0.66769157385E+03  0.41800000000E+01 0. -1.
        -11    1    1    2    0    0  0.16929710684E+01  0.44130152896E+02  0.13910652396E+03  0.14594848939E+03  0.00000000000E+00 0. -1.
         11    1    1    2    0    0  0.46551107502E+02  0.20512516295E+03  0.23836363543E+03  0.31790023716E+03  0.00000000000E+00 0.  1.
</event>
<event>
 7    1  0.2612321E-009  0.8097696E+02  0.7561462E-02  0.1326302E+00
          1   -1    0    0  501    0  0.00000000000E+00  0.00000000000E+00  0.13024084625E+03  0.13024084625E+03  0.00000000000E+00 0. -1.
         -1   -1    0    0    0  501 -0.00000000000E+00 -0.00000000000E+00 -0.21033466477E+03  0.21033466477E+03  0.00000000000E+00 0.  1.
         25    2    1    2    0    0  0.22353865410E+02 -0.22245522819E+02  0.81931221836E+02  0.15280636755E+03  0.12506998948E+03 0.  0.
          5    1    3    3  502    0  0.19121273225E+02 -0.42168001307E+02 -0.18682908117E+02  0.50102763194E+02  0.41800000000E+01 0. -1.
         -5    1    3    3    0  502  0.32325921841E+01  0.19922478488E+02  0.10061412995E+03  0.10270360436E+03  0.41800000000E+01 0. -1.
        -11    1    1    2    0    0  0.45710210190E+01  0.53446277762E+02 -0.94384981841E+02  0.10856299386E+03  0.00000000000E+00 0. -1.
         11    1    1    2    0    0 -0.26924886429E+02 -0.31200754943E+02 -0.67640058520E+02  0.79206149602E+02  0.00000000000E+00 0.  1.
</event>
<event>
 7    1  0.2612321E-009  0.1467359E+03  0.7561462E-02  0.1204542E+00
          2   -1    0    0  501    0  0.00000000000E+00  0.00000000000E+00  0.93696744900E+03  0.93696744900E+03  0.00000000000E+00 0. -1.
         -2   -1    0    0    0  501 -0.00000000000E+00 -0.00000000000E+00 -0.24679206781E+02  0.24679206781E+02  0.00000000000E+00 0.  1.
         25    2    1    2    0    0 -0.98730456202E+02  0.30300970472E+02  0.55208578092E+03  0.57542289156E+03  0.12508774057E+03 0.  0.
          5    1    3    3  502    0 -0.15037718192E+02 -0.43696369627E+02  0.10926914921E+03  0.11871278388E+03  0.41800000000E+01 0.  1.
         -5    1    3    3    0  502 -0.83692738010E+02  0.73997340099E+02  0.44281663171E+03  0.45671010768E+03  0.41800000000E+01 0.  1.
        -11    1    1    2    0    0  0.11507284527E+03 -0.30063130119E+02  0.27736768781E+03  0.30179195774E+03  0.00000000000E+00 0. -1.
         11    1    1    2    0    0 -0.16342389066E+02 -0.23784035298E+00  0.82834773478E+02  0.84431806481E+02  0.00000000000E+00 0.  1.
</event>
<event>
 7    1  0.2612321E-009  0.9918141E+02  0.7561462E-02  0.1282027E+00
         -1   -1    0    0    0  501 -0.00000000000E+00  0.00000000000E+00  0.14553705228E+03  0.14553705228E+03  0.00000000000E+00 0.  1.
          1   -1    0    0  501    0  0.00000000000E+00 -0.00000000000E+00 -0.82651086228E+02  0.82651086228E+02  0.00000000000E+00 0. -1.
         25    2    1    2    0    0 -0.14918963628E+02  0.36171195311E+00  0.25305791413E+02  0.12849384096E+03  0.12509027850E+03 0.  0.
          5    1    3    3  502    0 -0.33069714700E+02  0.55034577887E+02 -0.25005798712E+01  0.64390496917E+02  0.41800000000E+01 0.  1.
         -5    1    3    3    0  502  0.18150751072E+02 -0.54672865934E+02  0.27806371284E+02  0.64103344046E+02  0.41800000000E+01 0.  1.
        -11    1    1    2    0    0 -0.29371762673E+02  0.95326077191E+01  0.44109673861E+02  0.53844539004E+02  0.00000000000E+00 0.  1.
         11    1    1    2    0    0  0.44290726301E+02 -0.98943196722E+01 -0.65294992226E+01  0.45849758540E+02  0.00000000000E+00 0. -1.
</event>
<event>
 7    1  0.2612321E-009  0.7189528E+02  0.7561462E-02  0.1353764E+00
          2   -1    0    0  501    0  0.00000000000E+00  0.00000000000E+00  0.66011610861E+02  0.66011610861E+02  0.00000000000E+00 0. -1.
         -2   -1    0    0    0  501 -0.00000000000E+00 -0.00000000000E+00 -0.18892005715E+03  0.18892005715E+03  0.00000000000E+00 0.  1.
         25    2    1    2    0    0  0.28490242100E+00  0.31967815162E+02 -0.60502643510E+02  0.14259060892E+03  0.12509791967E+03 0.  0.
          5    1    3    3  502    0  0.21178229206E+02  0.17093717466E+02  0.34475470592E+02  0.44121911129E+02  0.41800000000E+01 0. -1.
         -5    1    3    3    0  502 -0.20893326785E+02  0.14874097696E+02 -0.94978114102E+02  0.98468697791E+02  0.41800000000E+01 0. -1.
        -11    1    1    2    0    0  0.40160443916E+02 -0.25189550242E+01 -0.13673411767E+02  0.42499042099E+02  0.00000000000E+00 0.  1.
         11    1    1    2    0    0 -0.40445346337E+02 -0.29448860138E+02 -0.48732391013E+02  0.69842016993E+02  0.00000000000E+00 0. -1.
</event>
<event>
 7    1  0.2612321E-009  0.1222304E+03  0.7561462E-02  0.1239462E+00
         -1   -1    0    0    0  501 -0.00000000000E+00  0.00000000000E+00  0.42525811823E+02  0.42525811823E+02  0.00000000000E+00 0. -1.
          1   -1    0    0  501    0  0.00000000000E+00 -0.00000000000E+00 -0.47061838935E+03  0.47061838935E+03  0.00000000000E+00 0.  1.
         25    2    1    2    0    0 -0.60807428283E+02 -0.65438291900E+02 -0.21638145463E+03  0.26542120695E+03  0.12509104609E+03 0.  0.
          5    1    3    3  502    0 -0.10569090853E+02  0.21752526442E+02 -0.13131351761E+03  0.13358738860E+03  0.41800000000E+01 0.  1.
         -5    1    3    3    0  502 -0.50238337430E+02 -0.87190818342E+02 -0.85067937025E+02  0.13183381835E+03  0.41800000000E+01 0.  1.
        -11    1    1    2    0    0 -0.13065072777E+01  0.56422488814E+02 -0.14751355093E+03  0.15794129262E+03  0.00000000000E+00 0.  1.
         11    1    1    2    0    0  0.62113935561E+02  0.90158030863E+01 -0.64197571959E+02  0.89781701597E+02  0.00000000000E+00 0. -1.
</event>
<event>
 7    1  0.2612321E-009  0.1921371E+03  0.7561462E-02  0.1156548E+00
          3   -1    0    0  501    0  0.00000000000E+00  0.00000000000E+00  0.13448442793E+03  0.13448442793E+03  0.00000000000E+00 0. -1.
         -3   -1    0    0    0  501 -0.00000000000E+00 -0.00000000000E+00 -0.35035159200E+03  0.35035159200E+03  0.00000000000E+00 0.  1.
         25    2    1    2    0    0  0.17050983912E+03  0.61328749346E+02 -0.16785785968E+03  0.27687567031E+03  0.12509618309E+03 0.  0.
          5    1    3    3  502    0  0.53777814164E+02  0.26641031228E+02  0.10299024531E+02  0.61035564611E+02  0.41800000000E+01 0.  1.
         -5    1    3    3    0  502  0.11673202496E+03  0.34687718119E+02 -0.17815688421E+03  0.21584010570E+03  0.41800000000E+01 0.  1.
        -11    1    1    2    0    0 -0.51263397336E+02 -0.65220065232E+02 -0.22524745260E+02  0.85959042365E+02  0.00000000000E+00 0.  1.
         11    1    1    2    0    0 -0.11924644178E+03  0.38913158852E+01 -0.25484559139E+02  0.12200130725E+03  0.00000000000E+00 0. -1.
</event>
<event>
 7    1  0.2612321E-009  0.1704653E+03  0.7561462E-02  0.1177363E+00
         -2   -1    0    0    0  501 -0.00000000000E+00  0.00000000000E+00  0.25963294928E+03  0.25963294928E+03  0.00000000000E+00 0. -1.
          2   -1    0    0  501    0  0.00000000000E+00 -0.00000000000E+00 -0.13899473070E+03  0.13899473070E+03  0.00000000000E+00 0.  1.
         25    2    1    2    0    0  0.11617538020E+03 -0.88418392276E+02  0.67828049101E+01  0.19239521249E+03  0.12512146215E+03 0.  0.
          5    1    3    3  502    0  0.11130409490E+03 -0.10384465702E+03 -0.27046084556E+02  0.15466504913E+03  0.41800000000E+01 0. -1.
         -5    1    3    3    0  502  0.48712852966E+01  0.15426264744E+02  0.33828889466E+02  0.37730163356E+02  0.41800000000E+01 0. -1.
        -11    1    1    2    0    0 -0.11614761346E+03  0.38998035288E+02  0.79872006910E+02  0.14625543531E+03  0.00000000000E+00 0.  1.
         11    1    1    2    0    0 -0.27766736667E-01  0.49420356989E+02  0.33983406757E+02  0.59977032193E+02  0.00000000000E+00 0. -1.
</event>
<event>
 7    1  0.2612321E-009  0.1941504E+03  0.7561462E-02  0.1154770E+00
         -2   -1    0    0    0  501 -0.00000000000E+00  0.00000000000E+00  0.12277131663E+03  0.12277131663E+03  0.00000000000E+00 0.  1.
          2   -1    0    0  501    0  0.00000000000E+00 -0.00000000000E+00 -0.46915198555E+03  0.46915198555E+03  0.00000000000E+00 0. -1.
         25    2    1    2    0    0  0.15140417806E+03  0.97145993029E+02 -0.36099846332E+02  0.22206003242E+03  0.12508752935E+03 0.  0.
          5    1    3    3  502    0  0.62694176471E+02 -0.15037551358E+02 -0.44949546166E+02  0.78705919820E+02  0.41800000000E+01 0. -1.
         -5    1    3    3    0  502  0.88710001587E+02  0.11218354439E+03  0.88496998346E+01  0.14335411260E+03  0.41800000000E+01 0. -1.
        -11    1    1    2    0    0 -0.84071499309E+02 -0.44372780149E+02 -0.24329864513E+03  0.26121100921E+03  0.00000000000E+00 0. -1.
         11    1    1    2    0    0 -0.67332678749E+02 -0.52773212879E+02 -0.66982177461E+02  0.10865226055E+03  0.00000000000E+00 0.  1.
</event>
<event>
 7    1  0.2612321E-009  0.1703779E+03  0.7561462E-02  0.1177454E+00
          1   -1    0    0  501    0  0.00000000000E+00  0.00000000000E+00  0.36793817669E+03  0.36793817669E+03  0.00000000000E+00 0. -1.
         -1   -1    0    0    0  501 -0.00000000000E+00 -0.00000000000E+00 -0.10466790196E+03  0.10466790196E+03  0.00000000000E+00 0.  1.
         25    2    1    2    0    0  0.16033405809E+03 -0.10163014572E+01  0.10497659115E+03  0.22885722038E+03  0.12508996593E+03 0.  0.
          5    1    3    3  502    0  0.76906981597E+01  0.15176858605E+02 -0.23034892231E+02  0.28940672684E+02  0.41800000000E+01 0. -1.
         -5    1    3    3    0  502  0.15264335993E+03 -0.16193160062E+02  0.12801148338E+03  0.19991654769E+03  0.41800000000E+01 0. -1.
        -11    1    1    2    0    0 -0.14248423098E+03  0.19699372472E+02  0.87442783373E+02  0.16833318662E+03  0.00000000000E+00 0.  1.
         11    1    1    2    0    0 -0.17849827112E+02 -0.18683071015E+02  0.70850900204E+02  0.75415671649E+02  0.00000000000E+00 0. -1.
</event>
<event>
 7    1  0.3008108E-009  0.1052604E+03  0.7561462E-02  0.1269608E+00
          3   -1    0    0  501    0  0.00000000000E+00  0.00000000000E+00  0.17399760420E+03  0.17399760420E+03  0.00000000000E+00 0.  1.
         -3   -1    0    0    0  501 -0.00000000000E+00 -0.00000000000E+00 -0.91448092774E+02  0.91448092774E+02  0.00000000000E+00 0. -1.
         25    2    1    2    0    0  0.17935587750E+02 -0.48205723044E+02  0.56334062812E+01  0.13536622295E+03  0.12508717763E+03 0.  0.
          5    1    3    3  502    0  0.61923711761E+02  0.46663941672E+01 -0.13844960611E+02  0.63761090386E+02  0.41800000000E+01 0. -1.
         -5    1    3    3    0  502 -0.43988124011E+02 -0.52872117211E+02  0.19478366892E+02  0.71605132562E+02  0.41800000000E+01 0. -1.
        -11    1    1    2    0    0 -0.39643850095E+02  0.21973244531E+02 -0.69088425340E+00  0.45331398022E+02  0.00000000000E+00 0. -1.
         11    1    1    2    0    0  0.21708262345E+02  0.26232478513E+02  0.77606989399E+02  0.84748076004E+02  0.00000000000E+00 0.  1.
</event>
<event>
 7    1  0.2612321E-009  0.1474545E+03  0.7561462E-02  0.1203636E+00
         -2   -1    0    0    0  501 -0.00000000000E+00  0.00000000000E+00  0.96780691050E+02  0.96780691050E+02  0.00000000000E+00 0.  1.
          2   -1    0    0  501    0  0.00000000000E+00 -0.00000000000E+00 -0.29766357601E+03  0.29766357601E+03  0.00000000000E+00 0. -1.
         25    2    1    2    0    0 -0.40323081129E+02 -0.12048565201E+03 -0.12852754160E+03  0.21979167897E+03  0.12508521088E+03 0.  0.
          5    1    3    3  502    0 -0.56021041570E+01 -0.89321114765E+02 -0.14473740010E+03  0.17022347811E+03  0.41800000000E+01 0. -1.
         -5    1    3    3    0  502 -0.34720976971E+02 -0.31164537247E+02  0.16209858493E+02  0.49568200855E+02  0.41800000000E+01 0. -1.
        -11    1    1    2    0    0  0.63743917588E+01  0.12416139142E+03 -0.51008562530E+02  0.13438213215E+03  0.00000000000E+00 0.  1.
         11    1    1    2    0    0  0.33948689370E+02 -0.36757394107E+01 -0.21346780829E+02  0.40270455944E+02  0.00000000000E+00 0. -1.
</event>
<event>
 7    1  0.2612321E-009  0.1095153E+03  0.7561462E-02  0.1261470E+00
         -1   -1    0    0    0  501 -0.00000000000E+00  0.00000000000E+00  0.10575391657E+02  0.10575391657E+02  0.00000000000E+00 0.  1.
          1   -1    0    0  501    0  0.00000000000E+00 -0.00000000000E+00 -0.12090603200E+04  0.12090603200E+04  0.00000000000E+00 0. -1.
         25    2    1    2    0    0 -0.14253436242E+02  0.20210609627E+02 -0.80833818759E+03  0.81833443646E+03  0.12509594390E+03 0.  0.
          5    1    3    3  502    0  0.55185151752E+02  0.88620500927E+01 -0.40920017730E+03  0.41302081595E+03  0.41800000000E+01 0. -1.
         -5    1    3    3    0  502 -0.69438587994E+02  0.11348559534E+02 -0.39913801029E+03  0.40531362050E+03  0.41800000000E+01 0. -1.
        -11    1    1    2    0    0  0.37383718505E+02 -0.45060882676E+02 -0.21134604383E+03  0.21930612349E+03  0.00000000000E+00 0.  1.
         11    1    1    2    0    0 -0.23130282264E+02  0.24850273049E+02 -0.17880069697E+03  0.18199515176E+03  0.00000000000E+00 0. -1.
</event>
<event>
 7    1  0.2612321E-009  0.9850855E+02  0.7561462E-02  0.1283464E+00
          2   -1    0    0  501    0  0.00000000000E+00  0.00000000000E+00  0.43987918661E+02  0.43987918661E+02  0.00000000000E+00 0. -1.
         -2   -1    0    0    0  501 -0.00000000000E+00 -0.00000000000E+00 -0.37146491654E+03  0.37146491654E+03  0.00000000000E+00 0.  1.
         25    2    1    2    0    0  0.16265532385E+02 -0.55136867406E+02 -0.12326691466E+03  0.18479085721E+03  0.12509311319E+03 0.  0.
          5    1    3    3  502    0  0.47640127292E+02  0.81961269226E+01 -0.98464961444E+02  0.10977057555E+03  0.41800000000E+01 0.  1.
         -5    1    3    3    0  502 -0.31374594906E+02 -0.63332994329E+02 -0.24801953214E+02  0.75020281654E+02  0.41800000000E+01 0.  1.
        -11    1    1    2    0    0  0.61671708221E+01  0.54915804670E+02 -0.20043425466E+03  0.20791265002E+03  0.00000000000E+00 0.  1.
         11    1    1    2    0    0 -0.22432703207E+02  0.22106273658E+00 -0.37758285625E+01  0.22749327974E+02  0.00000000000E+00 0. -1.
</event>
<event>
 7    1  0.2612321E-009  0.1106744E+03  0.7561462E-02  0.1259326E+00
         -2   -1    0    0    0  501 -0.00000000000E+00  0.00000000000E+00  0.85489989572E+02  0.85489989572E+02  0.00000000000E+00 0.  1.
          2   -1    0    0  501    0  0.00000000000E+00 -0.00000000000E+00 -0.18267870755E+03  0.18267870755E+03  0.00000000000E+00 0. -1.
         25    2    1    2    0    0  0.57724432126E+01 -0.44008147079E+02 -0.97518766068E+02  0.16470430528E+03  0.12509020878E+03 0.  0.
          5    1    3    3  502    0 -0.50386423919E+01  0.42447714528E+02 -0.47957126142E+02  0.64378216297E+02  0.41800000000E+01 0.  1.
         -5    1    3    3    0  502  0.10811085604E+02 -0.86455861607E+02 -0.49561639926E+02  0.10032608898E+03  0.41800000000E+01 0.  1.
        -11    1    1    2    0    0  0.25841091022E+02  0.52431272159E+02 -0.23488422783E+02  0.62996081547E+02  0.00000000000E+00 0. -1.
         11    1    1    2    0    0 -0.31613534235E+02 -0.84231250799E+01  0.23818470877E+02  0.40468310292E+02  0.00000000000E+00 0.  1.
</event>
<event>
 7    1  0.2612321E-009  0.6684883E+02  0.7561462E-02  0.1371149E+00
          2   -1    0    0  501    0  0.00000000000E+00  0.00000000000E+00  0.73866307936E+02  0.73866307936E+02  0.00000000000E+00 0. -1.
         -2   -1    0    0    0  501 -0.00000000000E+00 -0.00000000000E+00 -0.16603972434E+03  0.16603972434E+03  0.00000000000E+00 0.  1.
         25    2    1    2    0    0 -0.45129331396E+01 -0.21554256624E+01 -0.78329304744E+02  0.14767181364E+03  0.12508585906E+03 0.  0.
          5    1    3    3  502    0  0.23113144327E+02 -0.27831070985E+02  0.20511776950E+02  0.41797025570E+02  0.41800000000E+01 0. -1.
         -5    1    3    3    0  502 -0.27626077466E+02  0.25675645323E+02 -0.98841081694E+02  0.10587478807E+03  0.41800000000E+01 0. -1.
        -11    1    1    2    0    0  0.48699220102E+01 -0.28380685569E+02 -0.41849309580E+02  0.50799056744E+02  0.00000000000E+00 0.  1.
         11    1    1    2    0    0 -0.35698887067E+00  0.30536111231E+02  0.28005197922E+02  0.41435161889E+02  0.00000000000E+00 0. -1.
</event>
<event>
 7    1  0.2612321E-009  0.1254659E+03  0.7561462E-02  0.1234343E+00
         -1   -1    0    0    0  501 -0.00000000000E+00  0.00000000000E+00  0.64463409162E+02  0.64463409162E+02  0.00000000000E+00 0.  1.
          1   -1    0    0  501    0  0.00000000000E+00 -0.00000000000E+00 -0.49015501219E+03  0.49015501219E+03  0.00000000000E+00 0. -1.
         25    2    1    2    0    0 -0.27643912696E+02  0.72356126900E+02 -0.40469911647E+03  0.43061475795E+03  0.12509236538E+03 0.  0.
          5    1    3    3  502    0 -0.64925927353E+02  0.62185160741E+02 -0.36135791295E+03  0.37239680975E+03  0.41800000000E+01 0. -1.
         -5    1    3    3    0  502  0.37282014658E+02  0.10170966159E+02 -0.43341203526E+02  0.58217948200E+02  0.41800000000E+01 0. -1.
        -11    1    1    2    0    0 -0.35321775736E+02 -0.24895472770E+02 -0.44911714171E+01  0.43446323507E+02  0.00000000000E+00 0.  1.
         11    1    1    2    0    0  0.62965688432E+02 -0.47460654131E+02 -0.16501315136E+02  0.80557339898E+02  0.00000000000E+00 0. -1.
</event>
<event>
 7    1  0.2612321E-009  0.1201329E+03  0.7561462E-02  0.1242878E+00
         -2   -1    0    0    0  501 -0.00000000000E+00  0.00000000000E+00  0.17460121333E+03  0.17460121333E+03  0.00000000000E+00 0.  1.
          2   -1    0    0  501    0  0.00000000000E+00 -0.00000000000E+00 -0.13510041192E+03  0.13510041192E+03  0.00000000000E+00 0. -1.
         25    2    1    2    0    0 -0.59867736567E+02  0.50625462147E+02  0.97596408684E+02  0.17697265458E+03  0.12508868127E+03 0.  0.
          5    1    3    3  502    0 -0.28357338431E+02 -0.25547929238E+02  0.85272159666E+02  0.93518174412E+02  0.41800000000E+01 0.  1.
         -5    1    3    3    0  502 -0.31510398136E+02  0.76173391386E+02  0.12324249018E+02  0.83454480166E+02  0.41800000000E+01 0.  1.
        -11    1    1    2    0    0  0.34017156380E+02 -0.75901207274E+02 -0.41274341115E+02  0.92853279039E+02  0.00000000000E+00 0. -1.
         11    1    1    2    0    0  0.25850580187E+02  0.25275745127E+02 -0.16821266165E+02  0.39875691632E+02  0.00000000000E+00 0.  1.
</event>
<event>
 7    1  0.2612321E-009  0.1461508E+03  0.7561462E-02  0.1205284E+00
         -2   -1    0    0    0  501 -0.00000000000E+00  0.00000000000E+00  0.29479319959E+02  0.29479319959E+02  0.00000000000E+00 0. -1.
          2   -1    0    0  501    0  0.00000000000E+00 -0.00000000000E+00 -0.98349722178E+03  0.98349722178E+03  0.00000000000E+00 0.  1.
         25    2    1    2    0    0 -0.12862943789E+03  0.20426015119E+02 -0.42677835077E+03  0.46341149388E+03  0.12509075740E+03 0.  0.
          5    1    3    3  502    0 -0.11225862933E+03 -0.74009529175E+00 -0.42098500387E+03  0.43571595505E+03  0.41800000000E+01 0. -1.
         -5    1    3    3    0  502 -0.16370808566E+02  0.21166110410E+02 -0.57933469025E+01  0.27695538835E+02  0.41800000000E+01 0. -1.
        -11    1    1    2    0    0  0.37550498430E+02 -0.44936533830E+02 -0.24823999495E+03  0.25505377295E+03  0.00000000000E+00 0.  1.
         11    1    1    2    0    0  0.91078939465E+02  0.24510518711E+02 -0.27899955610E+03  0.29451127490E+03  0.00000000000E+00 0. -1.
</event>
<event>
 7    1  0.2612321E-009  0.8429867E+02  0.7561462E-02  0.1317277E+00
          2   -1    0    0  501    0  0.00000000000E+00  0.00000000000E+00  0.28134395280E+03  0.28134395280E+03  0.00000000000E+00 0. -1.
         -2   -1    0    0    0  501 -0.00000000000E+00 -0.00000000000E+00 -0.43066693810E+02  0.43066693810E+02  0.00000000000E+00 0.  1.
         25    2    1    2    0    0  0.22069525521E+02 -0.80183865804E+01  0.14070308792E+03  0.18972467251E+03  0.12508690550E+03 0.  0.
          5    1    3    3  502    0  0.44921772897E+02  0.35332064473E+02  0.12595533449E+03  0.13837824665E+03  0.41800000000E+01 0.  1.
         -5    1    3    3    0  502 -0.22852247376E+02 -0.43350451054E+02  0.14747753427E+02  0.51346425853E+02  0.41800000000E+01 0.  1.
        -11    1    1    2    0    0 -0.23930220699E+02  0.30939210872E+02  0.10374732372E+03  0.11087559430E+03  0.00000000000E+00 0. -1.
         11    1    1    2    0    0  0.18606951776E+01 -0.22920824291E+02 -0.61731526504E+01  0.23810379803E+02  0.00000000000E+00 0.  1.
</event>
<event>
 7    1  0.2612321E-009  0.1246438E+03  0.7561462E-02  0.1235627E+00
         -2   -1    0    0    0  501 -0.00000000000E+00  0.00000000000E+00  0.33389664425E+02  0.33389664425E+02  0.00000000000E+00 0.  1.
          2   -1    0    0  501    0  0.00000000000E+00 -0.00000000000E+00 -0.11128334107E+04  0.11128334107E+04  0.00000000000E+00 0. -1.
         25    2    1    2    0    0 -0.79408834071E+02  0.48002944068E+02 -0.95005815095E+03  0.96273994999E+03  0.12509066926E+03 0.  0.
          5    1    3    3  502    0 -0.11266003621E+03  0.37003405493E+02 -0.66436187187E+03  0.67487458462E+03  0.41800000000E+01 0. -1.
         -5    1    3    3    0  502  0.33251202138E+02  0.10999538575E+02 -0.28569627908E+03  0.28786536536E+03  0.41800000000E+01 0. -1.
        -11    1    1    2    0    0  0.42424638793E+02 -0.12830658242E+02  0.77782008500E-01  0.44322475310E+02  0.00000000000E+00 0.  1.
         11    1    1    2    0    0  0.36984195278E+02 -0.35172285826E+02 -0.12946337731E+03  0.13916064981E+03  0.00000000000E+00 0. -1.
</event>
<event>
 7    1  0.2612321E-009  0.2517028E+03  0.7561462E-02  0.1112233E+00
          1   -1    0    0  501    0  0.00000000000E+00  0.00000000000E+00  0.11155559540E+04  0.11155559540E+04  0.00000000000E+00 0. -1.
         -1   -1    0    0    0  501 -0.00000000000E+00 -0.00000000000E+00 -0.91931763321E+02  0.91931763321E+02  0.00000000000E+00 0.  1.
         25    2    1    2    0    0 -0.23896572438E+03 -0.56485784247E+02  0.84797660595E+03  0.89163189015E+03  0.12509133476E+03 0.  0.
          5    1    3    3  502    0 -0.39069386863E+02  0.33648638106E+01  0.34251280162E+03  0.34477562410E+03  0.41800000000E+01 0.  1.
         -5    1    3    3    0  502 -0.19989633752E+03 -0.59850648057E+02  0.50546380433E+03  0.54685626605E+03  0.41800000000E+01 0.  1.
        -11    1    1    2    0    0  0.12231589624E+03  0.64609179485E+02  0.58050916790E+02  0.15001811053E+03  0.00000000000E+00 0.  1.
         11    1    1    2    0    0  0.11664982814E+03 -0.81233952379E+01  0.11759666798E+03  0.16583771669E+03  0.00000000000E+00 0. -1.
</event>
<event>
 7    1  0.2612321E-009  0.9420298E+02  0.7561462E-02  0.1292981E+00
          2   -1    0    0  501    0  0.00000000000E+00  0.00000000000E+00  0.76103750739E+03  0.76103750739E+03  0.00000000000E+00 0. -1.
         -2   -1    0    0    0  501 -0.00000000000E+00 -0.00000000000E+00 -0.33478286766E+02  0.33478286766E+02  0.00000000000E+00 0.  1.
         25    2    1    2    0    0  0.17915854449E+02 -0.28721824735E+02  0.65124681290E+03  0.66401476854E+03  0.12508909011E+03 0.  0.
          5    1    3    3  502    0 -0.26043261967E+02  0.13184017894E+02  0.50150765389E+03  0.50237383404E+03  0.41800000000E+01 0. -1.
         -5    1    3    3    0  502  0.43959116416E+02 -0.41905842629E+02  0.14973915901E+03  0.16164093450E+03  0.41800000000E+01 0. -1.
        -11    1    1    2    0    0 -0.51857276922E+02 -0.25085978495E+01  0.15512299564E+02  0.54185806911E+02  0.00000000000E+00 0.  1.
         11    1    1    2    0    0  0.33941422473E+02  0.31230422585E+02  0.60800108159E+02  0.76315218708E+02  0.00000000000E+00 0. -1.
</event>
<event>
 7    1  0.2612321E-009  0.2101139E+03  0.7561462E-02  0.1141476E+00
          1   -1    0    0  501    0  0.00000000000E+00  0.00000000000E+00  0.24140481692E+04  0.24140481692E+04  0.00000000000E+00 0. -1.
         -1   -1    0    0    0  501 -0.00000000000E+00 -0.00000000000E+00 -0.20979184635E+02  0.20979184635E+02  0.00000000000E+00 0.  1.
         25    2    1    2    0    0 -0.17880926526E+03  0.82783146260E+02  0.12850309076E+04  0.13060541821E+04  0.12508913061E+03 0.  0.
          5    1    3    3  502    0 -0.11264218666E+03  0.84614061575E+02  0.54048525477E+03  0.55856027844E+03  0.41800000000E+01 0. -1.
         -5    1    3    3    0  502 -0.66167078605E+02 -0.18309153147E+01  0.74454565281E+03  0.74749390369E+03  0.41800000000E+01 0. -1.
        -11    1    1    2    0    0  0.15786995169E+03 -0.36317345501E+02  0.91987543236E+03  0.93403034334E+03  0.00000000000E+00 0.  1.
         11    1    1    2    0    0  0.20939313574E+02 -0.46465800759E+02  0.18816264461E+03  0.19494282834E+03  0.00000000000E+00 0. -1.
</event>
<event>
 7    1  0.2612321E-009  0.1419205E+03  0.7561462E-02  0.1210768E+00
         -2   -1    0    0    0  501 -0.00000000000E+00  0.00000000000E+00  0.12148412728E+03  0.12148412728E+03  0.00000000000E+00 0.  1.
          2   -1    0    0  501    0  0.00000000000E+00 -0.00000000000E+00 -0.20821302261E+03  0.20821302261E+03  0.00000000000E+00 0. -1.
         25    2    1    2    0    0 -0.10020232754E+03 -0.42877453855E+02 -0.86721175919E+02  0.18721132795E+03  0.12509411044E+03 0.  0.
          5    1    3    3  502    0 -0.53462569989E+02  0.29699261055E+02 -0.79633639971E+02  0.10049518154E+03  0.41800000000E+01 0.  1.
         -5    1    3    3    0  502 -0.46739757554E+02 -0.72576714910E+02 -0.70875359482E+01  0.86716146416E+02  0.41800000000E+01 0.  1.
        -11    1    1    2    0    0  0.10880345761E+03  0.54472310028E+02 -0.13877122425E+02  0.12246631975E+03  0.00000000000E+00 0. -1.
         11    1    1    2    0    0 -0.86011300631E+01 -0.11594856173E+02  0.13869403015E+02  0.20019502192E+02  0.00000000000E+00 0.  1.
</event>
<event>
 7    1  0.2612321E-009  0.9671474E+02  0.7561462E-02  0.1287360E+00
          4   -1    0    0  501    0  0.00000000000E+00  0.00000000000E+00  0.25699004825E+02  0.25699004825E+02  0.00000000000E+00 0. -1.
         -4   -1    0    0    0  501 -0.00000000000E+00 -0.00000000000E+00 -0.70393202938E+03  0.70393202938E+03  0.00000000000E+00 0.  1.
         25    2    1    2    0    0  0.11488570782E+02  0.78682023348E+02 -0.33828020124E+03  0.36932882313E+03  0.12508971575E+03 0.  0.
          5    1    3    3  502    0  0.72095798725E+01  0.72088779857E+02 -0.69760736487E+02  0.10066182483E+03  0.41800000000E+01 0. -1.
         -5    1    3    3    0  502  0.42789909094E+01  0.65932434914E+01 -0.26851946475E+03  0.26866699830E+03  0.41800000000E+01 0. -1.
        -11    1    1    2    0    0 -0.14624662540E+02  0.13392494283E+02 -0.23691035976E+02  0.30895061792E+02  0.00000000000E+00 0. -1.
         11    1    1    2    0    0  0.31360917579E+01 -0.92074517631E+02 -0.31626178734E+03  0.32940714928E+03  0.00000000000E+00 0.  1.
</event>
<event>
 7    1  0.2612321E-009  0.1139861E+03  0.7561462E-02  0.1253361E+00
          1   -1    0    0  501    0  0.00000000000E+00  0.00000000000E+00  0.36835344953E+03  0.36835344953E+03  0.00000000000E+00 0. -1.
         -1   -1    0    0    0  501 -0.00000000000E+00 -0.00000000000E+00 -0.42544747683E+02  0.42544747683E+02  0.00000000000E+00 0.  1.
         25    2    1    2    0    0 -0.42931655541E+02  0.35374232103E+02  0.22447082102E+03  0.26292246790E+03  0.12508641531E+03 0.  0.
          5    1    3    3  502    0  0.10254923626E+02 -0.38762532928E+02  0.10545672180E+03  0.11289946851E+03  0.41800000000E+01 0. -1.
         -5    1    3    3    0  502 -0.53186579167E+02  0.74136765031E+02  0.11901409922E+03  0.15002299939E+03  0.41800000000E+01 0. -1.
        -11    1    1    2    0    0  0.37614113585E+02  0.18686236346E+02  0.78539148501E+02  0.89063992819E+02  0.00000000000E+00 0.  1.
         11    1    1    2    0    0  0.53175419556E+01 -0.54060468449E+02  0.22798732336E+02  0.58911736501E+02  0.00000000000E+00 0. -1.
</event>
<event>
 6    1  0.2612321E-009  0.1207794E+03  0.7561462E-02  0.1241817E+00
          2   -1    0    0  501    0  0.00000000000E+00  0.00000000000E+00  0.61906207088E+02  0.61906207088E+02  0.00000000000E+00 0. -1.
         -2   -1    0    0    0  501 -0.00000000000E+00 -0.00000000000E+00 -0.30801244094E+03  0.30801244094E+03  0.00000000000E+00 0.  1.
          5    1    1    2  502    0 -0.45163438985E+02  0.21656375038E+02 -0.94431138158E+02  0.10697404851E+03  0.41800000000E+01 0.  1.
         -5    1    1    2    0  502  0.83854147027E+02  0.15327093513E+02 -0.12830539357E+03  0.15409796945E+03  0.41800000000E+01 0.  1.
        -11    1    1    2    0    0  0.23942133448E+02 -0.36093485001E+02 -0.51875026215E+01  0.43621962324E+02  0.00000000000E+00 0.  1.
         11    1    1    2    0    0 -0.62632841490E+02 -0.88998355015E+00 -0.18182199504E+02  0.65224667746E+02  0.00000000000E+00 0. -1.
</event>
<event>
 7    1  0.2612321E-009  0.2258681E+03  0.7561462E-02  0.1129582E+00
          1   -1    0    0  501    0  0.00000000000E+00  0.00000000000E+00  0.78904047154E+03  0.78904047154E+03  0.00000000000E+00 0. -1.
         -1   -1    0    0    0  501 -0.00000000000E+00 -0.00000000000E+00 -0.10220743224E+03  0.10220743224E+03  0.00000000000E+00 0.  1.
         25    2    1    2    0    0  0.20642165176E+03  0.49855506039E+02  0.59131892551E+03  0.64063008162E+03  0.12511338863E+03 0.  0.
          5    1    3    3  502    0  0.14921194906E+03  0.63711449598E+02  0.53492768389E+03  0.55900666717E+03  0.41800000000E+01 0. -1.
         -5    1    3    3    0  502  0.57209702698E+02 -0.13855943559E+02  0.56391241620E+02  0.81623414448E+02  0.41800000000E+01 0. -1.
        -11    1    1    2    0    0 -0.70103377027E+02 -0.61974388184E+02  0.25975591121E+02  0.97108390964E+02  0.00000000000E+00 0. -1.
         11    1    1    2    0    0 -0.13631827473E+03  0.12118882146E+02  0.69538522670E+02  0.15350943120E+03  0.00000000000E+00 0.  1.
</event>
<event>
 7    1  0.2612321E-009  0.9898562E+02  0.7561462E-02  0.1282444E+00
          4   -1    0    0  501    0  0.00000000000E+00  0.00000000000E+00  0.13623589335E+03  0.13623589335E+03  0.00000000000E+00 0. -1.
         -4   -1    0    0    0  501 -0.00000000000E+00 -0.00000000000E+00 -0.10622294911E+03  0.10622294911E+03  0.00000000000E+00 0.  1.
         25    2    1    2    0    0 -0.92074089713E+01  0.48496401950E+02 -0.29249515804E+01  0.13450707866E+03  0.12508765521E+03 0.  0.
          5    1    3    3  502    0 -0.50547165598E+02  0.10386245841E+02 -0.41365774112E+02  0.66268316113E+02  0.41800000000E+01 0.  1.
         -5    1    3    3    0  502  0.41339756626E+02  0.38110156109E+02  0.38440822532E+02  0.68238762543E+02  0.41800000000E+01 0.  1.
        -11    1    1    2    0    0  0.40923994126E+02 -0.14736303735E+02  0.42322906758E+02  0.60689046618E+02  0.00000000000E+00 0. -1.
         11    1    1    2    0    0 -0.31716585155E+02 -0.33760098215E+02 -0.93850109410E+01  0.47262717185E+02  0.00000000000E+00 0.  1.
</event>
<event>
 7    1  0.2612321E-009  0.1575575E+03  0.7561462E-02  0.1191482E+00
          1   -1    0    0  501    0  0.00000000000E+00  0.00000000000E+00  0.10371713898E+04  0.10371713898E+04  0.00000000000E+00 0. -1.
         -1   -1    0    0    0  501 -0.00000000000E+00 -0.00000000000E+00 -0.39838420981E+02  0.39838420981E+02  0.00000000000E+00 0.  1.
         25    2    1    2    0    0 -0.74815054422E+02 -0.12588818991E+03  0.28514946538E+03  0.34409726862E+03  0.12509030314E+03 0.  0.
          5    1    3    3  502    0 -0.12561451746E+02 -0.22208408609E+02  0.18563505901E+03  0.18742692180E+03  0.41800000000E+01 0.  1.
         -5    1    3    3    0  502 -0.62253602676E+02 -0.10367978131E+03  0.99514406371E+02  0.15667034682E+03  0.41800000000E+01 0.  1.
        -11    1    1    2    0    0  0.89620599181E+02  0.12447465261E+03  0.68463199824E+03  0.70160299597E+03  0.00000000000E+00 0.  1.
         11    1    1    2    0    0 -0.14805544759E+02  0.14135373025E+01  0.27551505149E+02  0.31309546137E+02  0.00000000000E+00 0. -1.
</event>
<event>
 7    1  0.2612321E-009  0.1072496E+03  0.7561462E-02  0.1265750E+00
          1   -1    0    0  501    0  0.00000000000E+00  0.00000000000E+00  0.22700018329E+03  0.22700018329E+03  0.00000000000E+00 0. -1.
         -1   -1    0    0    0  501 -0.00000000000E+00 -0.00000000000E+00 -0.91556302676E+02  0.91556302676E+02  0.00000000000E+00 0.  1.
         25    2    1    2    0    0  0.68215616951E+02 -0.61368560317E+02  0.43513177921E+02  0.16112834650E+03  0.12509786889E+03 0.  0.
          5    1    3    3  502    0  0.48168975287E+02  0.87932208540E+01 -0.29908930255E+02  0.57529013743E+02  0.41800000000E+01 0. -1.
         -5    1    3    3    0  502  0.20046641664E+02 -0.70161781171E+02  0.73422108176E+02  0.10359933276E+03  0.41800000000E+01 0. -1.
        -11    1    1    2    0    0 -0.64412737165E+01  0.10148806430E+02 -0.17804339047E+02  0.21482149984E+02  0.00000000000E+00 0.  1.
         11    1    1    2    0    0 -0.61774343235E+02  0.51219753888E+02  0.10973504174E+03  0.13594598948E+03  0.00000000000E+00 0. -1.
</event>
<event>
 7    1  0.2612321E-009  0.9402868E+02  0.7561462E-02  0.1293379E+00
         -1   -1    0    0    0  501 -0.00000000000E+00  0.00000000000E+00  0.24731561825E+03  0.24731561825E+03  0.00000000000E+00 0. -1.
          1   -1    0    0  501    0  0.00000000000E+00 -0.00000000000E+00 -0.70645796770E+02  0.70645796770E+02  0.00000000000E+00 0.  1.
         25    2    1    2    0    0 -0.61487634855E+02  0.52536341922E+02  0.94531430233E+02  0.17642273125E+03  0.12509193554E+03 0.  0.
          5    1    3    3  502    0 -0.72266037835E+01  0.52093349852E+02  0.10814028030E+03  0.12032345376E+03  0.41800000000E+01 0. -1.
         -5    1    3    3    0  502 -0.54261031072E+02  0.44299206908E+00 -0.13608850065E+02  0.56099277491E+02  0.41800000000E+01 0. -1.
        -11    1    1    2    0    0  0.49088672028E+02 -0.42094343239E+02  0.74289597437E+01  0.65090866464E+02  0.00000000000E+00 0.  1.
         11    1    1    2    0    0  0.12398962827E+02 -0.10441998683E+02  0.74709431502E+02  0.76447817308E+02  0.00000000000E+00 0. -1.
</event>
<event>
 7    1  0.2612321E-009  0.1554514E+03  0.7561462E-02  0.1193930E+00
         -1   -1    0    0    0  501 -0.00000000000E+00  0.00000000000E+00  0.11954369591E+03  0.11954369591E+03  0.00000000000E+00 0.  1.
          1   -1    0    0  501    0  0.00000000000E+00 -0.00000000000E+00 -0.26276058790E+03  0.26276058790E+03  0.00000000000E+00 0. -1.
         25    2    1    2    0    0  0.12434689057E+03  0.45045492838E+02 -0.25521700148E+02  0.18382147593E+03  0.12509089581E+03 0.  0.
          5    1    3    3  502    0  0.15871574474E+02  0.63492942077E+02  0.13582830744E+02  0.66971831847E+02  0.41800000000E+01 0. -1.
         -5    1    3    3    0  502  0.10847531610E+03 -0.18447449239E+02 -0.39104530892E+02  0.11684964408E+03  0.41800000000E+01 0. -1.
        -11    1    1    2    0    0 -0.10562631272E+03 -0.26588274015E+02 -0.39295660152E+02  0.11579293225E+03  0.00000000000E+00 0.  1.
         11    1    1    2    0    0 -0.18720577853E+02 -0.18457218823E+02 -0.78399531687E+02  0.82689875623E+02  0.00000000000E+00 0. -1.
</event>
<event>
 7    1  0.2612321E-009  0.1195091E+03  0.7561462E-02  0.1243909E+00
         -1   -1    0    0    0  501 -0.00000000000E+00  0.00000000000E+00  0.39031903181E+02  0.39031903181E+02  0.00000000000E+00 0.  1.
          1   -1    0    0  501    0  0.00000000000E+00 -0.00000000000E+00 -0.77978203871E+03  0.77978203871E+03  0.00000000000E+00 0. -1.
         25    2    1    2    0    0  0.32960809015E+02  0.53422049307E+02 -0.67722371716E+03  0.69153386339E+03  0.12508713303E+03 0.  0.
          5    1    3    3  502    0 -0.27735314572E+02 -0.22815598416E+02 -0.28863688028E+03  0.29089262669E+03  0.41800000000E+01 0.  1.
         -5    1    3    3    0  502  0.60696123587E+02  0.76237647723E+02 -0.38858683688E+03  0.40064123670E+03  0.41800000000E+01 0.  1.
        -11    1    1    2    0    0 -0.61820696025E+02 -0.34222332808E+02 -0.59516292120E+02  0.92385905568E+02  0.00000000000E+00 0.  1.
         11    1    1    2    0    0  0.28859887010E+02 -0.19199716499E+02 -0.40101262459E+01  0.34894172928E+02  0.00000000000E+00 0. -1.
</event>
<event>
 7    1  0.2612321E-009  0.1931053E+03  0.7561462E-02  0.1155690E+00
         -2   -1    0    0    0  501 -0.00000000000E+00  0.00000000000E+00  0.69786207529E+02  0.69786207529E+02  0.00000000000E+00 0.  1.
          2   -1    0    0  501    0  0.00000000000E+00 -0.00000000000E+00 -0.62197096031E+03  0.62197096031E+03  0.00000000000E+00 0. -1.
         25    2    1    2    0    0 -0.17352441319E+03 -0.25122939558E+02 -0.25903643003E+03  0.33688140037E+03  0.12508925520E+03 0.  0.
          5    1    3    3  502    0 -0.50536583325E+02  0.32791594215E+02 -0.15280487027E+03  0.16430470378E+03  0.41800000000E+01 0.  1.
         -5    1    3    3    0  502 -0.12298782986E+03 -0.57914533772E+02 -0.10623155976E+03  0.17257669659E+03  0.41800000000E+01 0.  1.
        -11    1    1    2    0    0  0.40461709655E+02  0.38792846939E+02 -0.41014097925E+02  0.69456397477E+02  0.00000000000E+00 0.  1.
         11    1    1    2    0    0  0.13306270353E+03 -0.13669907381E+02 -0.25213422483E+03  0.28541937000E+03  0.00000000000E+00 0. -1.
</event>
<event>
 7    1  0.2612321E-009  0.1211839E+03  0.7561462E-02  0.1241157E+00
          2   -1    0    0  501    0  0.00000000000E+00  0.00000000000E+00  0.73755622610E+03  0.73755622610E+03  0.00000000000E+00 0. -1.
         -2   -1    0    0    0  501 -0.00000000000E+00 -0.00000000000E+00 -0.27274513643E+02  0.27274513643E+02  0.00000000000E+00 0.  1.
         25    2    1    2    0    0 -0.50884114013E+02  0.45390483881E+02  0.57437695885E+03  0.59177802276E+03  0.12507137274E+03 0.  0.
          5    1    3    3  502    0 -0.67657789938E+02 -0.21966600325E+02  0.33556673660E+03  0.34304899822E+03  0.41800000000E+01 0.  1.
         -5    1    3    3    0  502  0.16773675925E+02  0.67357084207E+02  0.23881022225E+03  0.24872902454E+03  0.41800000000E+01 0.  1.
        -11    1    1    2    0    0  0.52202128359E+02 -0.64183247834E+02  0.84289959194E+02  0.11810736103E+03  0.00000000000E+00 0. -1.
         11    1    1    2    0    0 -0.13180143463E+01  0.18792763953E+02  0.51614794411E+02  0.54945355954E+02  0.00000000000E+00 0.  1.
</event>
<event>
 7    1  0.2612321E-009  0.2374068E+03  0.7561462E-02  0.1121532E+00
         -4   -1    0    0    0  501 -0.00000000000E+00  0.00000000000E+00  0.13594093655E+03  0.13594093655E+03  0.00000000000E+00 0.  1.
          4   -1    0    0  501    0  0.00000000000E+00 -0.00000000000E+00 -0.50764023050E+03  0.50764023050E+03  0.00000000000E+00 0. -1.
         25    2    1    2    0    0  0.34510203889E+02 -0.22852771705E+03 -0.26475578311E+03  0.37303608990E+03  0.12507768804E+03 0.  0.
          5    1    3    3  502    0  0.30139462907E+02 -0.98338307675E+02 -0.20555777219E+03  0.22989188783E+03  0.41800000000E+01 0. -1.
         -5    1    3    3    0  502  0.43707409817E+01 -0.13018940938E+03 -0.59198010921E+02  0.14314420207E+03  0.41800000000E+01 0. -1.
        -11    1    1    2    0    0 -0.15363728787E+02  0.35681557538E+01  0.74524764424E+01  0.17444635360E+02  0.00000000000E+00 0.  1.
         11    1    1    2    0    0 -0.19146475102E+02  0.22495956130E+03 -0.11439598728E+03  0.25310044179E+03  0.00000000000E+00 0. -1.
</event>
<event>
 7    1  0.2612321E-009  0.1932116E+03  0.7561462E-02  0.1155596E+00
         -2   -1    0    0    0  501 -0.00000000000E+00  0.00000000000E+00  0.54089758735E+02  0.54089758735E+02  0.00000000000E+00 0. -1.
          2   -1    0    0  501    0  0.00000000000E+00 -0.00000000000E+00 -0.74894583968E+03  0.74894583968E+03  0.00000000000E+00 0.  1.
         25    2    1    2    0    0 -0.10492612268E+03 -0.13590473310E+03 -0.33625770740E+03  0.39773918513E+03  0.12509047087E+03 0.  0.
          5    1    3    3  502    0 -0.12118639164E+03 -0.14792768182E+03 -0.29467216473E+03  0.35130883512E+03  0.41800000000E+01 0. -1.
         -5    1    3    3    0  502  0.16260268961E+02  0.12022948722E+02 -0.41585542671E+02  0.46430350008E+02  0.41800000000E+01 0. -1.
        -11    1    1    2    0    0  0.32847746215E+02  0.21425890382E+02 -0.28283158572E+02  0.48352665582E+02  0.00000000000E+00 0.  1.
         11    1    1    2    0    0  0.72078376462E+02  0.11447884272E+03 -0.33031521497E+03  0.35694374771E+03  0.00000000000E+00 0. -1.
</event>
<event>
 7    1  0.2612321E-009  0.1168545E+03  0.7561462E-02  0.1248378E+00
         -2   -1    0    0    0  501 -0.00000000000E+00  0.00000000000E+00  0.32540616007E+02  0.32540616007E+02  0.00000000000E+00 0. -1.
          2   -1    0    0  501    0  0.00000000000E+00 -0.00000000000E+00 -0.60904921696E+03  0.60904921696E+03  0.00000000000E+00 0.  1.
         25    2    1    2    0    0 -0.92830606357E+02 -0.19436723922E+02 -0.37027939338E+03  0.40218089875E+03  0.12508932186E+03 0.  0.
          5    1    3    3  502    0  0.83666069152E+01 -0.28036273191E+02 -0.21215111001E+03  0.21419990338E+03  0.41800000000E+01 0.  1.
         -5    1    3    3    0  502 -0.10119721327E+03  0.85995492695E+01 -0.15812828337E+03  0.18798099538E+03  0.41800000000E+01 0.  1.
        -11    1    1    2    0    0  0.76251209482E+02 -0.91401907283E+00 -0.19755771497E+03  0.21176433393E+03  0.00000000000E+00 0.  1.
         11    1    1    2    0    0  0.16579396874E+02  0.20350742994E+02 -0.86714925951E+01  0.27644600286E+02  0.00000000000E+00 0. -1.
</event>
<event>
 7    1  0.2612321E-009  0.1253473E+03  0.7561462E-02  0.1234527E+00
         -2   -1    0    0    0  501 -0.00000000000E+00  0.00000000000E+00  0.47076841075E+03  0.47076841075E+03  0.00000000000E+00 0.  1.
          2   -1    0    0  501    0  0.00000000000E+00 -0.00000000000E+00 -0.48668916848E+02  0.48668916848E+02  0.00000000000E+00 0. -1.
         25    2    1    2    0    0  0.66246014973E+02  0.78350170616E+02  0.26570802891E+03  0.31108812238E+03  0.12509108491E+03 0.  0.
          5    1    3    3  502    0  0.62957525603E+02 -0.40581749301E+01  0.51609756134E+02  0.81615918435E+02  0.41800000000E+01 0. -1.
         -5    1    3    3    0  502  0.32884893706E+01  0.82408345547E+02  0.21409827278E+03  0.22947220395E+03  0.41800000000E+01 0. -1.
        -11    1    1    2    0    0 -0.31705822375E+02 -0.21297408065E+02  0.13187080201E+03  0.13729073962E+03  0.00000000000E+00 0.  1.
         11    1    1    2    0    0 -0.34540192599E+02 -0.57052762552E+02  0.24520662978E+02  0.71058465593E+02  0.00000000000E+00 0. -1.
</event>
<event>
 7    1  0.2612321E-009  0.6817100E+02  0.7561462E-02  0.1366425E+00
         -2   -1    0    0    0  501 -0.00000000000E+00  0.00000000000E+00  0.12121750058E+03  0.12121750058E+03  0.00000000000E+00 0.  1.
          2   -1    0    0  501    0  0.00000000000E+00 -0.00000000000E+00 -0.11130592177E+03  0.11130592177E+03  0.00000000000E+00 0. -1.
         25    2    1    2    0    0 -0.10796188149E+02  0.28593534225E+02  0.29971275102E+02  0.13220673281E+03  0.12508475123E+03 0.  0.
          5    1    3    3  502    0 -0.11708876135E+01  0.32484572094E+02 -0.45408739804E+02  0.56000396896E+02  0.41800000000E+01 0.  1.
         -5    1    3    3    0  502 -0.96253005355E+01 -0.38910378693E+01  0.75380014906E+02  0.76206335913E+02  0.41800000000E+01 0.  1.
        -11    1    1    2    0    0  0.44922347237E+02 -0.35866612726E+02 -0.28873496473E+02  0.64328143050E+02  0.00000000000E+00 0. -1.
         11    1    1    2    0    0 -0.34126159088E+02  0.72730785016E+01  0.88138001874E+01  0.35988546493E+02  0.00000000000E+00 0.  1.
</event>
<event>
 7    1  0.2612321E-009  0.1341525E+03  0.7561462E-02  0.1221421E+00
          2   -1    0    0  501    0  0.00000000000E+00  0.00000000000E+00  0.15194909169E+03  0.15194909169E+03  0.00000000000E+00 0. -1.
         -2   -1    0    0    0  501 -0.00000000000E+00 -0.00000000000E+00 -0.12389388885E+03  0.12389388885E+03  0.00000000000E+00 0.  1.
         25    2    1    2    0    0 -0.40844189341E+02  0.71829536874E+02  0.85204105734E+01  0.15015916151E+03  0.12508975265E+03 0.  0.
          5    1    3    3  502    0  0.34081714938E+02 -0.77537847821E+01 -0.15017660116E+02  0.38271229232E+02  0.41800000000E+01 0. -1.
         -5    1    3    3    0  502 -0.74925904279E+02  0.79583321656E+02  0.23538070690E+02  0.11188793228E+03  0.41800000000E+01 0. -1.
        -11    1    1    2    0    0  0.65834759867E+02 -0.24590626534E+02  0.58677050810E+01  0.70521943273E+02  0.00000000000E+00 0.  1.
         11    1    1    2    0    0 -0.24990570526E+02 -0.47238910340E+02  0.13667087189E+02  0.55161875762E+02  0.00000000000E+00 0. -1.
</event>
<event>
 7    1  0.2612321E-009  0.1471403E+03  0.7561462E-02  0.1204032E+00
          1   -1    0    0  501    0  0.00000000000E+00  0.00000000000E+00  0.40878744791E+03  0.40878744791E+03  0.00000000000E+00 0. -1.
         -1   -1    0    0    0  501 -0.00000000000E+00 -0.00000000000E+00 -0.64525124135E+02  0.64525124135E+02  0.00000000000E+00 0.  1.
         25    2    1    2    0    0 -0.11221328398E+03  0.60373494471E+01  0.10749454978E+03  0.19957493367E+03  0.12508719050E+03 0.  0.
          5    1    3    3  502    0  0.24140421047E+02 -0.15718869372E+02  0.26939184590E+02  0.39661503363E+02  0.41800000000E+01 0.  1.
         -5    1    3    3    0  502 -0.13635370503E+03  0.21756218819E+02  0.80555365195E+02  0.15991343031E+03  0.41800000000E+01 0.  1.
        -11    1    1    2    0    0  0.42759452504E+02  0.26528858494E+02  0.46209316049E+02  0.68318752925E+02  0.00000000000E+00 0.  1.
         11    1    1    2    0    0  0.69453831474E+02 -0.32566207941E+02  0.19055845794E+03  0.20541888545E+03  0.00000000000E+00 0. -1.
</event>
<event>
 7    1  0.2612321E-009  0.9041679E+02  0.7561462E-02  0.1301846E+00
         -4   -1    0    0    0  501 -0.00000000000E+00  0.00000000000E+00  0.46151167705E+03  0.46151167705E+03  0.00000000000E+00 0.  1.
          4   -1    0    0  501    0  0.00000000000E+00 -0.00000000000E+00 -0.38634606502E+02  0.38634606502E+02  0.00000000000E+00 0. -1.
         25    2    1    2    0    0 -0.38143393125E+02  0.71577230961E+02  0.24511141682E+03  0.28688616539E+03  0.12508335944E+03 0.  0.
          5    1    3    3  502    0 -0.47573476131E+02  0.39011815859E+02  0.24508750303E+03  0.25272616396E+03  0.41800000000E+01 0.  1.
         -5    1    3    3    0  502  0.94300830062E+01  0.32565415102E+02  0.23913789954E-01  0.34160001436E+02  0.41800000000E+01 0.  1.
        -11    1    1    2    0    0  0.58021692268E+00 -0.25735913185E+02 -0.13969757028E+00  0.25742831907E+02  0.00000000000E+00 0. -1.
         11    1    1    2    0    0  0.37563176202E+02 -0.45841317776E+02  0.17790535131E+03  0.18751728626E+03  0.00000000000E+00 0.  1.
</event>
<event>
 7    1  0.2612321E-009  0.1333575E+03  0.7561462E-02  0.1222557E+00
          2   -1    0    0  501    0  0.00000000000E+00  0.00000000000E+00  0.21903947779E+03  0.21903947779E+03  0.00000000000E+00 0. -1.
         -2   -1    0    0    0  501 -0.00000000000E+00 -0.00000000000E+00 -0.10987956327E+03  0.10987956327E+03  0.00000000000E+00 0.  1.
         25    2    1    2    0    0 -0.23423496742E+02 -0.88547551774E+02  0.12374514503E+03  0.19836851700E+03  0.12509148050E+03 0.  0.
          5    1    3    3  502    0  0.29574767919E+02 -0.90318180297E+02  0.50079405357E+02  0.10750562697E+03  0.41800000000E+01 0. -1.
         -5    1    3    3    0  502 -0.52998264661E+02  0.17706285226E+01  0.73665739671E+02  0.90862890025E+02  0.41800000000E+01 0. -1.
        -11    1    1    2    0    0  0.50938191066E+02  0.60783072706E+02  0.16018609304E+02  0.80906594791E+02  0.00000000000E+00 0. -1.
         11    1    1    2    0    0 -0.27514694324E+02  0.27764479068E+02 -0.30603839817E+02  0.49643929268E+02  0.00000000000E+00 0.  1.
</event>
<event>
 7    1  0.2612321E-009  0.9401810E+02  0.7561462E-02  0.1293403E+00
          1   -1    0    0  501    0  0.00000000000E+00  0.00000000000E+00  0.85980852292E+03  0.85980852292E+03  0.00000000000E+00 0. -1.
         -1   -1    0    0    0  501 -0.00000000000E+00 -0.00000000000E+00 -0.20846504699E+02  0.20846504699E+02  0.00000000000E+00 0.  1.
         25    2    1    2    0    0 -0.12156274431E+02  0.53305774799E+02  0.64704678380E+03  0.66129144881E+03  0.12509020428E+03 0.  0.
          5    1    3    3  502    0 -0.36498244990E+02  0.37664951902E+02  0.61746137549E+03  0.61969895362E+03  0.41800000000E+01 0.  1.
         -5    1    3    3    0  502  0.24341970558E+02  0.15640822897E+02  0.29585408310E+02  0.41592495194E+02  0.41800000000E+01 0.  1.
        -11    1    1    2    0    0 -0.52887586692E+01  0.25209312078E+02  0.43411912073E+02  0.50478455736E+02  0.00000000000E+00 0.  1.
         11    1    1    2    0    0  0.17445033100E+02 -0.78515086877E+02  0.14850332234E+03  0.16888512307E+03  0.00000000000E+00 0. -1.
</event>
<event>
 7    1  0.2612321E-009  0.1072189E+03  0.7561462E-02  0.1265808E+00
         -1   -1    0    0    0  501 -0.00000000000E+00  0.00000000000E+00  0.12886098219E+03  0.12886098219E+03  0.00000000000E+00 0.  1.
          1   -1    0    0  501    0  0.00000000000E+00 -0.00000000000E+00 -0.14094645613E+03  0.14094645613E+03  0.00000000000E+00 0. -1.
         25    2    1    2    0    0  0.15047830291E+02  0.75289749781E+02  0.15453431792E+02  0.14758530440E+03  0.12509048685E+03 0.  0.
          5    1    3    3  502    0 -0.39301966570E+02 -0.24862032115E+01 -0.22220724867E+02  0.45409897559E+02  0.41800000000E+01 0.  1.
         -5    1    3    3    0  502  0.54349796861E+02  0.77775952993E+02  0.37674156659E+02  0.10217540684E+03  0.41800000000E+01 0.  1.
        -11    1    1    2    0    0 -0.17458588167E+02 -0.31587459402E+02  0.32062494180E+02  0.48276012940E+02  0.00000000000E+00 0.  1.
         11    1    1    2    0    0  0.24107578757E+01 -0.43702290379E+02 -0.59601399903E+02  0.73946120982E+02  0.00000000000E+00 0. -1.
</event>
<event>
 7    1  0.2612321E-009  0.1182513E+03  0.7561462E-02  0.1246010E+00
         -1   -1    0    0    0  501 -0.00000000000E+00  0.00000000000E+00  0.49146951309E+03  0.49146951309E+03  0.00000000000E+00 0.  1.
          1   -1    0    0  501    0  0.00000000000E+00 -0.00000000000E+00 -0.73394692772E+02  0.73394692772E+02  0.00000000000E+00 0. -1.
         25    2    1    2    0    0  0.70657713833E+02  0.86750117533E+02  0.58979336421E+02  0.17788795153E+03  0.12508983076E+03 0.  0.
          5    1    3    3  502    0  0.73114832915E+02  0.54505855940E+02 -0.19104843353E+02  0.93269151189E+02  0.41800000000E+01 0.  1.
         -5    1    3    3    0  502 -0.24571190827E+01  0.32244261593E+02  0.78084179774E+02  0.84618800340E+02  0.41800000000E+01 0.  1.
        -11    1    1    2    0    0 -0.52993504795E+02 -0.55703195127E+02  0.33542826026E+03  0.34412683022E+03  0.00000000000E+00 0.  1.
         11    1    1    2    0    0 -0.17664209037E+02 -0.31046922406E+02  0.23667223631E+02  0.42849424106E+02  0.00000000000E+00 0. -1.
</event>
<event>
 7    1  0.2705955E-009  0.8207007E+02  0.7561462E-02  0.1323277E+00
          1   -1    0    0  501    0  0.00000000000E+00  0.00000000000E+00  0.32301234402E+03  0.32301234402E+03  0.00000000000E+00 0.  1.
         -1   -1    0    0    0  501 -0.00000000000E+00 -0.00000000000E+00 -0.48975464143E+02  0.48975464143E+02  0.00000000000E+00 0. -1.
         25    2    1    2    0    0  0.29818814205E+02 -0.32755900070E+02  0.22042083102E+03  0.25728665803E+03  0.12509584719E+03 0.  0.
          5    1    3    3  502    0 -0.18568658262E+02 -0.24240332198E+02  0.20248540901E+03  0.20481748470E+03  0.41800000000E+01 0.  1.
         -5    1    3    3    0  502  0.48387472467E+02 -0.85155678724E+01  0.17935422009E+02  0.52469173337E+02  0.41800000000E+01 0.  1.
        -11    1    1    2    0    0  0.71303445888E+01  0.44634255661E+02 -0.38419118099E+01  0.45363188587E+02  0.00000000000E+00 0. -1.
         11    1    1    2    0    0 -0.36949158794E+02 -0.11878355591E+02  0.57457960664E+02  0.69337961542E+02  0.00000000000E+00 0.  1.
</event>
<event>
 7    1  0.2612321E-009  0.1268089E+03  0.7561462E-02  0.1232269E+00
         -1   -1    0    0    0  501 -0.00000000000E+00  0.00000000000E+00  0.33798803622E+02  0.33798803622E+02  0.00000000000E+00 0.  1.
          1   -1    0    0  501    0  0.00000000000E+00 -0.00000000000E+00 -0.61523470159E+03  0.61523470159E+03  0.00000000000E+00 0. -1.
         25    2    1    2    0    0 -0.48327888256E+02 -0.78665237989E+02 -0.33152563657E+03  0.36616977130E+03  0.12508896536E+03 0.  0.
          5    1    3    3  502    0 -0.17522071435E+02  0.24067448404E+02 -0.16730156998E+03  0.16998103652E+03  0.41800000000E+01 0.  1.
         -5    1    3    3    0  502 -0.30805816821E+02 -0.10273268639E+03 -0.16422406659E+03  0.19618873477E+03  0.41800000000E+01 0.  1.
        -11    1    1    2    0    0 -0.10908249610E+02  0.48569110425E+02 -0.43788640067E+02  0.66297763129E+02  0.00000000000E+00 0.  1.
         11    1    1    2    0    0  0.59236137866E+02  0.30096127564E+02 -0.20612162133E+03  0.21656597079E+03  0.00000000000E+00 0. -1.
</event>
<event>
 7    1  0.2612321E-009  0.2211901E+03  0.7561462E-02  0.1132999E+00
          2   -1    0    0  501    0  0.00000000000E+00  0.00000000000E+00  0.31420930235E+03  0.31420930235E+03  0.00000000000E+00 0. -1.
         -2   -1    0    0    0  501 -0.00000000000E+00 -0.00000000000E+00 -0.21970558412E+03  0.21970558412E+03  0.00000000000E+00 0.  1.
         25    2    1    2    0    0  0.86389023255E+01 -0.20266298999E+03  0.17604703895E+03  0.29628760734E+03  0.12508744219E+03 0.  0.
          5    1    3    3  502    0 -0.55108498912E+02 -0.12795645726E+03  0.92505257442E+02  0.16728567381E+03  0.41800000000E+01 0.  1.
         -5    1    3    3    0  502  0.63747401237E+02 -0.74706532734E+02  0.83541781512E+02  0.12900193354E+03  0.41800000000E+01 0.  1.
        -11    1    1    2    0    0  0.93425729102E+01  0.10356112990E+03 -0.88670831254E+02  0.13665543388E+03  0.00000000000E+00 0.  1.
         11    1    1    2    0    0 -0.17981475236E+02  0.99101860096E+02  0.71275105285E+01  0.10097184525E+03  0.00000000000E+00 0. -1.
</event>
<event>
 7    1  0.2612321E-009  0.9125000E+02  0.7561462E-02  0.1299853E+00
         -2   -1    0    0    0  501 -0.00000000000E+00  0.00000000000E+00  0.77729769302E+02  0.77729769302E+02  0.00000000000E+00 0.  1.
          2   -1    0    0  501    0  0.00000000000E+00 -0.00000000000E+00 -0.19211132743E+03  0.19211132743E+03  0.00000000000E+00 0. -1.
         25    2    1    2    0    0 -0.53534967933E+01 -0.54736172014E+02 -0.83427541981E+02  0.16009997996E+03  0.12508853012E+03 0.  0.
          5    1    3    3  502    0 -0.10271307323E+02  0.24254121656E+02  0.17407207174E+02  0.31847220178E+02  0.41800000000E+01 0.  1.
         -5    1    3    3    0  502  0.49178105295E+01 -0.78990293670E+02 -0.10083474916E+03  0.12825275978E+03  0.41800000000E+01 0.  1.
        -11    1    1    2    0    0  0.26275253728E+02  0.11775645469E+02  0.23592577189E+02  0.37224514545E+02  0.00000000000E+00 0.  1.
         11    1    1    2    0    0 -0.20921756935E+02  0.42960526544E+02 -0.54546593339E+02  0.72516602231E+02  0.00000000000E+00 0. -1.
</event>
<event>
 7    1  0.2612321E-009  0.8330253E+02  0.7561462E-02  0.1319932E+00
          2   -1    0    0  501    0  0.00000000000E+00  0.00000000000E+00  0.48393661484E+02  0.48393661484E+02  0.00000000000E+00 0. -1.
         -2   -1    0    0    0  501 -0.00000000000E+00 -0.00000000000E+00 -0.28569180946E+03  0.28569180946E+03  0.00000000000E+00 0.  1.
         25    2    1    2    0    0  0.31940015082E+02  0.27536284463E+02 -0.16140130939E+03  0.20850936919E+03  0.12508941938E+03 0.  0.
          5    1    3    3  502    0 -0.18221090991E+02  0.30315874440E+02 -0.15338314754E+03  0.15746403637E+03  0.41800000000E+01 0.  1.
         -5    1    3    3    0  502  0.50161106073E+02 -0.27795899770E+01 -0.80181618458E+01  0.51045332816E+02  0.41800000000E+01 0.  1.
        -11    1    1    2    0    0  0.10131201762E+02 -0.36227417743E+02  0.84649350933E+00  0.37626899908E+02  0.00000000000E+00 0. -1.
         11    1    1    2    0    0 -0.42071216844E+02  0.86911332793E+01 -0.76743332092E+02  0.87949201844E+02  0.00000000000E+00 0.  1.
</event>
<event>
 7    1  0.2631015E-009  0.1468328E+03  0.7561462E-02  0.1204420E+00
         -1   -1    0    0    0  501 -0.00000000000E+00  0.00000000000E+00  0.13641976472E+03  0.13641976472E+03  0.00000000000E+00 0.  1.
          1   -1    0    0  501    0  0.00000000000E+00 -0.00000000000E+00 -0.18012591564E+03  0.18012591564E+03  0.00000000000E+00 0. -1.
         25    2    1    2    0    0 -0.11170839465E+03  0.62544396724E+01 -0.56523552619E+01  0.16791670914E+03  0.12508472584E+03 0.  0.
          5    1    3    3  502    0 -0.48415833641E+02  0.60449256393E+02  0.20964409105E+02  0.80344162170E+02  0.41800000000E+01 0.  1.
         -5    1    3    3    0  502 -0.63292561009E+02 -0.54194816720E+02 -0.26616764367E+02  0.87572546975E+02  0.41800000000E+01 0.  1.
        -11    1    1    2    0    0  0.51557577682E+02 -0.38574775835E+02  0.99564331427E+01  0.65156179355E+02  0.00000000000E+00 0.  1.
         11    1    1    2    0    0  0.60150816968E+02  0.32320336163E+02 -0.48010228804E+02  0.83472791863E+02  0.00000000000E+00 0. -1.
</event>
<event>
 7    1  0.2612321E-009  0.1131360E+03  0.7561462E-02  0.1254870E+00
         -1   -1    0    0    0  501 -0.00000000000E+00  0.00000000000E+00  0.65416005921E+02  0.65416005921E+02  0.00000000000E+00 0.  1.
          1   -1    0    0  501    0  0.00000000000E+00 -0.00000000000E+00 -0.36067377589E+03  0.36067377589E+03  0.00000000000E+00 0. -1.
         25    2    1    2    0    0  0.19720348769E+02 -0.81594261076E+02 -0.25417015989E+03  0.29546154261E+03  0.12509411411E+03 0.  0.
          5    1    3    3  502    0  0.56934007378E+02 -0.86312476344E+02 -0.22534352645E+03  0.24796875223E+03  0.41800000000E+01 0. -1.
         -5    1    3    3    0  502 -0.37213658609E+02  0.47182152678E+01 -0.28826633435E+02  0.47492790375E+02  0.41800000000E+01 0. -1.
        -11    1    1    2    0    0 -0.21449002167E+02  0.67023252856E+02  0.15593516977E+02  0.72078664590E+02  0.00000000000E+00 0.  1.
         11    1    1    2    0    0  0.17286533972E+01  0.14571008220E+02 -0.56681127058E+02  0.58549574615E+02  0.00000000000E+00 0. -1.
</event>
<event>
 7    1  0.2612321E-009  0.1539723E+03  0.7561462E-02  0.1195675E+00
         -2   -1    0    0    0  501 -0.00000000000E+00  0.00000000000E+00  0.97796878894E+02  0.97796878894E+02  0.00000000000E+00 0.  1.
          2   -1    0    0  501    0  0.00000000000E+00 -0.00000000000E+00 -0.55028418709E+03  0.55028418709E+03  0.00000000000E+00 0. -1.
         25    2    1    2    0    0 -0.80125487142E+02 -0.11100065549E+03 -0.21582304414E+02  0.18669361661E+03  0.12508985335E+03 0.  0.
          5    1    3    3  502    0 -0.42612125133E+02 -0.92540855102E+02 -0.69167888893E+02  0.12321230590E+03  0.41800000000E+01 0.  1.
         -5    1    3    3    0  502 -0.37513362009E+02 -0.18459800384E+02  0.47585584479E+02  0.63481310711E+02  0.41800000000E+01 0.  1.
        -11    1    1    2    0    0  0.52035267931E+02  0.27313972342E+01 -0.16103528616E+03  0.16925570308E+03  0.00000000000E+00 0.  1.
         11    1    1    2    0    0  0.28090219211E+02  0.10826925825E+03 -0.26986971763E+03  0.29213174629E+03  0.00000000000E+00 0. -1.
</event>
<event>
 7    1  0.2612321E-009  0.1753032E+03  0.7561462E-02  0.1172428E+00
          2   -1    0    0  501    0  0.00000000000E+00  0.00000000000E+00  0.52455505797E+02  0.52455505797E+02  0.00000000000E+00 0. -1.
         -2   -1    0    0    0  501 -0.00000000000E+00 -0.00000000000E+00 -0.76109500545E+03  0.76109500545E+03  0.00000000000E+00 0.  1.
         25    2    1    2    0    0  0.91564817677E+02  0.12762348233E+03 -0.28443878354E+03  0.34817331958E+03  0.12508944722E+03 0.  0.
          5    1    3    3  502    0  0.52424298738E+02  0.99460031055E+02 -0.27729264003E+03  0.29924786631E+03  0.41800000000E+01 0.  1.
         -5    1    3    3    0  502  0.39140518938E+02  0.28163451279E+02 -0.71461435114E+01  0.48925453271E+02  0.41800000000E+01 0.  1.
        -11    1    1    2    0    0 -0.15221559726E+02  0.19026445569E+02 -0.78138596210E+02  0.81849506591E+02  0.00000000000E+00 0.  1.
         11    1    1    2    0    0 -0.76343257951E+02 -0.14664992790E+03 -0.34606211989E+03  0.38352768507E+03  0.00000000000E+00 0. -1.
</event>
<event>
 7    1  0.2612321E-009  0.1233284E+03  0.7561462E-02  0.1237705E+00
          2   -1    0    0  501    0  0.00000000000E+00  0.00000000000E+00  0.20425410041E+03  0.20425410041E+03  0.00000000000E+00 0.  1.
         -2   -1    0    0    0  501 -0.00000000000E+00 -0.00000000000E+00 -0.77459582146E+02  0.77459582146E+02  0.00000000000E+00 0. -1.
         25    2    1    2    0    0 -0.58033169094E+02 -0.11192482183E+02  0.48109513551E+02  0.14647557846E+03  0.12508976544E+03 0.  0.
          5    1    3    3  502    0  0.26095740637E+02 -0.40489970083E+02  0.24583039812E+02  0.54242267681E+02  0.41800000000E+01 0. -1.
         -5    1    3    3    0  502 -0.84128909731E+02  0.29297487901E+02  0.23526473740E+02  0.92233310775E+02  0.41800000000E+01 0. -1.
        -11    1    1    2    0    0  0.82714919018E+02  0.15251689872E+02  0.53161425035E+02  0.99501301418E+02  0.00000000000E+00 0. -1.
         11    1    1    2    0    0 -0.24681749924E+02 -0.40592076897E+01  0.25523579679E+02  0.35736802683E+02  0.00000000000E+00 0.  1.
</event>
<event>
 7    1  0.2612321E-009  0.1317670E+03  0.7561462E-02  0.1224857E+00
          2   -1    0    0  501    0  0.00000000000E+00  0.00000000000E+00  0.22495912810E+03  0.22495912810E+03  0.00000000000E+00 0. -1.
         -2   -1    0    0    0  501 -0.00000000000E+00 -0.00000000000E+00 -0.94541891547E+02  0.94541891547E+02  0.00000000000E+00 0.  1.
         25    2    1    2    0    0 -0.65023652025E+02 -0.42378419546E+02  0.71602013032E+01  0.14738633799E+03  0.12508980125E+03 0.  0.
          5    1    3    3  502    0 -0.91017074497E+02 -0.63820020706E+02 -0.49136688004E+01  0.11134953720E+03  0.41800000000E+01 0.  1.
         -5    1    3    3    0  502  0.25993422472E+02  0.21441601159E+02  0.12073870104E+02  0.36036800792E+02  0.41800000000E+01 0.  1.
        -11    1    1    2    0    0  0.50809738371E+02 -0.19818863548E+02  0.71707417633E+02  0.90090901922E+02  0.00000000000E+00 0. -1.
         11    1    1    2    0    0  0.14213913654E+02  0.62197283095E+02  0.51549617619E+02  0.82023779737E+02  0.00000000000E+00 0.  1.
</event>
<event>
 7    1  0.2612321E-009  0.1013807E+03  0.7561462E-02  0.1277419E+00
         -2   -1    0    0    0  501 -0.00000000000E+00  0.00000000000E+00  0.11980331105E+03  0.11980331105E+03  0.00000000000E+00 0.  1.
          2   -1    0    0  501    0  0.00000000000E+00 -0.00000000000E+00 -0.13055370150E+03  0.13055370150E+03  0.00000000000E+00 0. -1.
         25    2    1    2    0    0  0.57661232137E+02  0.18058933052E+02 -0.24683634217E+02  0.14109490879E+03  0.12509016241E+03 0.  0.
          5    1    3    3  502    0 -0.30168328205E+02  0.37894022012E+02 -0.53853953233E+01  0.48913799829E+02  0.41800000000E+01 0. -1.
         -5    1    3    3    0  502  0.87829560342E+02 -0.19835088961E+02 -0.19298238893E+02  0.92181108956E+02  0.41800000000E+01 0. -1.
        -11    1    1    2    0    0 -0.25261074095E+02  0.28869733752E+01 -0.37290967741E+02  0.45133942380E+02  0.00000000000E+00 0. -1.
         11    1    1    2    0    0 -0.32400158042E+02 -0.20945906427E+02  0.51224211509E+02  0.64128161380E+02  0.00000000000E+00 0.  1.
</event>
<event>
 7    1  0.2612321E-009  0.1483932E+03  0.7561462E-02  0.1202461E+00
         -4   -1    0    0    0  501 -0.00000000000E+00  0.00000000000E+00  0.82292533005E+02  0.82292533005E+02  0.00000000000E+00 0.  1.
          4   -1    0    0  501    0  0.00000000000E+00 -0.00000000000E+00 -0.36230821896E+03  0.36230821896E+03  0.00000000000E+00 0. -1.
         25    2    1    2    0    0  0.99735142642E+02 -0.63212857168E+02 -0.62323510842E+02  0.18293093411E+03  0.12504616212E+03 0.  0.
          5    1    3    3  502    0  0.11926599518E+03 -0.52775777401E+02 -0.16062703076E+02  0.13147297486E+03  0.41800000000E+01 0. -1.
         -5    1    3    3    0  502 -0.19530852542E+02 -0.10437079767E+02 -0.46260807766E+02  0.51457959251E+02  0.41800000000E+01 0. -1.
        -11    1    1    2    0    0 -0.10662696810E+03  0.31317339422E+02 -0.15169839928E+03  0.18804917021E+03  0.00000000000E+00 0.  1.
         11    1    1    2    0    0  0.68918254578E+01  0.31895517746E+02 -0.65993775835E+02  0.73620647643E+02  0.00000000000E+00 0. -1.
</event>
<event>
 7    1  0.2612321E-009  0.1016844E+03  0.7561462E-02  0.1276793E+00
          2   -1    0    0  501    0  0.00000000000E+00  0.00000000000E+00  0.74645603682E+02  0.74645603682E+02  0.00000000000E+00 0. -1.
         -2   -1    0    0    0  501 -0.00000000000E+00 -0.00000000000E+00 -0.29026306841E+03  0.29026306841E+03  0.00000000000E+00 0.  1.
         25    2    1    2    0    0  0.87467999229E+02 -0.45697621477E+02 -0.13392600828E+03  0.20814079343E+03  0.12508993044E+03 0.  0.
          5    1    3    3  502    0  0.56295484795E+02 -0.41440221375E+02 -0.15497128425E+03  0.17005894536E+03  0.41800000000E+01 0.  1.
         -5    1    3    3    0  502  0.31172514435E+02 -0.42574001022E+01  0.21045275965E+02  0.38081848068E+02  0.41800000000E+01 0.  1.
        -11    1    1    2    0    0 -0.62346384706E+02  0.19544186819E+02  0.21987887084E+01  0.65374930945E+02  0.00000000000E+00 0. -1.
         11    1    1    2    0    0 -0.25121614524E+02  0.26153434658E+02 -0.83890245155E+02  0.91392947720E+02  0.00000000000E+00 0.  1.
</event>
<event>
 7    1  0.2711806E-009  0.1627242E+03  0.7561462E-02  0.1185655E+00
         -2   -1    0    0    0  501 -0.00000000000E+00  0.00000000000E+00  0.47051681796E+02  0.47051681796E+02  0.00000000000E+00 0.  1.
          2   -1    0    0  501    0  0.00000000000E+00 -0.00000000000E+00 -0.60212839853E+03  0.60212839853E+03  0.00000000000E+00 0. -1.
         25    2    1    2    0    0  0.12538677369E+03 -0.68248130064E+01 -0.34855830145E+03  0.39103543633E+03  0.12508957540E+03 0.  0.
          5    1    3    3  502    0  0.14916257721E+03 -0.18354030049E+02 -0.30141306946E+03  0.33682882255E+03  0.41800000000E+01 0. -1.
         -5    1    3    3    0  502 -0.23775803523E+02  0.11529217042E+02 -0.47145231986E+02  0.54206613783E+02  0.41800000000E+01 0. -1.
        -11    1    1    2    0    0 -0.29536291778E+02 -0.33237113855E+02 -0.31062036829E+02  0.54239730838E+02  0.00000000000E+00 0.  1.
         11    1    1    2    0    0 -0.95850481911E+02  0.40061926861E+02 -0.17545637846E+03  0.20390491315E+03  0.00000000000E+00 0. -1.
</event>
<event>
 7    1  0.2612321E-009  0.1804989E+03  0.7561462E-02  0.1167321E+00
          2   -1    0    0  501    0  0.00000000000E+00  0.00000000000E+00  0.13619399108E+03  0.13619399108E+03  0.00000000000E+00 0. -1.
         -2   -1    0    0    0  501 -0.00000000000E+00 -0.00000000000E+00 -0.25838342779E+03  0.25838342779E+03  0.00000000000E+00 0.  1.
         25    2    1    2    0    0  0.57632000405E+02 -0.13689897802E+03 -0.99144932932E+02  0.21803820631E+03  0.12509262180E+03 0.  0.
          5    1    3    3  502    0 -0.35604998001E+02 -0.38236284693E+02 -0.47184788720E+01  0.52625714177E+02  0.41800000000E+01 0.  1.
         -5    1    3    3    0  502  0.93236998405E+02 -0.98662693328E+02 -0.94426454060E+02  0.16541249213E+03  0.41800000000E+01 0.  1.
        -11    1    1    2    0    0 -0.79296755538E+02  0.12506681095E+03 -0.29560831937E+02  0.15100836210E+03  0.00000000000E+00 0.  1.
         11    1    1    2    0    0  0.21664755134E+02  0.11832167071E+02  0.65163281630E+01  0.25530850462E+02  0.00000000000E+00 0. -1.
</event>
<event>
 7    1  0.2612321E-009  0.1222840E+03  0.7561462E-02  0.1239376E+00
          2   -1    0    0  501    0  0.00000000000E+00  0.00000000000E+00  0.15454616864E+04  0.15454616864E+04  0.00000000000E+00 0. -1.
         -2   -1    0    0    0  501 -0.00000000000E+00 -0.00000000000E+00 -0.12173293378E+02  0.12173293378E+02  0.00000000000E+00 0.  1.
         25    2    1    2    0    0  0.75622765924E+02  0.83346080116E+00  0.11968548214E+04  0.12057479283E+04  0.12508839165E+03 0.  0.
          5    1    3    3  502    0  0.89766716930E+02 -0.42781424838E+02  0.76553038695E+03  0.77197315985E+03  0.41800000000E+01 0.  1.
         -5    1    3    3    0  502 -0.14143951006E+02  0.43614885640E+02  0.43132443445E+03  0.43377476847E+03  0.41800000000E+01 0.  1.
        -11    1    1    2    0    0 -0.27716265764E+02  0.30920499091E+02  0.19198019725E+03  0.19641961406E+03  0.00000000000E+00 0.  1.
         11    1    1    2    0    0 -0.47906500160E+02 -0.31753959892E+02  0.14445337435E+03  0.15546743738E+03  0.00000000000E+00 0. -1.
</event>
<event>
 7    1  0.2612321E-009  0.9465426E+02  0.7561462E-02  0.1291957E+00
         -1   -1    0    0    0  501 -0.00000000000E+00  0.00000000000E+00  0.39315375699E+03  0.39315375699E+03  0.00000000000E+00 0.  1.
          1   -1    0    0  501    0  0.00000000000E+00 -0.00000000000E+00 -0.47032362162E+02  0.47032362162E+02  0.00000000000E+00 0. -1.
         25    2    1    2    0    0 -0.11514745195E+02 -0.28244517116E+02  0.68431407020E+02  0.14581256175E+03  0.12509238024E+03 0.  0.
          5    1    3    3  502    0  0.22747516057E+02 -0.47110593439E+02 -0.14137533140E+02  0.54352550485E+02  0.41800000000E+01 0.  1.
         -5    1    3    3    0  502 -0.34262261252E+02  0.18866076323E+02  0.82568940160E+02  0.91460011267E+02  0.41800000000E+01 0.  1.
        -11    1    1    2    0    0  0.52007187452E+02  0.22211059619E+02  0.15163286503E+03  0.16183511509E+03  0.00000000000E+00 0. -1.
         11    1    1    2    0    0 -0.40492442256E+02  0.60334574971E+01  0.12605712277E+03  0.13253844231E+03  0.00000000000E+00 0.  1.
</event>
<event>
 7    1  0.2612321E-009  0.2257155E+03  0.7561462E-02  0.1129692E+00
         -2   -1    0    0    0  501 -0.00000000000E+00  0.00000000000E+00  0.96846247622E+02  0.96846247622E+02  0.00000000000E+00 0.  1.
          2   -1    0    0  501    0  0.00000000000E+00 -0.00000000000E+00 -0.57873526207E+03  0.57873526207E+03  0.00000000000E+00 0. -1.
         25    2    1    2    0    0  0.20447830964E+03 -0.35875878869E+02 -0.20536002250E+03  0.31767736136E+03  0.12509080414E+03 0.  0.
          5    1    3    3  502    0  0.15458274501E+03  0.11995904544E+02 -0.80166285679E+02  0.17459619853E+03  0.41800000000E+01 0.  1.
         -5    1    3    3    0  502  0.49895564626E+02 -0.47871783413E+02 -0.12519373683E+03  0.14308116283E+03  0.41800000000E+01 0.  1.
        -11    1    1    2    0    0 -0.20593496365E+03  0.15382057951E+02 -0.24746557106E+03  0.32231200074E+03  0.00000000000E+00 0.  1.
         11    1    1    2    0    0  0.14566540172E+01  0.20493820918E+02 -0.29063420890E+02  0.35592147598E+02  0.00000000000E+00 0. -1.
</event>
<event>
 7    1  0.2612321E-009  0.1015903E+03  0.7561462E-02  0.1276987E+00
         -1   -1    0    0    0  501 -0.00000000000E+00  0.00000000000E+00  0.15624221254E+03  0.15624221254E+03  0.00000000000E+00 0.  1.
          1   -1    0    0  501    0  0.00000000000E+00 -0.00000000000E+00 -0.11019972556E+03  0.11019972556E+03  0.00000000000E+00 0. -1.
         25    2    1    2    0    0 -0.11647732092E+02 -0.12104452566E+02  0.98151635231E+02  0.15988419451E+03  0.12508806786E+03 0.  0.
          5    1    3    3  502    0  0.47506278789E+02 -0.27236138627E+02  0.78110159769E+02  0.95484675372E+02  0.41800000000E+01 0. -1.
         -5    1    3    3    0  502 -0.59154010881E+02  0.15131686061E+02  0.20041475462E+02  0.64399519137E+02  0.41800000000E+01 0. -1.
        -11    1    1    2    0    0  0.49181771052E+01  0.49156257066E+02 -0.47649307019E+02  0.68636597629E+02  0.00000000000E+00 0. -1.
         11    1    1    2    0    0  0.67295549867E+01 -0.37051804500E+02 -0.44598412347E+01  0.37921145959E+02  0.00000000000E+00 0.  1.
</event>
<event>
 7    1  0.2612321E-009  0.1119813E+03  0.7561462E-02  0.1256944E+00
          1   -1    0    0  501    0  0.00000000000E+00  0.00000000000E+00  0.95201099584E+02  0.95201099584E+02  0.00000000000E+00 0. -1.
         -1   -1    0    0    0  501 -0.00000000000E+00 -0.00000000000E+00 -0.21876980836E+03  0.21876980836E+03  0.00000000000E+00 0.  1.
         25    2    1    2    0    0 -0.64610796153E+02 -0.30500769892E+02 -0.13612687674E+03  0.19819631945E+03  0.12508558082E+03 0.  0.
          5    1    3    3  502    0 -0.52102538898E+02 -0.61279249334E+02 -0.14289768136E+03  0.16403365721E+03  0.41800000000E+01 0. -1.
         -5    1    3    3    0  502 -0.12508257254E+02  0.30778479442E+02  0.67708046173E+01  0.34162662242E+02  0.41800000000E+01 0. -1.
        -11    1    1    2    0    0  0.19380013260E+02 -0.29192616351E+02 -0.11872363481E+02  0.36996577923E+02  0.00000000000E+00 0.  1.
         11    1    1    2    0    0  0.45230782893E+02  0.59693386243E+02  0.24430531451E+02  0.78778010569E+02  0.00000000000E+00 0. -1.
</event>
<event>
 7    1  0.2612321E-009  0.1111981E+03  0.7561462E-02  0.1258367E+00
          2   -1    0    0  501    0  0.00000000000E+00  0.00000000000E+00  0.60754061476E+02  0.60754061476E+02  0.00000000000E+00 0. -1.
         -2   -1    0    0    0  501 -0.00000000000E+00 -0.00000000000E+00 -0.24786407906E+03  0.24786407906E+03  0.00000000000E+00 0.  1.
         25    2    1    2    0    0 -0.23019329570E+02 -0.37788955322E+02 -0.15286808142E+03  0.20244102253E+03  0.12512322969E+03 0.  0.
          5    1    3    3  502    0 -0.73986438523E+02 -0.20624434332E+02 -0.72879204904E+02  0.10596325441E+03  0.41800000000E+01 0. -1.
         -5    1    3    3    0  502  0.50967108953E+02 -0.17164520991E+02 -0.79988876512E+02  0.96477768120E+02  0.41800000000E+01 0. -1.
        -11    1    1    2    0    0 -0.30117848718E+02  0.15980901956E+02 -0.34824087417E+02  0.48735932362E+02  0.00000000000E+00 0.  1.
         11    1    1    2    0    0  0.53137178288E+02  0.21808053367E+02  0.58215125319E+00  0.57441185644E+02  0.00000000000E+00 0. -1.
</event>
<event>
 7    1  0.2612321E-009  0.1142930E+03  0.7561462E-02  0.1252820E+00
          1   -1    0    0  501    0  0.00000000000E+00  0.00000000000E+00  0.33482832439E+03  0.33482832439E+03  0.00000000000E+00 0. -1.
         -1   -1    0    0    0  501 -0.00000000000E+00 -0.00000000000E+00 -0.51168453812E+02  0.51168453812E+02  0.00000000000E+00 0.  1.
         25    2    1    2    0    0  0.24568368775E+02 -0.45991657366E+02  0.82958393251E+02  0.15889343233E+03  0.12508473342E+03 0.  0.
          5    1    3    3  502    0  0.43407391976E+02  0.25215944781E+02  0.66289895070E+02  0.83257841299E+02  0.41800000000E+01 0.  1.
         -5    1    3    3    0  502 -0.18839023201E+02 -0.71207602146E+02  0.16668498181E+02  0.75635591028E+02  0.41800000000E+01 0.  1.
        -11    1    1    2    0    0  0.93012363677E+01  0.64956088577E+02  0.10485486907E+03  0.12369458359E+03  0.00000000000E+00 0.  1.
         11    1    1    2    0    0 -0.33869605143E+02 -0.18964431211E+02  0.95846608261E+02  0.10340876229E+03  0.00000000000E+00 0. -1.
</event>
<event>
 7    1  0.2612321E-009  0.1099132E+03  0.7561462E-02  0.1260731E+00
         -2   -1    0    0    0  501 -0.00000000000E+00  0.00000000000E+00  0.17531457025E+03  0.17531457025E+03  0.00000000000E+00 0.  1.
          2   -1    0    0  501    0  0.00000000000E+00 -0.00000000000E+00 -0.14653436006E+03  0.14653436006E+03  0.00000000000E+00 0. -1.
         25    2    1    2    0    0 -0.15918742921E+02  0.25160046270E+02 -0.99121652930E+02  0.16233406452E+03  0.12506323248E+03 0.  0.
          5    1    3    3  502    0 -0.14506914863E+02  0.75969296862E+02 -0.56571915968E+02  0.95914747150E+02  0.41800000000E+01 0.  1.
         -5    1    3    3    0  502 -0.14118280588E+01 -0.50809250593E+02 -0.42549736963E+02  0.66419317370E+02  0.41800000000E+01 0.  1.
        -11    1    1    2    0    0 -0.26745972437E+02 -0.38312900662E+02  0.88004186821E+02  0.99639160458E+02  0.00000000000E+00 0.  1.
         11    1    1    2    0    0  0.42664715358E+02  0.13152854393E+02  0.39897676294E+02  0.59875705331E+02  0.00000000000E+00 0. -1.
</event>
<event>
 7    1  0.2612321E-009  0.1621851E+03  0.7561462E-02  0.1186252E+00
         -2   -1    0    0    0  501 -0.00000000000E+00  0.00000000000E+00  0.13054405152E+03  0.13054405152E+03  0.00000000000E+00 0.  1.
          2   -1    0    0  501    0  0.00000000000E+00 -0.00000000000E+00 -0.25771166488E+03  0.25771166488E+03  0.00000000000E+00 0. -1.
         25    2    1    2    0    0  0.11119390287E+03  0.95919611909E+02 -0.54810750078E+02  0.20054046842E+03  0.12509038799E+03 0.  0.
          5    1    3    3  502    0  0.26517843156E+02  0.30024948840E+01 -0.68867235237E+02  0.73975532917E+02  0.41800000000E+01 0. -1.
         -5    1    3    3    0  502  0.84676059712E+02  0.92917117025E+02  0.14056485158E+02  0.12656493551E+03  0.41800000000E+01 0. -1.
        -11    1    1    2    0    0 -0.10243733936E+03 -0.32376666494E+02 -0.57587840009E+02  0.12189346309E+03  0.00000000000E+00 0. -1.
         11    1    1    2    0    0 -0.87565635111E+01 -0.63542945415E+02 -0.14769023279E+02  0.65821784883E+02  0.00000000000E+00 0.  1.
</event>
<event>
 7    1  0.2612321E-009  0.1189809E+03  0.7561462E-02  0.1244788E+00
          2   -1    0    0  501    0  0.00000000000E+00  0.00000000000E+00  0.12724286542E+04  0.12724286542E+04  0.00000000000E+00 0. -1.
         -2   -1    0    0    0  501 -0.00000000000E+00 -0.00000000000E+00 -0.13314623416E+02  0.13314623416E+02  0.00000000000E+00 0.  1.
         25    2    1    2    0    0 -0.53074908140E+02  0.41198530239E+02  0.83807301516E+03  0.85001751067E+03  0.12509646251E+03 0.  0.
          5    1    3    3  502    0 -0.68461999860E+02 -0.16650819870E+02  0.28128108829E+03  0.29000141079E+03  0.41800000000E+01 0. -1.
         -5    1    3    3    0  502  0.15387091721E+02  0.57849350108E+02  0.55679192687E+03  0.56001609988E+03  0.41800000000E+01 0. -1.
        -11    1    1    2    0    0  0.37939408749E+02  0.20997647255E+02  0.11149194995E+03  0.11962756719E+03  0.00000000000E+00 0.  1.
         11    1    1    2    0    0  0.15135499391E+02 -0.62196177493E+02  0.30954906570E+03  0.31609819980E+03  0.00000000000E+00 0. -1.
</event>
<event>
 7    1  0.2612321E-009  0.1002253E+03  0.7561462E-02  0.1279823E+00
          1   -1    0    0  501    0  0.00000000000E+00  0.00000000000E+00  0.10744113866E+04  0.10744113866E+04  0.00000000000E+00 0. -1.
         -1   -1    0    0    0  501 -0.00000000000E+00 -0.00000000000E+00 -0.18230812145E+02  0.18230812145E+02  0.00000000000E+00 0.  1.
         25    2    1    2    0    0 -0.74879901189E+02  0.15633263922E+02  0.42174522728E+03  0.44650669223E+03  0.12509113050E+03 0.  0.
          5    1    3    3  502    0 -0.61584238517E+01 -0.49664911394E+00  0.33277297504E+03  0.33285657296E+03  0.41800000000E+01 0. -1.
         -5    1    3    3    0  502 -0.68721477337E+02  0.16129913036E+02  0.88972252242E+02  0.11365011927E+03  0.41800000000E+01 0. -1.
        -11    1    1    2    0    0  0.25505129574E+02  0.40285681858E+02  0.23321789932E+03  0.23804208947E+03  0.00000000000E+00 0.  1.
         11    1    1    2    0    0  0.49374771615E+02 -0.55918945781E+02  0.40121744783E+03  0.40809341701E+03  0.00000000000E+00 0. -1.
</event>
<event>
 7    1  0.2612321E-009  0.1154634E+03  0.7561462E-02  0.1250774E+00
         -1   -1    0    0    0  501 -0.00000000000E+00  0.00000000000E+00  0.32150571208E+02  0.32150571208E+02  0.00000000000E+00 0.  1.
          1   -1    0    0  501    0  0.00000000000E+00 -0.00000000000E+00 -0.53406244367E+03  0.53406244367E+03  0.00000000000E+00 0. -1.
         25    2    1    2    0    0 -0.66063866424E+02  0.27559941109E+02 -0.25298569175E+03  0.29115664639E+03  0.12508576140E+03 0.  0.
          5    1    3    3  502    0  0.35292617766E+01  0.58039548683E+02 -0.59742185435E+02  0.83472426709E+02  0.41800000000E+01 0. -1.
         -5    1    3    3    0  502 -0.69593128200E+02 -0.30479607574E+02 -0.19324350631E+03  0.20768421968E+03  0.41800000000E+01 0. -1.
        -11    1    1    2    0    0  0.40810810142E+02 -0.48747830326E+02 -0.22633339861E+03  0.23509291889E+03  0.00000000000E+00 0. -1.
         11    1    1    2    0    0  0.25253056282E+02  0.21187889217E+02 -0.22592782105E+02  0.39963449605E+02  0.00000000000E+00 0.  1.
</event>
<event>
 7    1  0.2612321E-009  0.1083140E+03  0.7561462E-02  0.1263724E+00
         -1   -1    0    0    0  501 -0.00000000000E+00  0.00000000000E+00  0.55678415646E+03  0.55678415646E+03  0.00000000000E+00 0.  1.
          1   -1    0    0  501    0  0.00000000000E+00 -0.00000000000E+00 -0.27606298737E+02  0.27606298737E+02  0.00000000000E+00 0. -1.
         25    2    1    2    0    0 -0.20918092667E+02 -0.54103466587E+02  0.32253852153E+03  0.35077688560E+03  0.12509426006E+03 0.  0.
          5    1    3    3  502    0  0.30327192132E+01 -0.76906022600E+02  0.30187216024E+03  0.31155738994E+03  0.41800000000E+01 0. -1.
         -5    1    3    3    0  502 -0.23950811881E+02  0.22802556013E+02  0.20666361289E+02  0.39219495654E+02  0.41800000000E+01 0. -1.
        -11    1    1    2    0    0  0.22927293577E+02 -0.20996689681E+02  0.38735153047E+02  0.49668237837E+02  0.00000000000E+00 0. -1.
         11    1    1    2    0    0 -0.20092009094E+01  0.75100156268E+02  0.16790418314E+03  0.18394533176E+03  0.00000000000E+00 0.  1.
</event>
<event>
 7    1  0.2612321E-009  0.1009930E+03  0.7561462E-02  0.1278221E+00
          2   -1    0    0  501    0  0.00000000000E+00  0.00000000000E+00  0.13267079122E+04  0.13267079122E+04  0.00000000000E+00 0.  1.
         -2   -1    0    0    0  501 -0.00000000000E+00 -0.00000000000E+00 -0.13608689238E+02  0.13608689238E+02  0.00000000000E+00 0. -1.
         25    2    1    2    0    0  0.11786888141E+02  0.80101902010E+02  0.74643109310E+03  0.76115686174E+03  0.12508055804E+03 0.  0.
          5    1    3    3  502    0 -0.14021760693E+01  0.31843823140E+02  0.33388965403E+02  0.46349655669E+02  0.41800000000E+01 0. -1.
         -5    1    3    3    0  502  0.13189064211E+02  0.48258078869E+02  0.71304212769E+03  0.71480720607E+03  0.41800000000E+01 0. -1.
        -11    1    1    2    0    0 -0.29513734807E+02  0.73422934965E+01  0.14540418730E+03  0.14855082463E+03  0.00000000000E+00 0.  1.
         11    1    1    2    0    0  0.17726846666E+02 -0.87444195506E+02  0.42126394259E+03  0.43060891508E+03  0.00000000000E+00 0. -1.
</event>
<event>
 7    1  0.2612321E-009  0.7721036E+02  0.7561462E-02  0.1337160E+00
         -4   -1    0    0    0  501 -0.00000000000E+00  0.00000000000E+00  0.41804059178E+03  0.41804059178E+03  0.00000000000E+00 0.  1.
          4   -1    0    0  501    0  0.00000000000E+00 -0.00000000000E+00 -0.59817501175E+02  0.59817501175E+02  0.00000000000E+00 0. -1.
         25    2    1    2    0    0  0.15805521772E+02 -0.82945355133E+00  0.36139695502E+03  0.38276044859E+03  0.12508916578E+03 0.  0.
          5    1    3    3  502    0  0.49901962426E+02 -0.25385020836E+02  0.31524881227E+03  0.32020913662E+03  0.41800000000E+01 0. -1.
         -5    1    3    3    0  502 -0.34096440654E+02  0.24555567284E+02  0.46148142749E+02  0.62551311969E+02  0.41800000000E+01 0. -1.
        -11    1    1    2    0    0  0.18943501621E+02  0.80117892961E+01  0.36484266284E+02  0.41882534638E+02  0.00000000000E+00 0.  1.
         11    1    1    2    0    0 -0.34749023393E+02 -0.71823357448E+01 -0.39658130695E+02  0.53215109732E+02  0.00000000000E+00 0. -1.
</event>
<event>
 7    1  0.2612321E-009  0.1171485E+03  0.7561462E-02  0.1247877E+00
          2   -1    0    0  501    0  0.00000000000E+00  0.00000000000E+00  0.88947224316E+03  0.88947224316E+03  0.00000000000E+00 0. -1.
         -2   -1    0    0    0  501 -0.00000000000E+00 -0.00000000000E+00 -0.15853222188E+02  0.15853222188E+02  0.00000000000E+00 0.  1.
         25    2    1    2    0    0 -0.66614010757E+01 -0.49847288681E+02  0.48482207626E+03  0.50321860044E+03  0.12508951893E+03 0.  0.
          5    1    3    3  502    0 -0.58522216959E+02 -0.57084386339E+02  0.27535497718E+03  0.28726523092E+03  0.41800000000E+01 0.  1.
         -5    1    3    3    0  502  0.51860815883E+02  0.72370976583E+01  0.20946709908E+03  0.21595336951E+03  0.41800000000E+01 0.  1.
        -11    1    1    2    0    0 -0.39879765928E+02  0.19953642661E+02  0.22012660466E+03  0.22459800904E+03  0.00000000000E+00 0. -1.
         11    1    1    2    0    0  0.46541167003E+02  0.29893646020E+02  0.16867034006E+03  0.17750885587E+03  0.00000000000E+00 0.  1.
</event>
<event>
 7    1  0.2612321E-009  0.8491031E+02  0.7561462E-02  0.1315667E+00
          2   -1    0    0  501    0  0.00000000000E+00  0.00000000000E+00  0.12275426785E+04  0.12275426785E+04  0.00000000000E+00 0. -1.
         -2   -1    0    0    0  501 -0.00000000000E+00 -0.00000000000E+00 -0.11242778825E+02  0.11242778825E+02  0.00000000000E+00 0.  1.
         25    2    1    2    0    0  0.35798566881E+02 -0.23770344574E+02  0.78036826296E+03  0.79149810869E+03  0.12509222024E+03 0.  0.
          5    1    3    3  502    0  0.22893789807E+02 -0.41451026718E+02  0.99575171970E+02  0.11034038472E+03  0.41800000000E+01 0. -1.
         -5    1    3    3    0  502  0.12904777074E+02  0.17680682144E+02  0.68079309099E+03  0.68115772397E+03  0.41800000000E+01 0. -1.
        -11    1    1    2    0    0 -0.65894108453E+02  0.23322537537E+02  0.31565821621E+03  0.32330493926E+03  0.00000000000E+00 0.  1.
         11    1    1    2    0    0  0.30095541572E+02  0.44780703693E+00  0.12027342051E+03  0.12398240937E+03  0.00000000000E+00 0. -1.
</event>
<event>
 7    1  0.2612321E-009  0.1044640E+03  0.7561462E-02  0.1271179E+00
          1   -1    0    0  501    0  0.00000000000E+00  0.00000000000E+00  0.12472364014E+03  0.12472364014E+03  0.00000000000E+00 0. -1.
         -1   -1    0    0    0  501 -0.00000000000E+00 -0.00000000000E+00 -0.13535026323E+03  0.13535026323E+03  0.00000000000E+00 0.  1.
         25    2    1    2    0    0  0.21849808380E+02  0.73604016577E+02  0.22364280665E+02  0.14846703953E+03  0.12508930967E+03 0.  0.
          5    1    3    3  502    0 -0.16727142963E+02 -0.20969116005E+01 -0.39589134350E+02  0.43231542982E+02  0.41800000000E+01 0.  1.
         -5    1    3    3    0  502  0.38576951343E+02  0.75700928177E+02  0.61953415015E+02  0.10523549655E+03  0.41800000000E+01 0.  1.
        -11    1    1    2    0    0 -0.47287839002E+02 -0.29969290118E+02 -0.20053907726E+02  0.59468119886E+02  0.00000000000E+00 0.  1.
         11    1    1    2    0    0  0.25438030622E+02 -0.43634726458E+02 -0.12936996033E+02  0.52138743957E+02  0.00000000000E+00 0. -1.
</event>
<event>
 7    1  0.2612321E-009  0.1527853E+03  0.7561462E-02  0.1197092E+00
          2   -1    0    0  501    0  0.00000000000E+00  0.00000000000E+00  0.42128571555E+03  0.42128571555E+03  0.00000000000E+00 0.  1.
         -2   -1    0    0    0  501 -0.00000000000E+00 -0.00000000000E+00 -0.68174085357E+02  0.68174085357E+02  0.00000000000E+00 0. -1.
         25    2    1    2    0    0  0.44151486344E+02 -0.10687210064E+03  0.10324376319E+03  0.19919981416E+03  0.12510112582E+03 0.  0.
          5    1    3    3  502    0  0.78418256055E+02 -0.90316425855E+02  0.41738198390E+02  0.12675184128E+03  0.41800000000E+01 0. -1.
         -5    1    3    3    0  502 -0.34266769711E+02 -0.16555674787E+02  0.61505564796E+02  0.72447972884E+02  0.41800000000E+01 0. -1.
        -11    1    1    2    0    0 -0.85657861938E+01  0.11140094707E+03  0.19370063162E+03  0.22361457553E+03  0.00000000000E+00 0.  1.
         11    1    1    2    0    0 -0.35585700150E+02 -0.45288464246E+01  0.56167235385E+02  0.66645411214E+02  0.00000000000E+00 0. -1.
</event>
<event>
 7    1  0.2612321E-009  0.1097660E+03  0.7561462E-02  0.1261004E+00
         -2   -1    0    0    0  501 -0.00000000000E+00  0.00000000000E+00  0.24364380856E+02  0.24364380856E+02  0.00000000000E+00 0.  1.
          2   -1    0    0  501    0  0.00000000000E+00 -0.00000000000E+00 -0.79173746999E+03  0.79173746999E+03  0.00000000000E+00 0. -1.
         25    2    1    2    0    0 -0.14204460437E+02  0.49800326249E+02 -0.62617654645E+03  0.64064519494E+03  0.12508940514E+03 0.  0.
          5    1    3    3  502    0 -0.24658467288E+02 -0.38360053997E+02 -0.18279407868E+03  0.18844278004E+03  0.41800000000E+01 0. -1.
         -5    1    3    3    0  502  0.10454006850E+02  0.88160380246E+02 -0.44338246778E+03  0.45220241490E+03  0.41800000000E+01 0. -1.
        -11    1    1    2    0    0 -0.23446888501E+02 -0.39319410902E+02 -0.23537009419E+02  0.51475853237E+02  0.00000000000E+00 0.  1.
         11    1    1    2    0    0  0.37651348938E+02 -0.10480915347E+02 -0.11765953327E+03  0.12398080267E+03  0.00000000000E+00 0. -1.
</event>
<event>
 7    1  0.2612321E-009  0.7311305E+02  0.7561462E-02  0.1349816E+00
          2   -1    0    0  501    0  0.00000000000E+00  0.00000000000E+00  0.27028760427E+03  0.27028760427E+03  0.00000000000E+00 0. -1.
         -2   -1    0    0    0  501 -0.00000000000E+00 -0.00000000000E+00 -0.53985399241E+02  0.53985399241E+02  0.00000000000E+00 0.  1.
         25    2    1    2    0    0  0.35111465884E+02  0.34259136605E+02  0.94167399052E+02  0.16407231036E+03  0.12508285456E+03 0.  0.
          5    1    3    3  502    0  0.41605205796E+02  0.22127354674E+02 -0.18273872265E+02  0.50715084361E+02  0.41800000000E+01 0.  1.
         -5    1    3    3    0  502 -0.64937399120E+01  0.12131781930E+02  0.11244127132E+03  0.11335722600E+03  0.41800000000E+01 0.  1.
        -11    1    1    2    0    0 -0.50457665763E+02 -0.43502334854E+02  0.12539260123E+03  0.14199201955E+03  0.00000000000E+00 0. -1.
         11    1    1    2    0    0  0.15346199879E+02  0.92431982490E+01 -0.32577952497E+01  0.18208673606E+02  0.00000000000E+00 0.  1.
</event>
<event>
 7    1  0.2612321E-009  0.1635097E+03  0.7561462E-02  0.1184790E+00
         -2   -1    0    0    0  501 -0.00000000000E+00  0.00000000000E+00  0.84589165346E+02  0.84589165346E+02  0.00000000000E+00 0.  1.
          2   -1    0    0  501    0  0.00000000000E+00 -0.00000000000E+00 -0.35494522259E+03  0.35494522259E+03  0.00000000000E+00 0. -1.
         25    2    1    2    0    0 -0.73791481457E+02 -0.10727594893E+03 -0.10119386175E+03  0.20698036676E+03  0.12508941849E+03 0.  0.
          5    1    3    3  502    0  0.16117624769E+02 -0.71703517308E+02 -0.10519558611E+02  0.74359301610E+02  0.41800000000E+01 0.  1.
         -5    1    3    3    0  502 -0.89909106227E+02 -0.35572431619E+02 -0.90674303135E+02  0.13262106515E+03  0.41800000000E+01 0.  1.
        -11    1    1    2    0    0  0.36872326372E+02  0.11336372683E+03 -0.14624626461E+03  0.18867663587E+03  0.00000000000E+00 0. -1.
         11    1    1    2    0    0  0.36919155086E+02 -0.60877779000E+01 -0.22915930885E+02  0.43877385295E+02  0.00000000000E+00 0.  1.
</event>
<event>
 7    1  0.2612321E-009  0.7889734E+02  0.7561462E-02  0.1332210E+00
         -1   -1    0    0    0  501 -0.00000000000E+00  0.00000000000E+00  0.12312488428E+03  0.12312488428E+03  0.00000000000E+00 0.  1.
          1   -1    0    0  501    0  0.00000000000E+00 -0.00000000000E+00 -0.14495527752E+03  0.14495527752E+03  0.00000000000E+00 0. -1.
         25    2    1    2    0    0  0.84713975137E+01  0.43802695824E+01 -0.87059247243E+02  0.15270173687E+03  0.12509019376E+03 0.  0.
          5    1    3    3  502    0 -0.22380118099E+02  0.40423909793E+02  0.73366591855E+01  0.46970854123E+02  0.41800000000E+01 0. -1.
         -5    1    3    3    0  502  0.30851515612E+02 -0.36043640210E+02 -0.94395906429E+02  0.10573088274E+03  0.41800000000E+01 0. -1.
        -11    1    1    2    0    0 -0.26337003172E+01 -0.33737555301E+02 -0.92737489193E+01  0.35087910084E+02  0.00000000000E+00 0. -1.
         11    1    1    2    0    0 -0.58376971965E+01  0.29357285719E+02  0.74502602925E+02  0.80290514857E+02  0.00000000000E+00 0.  1.
</event>
<event>
 7    1  0.2612321E-009  0.1871259E+03  0.7561462E-02  0.1161079E+00
          2   -1    0    0  501    0  0.00000000000E+00  0.00000000000E+00  0.62246736796E+03  0.62246736796E+03  0.00000000000E+00 0.  1.
         -2   -1    0    0    0  501 -0.00000000000E+00 -0.00000000000E+00 -0.66078477228E+02  0.66078477228E+02  0.00000000000E+00 0. -1.
         25    2    1    2    0    0  0.13205026804E+03 -0.10613203649E+03  0.32619472269E+03  0.38826717347E+03  0.12508844240E+03 0.  0.
          5    1    3    3  502    0  0.18646647519E+02 -0.76834454392E+02  0.66674159258E+02  0.10350916268E+03  0.41800000000E+01 0.  1.
         -5    1    3    3    0  502  0.11340362052E+03 -0.29297582100E+02  0.25952056343E+03  0.28475801079E+03  0.41800000000E+01 0.  1.
        -11    1    1    2    0    0 -0.69464546990E+02  0.21697366988E+02  0.15442403287E+03  0.17071286111E+03  0.00000000000E+00 0.  1.
         11    1    1    2    0    0 -0.62585721052E+02  0.84434669504E+02  0.75770135172E+02  0.12956581061E+03  0.00000000000E+00 0. -1.
</event>
<event>
 7    1  0.2612321E-009  0.9443887E+02  0.7561462E-02  0.1292445E+00
          1   -1    0    0  501    0  0.00000000000E+00  0.00000000000E+00  0.33143390858E+03  0.33143390858E+03  0.00000000000E+00 0. -1.
         -1   -1    0    0    0  501 -0.00000000000E+00 -0.00000000000E+00 -0.41290249121E+02  0.41290249121E+02  0.00000000000E+00 0.  1.
         25    2    1    2    0    0  0.37803247763E+02 -0.17329095228E+02  0.22518728958E+03  0.26093356476E+03  0.12509047423E+03 0.  0.
          5    1    3    3  502    0 -0.16215366417E+02 -0.50018634271E+02  0.42946710523E+02  0.68019807609E+02  0.41800000000E+01 0. -1.
         -5    1    3    3    0  502  0.54018614180E+02  0.32689539043E+02  0.18224057906E+03  0.19291375715E+03  0.41800000000E+01 0. -1.
        -11    1    1    2    0    0  0.15963610064E+02  0.93406861361E+01 -0.85442917820E+01  0.20373762191E+02  0.00000000000E+00 0.  1.
         11    1    1    2    0    0 -0.53766857827E+02  0.79884090918E+01  0.73500661654E+02  0.91416830748E+02  0.00000000000E+00 0. -1.
</event>
<event>
 7    1  0.2612321E-009  0.1017997E+03  0.7561462E-02  0.1276556E+00
          1   -1    0    0  501    0  0.00000000000E+00  0.00000000000E+00  0.49687601959E+03  0.49687601959E+03  0.00000000000E+00 0. -1.
         -1   -1    0    0    0  501 -0.00000000000E+00 -0.00000000000E+00 -0.27940705396E+02  0.27940705396E+02  0.00000000000E+00 0.  1.
         25    2    1    2    0    0 -0.31068968739E+02  0.21856735742E+02  0.31631079849E+03  0.34226334022E+03  0.12509466457E+03 0.  0.
          5    1    3    3  502    0 -0.57953638447E+02  0.57482717604E+02  0.16022147865E+03  0.17986462035E+03  0.41800000000E+01 0. -1.
         -5    1    3    3    0  502  0.26884669708E+02 -0.35625981862E+02  0.15608931984E+03  0.16239871988E+03  0.41800000000E+01 0. -1.
        -11    1    1    2    0    0 -0.11792666541E+02 -0.31039775538E+02  0.12082962884E+02  0.35334581385E+02  0.00000000000E+00 0.  1.
         11    1    1    2    0    0  0.42861635280E+02  0.91830397955E+01  0.14054155282E+03  0.14721880337E+03  0.00000000000E+00 0. -1.
</event>
<event>
 7    1  0.2612321E-009  0.1076808E+03  0.7561462E-02  0.1264926E+00
          3   -1    0    0  501    0  0.00000000000E+00  0.00000000000E+00  0.11864043796E+03  0.11864043796E+03  0.00000000000E+00 0. -1.
         -3   -1    0    0    0  501 -0.00000000000E+00 -0.00000000000E+00 -0.18479423204E+03  0.18479423204E+03  0.00000000000E+00 0.  1.
         25    2    1    2    0    0  0.68047075272E+00 -0.84775503361E+02  0.23470821154E+02  0.15291505217E+03  0.12507911386E+03 0.  0.
          5    1    3    3  502    0  0.29328160669E+02 -0.29420513514E+02  0.65463269887E+02  0.77644186698E+02  0.41800000000E+01 0.  1.
         -5    1    3    3    0  502 -0.28647689916E+02 -0.55354989847E+02 -0.41992448733E+02  0.75270865473E+02  0.41800000000E+01 0.  1.
        -11    1    1    2    0    0 -0.17082807587E+01  0.97930968889E+02 -0.94833324404E+02  0.13633323992E+03  0.00000000000E+00 0.  1.
         11    1    1    2    0    0  0.10278100059E+01 -0.13155465528E+02  0.52087091701E+01  0.14186377899E+02  0.00000000000E+00 0. -1.
</event>
<event>
 7    1  0.2612321E-009  0.1165416E+03  0.7561462E-02  0.1248914E+00
         -1   -1    0    0    0  501 -0.00000000000E+00  0.00000000000E+00  0.49421581779E+02  0.49421581779E+02  0.00000000000E+00 0.  1.
          1   -1    0    0  501    0  0.00000000000E+00 -0.00000000000E+00 -0.36221701602E+03  0.36221701602E+03  0.00000000000E+00 0. -1.
         25    2    1    2    0    0 -0.29542957614E+02 -0.68721425470E+02 -0.21161263189E+03  0.25694952366E+03  0.12509089125E+03 0.  0.
          5    1    3    3  502    0 -0.54917431439E+02 -0.86614780026E+02 -0.19751840386E+03  0.22259612903E+03  0.41800000000E+01 0.  1.
         -5    1    3    3    0  502  0.25374473825E+02  0.17893354556E+02 -0.14094228026E+02  0.34353394634E+02  0.41800000000E+01 0.  1.
        -11    1    1    2    0    0  0.30409132983E+02  0.24538599721E-01  0.22787977241E+01  0.30494407520E+02  0.00000000000E+00 0. -1.
         11    1    1    2    0    0 -0.86617536943E+00  0.68696886870E+02 -0.10346160008E+03  0.12419466662E+03  0.00000000000E+00 0.  1.
</event>
<event>
 7    1  0.2612321E-009  0.1120080E+03  0.7561462E-02  0.1256896E+00
          2   -1    0    0  501    0  0.00000000000E+00  0.00000000000E+00  0.37572550059E+03  0.37572550059E+03  0.00000000000E+00 0. -1.
         -2   -1    0    0    0  501 -0.00000000000E+00 -0.00000000000E+00 -0.54874358262E+02  0.54874358262E+02  0.00000000000E+00 0.  1.
         25    2    1    2    0    0 -0.52621098854E+02 -0.28827075411E+02  0.66721016856E+02  0.15394388291E+03  0.12508814761E+03 0.  0.
          5    1    3    3  502    0 -0.88140690590E+02  0.21169525974E+01  0.27343823918E+02  0.92403570994E+02  0.41800000000E+01 0.  1.
         -5    1    3    3    0  502  0.35519591736E+02 -0.30944028008E+02  0.39377192938E+02  0.61540311911E+02  0.41800000000E+01 0.  1.
        -11    1    1    2    0    0  0.30864836087E+02 -0.18769900568E+02  0.19224361933E+03  0.19560817071E+03  0.00000000000E+00 0. -1.
         11    1    1    2    0    0  0.21756262767E+02  0.47596975979E+02  0.61886506146E+02  0.81047805243E+02  0.00000000000E+00 0.  1.
</event>
<event>
 7    1  0.2612321E-009  0.6017836E+02  0.7561462E-02  0.1397085E+00
          2   -1    0    0  501    0  0.00000000000E+00  0.00000000000E+00  0.87611132544E+02  0.87611132544E+02  0.00000000000E+00 0. -1.
         -2   -1    0    0    0  501 -0.00000000000E+00 -0.00000000000E+00 -0.11764314634E+03  0.11764314634E+03  0.00000000000E+00 0.  1.
         25    2    1    2    0    0  0.87043969853E+01  0.67846565434E-01  0.31992060779E+02  0.12941030429E+03  0.12509102196E+03 0.  0.
          5    1    3    3  502    0 -0.29653466095E+02 -0.17470340708E+02 -0.35559132150E+02  0.49663519158E+02  0.41800000000E+01 0. -1.
         -5    1    3    3    0  502  0.38357863081E+02  0.17538187273E+02  0.67551192930E+02  0.79746785134E+02  0.41800000000E+01 0. -1.
        -11    1    1    2    0    0 -0.86089433869E+00 -0.20964760946E+02 -0.34839872626E+02  0.40670370851E+02  0.00000000000E+00 0.  1.
         11    1    1    2    0    0 -0.78435026466E+01  0.20896914381E+02 -0.27184201945E+02  0.35173603736E+02  0.00000000000E+00 0. -1.
</event>
<event>
 7    1  0.2612321E-009  0.1386444E+03  0.7561462E-02  0.1215165E+00
          2   -1    0    0  501    0  0.00000000000E+00  0.00000000000E+00  0.15956157446E+03  0.15956157446E+03  0.00000000000E+00 0. -1.
         -2   -1    0    0    0  501 -0.00000000000E+00 -0.00000000000E+00 -0.13023803177E+03  0.13023803177E+03  0.00000000000E+00 0.  1.
         25    2    1    2    0    0 -0.11729280304E+02  0.94438167327E+02  0.33266450311E+01  0.15720633435E+03  0.12508645621E+03 0.  0.
          5    1    3    3  502    0  0.56455009063E+02  0.42691661570E+02  0.81631234043E+01  0.71371247710E+02  0.41800000000E+01 0.  1.
         -5    1    3    3    0  502 -0.68184289368E+02  0.51746505757E+02 -0.48364783732E+01  0.85835086635E+02  0.41800000000E+01 0.  1.
        -11    1    1    2    0    0 -0.27934935364E+02 -0.66621531355E+02 -0.90410024243E+01  0.72804730469E+02  0.00000000000E+00 0.  1.
         11    1    1    2    0    0  0.39664215668E+02 -0.27816635972E+02  0.35037900082E+02  0.59788541407E+02  0.00000000000E+00 0. -1.
</event>
<event>
 7    1  0.2612321E-009  0.1034341E+03  0.7561462E-02  0.1273236E+00
          4   -1    0    0  501    0  0.00000000000E+00  0.00000000000E+00  0.97159827495E+02  0.97159827495E+02  0.00000000000E+00 0. -1.
         -4   -1    0    0    0  501 -0.00000000000E+00 -0.00000000000E+00 -0.15837458450E+03  0.15837458450E+03  0.00000000000E+00 0.  1.
         25    2    1    2    0    0 -0.13868331550E+02  0.57009866113E+02 -0.38115265939E+02  0.14332675772E+03  0.12508929021E+03 0.  0.
          5    1    3    3  502    0 -0.52387576481E+02  0.22553645625E+02  0.24340178854E+02  0.62153373257E+02  0.41800000000E+01 0.  1.
         -5    1    3    3    0  502  0.38519244932E+02  0.34456220487E+02 -0.62455444794E+02  0.81173384460E+02  0.41800000000E+01 0.  1.
        -11    1    1    2    0    0 -0.23547583689E+02  0.62225472186E+01 -0.29733717645E+02  0.38435696383E+02  0.00000000000E+00 0.  1.
         11    1    1    2    0    0  0.37415915238E+02 -0.63232413331E+02  0.66342265832E+01  0.73771957892E+02  0.00000000000E+00 0. -1.
</event>
<event>
 7    1  0.2612321E-009  0.1160917E+03  0.7561462E-02  0.1249687E+00
         -2   -1    0    0    0  501 -0.00000000000E+00  0.00000000000E+00  0.46342533507E+02  0.46342533507E+02  0.00000000000E+00 0. -1.
          2   -1    0    0  501    0  0.00000000000E+00 -0.00000000000E+00 -0.30068114351E+03  0.30068114351E+03  0.00000000000E+00 0.  1.
         25    2    1    2    0    0 -0.35766130668E+02 -0.24725244425E+02 -0.15765114480E+03  0.20589031607E+03  0.12508551068E+03 0.  0.
          5    1    3    3  502    0  0.24695624581E+02  0.37161315868E+02 -0.66066418722E+02  0.79831581177E+02  0.41800000000E+01 0. -1.
         -5    1    3    3    0  502 -0.60461755249E+02 -0.61886560293E+02 -0.91584726076E+02  0.12605873489E+03  0.41800000000E+01 0. -1.
        -11    1    1    2    0    0  0.63598476197E+02  0.11780743457E+00 -0.74119856331E+02  0.97665414327E+02  0.00000000000E+00 0.  1.
         11    1    1    2    0    0 -0.27832345529E+02  0.24607436991E+02 -0.22567608873E+02  0.43467946617E+02  0.00000000000E+00 0. -1.
</event>
<event>
 7    1  0.2612321E-009  0.9779276E+02  0.7561462E-02  0.1285007E+00
          1   -1    0    0  501    0  0.00000000000E+00  0.00000000000E+00  0.29236651811E+03  0.29236651811E+03  0.00000000000E+00 0. -1.
         -1   -1    0    0    0  501 -0.00000000000E+00 -0.00000000000E+00 -0.41373165436E+02  0.41373165436E+02  0.00000000000E+00 0.  1.
         25    2    1    2    0    0  0.11845198093E+02 -0.69740391751E+01  0.16174978504E+03  0.20493622292E+03  0.12508763554E+03 0.  0.
          5    1    3    3  502    0 -0.47676964006E+02 -0.73015766769E+01  0.22391989495E+02  0.53341161520E+02  0.41800000000E+01 0. -1.
         -5    1    3    3    0  502  0.59522162099E+02  0.32753750179E+00  0.13935779555E+03  0.15159506140E+03  0.41800000000E+01 0. -1.
        -11    1    1    2    0    0  0.37540478646E+02  0.65935216090E+01  0.18090843140E+02  0.42190528199E+02  0.00000000000E+00 0.  1.
         11    1    1    2    0    0 -0.49385676739E+02  0.38051756613E+00  0.71152724484E+02  0.86612932419E+02  0.00000000000E+00 0. -1.
</event>
<event>
 7    1  0.2612321E-009  0.9379008E+02  0.7561462E-02  0.1293925E+00
          1   -1    0    0  501    0  0.00000000000E+00  0.00000000000E+00  0.10891105476E+03  0.10891105476E+03  0.00000000000E+00 0. -1.
         -1   -1    0    0    0  501 -0.00000000000E+00 -0.00000000000E+00 -0.11233515094E+03  0.11233515094E+03  0.00000000000E+00 0.  1.
         25    2    1    2    0    0 -0.79294994229E+01  0.35450092983E+01  0.22102100508E+02  0.12732315223E+03  0.12508892116E+03 0.  0.
          5    1    3    3  502    0 -0.61189088205E+02  0.17291542150E+02  0.31955820860E+02  0.71286386022E+02  0.41800000000E+01 0.  1.
         -5    1    3    3    0  502  0.53259588782E+02 -0.13746532852E+02 -0.98537203518E+01  0.56036766212E+02  0.41800000000E+01 0.  1.
        -11    1    1    2    0    0 -0.25457959989E+02  0.15940107578E+02  0.18544757050E+02  0.35300180884E+02  0.00000000000E+00 0. -1.
         11    1    1    2    0    0  0.33387459412E+02 -0.19485116876E+02 -0.44070953740E+02  0.58622872577E+02  0.00000000000E+00 0.  1.
</event>
<event>
 7    1  0.2612321E-009  0.1740321E+03  0.7561462E-02  0.1173707E+00
          3   -1    0    0  501    0  0.00000000000E+00  0.00000000000E+00  0.15827884899E+03  0.15827884899E+03  0.00000000000E+00 0. -1.
         -3   -1    0    0    0  501 -0.00000000000E+00 -0.00000000000E+00 -0.35815496409E+03  0.35815496409E+03  0.00000000000E+00 0.  1.
         25    2    1    2    0    0  0.35842773799E+02  0.15435619549E+03  0.48955953120E+02  0.20773528280E+03  0.12508686123E+03 0.  0.
          5    1    3    3  502    0  0.33266494849E+02  0.30679451758E+02  0.68725034661E+02  0.82392300786E+02  0.41800000000E+01 0.  1.
         -5    1    3    3    0  502  0.25762789505E+01  0.12367674374E+03 -0.19769081541E+02  0.12534298201E+03  0.41800000000E+01 0.  1.
        -11    1    1    2    0    0 -0.59410561400E+01  0.10085613479E+02 -0.42298880007E+01  0.12446192181E+02  0.00000000000E+00 0. -1.
         11    1    1    2    0    0 -0.29901717659E+02 -0.16444180897E+03 -0.24460218022E+03  0.29625233809E+03  0.00000000000E+00 0.  1.
</event>
<event>
 7    1  0.2612321E-009  0.1074127E+03  0.7561462E-02  0.1265438E+00
          3   -1    0    0  501    0  0.00000000000E+00  0.00000000000E+00  0.60266294411E+02  0.60266294411E+02  0.00000000000E+00 0. -1.
         -3   -1    0    0    0  501 -0.00000000000E+00 -0.00000000000E+00 -0.24154025645E+03  0.24154025645E+03  0.00000000000E+00 0.  1.
         25    2    1    2    0    0  0.13653160146E+02 -0.29517253480E+02 -0.15309639047E+03  0.20035945603E+03  0.12509088621E+03 0.  0.
          5    1    3    3  502    0 -0.50229689178E+02 -0.10088237486E+02 -0.10819760284E+03  0.11978726089E+03  0.41800000000E+01 0.  1.
         -5    1    3    3    0  502  0.63882849324E+02 -0.19429015994E+02 -0.44898787629E+02  0.80572195147E+02  0.41800000000E+01 0.  1.
        -11    1    1    2    0    0 -0.21750121925E+02  0.60607667120E+02 -0.12092069570E+02  0.65517747702E+02  0.00000000000E+00 0. -1.
         11    1    1    2    0    0  0.80969617786E+01 -0.31090413639E+02 -0.16085502003E+02  0.35929347127E+02  0.00000000000E+00 0.  1.
</event>
<event>
 7    1  0.2612321E-009  0.1127701E+03  0.7561462E-02  0.1255524E+00
          1   -1    0    0  501    0  0.00000000000E+00  0.00000000000E+00  0.29680952975E+03  0.29680952975E+03  0.00000000000E+00 0. -1.
         -1   -1    0    0    0  501 -0.00000000000E+00 -0.00000000000E+00 -0.64452166788E+02  0.64452166788E+02  0.00000000000E+00 0.  1.
         25    2    1    2    0    0  0.53210043365E+02 -0.64834856262E+02  0.14271715870E+03  0.20750761481E+03  0.12512535921E+03 0.  0.
          5    1    3    3  502    0  0.84982814389E+02 -0.27867826072E+02  0.49683742896E+02  0.10239453686E+03  0.41800000000E+01 0.  1.
         -5    1    3    3    0  502 -0.31772771024E+02 -0.36967030190E+02  0.93033415806E+02  0.10511307795E+03  0.41800000000E+01 0.  1.
        -11    1    1    2    0    0 -0.20828427484E+02  0.43713971255E+02 -0.76875982216E+01  0.49028908215E+02  0.00000000000E+00 0.  1.
         11    1    1    2    0    0 -0.32381615881E+02  0.21120885007E+02  0.97327802478E+02  0.10472517351E+03  0.00000000000E+00 0. -1.
</event>
<event>
 7    1  0.2612321E-009  0.1113678E+03  0.7561462E-02  0.1258058E+00
         -1   -1    0    0    0  501 -0.00000000000E+00  0.00000000000E+00  0.82214336124E+01  0.82214336124E+01  0.00000000000E+00 0.  1.
          1   -1    0    0  501    0  0.00000000000E+00 -0.00000000000E+00 -0.18889044940E+04  0.18889044940E+04  0.00000000000E+00 0. -1.
         25    2    1    2    0    0  0.49840523733E+01 -0.41044561707E+02 -0.13633318147E+04  0.13696823685E+04  0.12508659654E+03 0.  0.
          5    1    3    3  502    0  0.56998219246E+01  0.39186356752E+02 -0.75757755155E+03  0.75862327775E+03  0.41800000000E+01 0. -1.
         -5    1    3    3    0  502 -0.71576955125E+00 -0.80230918459E+02 -0.60575426317E+03  0.61105909072E+03  0.41800000000E+01 0. -1.
        -11    1    1    2    0    0  0.40827877961E+02 -0.35170210633E+00 -0.19398922369E+03  0.19823939624E+03  0.00000000000E+00 0.  1.
         11    1    1    2    0    0 -0.45811930335E+02  0.41396263814E+02 -0.32336202199E+03  0.32920416292E+03  0.00000000000E+00 0. -1.
</event>
<event>
 7    1  0.2612321E-009  0.1188820E+03  0.7561462E-02  0.1244953E+00
         -2   -1    0    0    0  501 -0.00000000000E+00  0.00000000000E+00  0.17801498409E+03  0.17801498409E+03  0.00000000000E+00 0.  1.
          2   -1    0    0  501    0  0.00000000000E+00 -0.00000000000E+00 -0.11423858081E+03  0.11423858081E+03  0.00000000000E+00 0. -1.
         25    2    1    2    0    0  0.51256046481E+02  0.76226249880E+02  0.56182240100E+02  0.16504973891E+03  0.12508936302E+03 0.  0.
          5    1    3    3  502    0  0.34995779435E+02 -0.10152201229E+02 -0.25751996582E+02  0.44815281948E+02  0.41800000000E+01 0.  1.
         -5    1    3    3    0  502  0.16260267045E+02  0.86378451110E+02  0.81934236682E+02  0.12023445696E+03  0.41800000000E+01 0.  1.
        -11    1    1    2    0    0 -0.47312922496E+02 -0.88416453277E+02 -0.14837355760E+02  0.10137124331E+03  0.00000000000E+00 0. -1.
         11    1    1    2    0    0 -0.39431239846E+01  0.12190203397E+02  0.22431518938E+02  0.25832582672E+02  0.00000000000E+00 0.  1.
</event>
<event>
 7    1  0.2612321E-009  0.1432097E+03  0.7561462E-02  0.1209074E+00
          1   -1    0    0  501    0  0.00000000000E+00  0.00000000000E+00  0.41194607755E+03  0.41194607755E+03  0.00000000000E+00 0. -1.
         -1   -1    0    0    0  501 -0.00000000000E+00 -0.00000000000E+00 -0.85723921935E+02  0.85723921935E+02  0.00000000000E+00 0.  1.
         25    2    1    2    0    0  0.50164019317E+02  0.10868596207E+03  0.29750754712E+03  0.34421862863E+03  0.12508659606E+03 0.  0.
          5    1    3    3  502    0  0.32055219409E+02  0.11259122740E+03  0.30266276308E+03  0.32454050923E+03  0.41800000000E+01 0.  1.
         -5    1    3    3    0  502  0.18108799908E+02 -0.39052653229E+01 -0.51552159588E+01  0.19678119396E+02  0.41800000000E+01 0.  1.
        -11    1    1    2    0    0  0.26074846543E+02 -0.39540765884E+02  0.14602038515E+02  0.49563992149E+02  0.00000000000E+00 0.  1.
         11    1    1    2    0    0 -0.76238865860E+02 -0.69145196188E+02  0.14112569980E+02  0.10388737871E+03  0.00000000000E+00 0. -1.
</event>
<event>
 7    1  0.2612321E-009  0.7605107E+02  0.7561462E-02  0.1340647E+00
          3   -1    0    0  501    0  0.00000000000E+00  0.00000000000E+00  0.88168867948E+02  0.88168867948E+02  0.00000000000E+00 0. -1.
         -3   -1    0    0    0  501 -0.00000000000E+00 -0.00000000000E+00 -0.13648988772E+03  0.13648988772E+03  0.00000000000E+00 0.  1.
         25    2    1    2    0    0 -0.49599244726E+01  0.45437905331E+01 -0.13674228876E+02  0.12601335316E+03  0.12508850370E+03 0.  0.
          5    1    3    3  502    0 -0.46272163044E+02 -0.24146558175E+02  0.29056874277E+02  0.59882749496E+02  0.41800000000E+01 0. -1.
         -5    1    3    3    0  502  0.41312238571E+02  0.28690348708E+02 -0.42731103153E+02  0.66130603668E+02  0.41800000000E+01 0. -1.
        -11    1    1    2    0    0 -0.69029589184E+01  0.20461212812E+02  0.24913062815E+02  0.32969270092E+02  0.00000000000E+00 0. -1.
         11    1    1    2    0    0  0.11862883391E+02 -0.25005003345E+02 -0.59559853714E+02  0.65676132415E+02  0.00000000000E+00 0.  1.
</event>
<event>
 7    1  0.2612321E-009  0.2748302E+03  0.7561462E-02  0.1098547E+00
         -2   -1    0    0    0  501 -0.00000000000E+00  0.00000000000E+00  0.12656240937E+03  0.12656240937E+03  0.00000000000E+00 0. -1.
          2   -1    0    0  501    0  0.00000000000E+00 -0.00000000000E+00 -0.83202944306E+03  0.83202944306E+03  0.00000000000E+00 0.  1.
         25    2    1    2    0    0  0.47277472733E+02  0.25671140062E+03 -0.59222993585E+03  0.65918141480E+03  0.12509171862E+03 0.  0.
          5    1    3    3  502    0 -0.26619733779E+02  0.54146104567E+02 -0.61263375702E+02  0.86087655728E+02  0.41800000000E+01 0. -1.
         -5    1    3    3    0  502  0.73897206512E+02  0.20256529606E+03 -0.53096656015E+03  0.57309375907E+03  0.41800000000E+01 0. -1.
        -11    1    1    2    0    0  0.23553525232E+02 -0.65745324618E+02 -0.84182177447E+01  0.70342609065E+02  0.00000000000E+00 0.  1.
         11    1    1    2    0    0 -0.70830997965E+02 -0.19096607601E+03 -0.10481888010E+03  0.22906782856E+03  0.00000000000E+00 0. -1.
</event>
<event>
 7    1  0.2612321E-009  0.8378335E+02  0.7561462E-02  0.1318645E+00
          2   -1    0    0  501    0  0.00000000000E+00  0.00000000000E+00  0.16946937577E+03  0.16946937577E+03  0.00000000000E+00 0. -1.
         -2   -1    0    0    0  501 -0.00000000000E+00 -0.00000000000E+00 -0.84334927500E+02  0.84334927500E+02  0.00000000000E+00 0.  1.
         25    2    1    2    0    0  0.16729239419E+02  0.43608908642E+02  0.66492535799E+02  0.14916405671E+03  0.12508818543E+03 0.  0.
          5    1    3    3  502    0  0.33692806072E+02  0.18883885126E+01  0.91405878123E+02  0.97525781964E+02  0.41800000000E+01 0.  1.
         -5    1    3    3    0  502 -0.16963566654E+02  0.41720520130E+02 -0.24913342324E+02  0.51638274751E+02  0.41800000000E+01 0.  1.
        -11    1    1    2    0    0 -0.40230081828E+02 -0.49809692775E+02 -0.12398340948E+02  0.65216438392E+02  0.00000000000E+00 0.  1.
         11    1    1    2    0    0  0.23500842409E+02  0.62007841328E+01  0.31040253421E+02  0.39423808165E+02  0.00000000000E+00 0. -1.
</event>
<event>
 7    1  0.2612321E-009  0.2080246E+03  0.7561462E-02  0.1143140E+00
         -1   -1    0    0    0  501 -0.00000000000E+00  0.00000000000E+00  0.86389327199E+02  0.86389327199E+02  0.00000000000E+00 0.  1.
          1   -1    0    0  501    0  0.00000000000E+00 -0.00000000000E+00 -0.54263445618E+03  0.54263445618E+03  0.00000000000E+00 0. -1.
         25    2    1    2    0    0  0.17952591516E+03  0.41125523755E+02 -0.28776196156E+03  0.36383527640E+03  0.12509316094E+03 0.  0.
          5    1    3    3  502    0  0.84010552240E+02 -0.40636159932E+02 -0.15472508378E+03  0.18073846943E+03  0.41800000000E+01 0. -1.
         -5    1    3    3    0  502  0.95515362916E+02  0.81761683687E+02 -0.13303687778E+03  0.18309680697E+03  0.41800000000E+01 0. -1.
        -11    1    1    2    0    0 -0.93511799286E+02  0.14169079815E+02 -0.44635050162E+02  0.10458253741E+03  0.00000000000E+00 0.  1.
         11    1    1    2    0    0 -0.86014115870E+02 -0.55294603570E+02 -0.12384811727E+03  0.16060596957E+03  0.00000000000E+00 0. -1.
</event>
<event>
 7    1  0.2612321E-009  0.8298450E+02  0.7561462E-02  0.1320789E+00
         -2   -1    0    0    0  501 -0.00000000000E+00  0.00000000000E+00  0.37501727037E+02  0.37501727037E+02  0.00000000000E+00 0.  1.
          2   -1    0    0  501    0  0.00000000000E+00 -0.00000000000E+00 -0.32394989361E+03  0.32394989361E+03  0.00000000000E+00 0. -1.
         25    2    1    2    0    0 -0.19656545135E+02 -0.33022239615E+01 -0.18036958395E+03  0.22040331252E+03  0.12508856426E+03 0.  0.
          5    1    3    3  502    0 -0.68886311663E+01 -0.38032577624E+02 -0.17896458021E+03  0.18313853655E+03  0.41800000000E+01 0. -1.
         -5    1    3    3    0  502 -0.12767913969E+02  0.34730353662E+02 -0.14050037357E+01  0.37264775971E+02  0.41800000000E+01 0. -1.
        -11    1    1    2    0    0  0.13639217936E+02 -0.41997290615E+02 -0.34108151819E+02  0.55795758848E+02  0.00000000000E+00 0. -1.
         11    1    1    2    0    0  0.60173271986E+01  0.45299514577E+02 -0.71970430809E+02  0.85252549278E+02  0.00000000000E+00 0.  1.
</event>
<event>
 7    1  0.2612321E-009  0.1038786E+03  0.7561462E-02  0.1272345E+00
         -1   -1    0    0    0  501 -0.00000000000E+00  0.00000000000E+00  0.23582833564E+02  0.23582833564E+02  0.00000000000E+00 0.  1.
          1   -1    0    0  501    0  0.00000000000E+00 -0.00000000000E+00 -0.54752261098E+03  0.54752261098E+03  0.00000000000E+00 0. -1.
         25    2    1    2    0    0  0.17950828474E+02 -0.26604995369E+02 -0.33868910455E+03  0.36247477560E+03  0.12509034890E+03 0.  0.
          5    1    3    3  502    0 -0.38776402812E+02  0.28258670162E+02 -0.99006232917E+02  0.11009935700E+03  0.41800000000E+01 0. -1.
         -5    1    3    3    0  502  0.56727231287E+02 -0.54863665532E+02 -0.23968287163E+03  0.25237541861E+03  0.41800000000E+01 0. -1.
        -11    1    1    2    0    0 -0.35292921889E+02 -0.12777433523E+02 -0.31591915084E+02  0.49060189987E+02  0.00000000000E+00 0. -1.
         11    1    1    2    0    0  0.17342093415E+02  0.39382428892E+02 -0.15365875779E+03  0.15957047896E+03  0.00000000000E+00 0.  1.
</event>
<event>
 7    1  0.2612321E-009  0.9750251E+02  0.7561462E-02  0.1285637E+00
         -1   -1    0    0    0  501 -0.00000000000E+00  0.00000000000E+00  0.38394583166E+02  0.38394583166E+02  0.00000000000E+00 0.  1.
          1   -1    0    0  501    0  0.00000000000E+00 -0.00000000000E+00 -0.39231276815E+03  0.39231276815E+03  0.00000000000E+00 0. -1.
         25    2    1    2    0    0 -0.55136402152E+02 -0.17265036161E+02 -0.19440950869E+03  0.23828655503E+03  0.12508925183E+03 0.  0.
          5    1    3    3  502    0 -0.68953747258E+02 -0.39677656024E+02 -0.56109900716E+02  0.97440900072E+02  0.41800000000E+01 0.  1.
         -5    1    3    3    0  502  0.13817345106E+02  0.22412619863E+02 -0.13829960797E+03  0.14084565496E+03  0.41800000000E+01 0.  1.
        -11    1    1    2    0    0  0.71055476563E+02  0.13584136360E+02 -0.16050153912E+03  0.17605156509E+03  0.00000000000E+00 0. -1.
         11    1    1    2    0    0 -0.15919074410E+02  0.36808998006E+01  0.99286282578E+00  0.16369231198E+02  0.00000000000E+00 0.  1.
</event>
<event>
 7    1  0.2612321E-009  0.1128190E+03  0.7561462E-02  0.1255437E+00
          1   -1    0    0  501    0  0.00000000000E+00  0.00000000000E+00  0.46493500797E+02  0.46493500797E+02  0.00000000000E+00 0. -1.
         -1   -1    0    0    0  501 -0.00000000000E+00 -0.00000000000E+00 -0.56455238266E+03  0.56455238266E+03  0.00000000000E+00 0.  1.
         25    2    1    2    0    0  0.21121165347E+02 -0.41509674646E+02 -0.48594739456E+03  0.50395151104E+03  0.12511234345E+03 0.  0.
          5    1    3    3  502    0  0.65875991149E+02 -0.60029142688E+01 -0.16295340147E+03  0.17591749384E+03  0.41800000000E+01 0. -1.
         -5    1    3    3    0  502 -0.44754825802E+02 -0.35506760377E+02 -0.32299399309E+03  0.32803401720E+03  0.41800000000E+01 0. -1.
        -11    1    1    2    0    0 -0.22690512202E+02 -0.26022005610E+02 -0.13014440939E+02  0.36896880531E+02  0.00000000000E+00 0. -1.
         11    1    1    2    0    0  0.15693468547E+01  0.67531680256E+02 -0.19097046365E+02  0.70197491889E+02  0.00000000000E+00 0.  1.
</event>
<event>
 6    1  0.2612321E-009  0.1645573E+03  0.7561462E-02  0.1183646E+00
          2   -1    0    0  501    0  0.00000000000E+00  0.00000000000E+00  0.72360465988E+02  0.72360465988E+02  0.00000000000E+00 0. -1.
         -2   -1    0    0    0  501 -0.00000000000E+00 -0.00000000000E+00 -0.44987206439E+03  0.44987206439E+03  0.00000000000E+00 0.  1.
          5    1    1    2  502    0  0.85446902515E+02 -0.18238076855E+02 -0.47580596464E+02  0.99575027776E+02  0.41800000000E+01 0.  1.
         -5    1    1    2    0  502  0.32557851585E+02  0.90395909884E+02 -0.94569562485E+02  0.13487886703E+03  0.41800000000E+01 0.  1.
        -11    1    1    2    0    0 -0.10226901712E+03 -0.40268456144E+02 -0.22552551238E+03  0.25088295510E+03  0.00000000000E+00 0.  1.
         11    1    1    2    0    0 -0.15735736978E+02 -0.31889376884E+02 -0.98359270758E+01  0.36895680476E+02  0.00000000000E+00 0. -1.
</event>
<event>
 7    1  0.2612321E-009  0.1246110E+03  0.7561462E-02  0.1235679E+00
         -1   -1    0    0    0  501 -0.00000000000E+00  0.00000000000E+00  0.42287756132E+03  0.42287756132E+03  0.00000000000E+00 0.  1.
          1   -1    0    0  501    0  0.00000000000E+00 -0.00000000000E+00 -0.85081597006E+02  0.85081597006E+02  0.00000000000E+00 0. -1.
         25    2    1    2    0    0  0.56664420025E+02  0.10560177922E+03  0.45400643115E+02  0.17908479801E+03  0.12509018431E+03 0.  0.
          5    1    3    3  502    0  0.17359163277E+02  0.21066191849E+01  0.64239526897E+02  0.66708077547E+02  0.41800000000E+01 0.  1.
         -5    1    3    3    0  502  0.39305256748E+02  0.10349516004E+03 -0.18838883781E+02  0.11237672046E+03  0.41800000000E+01 0.  1.
        -11    1    1    2    0    0 -0.41551556009E+02 -0.87576404692E+02  0.28935053348E+03  0.30515551722E+03  0.00000000000E+00 0.  1.
         11    1    1    2    0    0 -0.15112864016E+02 -0.18025374531E+02  0.30447877217E+01  0.23718843101E+02  0.00000000000E+00 0. -1.
</event>
<event>
 7    1  0.2612321E-009  0.7891254E+02  0.7561462E-02  0.1332166E+00
         -2   -1    0    0    0  501 -0.00000000000E+00  0.00000000000E+00  0.34358453153E+02  0.34358453153E+02  0.00000000000E+00 0.  1.
          2   -1    0    0  501    0  0.00000000000E+00 -0.00000000000E+00 -0.42894560163E+03  0.42894560163E+03  0.00000000000E+00 0. -1.
         25    2    1    2    0    0 -0.33216479800E+02 -0.39101923046E+02 -0.21075492859E+03  0.25039581153E+03  0.12509247615E+03 0.  0.
          5    1    3    3  502    0 -0.50597147653E+02  0.10981896558E+02 -0.25897862650E+02  0.58041753010E+02  0.41800000000E+01 0.  1.
         -5    1    3    3    0  502  0.17380667853E+02 -0.50083819604E+02 -0.18485706594E+03  0.19235405852E+03  0.41800000000E+01 0.  1.
        -11    1    1    2    0    0  0.15597736771E+02  0.95252503901E+01  0.65680734240E+01  0.19420591543E+02  0.00000000000E+00 0.  1.
         11    1    1    2    0    0  0.17618743029E+02  0.29576672656E+02 -0.19040029331E+03  0.19348765171E+03  0.00000000000E+00 0. -1.
</event>
<event>
 7    1  0.2612321E-009  0.1070957E+03  0.7561462E-02  0.1266045E+00
         -3   -1    0    0    0  501 -0.00000000000E+00  0.00000000000E+00  0.10660193086E+03  0.10660193086E+03  0.00000000000E+00 0.  1.
          3   -1    0    0  501    0  0.00000000000E+00 -0.00000000000E+00 -0.27664744449E+03  0.27664744449E+03  0.00000000000E+00 0. -1.
         25    2    1    2    0    0  0.74272212991E+02  0.36022423320E+02  0.25197437317E+02  0.15196789293E+03  0.12508138562E+03 0.  0.
          5    1    3    3  502    0  0.90158448624E+02 -0.73971423162E+00 -0.18939157195E+02  0.92223950851E+02  0.41800000000E+01 0. -1.
         -5    1    3    3    0  502 -0.15886235633E+02  0.36762137552E+02  0.44136594512E+02  0.59743942078E+02  0.41800000000E+01 0. -1.
        -11    1    1    2    0    0 -0.28668607550E+02 -0.21407249608E+02 -0.17611769404E+03  0.17971533476E+03  0.00000000000E+00 0. -1.
         11    1    1    2    0    0 -0.45603605441E+02 -0.14615173712E+02 -0.19125256911E+02  0.51566147653E+02  0.00000000000E+00 0.  1.
</event>
<event>
 7    1  0.2612321E-009  0.9426463E+02  0.7561462E-02  0.1292841E+00
          1   -1    0    0  501    0  0.00000000000E+00  0.00000000000E+00  0.99199192192E+02  0.99199192192E+02  0.00000000000E+00 0. -1.
         -1   -1    0    0    0  501 -0.00000000000E+00 -0.00000000000E+00 -0.12066443331E+03  0.12066443331E+03  0.00000000000E+00 0.  1.
         25    2    1    2    0    0 -0.11401449320E+02 -0.35081203153E+02 -0.23073757101E+02  0.13243277580E+03  0.12508140540E+03 0.  0.
          5    1    3    3  502    0  0.12968216578E+02 -0.77377451441E+02 -0.69596233507E+00  0.78570995897E+02  0.41800000000E+01 0. -1.
         -5    1    3    3    0  502 -0.24369665899E+02  0.42296248287E+02 -0.22377794766E+02  0.53861779898E+02  0.41800000000E+01 0. -1.
        -11    1    1    2    0    0 -0.19180073783E+02  0.11635833191E+02 -0.30091054537E+02  0.37533177423E+02  0.00000000000E+00 0.  1.
         11    1    1    2    0    0  0.30581523103E+02  0.23445369962E+02  0.31699570520E+02  0.49897672282E+02  0.00000000000E+00 0. -1.
</event>
<event>
 7    1  0.2612321E-009  0.1214113E+03  0.7561462E-02  0.1240787E+00
         -1   -1    0    0    0  501 -0.00000000000E+00  0.00000000000E+00  0.63751805627E+02  0.63751805627E+02  0.00000000000E+00 0.  1.
          1   -1    0    0  501    0  0.00000000000E+00 -0.00000000000E+00 -0.23727368252E+03  0.23727368252E+03  0.00000000000E+00 0. -1.
         25    2    1    2    0    0  0.31813914111E+01  0.57880639724E+02 -0.10459229546E+03  0.17305328862E+03  0.12509037823E+03 0.  0.
          5    1    3    3  502    0  0.30166432903E+02  0.89899852062E+02 -0.81170042746E+02  0.12489213472E+03  0.41800000000E+01 0.  1.
         -5    1    3    3    0  502 -0.26985041492E+02 -0.32019212338E+02 -0.23422252715E+02  0.48161153903E+02  0.41800000000E+01 0.  1.
        -11    1    1    2    0    0 -0.45280845239E+02 -0.21256721799E+02 -0.20403529311E+02  0.54023209600E+02  0.00000000000E+00 0.  1.
         11    1    1    2    0    0  0.42099453828E+02 -0.36623917925E+02 -0.48526052124E+02  0.73948989928E+02  0.00000000000E+00 0. -1.
</event>
<event>
 7    1  0.2612321E-009  0.1179584E+03  0.7561462E-02  0.1246504E+00
          2   -1    0    0  501    0  0.00000000000E+00  0.00000000000E+00  0.56494114936E+02  0.56494114936E+02  0.00000000000E+00 0.  1.
         -2   -1    0    0    0  501 -0.00000000000E+00 -0.00000000000E+00 -0.36947444693E+03  0.36947444693E+03  0.00000000000E+00 0. -1.
         25    2    1    2    0    0 -0.93915143574E+02  0.95387707753E+01 -0.14987194044E+03  0.21683926138E+03  0.12508646771E+03 0.  0.
          5    1    3    3  502    0 -0.16437597950E+02 -0.17999085262E+02  0.17511305295E+02  0.30303133663E+02  0.41800000000E+01 0. -1.
         -5    1    3    3    0  502 -0.77477545624E+02  0.27537856037E+02 -0.16738324574E+03  0.18653612772E+03  0.41800000000E+01 0. -1.
        -11    1    1    2    0    0  0.64004876703E+02 -0.48091270576E+02 -0.11855071170E+03  0.14305126980E+03  0.00000000000E+00 0.  1.
         11    1    1    2    0    0  0.29910266871E+02  0.38552499801E+02 -0.44557679855E+02  0.66078030685E+02  0.00000000000E+00 0. -1.
</event>
<event>
 7    1  0.3668379E-009  0.1340260E+03  0.7561462E-02  0.1221601E+00
         -3   -1    0    0    0  501 -0.00000000000E+00  0.00000000000E+00  0.10188371354E+03  0.10188371354E+03  0.00000000000E+00 0.  1.
          3   -1    0    0  501    0  0.00000000000E+00 -0.00000000000E+00 -0.26658728198E+03  0.26658728198E+03  0.00000000000E+00 0. -1.
         25    2    1    2    0    0  0.82886653447E+02 -0.83997765281E+02 -0.46192242183E+02  0.17806584159E+03  0.12509156172E+03 0.  0.
          5    1    3    3  502    0  0.40975676447E+02 -0.92186798986E+02 -0.75524365709E+02  0.12609049997E+03  0.41800000000E+01 0. -1.
         -5    1    3    3    0  502  0.41910977000E+02  0.81890337051E+01  0.29332123526E+02  0.51975341621E+02  0.41800000000E+01 0. -1.
        -11    1    1    2    0    0 -0.53387586321E+02  0.77267721822E+02 -0.32751877350E+02  0.99464670505E+02  0.00000000000E+00 0.  1.
         11    1    1    2    0    0 -0.29499067126E+02  0.67300434592E+01 -0.85759448909E+02  0.90940483414E+02  0.00000000000E+00 0. -1.
</event>
<event>
 7    1  0.2612321E-009  0.1549990E+03  0.7561462E-02  0.1194461E+00
          1   -1    0    0  501    0  0.00000000000E+00  0.00000000000E+00  0.60749802415E+02  0.60749802415E+02  0.00000000000E+00 0. -1.
         -1   -1    0    0    0  501 -0.00000000000E+00 -0.00000000000E+00 -0.57749122259E+03  0.57749122259E+03  0.00000000000E+00 0.  1.
         25    2    1    2    0    0  0.13326434705E+03 -0.11556738269E+02 -0.39488703101E+03  0.43528979028E+03  0.12509392418E+03 0.  0.
          5    1    3    3  502    0  0.85524837882E+02  0.23020445777E+02 -0.35006643316E+03  0.36112105843E+03  0.41800000000E+01 0. -1.
         -5    1    3    3    0  502  0.47739509166E+02 -0.34577184046E+02 -0.44820597850E+02  0.74168731846E+02  0.41800000000E+01 0. -1.
        -11    1    1    2    0    0 -0.37879793102E+02  0.47102188135E+02 -0.42705908468E+02  0.74008712127E+02  0.00000000000E+00 0.  1.
         11    1    1    2    0    0 -0.95384553946E+02 -0.35545449866E+02 -0.79148480699E+02  0.12894252260E+03  0.00000000000E+00 0. -1.
</event>
<event>
 7    1  0.2612321E-009  0.1190701E+03  0.7561462E-02  0.1244639E+00
          3   -1    0    0  501    0  0.00000000000E+00  0.00000000000E+00  0.58255630103E+02  0.58255630103E+02  0.00000000000E+00 0. -1.
         -3   -1    0    0    0  501 -0.00000000000E+00 -0.00000000000E+00 -0.27004146118E+03  0.27004146118E+03  0.00000000000E+00 0.  1.
         25    2    1    2    0    0  0.23701042146E+02 -0.51092876169E+02 -0.15247656388E+03  0.20510633050E+03  0.12508909977E+03 0.  0.
          5    1    3    3  502    0 -0.33459220155E+02  0.21138691974E+02 -0.74008438924E+02  0.84030263261E+02  0.41800000000E+01 0.  1.
         -5    1    3    3    0  502  0.57160262301E+02 -0.72231568142E+02 -0.78468124958E+02  0.12107606723E+03  0.41800000000E+01 0.  1.
        -11    1    1    2    0    0 -0.38037207554E+02  0.71622224345E+02 -0.54461140134E+02  0.97686170788E+02  0.00000000000E+00 0.  1.
         11    1    1    2    0    0  0.14336165408E+02 -0.20529348176E+02 -0.48481270648E+01  0.25504590002E+02  0.00000000000E+00 0. -1.
</event>
<event>
 7    1  0.2612321E-009  0.9398258E+02  0.7561462E-02  0.1293484E+00
         -2   -1    0    0    0  501 -0.00000000000E+00  0.00000000000E+00  0.11513490512E+03  0.11513490512E+03  0.00000000000E+00 0. -1.
          2   -1    0    0  501    0  0.00000000000E+00 -0.00000000000E+00 -0.20960872400E+03  0.20960872400E+03  0.00000000000E+00 0.  1.
         25    2    1    2    0    0  0.32533872312E+01 -0.13223874000E+02  0.63391914184E+02  0.14089729366E+03  0.12509219482E+03 0.  0.
          5    1    3    3  502    0  0.43574986896E+02  0.13946473161E+02 -0.15195304160E+02  0.48390631997E+02  0.41800000000E+01 0.  1.
         -5    1    3    3    0  502 -0.40321599664E+02 -0.27170347160E+02  0.78587218344E+02  0.92506661660E+02  0.41800000000E+01 0.  1.
        -11    1    1    2    0    0 -0.62567814918E+01 -0.39711189305E+02 -0.81549120185E+02  0.90919661645E+02  0.00000000000E+00 0.  1.
         11    1    1    2    0    0  0.30033942607E+01  0.52935063305E+02 -0.76316612887E+02  0.92926673817E+02  0.00000000000E+00 0. -1.
</event>
<event>
 7    1  0.2612321E-009  0.9007476E+02  0.7561462E-02  0.1302671E+00
         -2   -1    0    0    0  501 -0.00000000000E+00  0.00000000000E+00  0.33018893359E+02  0.33018893359E+02  0.00000000000E+00 0.  1.
          2   -1    0    0  501    0  0.00000000000E+00 -0.00000000000E+00 -0.40587126373E+03  0.40587126373E+03  0.00000000000E+00 0. -1.
         25    2    1    2    0    0  0.17785124563E+02 -0.31424349925E+02 -0.17824498550E+03  0.22073178046E+03  0.12508974228E+03 0.  0.
          5    1    3    3  502    0 -0.67121708184E+01 -0.61845252915E+02 -0.16934061118E+03  0.18045388203E+03  0.41800000000E+01 0. -1.
         -5    1    3    3    0  502  0.24497295382E+02  0.30420902990E+02 -0.89043743272E+01  0.40277898429E+02  0.41800000000E+01 0. -1.
        -11    1    1    2    0    0  0.15247064548E+02  0.41314747982E+02 -0.17047510521E+03  0.17607141413E+03  0.00000000000E+00 0. -1.
         11    1    1    2    0    0 -0.33032189112E+02 -0.98903980565E+01 -0.24132279662E+02  0.42086962506E+02  0.00000000000E+00 0.  1.
</event>
<event>
 7    1  0.2612321E-009  0.8918453E+02  0.7561462E-02  0.1304839E+00
          2   -1    0    0  501    0  0.00000000000E+00  0.00000000000E+00  0.23926630133E+03  0.23926630133E+03  0.00000000000E+00 0. -1.
         -2   -1    0    0    0  501 -0.00000000000E+00 -0.00000000000E+00 -0.71291911635E+02  0.71291911635E+02  0.00000000000E+00 0.  1.
         25    2    1    2    0    0 -0.33771295567E+02  0.54711515970E+02  0.13624655583E+03  0.19581827523E+03  0.12509125690E+03 0.  0.
          5    1    3    3  502    0 -0.34660376003E+02  0.79740670226E+02  0.39132570790E+02  0.95439754031E+02  0.41800000000E+01 0.  1.
         -5    1    3    3    0  502  0.88908043636E+00 -0.25029154256E+02  0.97113985040E+02  0.10037852119E+03  0.41800000000E+01 0.  1.
        -11    1    1    2    0    0  0.13232588675E+02 -0.35181059973E+02 -0.29164408139E+02  0.47574899748E+02  0.00000000000E+00 0.  1.
         11    1    1    2    0    0  0.20538706892E+02 -0.19530455997E+02  0.60892241999E+02  0.67165037988E+02  0.00000000000E+00 0. -1.
</event>
<event>
 7    1  0.3687422E-009  0.2260464E+03  0.7561462E-02  0.1129454E+00
          2   -1    0    0  501    0  0.00000000000E+00  0.00000000000E+00  0.11180673861E+04  0.11180673861E+04  0.00000000000E+00 0. -1.
         -2   -1    0    0    0  501 -0.00000000000E+00 -0.00000000000E+00 -0.47110224782E+02  0.47110224782E+02  0.00000000000E+00 0.  1.
         25    2    1    2    0    0  0.19587939015E+03 -0.43240803932E+02  0.60823064757E+03  0.65255728018E+03  0.12509188887E+03 0.  0.
          5    1    3    3  502    0  0.20068911537E+02  0.37277096128E+02  0.12579378054E+03  0.13279266067E+03  0.41800000000E+01 0.  1.
         -5    1    3    3    0  502  0.17581047862E+03 -0.80517900061E+02  0.48243686703E+03  0.51976461951E+03  0.41800000000E+01 0.  1.
        -11    1    1    2    0    0 -0.12903655917E+03 -0.11760921572E+02  0.32587636477E+03  0.35069097222E+03  0.00000000000E+00 0. -1.
         11    1    1    2    0    0 -0.66842830981E+02  0.55001725504E+02  0.13685014893E+03  0.16192935843E+03  0.00000000000E+00 0.  1.
</event>
<event>
 7    1  0.2612321E-009  0.1089800E+03  0.7561462E-02  0.1262471E+00
         -1   -1    0    0    0  501 -0.00000000000E+00  0.00000000000E+00  0.18372069261E+02  0.18372069261E+02  0.00000000000E+00 0.  1.
          1   -1    0    0  501    0  0.00000000000E+00 -0.00000000000E+00 -0.84746629836E+03  0.84746629836E+03  0.00000000000E+00 0. -1.
         25    2    1    2    0    0 -0.58859106939E+02  0.10135481409E+02 -0.50657582194E+03  0.52519837835E+03  0.12508857183E+03 0.  0.
          5    1    3    3  502    0  0.25776303337E+02 -0.60517585989E+01 -0.27447266481E+02  0.38364911484E+02  0.41800000000E+01 0. -1.
         -5    1    3    3    0  502 -0.84635410276E+02  0.16187240008E+02 -0.47912855546E+03  0.48683346687E+03  0.41800000000E+01 0. -1.
        -11    1    1    2    0    0  0.72483084758E+02  0.17062785885E+02 -0.17787983536E+03  0.19283716464E+03  0.00000000000E+00 0.  1.
         11    1    1    2    0    0 -0.13623977819E+02 -0.27198267294E+02 -0.14463857181E+03  0.14780282464E+03  0.00000000000E+00 0. -1.
</event>
<event>
 7    1  0.2612321E-009  0.1024019E+03  0.7561462E-02  0.1275325E+00
          1   -1    0    0  501    0  0.00000000000E+00  0.00000000000E+00  0.61301220599E+03  0.61301220599E+03  0.00000000000E+00 0. -1.
         -1   -1    0    0    0  501 -0.00000000000E+00 -0.00000000000E+00 -0.20105102841E+02  0.20105102841E+02  0.00000000000E+00 0.  1.
         25    2    1    2    0    0  0.22361502485E+02 -0.40311512319E+01  0.31161389586E+03  0.33655137661E+03  0.12508925627E+03 0.  0.
          5    1    3    3  502    0  0.50667026491E+02 -0.46440884281E+02  0.12130186323E+03  0.13948303742E+03  0.41800000000E+01 0.  1.
         -5    1    3    3    0  502 -0.28305524006E+02  0.42409733049E+02  0.19031203263E+03  0.19706833919E+03  0.41800000000E+01 0.  1.
        -11    1    1    2    0    0 -0.39809784382E+02 -0.27752763794E+02  0.22053532198E+03  0.22581156541E+03  0.00000000000E+00 0.  1.
         11    1    1    2    0    0  0.17448281897E+02  0.31783915026E+02  0.60757885310E+02  0.70754366811E+02  0.00000000000E+00 0. -1.
</event>
<event>
 7    1  0.2612321E-009  0.1229389E+03  0.7561462E-02  0.1238326E+00
         -2   -1    0    0    0  501 -0.00000000000E+00  0.00000000000E+00  0.41577335055E+02  0.41577335055E+02  0.00000000000E+00 0. -1.
          2   -1    0    0  501    0  0.00000000000E+00 -0.00000000000E+00 -0.48315678754E+03  0.48315678754E+03  0.00000000000E+00 0.  1.
         25    2    1    2    0    0  0.71017808897E+02  0.57284744730E+02 -0.22415390051E+03  0.27242724885E+03  0.12508622483E+03 0.  0.
          5    1    3    3  502    0  0.74752555820E+02  0.75559154128E+02 -0.22918064211E+03  0.25266256052E+03  0.41800000000E+01 0. -1.
         -5    1    3    3    0  502 -0.37347469234E+01 -0.18274409398E+02  0.50267415999E+01  0.19764688324E+02  0.41800000000E+01 0. -1.
        -11    1    1    2    0    0 -0.22543405864E+02 -0.67229884774E+02 -0.16807311989E+03  0.18241884821E+03  0.00000000000E+00 0.  1.
         11    1    1    2    0    0 -0.48474403033E+02  0.99451400438E+01 -0.49352432095E+02  0.69888025538E+02  0.00000000000E+00 0. -1.
</event>
<event>
 7    1  0.2612321E-009  0.1187215E+03  0.7561462E-02  0.1245221E+00
          1   -1    0    0  501    0  0.00000000000E+00  0.00000000000E+00  0.12027834928E+03  0.12027834928E+03  0.00000000000E+00 0. -1.
         -1   -1    0    0    0  501 -0.00000000000E+00 -0.00000000000E+00 -0.13450540000E+03  0.13450540000E+03  0.00000000000E+00 0.  1.
         25    2    1    2    0    0  0.31496623284E+02 -0.35344983612E+02  0.10814772473E+02  0.13418066449E+03  0.12508471639E+03 0.  0.
          5    1    3    3  502    0 -0.42594385080E+02  0.15929502012E+01 -0.17949923996E+02  0.46438037234E+02  0.41800000000E+01 0. -1.
         -5    1    3    3    0  502  0.74091008364E+02 -0.36937933813E+02  0.28764696469E+02  0.87742627256E+02  0.41800000000E+01 0. -1.
        -11    1    1    2    0    0  0.29611733508E+02  0.40751142855E+02 -0.30706773795E+02  0.58995053710E+02  0.00000000000E+00 0. -1.
         11    1    1    2    0    0 -0.61108356791E+02 -0.54061592433E+01  0.56649506062E+01  0.61608031074E+02  0.00000000000E+00 0.  1.
</event>
<event>
 7    1  0.2612321E-009  0.1159293E+03  0.7561462E-02  0.1249968E+00
          1   -1    0    0  501    0  0.00000000000E+00  0.00000000000E+00  0.18299135237E+04  0.18299135237E+04  0.00000000000E+00 0. -1.
         -1   -1    0    0    0  501 -0.00000000000E+00 -0.00000000000E+00 -0.16386405217E+02  0.16386405217E+02  0.00000000000E+00 0.  1.
         25    2    1    2    0    0  0.26109593637E+02 -0.83169859127E+02  0.15113919747E+04  0.15190630434E+04  0.12509153629E+03 0.  0.
          5    1    3    3  502    0  0.45510725437E+02 -0.16119181461E+02  0.19923495600E+03  0.20504412753E+03  0.41800000000E+01 0.  1.
         -5    1    3    3    0  502 -0.19401131800E+02 -0.67050677665E+02  0.13121570187E+04  0.13140189159E+04  0.41800000000E+01 0.  1.
        -11    1    1    2    0    0  0.24752256517E+02  0.38541453162E+02  0.19665120402E+03  0.20191536311E+03  0.00000000000E+00 0. -1.
         11    1    1    2    0    0 -0.50861850154E+02  0.44628405965E+02  0.10548393979E+03  0.12532152239E+03  0.00000000000E+00 0.  1.
</event>
<event>
 7    1  0.2612321E-009  0.1095647E+03  0.7561462E-02  0.1261378E+00
          2   -1    0    0  501    0  0.00000000000E+00  0.00000000000E+00  0.52245470895E+02  0.52245470895E+02  0.00000000000E+00 0. -1.
         -2   -1    0    0    0  501 -0.00000000000E+00 -0.00000000000E+00 -0.33844786150E+03  0.33844786150E+03  0.00000000000E+00 0.  1.
         25    2    1    2    0    0 -0.79197084193E+01 -0.55670856378E+02 -0.78537357124E+02  0.15803994182E+03  0.12508613318E+03 0.  0.
          5    1    3    3  502    0  0.16619009616E+02 -0.78991401151E+02 -0.91009910989E+02  0.12172144115E+03  0.41800000000E+01 0. -1.
         -5    1    3    3    0  502 -0.24538718035E+02  0.23320544773E+02  0.12472553865E+02  0.36318500674E+02  0.41800000000E+01 0. -1.
        -11    1    1    2    0    0 -0.40037433777E+02  0.23175330241E+02 -0.78992192111E+02  0.91541566786E+02  0.00000000000E+00 0. -1.
         11    1    1    2    0    0  0.47957142196E+02  0.32495526137E+02 -0.12867284137E+03  0.14111182378E+03  0.00000000000E+00 0.  1.
</event>
<event>
 7    1  0.2612321E-009  0.1048406E+03  0.7561462E-02  0.1270434E+00
          1   -1    0    0  501    0  0.00000000000E+00  0.00000000000E+00  0.97609302045E+03  0.97609302045E+03  0.00000000000E+00 0. -1.
         -1   -1    0    0    0  501 -0.00000000000E+00 -0.00000000000E+00 -0.15386550208E+02  0.15386550208E+02  0.00000000000E+00 0.  1.
         25    2    1    2    0    0  0.22303526515E+02  0.17302366958E+02  0.73228196894E+03  0.74342555650E+03  0.12509139384E+03 0.  0.
          5    1    3    3  502    0 -0.35234184887E+02  0.38887426504E+02  0.51183956742E+03  0.51453949790E+03  0.41800000000E+01 0.  1.
         -5    1    3    3    0  502  0.57537711402E+02 -0.21585059546E+02  0.22044240152E+03  0.22888605859E+03  0.41800000000E+01 0.  1.
        -11    1    1    2    0    0  0.34683538996E+02 -0.16603538198E+02  0.11224410160E+03  0.11864806657E+03  0.00000000000E+00 0.  1.
         11    1    1    2    0    0 -0.56987065512E+02 -0.69882875996E+00  0.11618039970E+03  0.12940594759E+03  0.00000000000E+00 0. -1.
</event>
<event>
 7    1  0.2612321E-009  0.1088977E+03  0.7561462E-02  0.1262625E+00
          3   -1    0    0  501    0  0.00000000000E+00  0.00000000000E+00  0.12011526783E+03  0.12011526783E+03  0.00000000000E+00 0. -1.
         -3   -1    0    0    0  501 -0.00000000000E+00 -0.00000000000E+00 -0.15376917118E+03  0.15376917118E+03  0.00000000000E+00 0.  1.
         25    2    1    2    0    0 -0.42333514906E+02 -0.21708733464E+01  0.51614694375E+02  0.14180554973E+03  0.12509155880E+03 0.  0.
          5    1    3    3  502    0 -0.85219569413E+02  0.10550018754E+02  0.24771257636E+02  0.89469355153E+02  0.41800000000E+01 0. -1.
         -5    1    3    3    0  502  0.42886054507E+02 -0.12720892101E+02  0.26843436739E+02  0.52336194578E+02  0.41800000000E+01 0. -1.
        -11    1    1    2    0    0  0.35970622058E+02  0.36933638423E+02 -0.15442072516E+02  0.53818555369E+02  0.00000000000E+00 0. -1.
         11    1    1    2    0    0  0.63628928487E+01 -0.34762765077E+02 -0.69826525209E+02  0.78260333911E+02  0.00000000000E+00 0.  1.
</event>
<event>
 7    1  0.2612321E-009  0.1684870E+03  0.7561462E-02  0.1179435E+00
          1   -1    0    0  501    0  0.00000000000E+00  0.00000000000E+00  0.16253006399E+04  0.16253006399E+04  0.00000000000E+00 0. -1.
         -1   -1    0    0    0  501 -0.00000000000E+00 -0.00000000000E+00 -0.24456148133E+02  0.24456148133E+02  0.00000000000E+00 0.  1.
         25    2    1    2    0    0  0.65201733704E+02  0.13835733250E+03  0.11169058548E+04  0.11342486684E+04  0.12508931139E+03 0.  0.
          5    1    3    3  502    0  0.73407612678E+02  0.41691887677E+02  0.74862302246E+03  0.75337958112E+03  0.41800000000E+01 0.  1.
         -5    1    3    3    0  502 -0.82058789738E+01  0.96665444820E+02  0.36828283235E+03  0.38086908732E+03  0.41800000000E+01 0.  1.
        -11    1    1    2    0    0 -0.62452447180E+02 -0.10717722412E+03  0.45906008827E+03  0.47552437390E+03  0.00000000000E+00 0. -1.
         11    1    1    2    0    0 -0.27492865243E+01 -0.31180108378E+02  0.24878548692E+02  0.39983745696E+02  0.00000000000E+00 0.  1.
</event>
<event>
 7    1  0.2612321E-009  0.1179552E+03  0.7561462E-02  0.1246509E+00
         -2   -1    0    0    0  501 -0.00000000000E+00  0.00000000000E+00  0.26384733793E+02  0.26384733793E+02  0.00000000000E+00 0.  1.
          2   -1    0    0  501    0  0.00000000000E+00 -0.00000000000E+00 -0.69754201753E+03  0.69754201753E+03  0.00000000000E+00 0. -1.
         25    2    1    2    0    0 -0.38035753623E+02  0.53607416957E+02 -0.49498056854E+03  0.51475548602E+03  0.12508786291E+03 0.  0.
          5    1    3    3  502    0 -0.56073123970E+02  0.86724411328E+02 -0.35975943597E+03  0.37431222652E+03  0.41800000000E+01 0. -1.
         -5    1    3    3    0  502  0.18037370347E+02 -0.33116994371E+02 -0.13522113257E+03  0.14044325950E+03  0.41800000000E+01 0. -1.
        -11    1    1    2    0    0  0.18651864089E+02  0.14610502568E+02 -0.10879963270E+03  0.11134953478E+03  0.00000000000E+00 0. -1.
         11    1    1    2    0    0  0.19383889534E+02 -0.68217919525E+02 -0.67377082498E+02  0.97821730529E+02  0.00000000000E+00 0.  1.
</event>
<event>
 6    1  0.2612321E-009  0.1033701E+03  0.7561462E-02  0.1273365E+00
          2   -1    0    0  501    0  0.00000000000E+00  0.00000000000E+00  0.44854995551E+02  0.44854995551E+02  0.00000000000E+00 0. -1.
         -2   -1    0    0    0  501 -0.00000000000E+00 -0.00000000000E+00 -0.33544361259E+03  0.33544361259E+03  0.00000000000E+00 0.  1.
          5    1    1    2  502    0 -0.98497710065E+01 -0.42160378908E+02 -0.11877306794E+02  0.45089448380E+02  0.41800000000E+01 0.  1.
         -5    1    1    2    0  502 -0.20107698683E+02  0.79316706865E+02 -0.10142653103E+03  0.13038509551E+03  0.41800000000E+01 0.  1.
        -11    1    1    2    0    0  0.43389652557E+02 -0.47517119509E+02 -0.17647580022E+03  0.18784101432E+03  0.00000000000E+00 0.  1.
         11    1    1    2    0    0 -0.13432182867E+02  0.10360791552E+02 -0.80897899302E+00  0.16983049937E+02  0.00000000000E+00 0. -1.
</event>
<event>
 7    1  0.2612321E-009  0.1147552E+03  0.7561462E-02  0.1252009E+00
         -1   -1    0    0    0  501 -0.00000000000E+00  0.00000000000E+00  0.37116531244E+02  0.37116531244E+02  0.00000000000E+00 0.  1.
          1   -1    0    0  501    0  0.00000000000E+00 -0.00000000000E+00 -0.50016046764E+03  0.50016046764E+03  0.00000000000E+00 0. -1.
         25    2    1    2    0    0 -0.46713686570E+02  0.63355861782E+02 -0.29695883789E+03  0.33170544080E+03  0.12509122399E+03 0.  0.
          5    1    3    3  502    0  0.93497749010E+01 -0.23275082775E+02 -0.11067536926E+02  0.27732842308E+02  0.41800000000E+01 0. -1.
         -5    1    3    3    0  502 -0.56063461471E+02  0.86630944557E+02 -0.28589130096E+03  0.30397259849E+03  0.41800000000E+01 0. -1.
        -11    1    1    2    0    0  0.22769922429E+02  0.90827271271E+01 -0.19746955301E+01  0.24593997681E+02  0.00000000000E+00 0.  1.
         11    1    1    2    0    0  0.23943764141E+02 -0.72438588909E+02 -0.16411040298E+03  0.18097756040E+03  0.00000000000E+00 0. -1.
</event>
<event>
 7    1  0.2612321E-009  0.1407371E+03  0.7561462E-02  0.1212341E+00
         -1   -1    0    0    0  501 -0.00000000000E+00  0.00000000000E+00  0.87149609506E+02  0.87149609506E+02  0.00000000000E+00 0.  1.
          1   -1    0    0  501    0  0.00000000000E+00 -0.00000000000E+00 -0.31724855054E+03  0.31724855054E+03  0.00000000000E+00 0. -1.
         25    2    1    2    0    0  0.43664744074E+02 -0.10629232564E+03 -0.61827729598E+02  0.18076330396E+03  0.12509210825E+03 0.  0.
          5    1    3    3  502    0 -0.32525138650E+02  0.53835894275E+00  0.54481506250E+01  0.33246491842E+02  0.41800000000E+01 0. -1.
         -5    1    3    3    0  502  0.76189882724E+02 -0.10683068458E+03 -0.67275880223E+02  0.14751681212E+03  0.41800000000E+01 0. -1.
        -11    1    1    2    0    0 -0.22521012941E+02  0.26156233284E+02  0.16751884895E+01  0.34556487378E+02  0.00000000000E+00 0.  1.
         11    1    1    2    0    0 -0.21143731134E+02  0.80136092357E+02 -0.16994639992E+03  0.18907836870E+03  0.00000000000E+00 0. -1.
</event>
<event>
 7    1  0.2612321E-009  0.1928302E+03  0.7561462E-02  0.1155933E+00
          1   -1    0    0  501    0  0.00000000000E+00  0.00000000000E+00  0.76511969837E+03  0.76511969837E+03  0.00000000000E+00 0. -1.
         -1   -1    0    0    0  501 -0.00000000000E+00 -0.00000000000E+00 -0.70802608200E+02  0.70802608200E+02  0.00000000000E+00 0.  1.
         25    2    1    2    0    0 -0.16219617383E+03  0.58000054455E+02  0.15685255679E+03  0.26442233681E+03  0.12507934485E+03 0.  0.
          5    1    3    3  502    0 -0.12591711580E+03 -0.17943951002E+02  0.10872594776E+03  0.16737953742E+03  0.41800000000E+01 0. -1.
         -5    1    3    3    0  502 -0.36279058027E+02  0.75944005457E+02  0.48126609026E+02  0.97042799386E+02  0.41800000000E+01 0. -1.
        -11    1    1    2    0    0  0.86659057115E+02 -0.44440469804E+02  0.16833776204E+03  0.19447968960E+03  0.00000000000E+00 0.  1.
         11    1    1    2    0    0  0.75537116716E+02 -0.13559584652E+02  0.36912677134E+03  0.37702028016E+03  0.00000000000E+00 0. -1.
</event>
<event>
 7    1  0.2612321E-009  0.2975898E+03  0.7561462E-02  0.1086452E+00
         -2   -1    0    0    0  501 -0.00000000000E+00  0.00000000000E+00  0.37691179682E+02  0.37691179682E+02  0.00000000000E+00 0.  1.
          2   -1    0    0  501    0  0.00000000000E+00 -0.00000000000E+00 -0.23971201021E+04  0.23971201021E+04  0.00000000000E+00 0. -1.
         25    2    1    2    0    0 -0.26407309731E+03 -0.87467369828E+02 -0.13293467450E+04  0.13638902652E+04  0.12509494637E+03 0.  0.
          5    1    3    3  502    0 -0.20987868414E+02  0.26421822185E+02 -0.10181572373E+03  0.10734298909E+03  0.41800000000E+01 0. -1.
         -5    1    3    3    0  502 -0.24308522890E+03 -0.11388919201E+03 -0.12275310212E+04  0.12565472761E+04  0.41800000000E+01 0. -1.
        -11    1    1    2    0    0  0.78519718079E+02  0.71955496373E+02 -0.35519162105E+03  0.37081535466E+03  0.00000000000E+00 0.  1.
         11    1    1    2    0    0  0.18555337923E+03  0.15511873454E+02 -0.67489055645E+03  0.70010566198E+03  0.00000000000E+00 0. -1.
</event>
<event>
 7    1  0.2612321E-009  0.1104037E+03  0.7561462E-02  0.1259824E+00
          1   -1    0    0  501    0  0.00000000000E+00  0.00000000000E+00  0.35000581135E+02  0.35000581135E+02  0.00000000000E+00 0. -1.
         -1   -1    0    0    0  501 -0.00000000000E+00 -0.00000000000E+00 -0.37817303551E+03  0.37817303551E+03  0.00000000000E+00 0.  1.
         25    2    1    2    0    0  0.44031797240E+02  0.11863165293E+01 -0.18261459079E+03  0.22568591187E+03  0.12508331437E+03 0.  0.
          5    1    3    3  502    0 -0.25509914746E+02  0.37623186704E+02 -0.31875102460E+02  0.55675438794E+02  0.41800000000E+01 0.  1.
         -5    1    3    3    0  502  0.69541711986E+02 -0.36436870174E+02 -0.15073948833E+03  0.17001047308E+03  0.41800000000E+01 0.  1.
        -11    1    1    2    0    0  0.23810516595E+02  0.13147344817E+02 -0.51781087550E+02  0.58489951309E+02  0.00000000000E+00 0.  1.
         11    1    1    2    0    0 -0.67842313835E+02 -0.14333661346E+02 -0.10877677603E+03  0.12899775346E+03  0.00000000000E+00 0. -1.
</event>
<event>
 7    1  0.2612321E-009  0.1460590E+03  0.7561462E-02  0.1205401E+00
          4   -1    0    0  501    0  0.00000000000E+00  0.00000000000E+00  0.21946345223E+02  0.21946345223E+02  0.00000000000E+00 0. -1.
         -4   -1    0    0    0  501 -0.00000000000E+00 -0.00000000000E+00 -0.13045110803E+04  0.13045110803E+04  0.00000000000E+00 0.  1.
         25    2    1    2    0    0 -0.74475497984E+02 -0.80670499618E+02 -0.94240018992E+03  0.95698468727E+03  0.12508894596E+03 0.  0.
          5    1    3    3  502    0 -0.10440350935E+03 -0.32260940800E+02 -0.62565390891E+03  0.63513868344E+03  0.41800000000E+01 0.  1.
         -5    1    3    3    0  502  0.29928011366E+02 -0.48409558818E+02 -0.31674628101E+03  0.32184600383E+03  0.41800000000E+01 0.  1.
        -11    1    1    2    0    0  0.19116777053E+02 -0.83551765369E+01 -0.10137643674E+02  0.23195515927E+02  0.00000000000E+00 0. -1.
         11    1    1    2    0    0  0.55358720930E+02  0.89025676154E+02 -0.33002690148E+03  0.34627722232E+03  0.00000000000E+00 0.  1.
</event>
<event>
 7    1  0.2612321E-009  0.1467423E+03  0.7561462E-02  0.1204534E+00
         -2   -1    0    0    0  501 -0.00000000000E+00  0.00000000000E+00  0.14391360981E+02  0.14391360981E+02  0.00000000000E+00 0.  1.
          2   -1    0    0  501    0  0.00000000000E+00 -0.00000000000E+00 -0.16541752337E+04  0.16541752337E+04  0.00000000000E+00 0. -1.
         25    2    1    2    0    0 -0.10050227676E+03 -0.40400903831E+02 -0.89447036942E+03  0.90964647709E+03  0.12508609371E+03 0.  0.
          5    1    3    3  502    0 -0.12352750014E+03 -0.23565364160E+02 -0.56123956661E+03  0.57517101214E+03  0.41800000000E+01 0. -1.
         -5    1    3    3    0  502  0.23025223387E+02 -0.16835539672E+02 -0.33323080281E+03  0.33447546494E+03  0.41800000000E+01 0. -1.
        -11    1    1    2    0    0  0.10329535417E+03  0.59716863884E+02 -0.69056940764E+03  0.70080107077E+03  0.00000000000E+00 0. -1.
         11    1    1    2    0    0 -0.27930774168E+01 -0.19315960053E+02 -0.54744095665E+02  0.58119046830E+02  0.00000000000E+00 0.  1.
</event>
<event>
 7    1  0.2612321E-009  0.1020068E+03  0.7561462E-02  0.1276132E+00
         -3   -1    0    0    0  501 -0.00000000000E+00  0.00000000000E+00  0.28728698195E+02  0.28728698195E+02  0.00000000000E+00 0.  1.
          3   -1    0    0  501    0  0.00000000000E+00 -0.00000000000E+00 -0.45986429323E+03  0.45986429323E+03  0.00000000000E+00 0. -1.
         25    2    1    2    0    0  0.32153419990E+02  0.64270049312E+00 -0.28617342136E+03  0.31396914313E+03  0.12508852969E+03 0.  0.
          5    1    3    3  502    0 -0.22117631106E+02 -0.49356979460E+02 -0.14072618789E+03  0.15081987066E+03  0.41800000000E+01 0. -1.
         -5    1    3    3    0  502  0.54271051096E+02  0.49999679953E+02 -0.14544723347E+03  0.16314927247E+03  0.41800000000E+01 0. -1.
        -11    1    1    2    0    0  0.18644898179E+02 -0.14017097636E+02 -0.33280937018E+01  0.23562416301E+02  0.00000000000E+00 0.  1.
         11    1    1    2    0    0 -0.50798318169E+02  0.13374397143E+02 -0.14163407997E+03  0.15106143200E+03  0.00000000000E+00 0. -1.
</event>
<event>
 7    1  0.2612321E-009  0.1132417E+03  0.7561462E-02  0.1254682E+00
          2   -1    0    0  501    0  0.00000000000E+00  0.00000000000E+00  0.11307036917E+04  0.11307036917E+04  0.00000000000E+00 0. -1.
         -2   -1    0    0    0  501 -0.00000000000E+00 -0.00000000000E+00 -0.29733434421E+02  0.29733434421E+02  0.00000000000E+00 0.  1.
         25    2    1    2    0    0  0.75779715674E+02 -0.18208387955E+02  0.97792342781E+03  0.98896660751E+03  0.12508640775E+03 0.  0.
          5    1    3    3  502    0  0.10244457677E+03 -0.41853624846E+02  0.69304834959E+03  0.70184051215E+03  0.41800000000E+01 0.  1.
         -5    1    3    3    0  502 -0.26664861095E+02  0.23645236891E+02  0.28487507822E+03  0.28712609535E+03  0.41800000000E+01 0.  1.
        -11    1    1    2    0    0 -0.32798990134E+02 -0.92040189260E+00 -0.66727104915E+01  0.33483517718E+02  0.00000000000E+00 0.  1.
         11    1    1    2    0    0 -0.42980725540E+02  0.19128789847E+02  0.12971953995E+03  0.13798700088E+03  0.00000000000E+00 0. -1.
</event>
<event>
 7    1  0.2612321E-009  0.8768156E+02  0.7561462E-02  0.1308565E+00
          1   -1    0    0  501    0  0.00000000000E+00  0.00000000000E+00  0.25373054154E+03  0.25373054154E+03  0.00000000000E+00 0. -1.
         -1   -1    0    0    0  501 -0.00000000000E+00 -0.00000000000E+00 -0.44720459399E+02  0.44720459399E+02  0.00000000000E+00 0.  1.
         25    2    1    2    0    0 -0.12482257476E+02 -0.37043398781E+01  0.12308598176E+03  0.17597749689E+03  0.12509353149E+03 0.  0.
          5    1    3    3  502    0  0.81542665060E+00 -0.44800811247E+02  0.12467890887E+03  0.13255217963E+03  0.41800000000E+01 0. -1.
         -5    1    3    3    0  502 -0.13297684127E+02  0.41096471369E+02 -0.15929271084E+01  0.43425317258E+02  0.41800000000E+01 0. -1.
        -11    1    1    2    0    0  0.56905017564E+01 -0.41178816490E+02  0.46238740042E+02  0.62177952833E+02  0.00000000000E+00 0.  1.
         11    1    1    2    0    0  0.67917557200E+01  0.44883156368E+02  0.39685360346E+02  0.60295551222E+02  0.00000000000E+00 0. -1.
</event>
<event>
 7    1  0.2612321E-009  0.8843693E+02  0.7561462E-02  0.1306682E+00
          1   -1    0    0  501    0  0.00000000000E+00  0.00000000000E+00  0.14456290378E+04  0.14456290378E+04  0.00000000000E+00 0. -1.
         -1   -1    0    0    0  501 -0.00000000000E+00 -0.00000000000E+00 -0.95105423206E+01  0.95105423206E+01  0.00000000000E+00 0.  1.
         25    2    1    2    0    0  0.17449012805E+02 -0.64986393048E+01  0.11105520926E+04  0.11177304288E+04  0.12509460695E+03 0.  0.
          5    1    3    3  502    0 -0.33334818153E+02 -0.30760707043E+02  0.18746717396E+03  0.19292186219E+03  0.41800000000E+01 0. -1.
         -5    1    3    3    0  502  0.50783830959E+02  0.24262067738E+02  0.92308491869E+03  0.92480856664E+03  0.41800000000E+01 0. -1.
        -11    1    1    2    0    0 -0.36777767740E+02  0.27814649858E+02  0.27813947581E+03  0.28193585609E+03  0.00000000000E+00 0. -1.
         11    1    1    2    0    0  0.19328754934E+02 -0.21316010553E+02  0.47426927006E+02  0.55473295183E+02  0.00000000000E+00 0.  1.
</event>
<event>
 7    1  0.2612321E-009  0.1340489E+03  0.7561462E-02  0.1221569E+00
          1   -1    0    0  501    0  0.00000000000E+00  0.00000000000E+00  0.24367985390E+03  0.24367985390E+03  0.00000000000E+00 0. -1.
         -1   -1    0    0    0  501 -0.00000000000E+00 -0.00000000000E+00 -0.94758722049E+02  0.94758722049E+02  0.00000000000E+00 0.  1.
         25    2    1    2    0    0 -0.22370046963E+01 -0.89173845405E+02  0.14718164011E+03  0.21275940864E+03  0.12508857615E+03 0.  0.
          5    1    3    3  502    0  0.33033460435E+01  0.31182022220E+02  0.43275676772E+02  0.53604917730E+02  0.41800000000E+01 0. -1.
         -5    1    3    3    0  502 -0.55403507398E+01 -0.12035586762E+03  0.10390596334E+03  0.15915449091E+03  0.41800000000E+01 0. -1.
        -11    1    1    2    0    0  0.22104063875E+02 -0.23723255231E+01  0.20387469349E+02  0.30163993015E+02  0.00000000000E+00 0. -1.
         11    1    1    2    0    0 -0.19867059178E+02  0.91546170928E+02 -0.18647977610E+02  0.95515174297E+02  0.00000000000E+00 0.  1.
</event>
<event>
 7    1  0.2612321E-009  0.7681294E+02  0.7561462E-02  0.1338347E+00
          1   -1    0    0  501    0  0.00000000000E+00  0.00000000000E+00  0.26363452236E+02  0.26363452236E+02  0.00000000000E+00 0. -1.
         -1   -1    0    0    0  501 -0.00000000000E+00 -0.00000000000E+00 -0.47240960408E+03  0.47240960408E+03  0.00000000000E+00 0.  1.
         25    2    1    2    0    0 -0.80756622519E+01  0.75968578097E+01 -0.30808624899E+03  0.33269804373E+03  0.12509165806E+03 0.  0.
          5    1    3    3  502    0 -0.24454005124E+02 -0.18721893427E+02 -0.95310827415E+01  0.32508792631E+02  0.41800000000E+01 0.  1.
         -5    1    3    3    0  502  0.16378342872E+02  0.26318751237E+02 -0.29855516625E+03  0.30018925110E+03  0.41800000000E+01 0.  1.
        -11    1    1    2    0    0 -0.18695498108E+02 -0.42995528417E+02 -0.57553523450E+02  0.74233046380E+02  0.00000000000E+00 0. -1.
         11    1    1    2    0    0  0.26771160360E+02  0.35398670607E+02 -0.80406379405E+02  0.91841966207E+02  0.00000000000E+00 0.  1.
</event>
<event>
 7    1  0.2612321E-009  0.1075129E+03  0.7561462E-02  0.1265246E+00
          2   -1    0    0  501    0  0.00000000000E+00  0.00000000000E+00  0.11208248238E+04  0.11208248238E+04  0.00000000000E+00 0. -1.
         -2   -1    0    0    0  501 -0.00000000000E+00 -0.00000000000E+00 -0.11730587876E+02  0.11730587876E+02  0.00000000000E+00 0.  1.
         25    2    1    2    0    0 -0.12537943537E+02  0.77349500713E+01  0.81153963569E+03  0.82125601013E+03  0.12509126431E+03 0.  0.
          5    1    3    3  502    0  0.42812198655E+02 -0.35043714078E+02  0.32670757805E+03  0.33138536510E+03  0.41800000000E+01 0.  1.
         -5    1    3    3    0  502 -0.55350142192E+02  0.42778664149E+02  0.48483205764E+03  0.48987064503E+03  0.41800000000E+01 0.  1.
        -11    1    1    2    0    0 -0.35306673930E+02  0.12584194390E+02  0.93623545788E+02  0.10084786313E+03  0.00000000000E+00 0.  1.
         11    1    1    2    0    0  0.47844617467E+02 -0.20319144461E+02  0.20393105449E+03  0.21045153845E+03  0.00000000000E+00 0. -1.
</event>
<event>
 7    1  0.2612321E-009  0.1201747E+03  0.7561462E-02  0.1242809E+00
         -1   -1    0    0    0  501 -0.00000000000E+00  0.00000000000E+00  0.24365139534E+02  0.24365139534E+02  0.00000000000E+00 0.  1.
          1   -1    0    0  501    0  0.00000000000E+00 -0.00000000000E+00 -0.71127325027E+03  0.71127325027E+03  0.00000000000E+00 0. -1.
         25    2    1    2    0    0 -0.19001724054E+02 -0.71179475074E+02 -0.36128281898E+03  0.38936059849E+03  0.12509523244E+03 0.  0.
          5    1    3    3  502    0  0.28414358755E+02 -0.78330871715E+02 -0.14060406544E+03  0.16349335419E+03  0.41800000000E+01 0. -1.
         -5    1    3    3    0  502 -0.47416082809E+02  0.71513966414E+01 -0.22067875354E+03  0.22586724430E+03  0.41800000000E+01 0. -1.
        -11    1    1    2    0    0 -0.28682552737E+02  0.47637911377E+02 -0.23231859530E+03  0.23888070068E+03  0.00000000000E+00 0. -1.
         11    1    1    2    0    0  0.47684276791E+02  0.23541563697E+02 -0.93306696451E+02  0.10739709064E+03  0.00000000000E+00 0.  1.
</event>
<event>
 7    1  0.2612321E-009  0.1420212E+03  0.7561462E-02  0.1210635E+00
          2   -1    0    0  501    0  0.00000000000E+00  0.00000000000E+00  0.59131188898E+03  0.59131188898E+03  0.00000000000E+00 0. -1.
         -2   -1    0    0    0  501 -0.00000000000E+00 -0.00000000000E+00 -0.36617014483E+02  0.36617014483E+02  0.00000000000E+00 0.  1.
         25    2    1    2    0    0  0.11176375950E+03 -0.20587361928E+02  0.38406696444E+03  0.41960735204E+03  0.12509164361E+03 0.  0.
          5    1    3    3  502    0  0.85296247186E+01 -0.58231636144E+02  0.13856894804E+03  0.15060711705E+03  0.41800000000E+01 0. -1.
         -5    1    3    3    0  502  0.10323413478E+03  0.37644274216E+02  0.24549801640E+03  0.26900023498E+03  0.41800000000E+01 0. -1.
        -11    1    1    2    0    0 -0.10613690752E+02  0.76951827052E+01  0.54342221700E+01  0.14191442451E+02  0.00000000000E+00 0.  1.
         11    1    1    2    0    0 -0.10115006875E+03  0.12892179223E+02  0.16519368788E+03  0.19413010897E+03  0.00000000000E+00 0. -1.
</event>
<event>
 7    1  0.2612321E-009  0.1313469E+03  0.7561462E-02  0.1225471E+00
         -2   -1    0    0    0  501 -0.00000000000E+00  0.00000000000E+00  0.70542789298E+02  0.70542789298E+02  0.00000000000E+00 0.  1.
          2   -1    0    0  501    0  0.00000000000E+00 -0.00000000000E+00 -0.34340254967E+03  0.34340254967E+03  0.00000000000E+00 0. -1.
         25    2    1    2    0    0  0.52716096133E+02 -0.94010194011E+02 -0.18722337986E+03  0.24963301951E+03  0.12508855700E+03 0.  0.
          5    1    3    3  502    0  0.25561413593E+02 -0.11652468410E+03 -0.10094631513E+03  0.15632983978E+03  0.41800000000E+01 0. -1.
         -5    1    3    3    0  502  0.27154682540E+02  0.22514490087E+02 -0.86277064731E+02  0.93303179722E+02  0.41800000000E+01 0. -1.
        -11    1    1    2    0    0 -0.69929272108E+01  0.11005447504E+02  0.19062392688E+02  0.23095361455E+02  0.00000000000E+00 0.  1.
         11    1    1    2    0    0 -0.45723168922E+02  0.83004746507E+02 -0.10469877320E+03  0.14121695801E+03  0.00000000000E+00 0. -1.
</event>
<event>
 7    1  0.3187388E-009  0.1335891E+03  0.7561462E-02  0.1222225E+00
          1   -1    0    0  501    0  0.00000000000E+00  0.00000000000E+00  0.76016093535E+03  0.76016093535E+03  0.00000000000E+00 0. -1.
         -1   -1    0    0    0  501 -0.00000000000E+00 -0.00000000000E+00 -0.27887663365E+02  0.27887663365E+02  0.00000000000E+00 0.  1.
         25    2    1    2    0    0  0.87531936011E+02  0.24001524330E+02  0.30792770820E+03  0.34453710250E+03  0.12509367902E+03 0.  0.
          5    1    3    3  502    0  0.61375826419E+02  0.66245981696E+02  0.26042230406E+03  0.27566786358E+03  0.41800000000E+01 0.  1.
         -5    1    3    3    0  502  0.26156109592E+02 -0.42244457367E+02  0.47505404142E+02  0.68869238924E+02  0.41800000000E+01 0.  1.
        -11    1    1    2    0    0 -0.41036371907E+02  0.33492911056E+02  0.21715746371E+03  0.22352432296E+03  0.00000000000E+00 0. -1.
         11    1    1    2    0    0 -0.46495564105E+02 -0.57494435386E+02  0.20718810007E+03  0.21998717324E+03  0.00000000000E+00 0.  1.
</event>
<event>
 7    1  0.2612321E-009  0.6997798E+02  0.7561462E-02  0.1360168E+00
         -1   -1    0    0    0  501 -0.00000000000E+00  0.00000000000E+00  0.20905143691E+03  0.20905143691E+03  0.00000000000E+00 0.  1.
          1   -1    0    0  501    0  0.00000000000E+00 -0.00000000000E+00 -0.63252651532E+02  0.63252651532E+02  0.00000000000E+00 0. -1.
         25    2    1    2    0    0  0.26909139368E+02  0.13574956836E+02  0.10745338236E+03  0.16763353625E+03  0.12508553818E+03 0.  0.
          5    1    3    3  502    0  0.30851974632E+01  0.18923023011E+02  0.13159110463E+03  0.13304619672E+03  0.41800000000E+01 0.  1.
         -5    1    3    3    0  502  0.23823941905E+02 -0.53480661750E+01 -0.24137722273E+02  0.34587339537E+02  0.41800000000E+01 0.  1.
        -11    1    1    2    0    0 -0.45046927379E+02  0.26010985372E+02  0.10741531228E+02  0.53114758019E+02  0.00000000000E+00 0.  1.
         11    1    1    2    0    0  0.18137788010E+02 -0.39585942209E+02  0.27603871793E+02  0.51555794169E+02  0.00000000000E+00 0. -1.
</event>
<event>
 7    1  0.2612321E-009  0.1137250E+03  0.7561462E-02  0.1253823E+00
         -1   -1    0    0    0  501 -0.00000000000E+00  0.00000000000E+00  0.41286247581E+02  0.41286247581E+02  0.00000000000E+00 0.  1.
          1   -1    0    0  501    0  0.00000000000E+00 -0.00000000000E+00 -0.38781400339E+03  0.38781400339E+03  0.00000000000E+00 0. -1.
         25    2    1    2    0    0  0.30081138706E+02  0.28613446557E+02 -0.11144148106E+03  0.17260785226E+03  0.12510260881E+03 0.  0.
          5    1    3    3  502    0 -0.11942432195E+02  0.67951353701E+02 -0.36954081539E+02  0.78377832956E+02  0.41800000000E+01 0. -1.
         -5    1    3    3    0  502  0.42023570901E+02 -0.39337907144E+02 -0.74487399526E+02  0.94230019303E+02  0.41800000000E+01 0. -1.
        -11    1    1    2    0    0 -0.25776133829E+02 -0.61900222516E+02 -0.13157422824E+03  0.14767472418E+03  0.00000000000E+00 0.  1.
         11    1    1    2    0    0 -0.43050048769E+01  0.33286775958E+02 -0.10351204650E+03  0.10881767454E+03  0.00000000000E+00 0. -1.
</event>
<event>
 7    1  0.2612321E-009  0.1087248E+03  0.7561462E-02  0.1262950E+00
         -2   -1    0    0    0  501 -0.00000000000E+00  0.00000000000E+00  0.55963806331E+03  0.55963806331E+03  0.00000000000E+00 0.  1.
          2   -1    0    0  501    0  0.00000000000E+00 -0.00000000000E+00 -0.27947465547E+02  0.27947465547E+02  0.00000000000E+00 0. -1.
         25    2    1    2    0    0 -0.12857861544E+02 -0.45575122658E+02  0.26990005620E+03  0.30122104176E+03  0.12508260972E+03 0.  0.
          5    1    3    3  502    0  0.40279046615E+02 -0.68287787070E+01  0.26068902381E+02  0.48642511101E+02  0.41800000000E+01 0. -1.
         -5    1    3    3    0  502 -0.53136908159E+02 -0.38746343951E+02  0.24383115382E+03  0.25257853066E+03  0.41800000000E+01 0. -1.
        -11    1    1    2    0    0  0.56645618479E+02  0.22110394328E+02  0.99201523885E+02  0.11635522322E+03  0.00000000000E+00 0. -1.
         11    1    1    2    0    0 -0.43787756935E+02  0.23464728329E+02  0.16258901767E+03  0.17000926387E+03  0.00000000000E+00 0.  1.
</event>
<event>
 7    1  0.2612321E-009  0.1559959E+03  0.7561462E-02  0.1193293E+00
          2   -1    0    0  501    0  0.00000000000E+00  0.00000000000E+00  0.52938371491E+03  0.52938371491E+03  0.00000000000E+00 0.  1.
         -2   -1    0    0    0  501 -0.00000000000E+00 -0.00000000000E+00 -0.56009396946E+02  0.56009396946E+02  0.00000000000E+00 0. -1.
         25    2    1    2    0    0  0.12850940065E+03  0.55559217435E+01  0.18979109896E+03  0.26117667141E+03  0.12508820137E+03 0.  0.
          5    1    3    3  502    0  0.87602509524E+02 -0.41365655743E+02  0.17002141389E+03  0.19572958573E+03  0.41800000000E+01 0.  1.
         -5    1    3    3    0  502  0.40906891128E+02  0.46921577486E+02  0.19769685068E+02  0.65447085674E+02  0.41800000000E+01 0.  1.
        -11    1    1    2    0    0 -0.72663800510E+02  0.37824736414E+02  0.19010393525E+03  0.20700300671E+03  0.00000000000E+00 0. -1.
         11    1    1    2    0    0 -0.55845600143E+02 -0.43380658158E+02  0.93479283756E+02  0.11721343374E+03  0.00000000000E+00 0.  1.
</event>
<event>
 7    1  0.2612321E-009  0.9989185E+02  0.7561462E-02  0.1280524E+00
         -2   -1    0    0    0  501 -0.00000000000E+00  0.00000000000E+00  0.91428850198E+02  0.91428850198E+02  0.00000000000E+00 0.  1.
          2   -1    0    0  501    0  0.00000000000E+00 -0.00000000000E+00 -0.24161922953E+03  0.24161922953E+03  0.00000000000E+00 0. -1.
         25    2    1    2    0    0  0.25314594528E+02 -0.90018871892E+02 -0.38654917665E+02  0.16089085927E+03  0.12508972757E+03 0.  0.
          5    1    3    3  502    0  0.27315961874E+02 -0.59995274223E+02  0.39552713542E+02  0.76990156843E+02  0.41800000000E+01 0. -1.
         -5    1    3    3    0  502 -0.20013673463E+01 -0.30023597669E+02 -0.78207631207E+02  0.83900702424E+02  0.41800000000E+01 0. -1.
        -11    1    1    2    0    0 -0.38010995595E+02  0.65121007371E+02 -0.22275773278E+02  0.78624369392E+02  0.00000000000E+00 0.  1.
         11    1    1    2    0    0  0.12696401067E+02  0.24897864521E+02 -0.89259688385E+02  0.93532851065E+02  0.00000000000E+00 0. -1.
</event>
<event>
 7    1  0.2612321E-009  0.1129080E+03  0.7561462E-02  0.1255278E+00
         -2   -1    0    0    0  501 -0.00000000000E+00  0.00000000000E+00  0.83248820335E+02  0.83248820335E+02  0.00000000000E+00 0.  1.
          2   -1    0    0  501    0  0.00000000000E+00 -0.00000000000E+00 -0.20431272711E+03  0.20431272711E+03  0.00000000000E+00 0. -1.
         25    2    1    2    0    0 -0.53655323384E+02 -0.50338500324E+02 -0.57584529803E+02  0.15613853783E+03  0.12510158504E+03 0.  0.
          5    1    3    3  502    0  0.17055835666E+02  0.19427467476E+02 -0.49980584631E+02  0.56425696831E+02  0.41800000000E+01 0. -1.
         -5    1    3    3    0  502 -0.70711159050E+02 -0.69765967800E+02 -0.76039451719E+01  0.99712840996E+02  0.41800000000E+01 0. -1.
        -11    1    1    2    0    0 -0.15555599534E+02  0.18066162440E+02  0.96220586761E+01  0.25708887867E+02  0.00000000000E+00 0.  1.
         11    1    1    2    0    0  0.69210922919E+02  0.32272337884E+02 -0.73101435646E+02  0.10571412175E+03  0.00000000000E+00 0. -1.
</event>
<event>
 7    1  0.2612321E-009  0.1006567E+03  0.7561462E-02  0.1278921E+00
         -2   -1    0    0    0  501 -0.00000000000E+00  0.00000000000E+00  0.54459548592E+02  0.54459548592E+02  0.00000000000E+00 0.  1.
          2   -1    0    0  501    0  0.00000000000E+00 -0.00000000000E+00 -0.22298944214E+03  0.22298944214E+03  0.00000000000E+00 0. -1.
         25    2    1    2    0    0  0.87780869436E+01 -0.13076289123E+02 -0.76727640808E+02  0.14759384005E+03  0.12509503031E+03 0.  0.
          5    1    3    3  502    0 -0.42674493992E+02 -0.46988197103E+02 -0.31124392979E+02  0.70818100389E+02  0.41800000000E+01 0. -1.
         -5    1    3    3    0  502  0.51452580935E+02  0.33911907980E+02 -0.45603247829E+02  0.76775739659E+02  0.41800000000E+01 0. -1.
        -11    1    1    2    0    0  0.75433517371E+00  0.43780481962E+02 -0.86934124089E+02  0.97338797781E+02  0.00000000000E+00 0. -1.
         11    1    1    2    0    0 -0.95324221173E+01 -0.30704192839E+02 -0.48681286483E+01  0.32516352899E+02  0.00000000000E+00 0.  1.
</event>
<event>
 7    1  0.4314436E-009  0.1522295E+03  0.7561462E-02  0.1197760E+00
          1   -1    0    0  501    0  0.00000000000E+00  0.00000000000E+00  0.68499672316E+03  0.68499672316E+03  0.00000000000E+00 0. -1.
         -1   -1    0    0    0  501 -0.00000000000E+00 -0.00000000000E+00 -0.45238258309E+02  0.45238258309E+02  0.00000000000E+00 0.  1.
         25    2    1    2    0    0 -0.12807213806E+03 -0.51175588145E+02  0.32382106189E+03  0.37353874934E+03  0.12509877605E+03 0.  0.
          5    1    3    3  502    0 -0.13495426490E+03 -0.42862693674E+02  0.33091717851E+03  0.35996321417E+03  0.41800000000E+01 0. -1.
         -5    1    3    3    0  502  0.68821268331E+01 -0.83128944707E+01 -0.70961166188E+01  0.13575535175E+02  0.41800000000E+01 0. -1.
        -11    1    1    2    0    0  0.10894751538E+03  0.14558338075E+02  0.15164958143E+03  0.18729415864E+03  0.00000000000E+00 0.  1.
         11    1    1    2    0    0  0.19124622683E+02  0.36617250069E+02  0.16428782154E+03  0.16940207349E+03  0.00000000000E+00 0. -1.
</event>
<event>
 7    1  0.2612321E-009  0.1669037E+03  0.7561462E-02  0.1181116E+00
          1   -1    0    0  501    0  0.00000000000E+00  0.00000000000E+00  0.78988310525E+03  0.78988310525E+03  0.00000000000E+00 0. -1.
         -1   -1    0    0    0  501 -0.00000000000E+00 -0.00000000000E+00 -0.10211515697E+03  0.10211515697E+03  0.00000000000E+00 0.  1.
         25    2    1    2    0    0 -0.89516068477E+02 -0.12848445048E+03  0.21514757535E+02  0.20156922420E+03  0.12508351939E+03 0.  0.
          5    1    3    3  502    0 -0.20217044133E+02 -0.32352018727E+02  0.64819772036E+02  0.75328993330E+02  0.41800000000E+01 0.  1.
         -5    1    3    3    0  502 -0.69299024344E+02 -0.96132431751E+02 -0.43305014501E+02  0.12624023087E+03  0.41800000000E+01 0.  1.
        -11    1    1    2    0    0  0.76481295132E+02  0.37945690953E+02  0.39653096595E+03  0.40561813436E+03  0.00000000000E+00 0.  1.
         11    1    1    2    0    0  0.13034773345E+02  0.90538759525E+02  0.26972222480E+03  0.28481090366E+03  0.00000000000E+00 0. -1.
</event>
<event>
 7    1  0.2612321E-009  0.1975605E+03  0.7561462E-02  0.1151814E+00
         -1   -1    0    0    0  501 -0.00000000000E+00  0.00000000000E+00  0.14236766730E+03  0.14236766730E+03  0.00000000000E+00 0.  1.
          1   -1    0    0  501    0  0.00000000000E+00 -0.00000000000E+00 -0.33736206542E+03  0.33736206542E+03  0.00000000000E+00 0. -1.
         25    2    1    2    0    0 -0.17957575340E+03 -0.39235999021E+02 -0.15439072255E+03  0.27068670442E+03  0.12509149415E+03 0.  0.
          5    1    3    3  502    0 -0.10503635052E+03 -0.49214939856E+02 -0.21659317370E+02  0.11807346724E+03  0.41800000000E+01 0. -1.
         -5    1    3    3    0  502 -0.74539402878E+02  0.99789408357E+01 -0.13273140518E+03  0.15261323718E+03  0.41800000000E+01 0. -1.
        -11    1    1    2    0    0  0.12066842004E+03 -0.17515901230E+02 -0.35909377721E+02  0.12711080914E+03  0.00000000000E+00 0. -1.
         11    1    1    2    0    0  0.58907333358E+02  0.56751900251E+02 -0.46942978434E+01  0.81932219167E+02  0.00000000000E+00 0.  1.
</event>
<event>
 7    1  0.2612321E-009  0.1064957E+03  0.7561462E-02  0.1267200E+00
          1   -1    0    0  501    0  0.00000000000E+00  0.00000000000E+00  0.73020080370E+02  0.73020080370E+02  0.00000000000E+00 0. -1.
         -1   -1    0    0    0  501 -0.00000000000E+00 -0.00000000000E+00 -0.32939980718E+03  0.32939980718E+03  0.00000000000E+00 0.  1.
         25    2    1    2    0    0 -0.48485266063E+02  0.91345667968E+02 -0.23832191124E+03  0.28833966132E+03  0.12509026673E+03 0.  0.
          5    1    3    3  502    0 -0.45997624631E+02  0.83759028822E+02 -0.25335671667E+03  0.27081073587E+03  0.41800000000E+01 0. -1.
         -5    1    3    3    0  502 -0.24876414319E+01  0.75866391460E+01  0.15034805423E+02  0.17528925453E+02  0.41800000000E+01 0. -1.
        -11    1    1    2    0    0  0.25531959364E+02 -0.17383765340E+02 -0.19674085781E+02  0.36621658860E+02  0.00000000000E+00 0.  1.
         11    1    1    2    0    0  0.22953306699E+02 -0.73961902628E+02  0.16162702193E+01  0.77458567365E+02  0.00000000000E+00 0. -1.
</event>
<event>
 7    1  0.2612321E-009  0.1444999E+03  0.7561462E-02  0.1207399E+00
          2   -1    0    0  501    0  0.00000000000E+00  0.00000000000E+00  0.19197947611E+04  0.19197947611E+04  0.00000000000E+00 0. -1.
         -2   -1    0    0    0  501 -0.00000000000E+00 -0.00000000000E+00 -0.14276810598E+02  0.14276810598E+02  0.00000000000E+00 0.  1.
         25    2    1    2    0    0 -0.10631955134E+03 -0.31691685250E+02  0.13350309171E+04  0.13454605918E+04  0.12509374264E+03 0.  0.
          5    1    3    3  502    0 -0.32018483078E+02  0.34297643645E+02  0.79175222538E+03  0.79315229963E+03  0.41800000000E+01 0.  1.
         -5    1    3    3    0  502 -0.74301068264E+02 -0.65989328895E+02  0.54327869172E+03  0.55230829212E+03  0.41800000000E+01 0.  1.
        -11    1    1    2    0    0  0.36884979097E+02  0.57535382070E+02  0.32860123045E+03  0.33563311894E+03  0.00000000000E+00 0.  1.
         11    1    1    2    0    0  0.69434572245E+02 -0.25843696820E+02  0.24188580294E+03  0.25297786099E+03  0.00000000000E+00 0. -1.
</event>
<event>
 7    1  0.2612321E-009  0.1336683E+03  0.7561462E-02  0.1222112E+00
          1   -1    0    0  501    0  0.00000000000E+00  0.00000000000E+00  0.31097305710E+03  0.31097305710E+03  0.00000000000E+00 0. -1.
         -1   -1    0    0    0  501 -0.00000000000E+00 -0.00000000000E+00 -0.59102810241E+02  0.59102810241E+02  0.00000000000E+00 0.  1.
         25    2    1    2    0    0 -0.12403142840E+02 -0.79856734918E+02  0.11481695829E+03  0.18804588550E+03  0.12508950827E+03 0.  0.
          5    1    3    3  502    0  0.36616233470E+02  0.15998819082E+02  0.21827270110E+02  0.45723220425E+02  0.41800000000E+01 0. -1.
         -5    1    3    3    0  502 -0.49019376310E+02 -0.95855554000E+02  0.92989688182E+02  0.14232266508E+03  0.41800000000E+01 0. -1.
        -11    1    1    2    0    0 -0.15902155285E+02  0.88424188653E+02  0.10915867381E+03  0.14137656011E+03  0.00000000000E+00 0.  1.
         11    1    1    2    0    0  0.28305298125E+02 -0.85674537346E+01  0.27894614756E+02  0.40653421723E+02  0.00000000000E+00 0. -1.
</event>
<event>
 7    1  0.2612321E-009  0.1170781E+03  0.7561462E-02  0.1247997E+00
         -1   -1    0    0    0  501 -0.00000000000E+00  0.00000000000E+00  0.71618374112E+03  0.71618374112E+03  0.00000000000E+00 0.  1.
          1   -1    0    0  501    0  0.00000000000E+00 -0.00000000000E+00 -0.48166583643E+02  0.48166583643E+02  0.00000000000E+00 0. -1.
         25    2    1    2    0    0  0.52827768389E+02  0.25002715348E+02  0.63900563318E+03  0.65375227116E+03  0.12509166205E+03 0.  0.
          5    1    3    3  502    0  0.94018321752E+02  0.21105102413E+02  0.43938418264E+03  0.44984530955E+03  0.41800000000E+01 0. -1.
         -5    1    3    3    0  502 -0.41190553363E+02  0.38976129350E+01  0.19962145054E+03  0.20390696160E+03  0.41800000000E+01 0. -1.
        -11    1    1    2    0    0 -0.42638090440E+02  0.22033828238E+02 -0.95400525665E+01  0.48933719930E+02  0.00000000000E+00 0. -1.
         11    1    1    2    0    0 -0.10189677949E+02 -0.47036543586E+02  0.38551576855E+02  0.61664333673E+02  0.00000000000E+00 0.  1.
</event>
<event>
 7    1  0.2612321E-009  0.1042369E+03  0.7561462E-02  0.1271630E+00
          2   -1    0    0  501    0  0.00000000000E+00  0.00000000000E+00  0.26266578004E+03  0.26266578004E+03  0.00000000000E+00 0. -1.
         -2   -1    0    0    0  501 -0.00000000000E+00 -0.00000000000E+00 -0.76833732193E+02  0.76833732193E+02  0.00000000000E+00 0.  1.
         25    2    1    2    0    0  0.84385437314E+02  0.84205957128E+01  0.14495926612E+03  0.20940971805E+03  0.12508969869E+03 0.  0.
          5    1    3    3  502    0 -0.46830799735E+01  0.17756139130E+02  0.11249264251E+03  0.11405822519E+03  0.41800000000E+01 0.  1.
         -5    1    3    3    0  502  0.89068517287E+02 -0.93355434177E+01  0.32466623610E+02  0.95351492863E+02  0.41800000000E+01 0.  1.
        -11    1    1    2    0    0 -0.75951686997E+02 -0.26171418352E+02  0.61819742362E+02  0.10136706784E+03  0.00000000000E+00 0. -1.
         11    1    1    2    0    0 -0.84337503168E+01  0.17750822639E+02 -0.20946960634E+02  0.28722726343E+02  0.00000000000E+00 0.  1.
</event>
<event>
 7    1  0.2612321E-009  0.1135501E+03  0.7561462E-02  0.1254133E+00
          2   -1    0    0  501    0  0.00000000000E+00  0.00000000000E+00  0.67374333959E+03  0.67374333959E+03  0.00000000000E+00 0. -1.
         -2   -1    0    0    0  501 -0.00000000000E+00 -0.00000000000E+00 -0.32053490486E+02  0.32053490486E+02  0.00000000000E+00 0.  1.
         25    2    1    2    0    0 -0.22830065086E+02  0.30087845267E+02  0.56415973055E+03  0.57909515316E+03  0.12509398281E+03 0.  0.
          5    1    3    3  502    0  0.13683862573E+02 -0.42983659922E+02  0.27005392194E+03  0.27382738408E+03  0.41800000000E+01 0. -1.
         -5    1    3    3    0  502 -0.36513927658E+02  0.73071505189E+02  0.29410580860E+03  0.30526776908E+03  0.41800000000E+01 0. -1.
        -11    1    1    2    0    0  0.54674189835E+02 -0.38737232319E+02  0.55727123319E+02  0.87151319412E+02  0.00000000000E+00 0. -1.
         11    1    1    2    0    0 -0.31844124749E+02  0.86493870528E+01  0.21802995236E+02  0.39550357504E+02  0.00000000000E+00 0.  1.
</event>
<event>
 7    1  0.2612321E-009  0.7562046E+02  0.7561462E-02  0.1341960E+00
          1   -1    0    0  501    0  0.00000000000E+00  0.00000000000E+00  0.85795544490E+02  0.85795544490E+02  0.00000000000E+00 0. -1.
         -1   -1    0    0    0  501 -0.00000000000E+00 -0.00000000000E+00 -0.20983737430E+03  0.20983737430E+03  0.00000000000E+00 0.  1.
         25    2    1    2    0    0 -0.42451943632E+02  0.53400671245E+02 -0.11407473736E+03  0.18252245174E+03  0.12509036925E+03 0.  0.
          5    1    3    3  502    0 -0.35969533284E+02  0.59121327703E+02 -0.13023829309E+01  0.69341959269E+02  0.41800000000E+01 0.  1.
         -5    1    3    3    0  502 -0.64824103477E+01 -0.57206564582E+01 -0.11277235442E+03  0.11318049247E+03  0.41800000000E+01 0.  1.
        -11    1    1    2    0    0  0.21553681533E+02 -0.44788480282E+02 -0.47851666507E+02  0.68995297964E+02  0.00000000000E+00 0.  1.
         11    1    1    2    0    0  0.20898262099E+02 -0.86121909625E+01  0.37884574053E+02  0.44115169082E+02  0.00000000000E+00 0. -1.
</event>
<event>
 7    1  0.2612321E-009  0.1461672E+03  0.7561462E-02  0.1205263E+00
         -2   -1    0    0    0  501 -0.00000000000E+00  0.00000000000E+00  0.55782919709E+02  0.55782919709E+02  0.00000000000E+00 0.  1.
          2   -1    0    0  501    0  0.00000000000E+00 -0.00000000000E+00 -0.46699391681E+03  0.46699391681E+03  0.00000000000E+00 0. -1.
         25    2    1    2    0    0 -0.83143683260E+02  0.60464987125E+02 -0.11792688854E+03  0.20030668633E+03  0.12508849194E+03 0.  0.
          5    1    3    3  502    0  0.26566042753E+02 -0.12330286265E+02 -0.28578710770E+02  0.41133996842E+02  0.41800000000E+01 0. -1.
         -5    1    3    3    0  502 -0.10970972601E+03  0.72795273390E+02 -0.89348177767E+02  0.15917268949E+03  0.41800000000E+01 0. -1.
        -11    1    1    2    0    0  0.91717020283E+02 -0.25752692879E+02 -0.17967626440E+03  0.20336856441E+03  0.00000000000E+00 0.  1.
         11    1    1    2    0    0 -0.85733370232E+01 -0.34712294246E+02 -0.11360784416E+03  0.11910158577E+03  0.00000000000E+00 0. -1.
</event>
<event>
 6    1  0.2612321E-009  0.7580263E+02  0.7561462E-02  0.1341403E+00
          4   -1    0    0  501    0  0.00000000000E+00  0.00000000000E+00  0.94049454568E+02  0.94049454568E+02  0.00000000000E+00 0. -1.
         -4   -1    0    0    0  501 -0.00000000000E+00 -0.00000000000E+00 -0.13172521010E+03  0.13172521010E+03  0.00000000000E+00 0.  1.
          5    1    1    2  502    0 -0.18774339378E+02 -0.27003843459E+02  0.54667369789E+02  0.63934944282E+02  0.41800000000E+01 0. -1.
         -5    1    1    2    0  502  0.17684934051E+02  0.27138968339E+02 -0.51847789603E+02  0.61277615666E+02  0.41800000000E+01 0. -1.
        -11    1    1    2    0    0 -0.59242878307E+01 -0.42468691020E+02 -0.38463820907E+02  0.57603406341E+02  0.00000000000E+00 0.  1.
         11    1    1    2    0    0  0.70136931575E+01  0.42333566140E+02 -0.20315148076E+01  0.42958698378E+02  0.00000000000E+00 0. -1.
</event>
<event>
 7    1  0.2612321E-009  0.1561807E+03  0.7561462E-02  0.1193077E+00
          2   -1    0    0  501    0  0.00000000000E+00  0.00000000000E+00  0.12807469872E+03  0.12807469872E+03  0.00000000000E+00 0. -1.
         -2   -1    0    0    0  501 -0.00000000000E+00 -0.00000000000E+00 -0.36543800413E+03  0.36543800413E+03  0.00000000000E+00 0.  1.
         25    2    1    2    0    0  0.14705902052E+03 -0.28744842283E+02  0.34343999695E+01  0.19522219130E+03  0.12508911783E+03 0.  0.
          5    1    3    3  502    0  0.15100526654E+03 -0.21157450183E+02  0.39789351727E+02  0.15764166052E+03  0.41800000000E+01 0.  1.
         -5    1    3    3    0  502 -0.39462460162E+01 -0.75873921000E+01 -0.36354951757E+02  0.37580530781E+02  0.41800000000E+01 0.  1.
        -11    1    1    2    0    0 -0.91935476267E+02  0.12133262683E+02 -0.64837995428E+02  0.11315172783E+03  0.00000000000E+00 0. -1.
         11    1    1    2    0    0 -0.55123544257E+02  0.16611579600E+02 -0.17595970996E+03  0.18513878372E+03  0.00000000000E+00 0.  1.
</event>
<event>
 7    1  0.2885570E-009  0.1315070E+03  0.7561462E-02  0.1225237E+00
         -4   -1    0    0    0  501 -0.00000000000E+00  0.00000000000E+00  0.18323585343E+03  0.18323585343E+03  0.00000000000E+00 0. -1.
          4   -1    0    0  501    0  0.00000000000E+00 -0.00000000000E+00 -0.13569726409E+03  0.13569726409E+03  0.00000000000E+00 0.  1.
         25    2    1    2    0    0 -0.28559693253E+02 -0.10015921219E+03 -0.21746596201E+02  0.16421698661E+03  0.12508709118E+03 0.  0.
          5    1    3    3  502    0 -0.72690796418E+02 -0.63211183988E+02 -0.38962553714E+02  0.10399595500E+03  0.41800000000E+01 0.  1.
         -5    1    3    3    0  502  0.44131103165E+02 -0.36948028199E+02  0.17215957513E+02  0.60221031604E+02  0.41800000000E+01 0.  1.
        -11    1    1    2    0    0  0.30651601353E+02  0.49765060188E+02 -0.11414169580E+02  0.59551365628E+02  0.00000000000E+00 0.  1.
         11    1    1    2    0    0 -0.20919081003E+01  0.50394151999E+02  0.80699355117E+02  0.95164765284E+02  0.00000000000E+00 0. -1.
</event>
<event>
 7    1  0.2612321E-009  0.9955104E+02  0.7561462E-02  0.1281243E+00
          3   -1    0    0  501    0  0.00000000000E+00  0.00000000000E+00  0.10757855897E+03  0.10757855897E+03  0.00000000000E+00 0. -1.
         -3   -1    0    0    0  501 -0.00000000000E+00 -0.00000000000E+00 -0.14227912811E+03  0.14227912811E+03  0.00000000000E+00 0.  1.
         25    2    1    2    0    0 -0.24781928761E+02  0.47835004145E+02  0.46930113598E+01  0.13627890817E+03  0.12509030674E+03 0.  0.
          5    1    3    3  502    0 -0.53215351320E+02  0.47130022421E+02 -0.41094203996E+02  0.82215075452E+02  0.41800000000E+01 0.  1.
         -5    1    3    3    0  502  0.28433422559E+02  0.70498172480E+00  0.45787215356E+02  0.54063832714E+02  0.41800000000E+01 0.  1.
        -11    1    1    2    0    0  0.15247610408E+02 -0.71775499121E+02 -0.93071438361E+01  0.73965091926E+02  0.00000000000E+00 0. -1.
         11    1    1    2    0    0  0.95343183529E+01  0.23940494976E+02 -0.30086436656E+02  0.39613686988E+02  0.00000000000E+00 0.  1.
</event>
<event>
 7    1  0.2612321E-009  0.2894105E+03  0.7561462E-02  0.1090657E+00
         -2   -1    0    0    0  501 -0.00000000000E+00  0.00000000000E+00  0.14986510259E+03  0.14986510259E+03  0.00000000000E+00 0.  1.
          2   -1    0    0  501    0  0.00000000000E+00 -0.00000000000E+00 -0.60461664706E+03  0.60461664706E+03  0.00000000000E+00 0. -1.
         25    2    1    2    0    0  0.26715488269E+03 -0.83870612252E+02 -0.20634653017E+03  0.36963796984E+03  0.12508927730E+03 0.  0.
          5    1    3    3  502    0  0.18236910547E+01  0.90240340913E+01 -0.43644440918E+02  0.44800319903E+02  0.41800000000E+01 0. -1.
         -5    1    3    3    0  502  0.26533119164E+03 -0.92894646343E+02 -0.16270208925E+03  0.32483764994E+03  0.41800000000E+01 0. -1.
        -11    1    1    2    0    0 -0.16085182828E+03  0.16484661087E+02 -0.17859686986E+03  0.24091885903E+03  0.00000000000E+00 0.  1.
         11    1    1    2    0    0 -0.10630305441E+03  0.67385951165E+02 -0.69808144441E+02  0.14392492078E+03  0.00000000000E+00 0. -1.
</event>
<event>
 7    1  0.2618120E-009  0.1044803E+03  0.7561462E-02  0.1271147E+00
          1   -1    0    0  501    0  0.00000000000E+00  0.00000000000E+00  0.69881927438E+03  0.69881927438E+03  0.00000000000E+00 0. -1.
         -1   -1    0    0    0  501 -0.00000000000E+00 -0.00000000000E+00 -0.36065870469E+02  0.36065870469E+02  0.00000000000E+00 0.  1.
         25    2    1    2    0    0  0.76996885364E+02 -0.12810617464E+02  0.55384277471E+03  0.57313367289E+03  0.12509098940E+03 0.  0.
          5    1    3    3  502    0 -0.21106417209E+02 -0.15991235186E+01  0.17554556313E+02  0.27814976016E+02  0.41800000000E+01 0.  1.
         -5    1    3    3    0  502  0.98103302573E+02 -0.11211493945E+02  0.53628821839E+03  0.54531869687E+03  0.41800000000E+01 0.  1.
        -11    1    1    2    0    0 -0.40223465563E+02 -0.14491258060E+02 -0.90907845104E+00  0.42763888570E+02  0.00000000000E+00 0.  1.
         11    1    1    2    0    0 -0.36773419802E+02  0.27301875524E+02  0.10981970765E+03  0.11898758339E+03  0.00000000000E+00 0. -1.
</event>
<event>
 7    1  0.2612321E-009  0.9611545E+02  0.7561462E-02  0.1288683E+00
         -2   -1    0    0    0  501 -0.00000000000E+00  0.00000000000E+00  0.62014447455E+03  0.62014447455E+03  0.00000000000E+00 0.  1.
          2   -1    0    0  501    0  0.00000000000E+00 -0.00000000000E+00 -0.33250934751E+02  0.33250934751E+02  0.00000000000E+00 0. -1.
         25    2    1    2    0    0  0.14460766964E+02 -0.49323625906E+02  0.49095769802E+03  0.50924233702E+03  0.12508542165E+03 0.  0.
          5    1    3    3  502    0  0.44461813108E+02 -0.29675332309E+02  0.45547483407E+03  0.45861996800E+03  0.41800000000E+01 0. -1.
         -5    1    3    3    0  502 -0.30001046144E+02 -0.19648293597E+02  0.35482863946E+02  0.50622369016E+02  0.41800000000E+01 0. -1.
        -11    1    1    2    0    0 -0.52116007623E+02  0.26374841100E+02  0.75752324002E+02  0.95656286178E+02  0.00000000000E+00 0.  1.
         11    1    1    2    0    0  0.37655240659E+02  0.22948784806E+02  0.20183517780E+02  0.48496786111E+02  0.00000000000E+00 0. -1.
</event>
<event>
 7    1  0.2612321E-009  0.1319874E+03  0.7561462E-02  0.1224536E+00
         -2   -1    0    0    0  501 -0.00000000000E+00  0.00000000000E+00  0.44323455615E+03  0.44323455615E+03  0.00000000000E+00 0.  1.
          2   -1    0    0  501    0  0.00000000000E+00 -0.00000000000E+00 -0.56610408248E+02  0.56610408248E+02  0.00000000000E+00 0. -1.
         25    2    1    2    0    0 -0.43319129109E+02  0.97566633881E+02  0.13939992715E+03  0.21558158150E+03  0.12508910264E+03 0.  0.
          5    1    3    3  502    0 -0.36421949870E+02 -0.48266096119E+01 -0.61044093508E+01  0.37477870887E+02  0.41800000000E+01 0. -1.
         -5    1    3    3    0  502 -0.68971792382E+01  0.10239324349E+03  0.14550433650E+03  0.17810371062E+03  0.41800000000E+01 0. -1.
        -11    1    1    2    0    0  0.57167491618E+00 -0.76729193354E+02  0.21089144054E+03  0.22441678997E+03  0.00000000000E+00 0. -1.
         11    1    1    2    0    0  0.42747454192E+02 -0.20837440527E+02  0.36332780211E+02  0.59846592932E+02  0.00000000000E+00 0.  1.
</event>
<event>
 7    1  0.2612321E-009  0.1490405E+03  0.7561462E-02  0.1201657E+00
          2   -1    0    0  501    0  0.00000000000E+00  0.00000000000E+00  0.78825488050E+02  0.78825488050E+02  0.00000000000E+00 0. -1.
         -2   -1    0    0    0  501 -0.00000000000E+00 -0.00000000000E+00 -0.28801218189E+03  0.28801218189E+03  0.00000000000E+00 0.  1.
         25    2    1    2    0    0 -0.10675784248E+03  0.45500254167E+01 -0.10973616441E+03  0.19775853728E+03  0.12509385927E+03 0.  0.
          5    1    3    3  502    0 -0.50349021338E+02  0.62613754371E+02 -0.73476627063E+02  0.10895775930E+03  0.41800000000E+01 0. -1.
         -5    1    3    3    0  502 -0.56408821140E+02 -0.58063728954E+02 -0.36259537345E+02  0.88800777986E+02  0.41800000000E+01 0. -1.
        -11    1    1    2    0    0  0.82171813584E+02 -0.41598620319E+02 -0.71007660208E+02  0.11629591553E+03  0.00000000000E+00 0. -1.
         11    1    1    2    0    0  0.24586028894E+02  0.37048594903E+02 -0.28442869224E+02  0.52783217131E+02  0.00000000000E+00 0.  1.
</event>
<event>
 7    1  0.2612321E-009  0.1156753E+03  0.7561462E-02  0.1250407E+00
          1   -1    0    0  501    0  0.00000000000E+00  0.00000000000E+00  0.18443578674E+03  0.18443578674E+03  0.00000000000E+00 0. -1.
         -1   -1    0    0    0  501 -0.00000000000E+00 -0.00000000000E+00 -0.80238478043E+02  0.80238478043E+02  0.00000000000E+00 0.  1.
         25    2    1    2    0    0  0.34612449528E+01  0.45708662429E+02  0.28004572248E+02  0.13613916530E+03  0.12509338201E+03 0.  0.
          5    1    3    3  502    0 -0.50747187311E+02 -0.78582141878E+01  0.30316664228E+02  0.59779604216E+02  0.41800000000E+01 0.  1.
         -5    1    3    3    0  502  0.54208432264E+02  0.53566876617E+02 -0.23120919802E+01  0.76359561081E+02  0.41800000000E+01 0.  1.
        -11    1    1    2    0    0  0.40835745419E+01 -0.74056736747E+02  0.53653014904E+02  0.91540820659E+02  0.00000000000E+00 0. -1.
         11    1    1    2    0    0 -0.75448194947E+01  0.28348074318E+02  0.22539721550E+02  0.36994278832E+02  0.00000000000E+00 0.  1.
</event>
<event>
 7    1  0.2612321E-009  0.1319362E+03  0.7561462E-02  0.1224611E+00
         -2   -1    0    0    0  501 -0.00000000000E+00  0.00000000000E+00  0.26036421741E+02  0.26036421741E+02  0.00000000000E+00 0.  1.
          2   -1    0    0  501    0  0.00000000000E+00 -0.00000000000E+00 -0.75184881275E+03  0.75184881275E+03  0.00000000000E+00 0. -1.
         25    2    1    2    0    0 -0.11814131390E+02  0.86744496921E+02 -0.39393286347E+03  0.42248817063E+03  0.12509585105E+03 0.  0.
          5    1    3    3  502    0  0.27766258780E+02  0.97523096678E+02 -0.20063568593E+03  0.22484187862E+03  0.41800000000E+01 0.  1.
         -5    1    3    3    0  502 -0.39580390170E+02 -0.10778599757E+02 -0.19329717755E+03  0.19764629201E+03  0.41800000000E+01 0.  1.
        -11    1    1    2    0    0  0.48006276085E+02 -0.55083905997E+02 -0.14420168774E+03  0.16165693920E+03  0.00000000000E+00 0.  1.
         11    1    1    2    0    0 -0.36192144695E+02 -0.31660590925E+02 -0.18767783979E+03  0.19374012466E+03  0.00000000000E+00 0. -1.
</event>
<event>
 7    1  0.2612321E-009  0.9091911E+02  0.7561462E-02  0.1300641E+00
          2   -1    0    0  501    0  0.00000000000E+00  0.00000000000E+00  0.69852388549E+03  0.69852388549E+03  0.00000000000E+00 0. -1.
         -2   -1    0    0    0  501 -0.00000000000E+00 -0.00000000000E+00 -0.15603571961E+02  0.15603571961E+02  0.00000000000E+00 0.  1.
         25    2    1    2    0    0 -0.12455802572E+02 -0.13996330236E+02  0.41157126729E+03  0.43056934132E+03  0.12509198756E+03 0.  0.
          5    1    3    3  502    0 -0.44483335003E+02  0.23411456833E+02  0.74972256730E+02  0.90361358352E+02  0.41800000000E+01 0. -1.
         -5    1    3    3    0  502  0.32027532431E+02 -0.37407787069E+02  0.33659901056E+03  0.34020798297E+03  0.41800000000E+01 0. -1.
        -11    1    1    2    0    0 -0.30371513792E+02 -0.11099159920E+02  0.11977143353E+03  0.12405972953E+03  0.00000000000E+00 0. -1.
         11    1    1    2    0    0  0.42827316364E+02  0.25095490157E+02  0.15157761270E+03  0.15949838660E+03  0.00000000000E+00 0.  1.
</event>
<event>
 7    1  0.2612321E-009  0.1847524E+03  0.7561462E-02  0.1163281E+00
          2   -1    0    0  501    0  0.00000000000E+00  0.00000000000E+00  0.67898688711E+02  0.67898688711E+02  0.00000000000E+00 0. -1.
         -2   -1    0    0    0  501 -0.00000000000E+00 -0.00000000000E+00 -0.53470887131E+03  0.53470887131E+03  0.00000000000E+00 0.  1.
         25    2    1    2    0    0 -0.15396004962E+03  0.26699165798E+02 -0.25577077954E+03  0.32477969355E+03  0.12508643148E+03 0.  0.
          5    1    3    3  502    0 -0.14016844745E+03 -0.22848282096E+02 -0.22037523347E+03  0.26220593735E+03  0.41800000000E+01 0.  1.
         -5    1    3    3    0  502 -0.13791602173E+02  0.49547447894E+02 -0.35395546073E+02  0.62573756201E+02  0.41800000000E+01 0.  1.
        -11    1    1    2    0    0  0.47717982301E+02 -0.47761824016E+02 -0.51129689529E+02  0.84690275826E+02  0.00000000000E+00 0. -1.
         11    1    1    2    0    0  0.10624206732E+03  0.21062658218E+02 -0.15990971353E+03  0.19313759064E+03  0.00000000000E+00 0.  1.
</event>
<event>
 7    1  0.2612321E-009  0.1199141E+03  0.7561462E-02  0.1243239E+00
          1   -1    0    0  501    0  0.00000000000E+00  0.00000000000E+00  0.81450969876E+03  0.81450969876E+03  0.00000000000E+00 0. -1.
         -1   -1    0    0    0  501 -0.00000000000E+00 -0.00000000000E+00 -0.19015009153E+02  0.19015009153E+02  0.00000000000E+00 0.  1.
         25    2    1    2    0    0  0.24089483639E+02 -0.48675805516E+02  0.54810551762E+03  0.56481634687E+03  0.12509280548E+03 0.  0.
          5    1    3    3  502    0 -0.48428707605E+02 -0.40164348911E+02  0.26840738690E+03  0.27571454874E+03  0.41800000000E+01 0. -1.
         -5    1    3    3    0  502  0.72518191243E+02 -0.85114566054E+01  0.27969813072E+03  0.28910179813E+03  0.41800000000E+01 0. -1.
        -11    1    1    2    0    0 -0.57768131241E+02  0.29118750801E+02  0.13359012170E+03  0.14842971148E+03  0.00000000000E+00 0.  1.
         11    1    1    2    0    0  0.33678647602E+02  0.19557054715E+02  0.11379905029E+03  0.12027864956E+03  0.00000000000E+00 0. -1.
</event>
<event>
 7    1  0.2612321E-009  0.1271073E+03  0.7561462E-02  0.1231812E+00
         -2   -1    0    0    0  501 -0.00000000000E+00  0.00000000000E+00  0.47547829073E+02  0.47547829073E+02  0.00000000000E+00 0. -1.
          2   -1    0    0  501    0  0.00000000000E+00 -0.00000000000E+00 -0.51911953266E+03  0.51911953266E+03  0.00000000000E+00 0.  1.
         25    2    1    2    0    0 -0.37872818389E+02  0.77942791661E+02 -0.12144461008E+03  0.19469625503E+03  0.12509360200E+03 0.  0.
          5    1    3    3  502    0  0.74572559136E+01  0.87428978648E+02 -0.31283174939E+02  0.93249913713E+02  0.41800000000E+01 0.  1.
         -5    1    3    3    0  502 -0.45330074302E+02 -0.94861869872E+01 -0.90161435142E+02  0.10144634132E+03  0.41800000000E+01 0.  1.
        -11    1    1    2    0    0 -0.26449829442E+02 -0.27203383051E+02 -0.16854284930E+03  0.17276084504E+03  0.00000000000E+00 0.  1.
         11    1    1    2    0    0  0.64322647831E+02 -0.50739408610E+02 -0.18158424421E+03  0.19921026167E+03  0.00000000000E+00 0. -1.
</event>
<event>
 7    1  0.2612321E-009  0.1256845E+03  0.7561462E-02  0.1234003E+00
         -2   -1    0    0    0  501 -0.00000000000E+00  0.00000000000E+00  0.18988162825E+03  0.18988162825E+03  0.00000000000E+00 0.  1.
          2   -1    0    0  501    0  0.00000000000E+00 -0.00000000000E+00 -0.10632142543E+03  0.10632142543E+03  0.00000000000E+00 0. -1.
         25    2    1    2    0    0 -0.18007815481E+02  0.86109315073E+02  0.75558052508E+02  0.17057471662E+03  0.12509044364E+03 0.  0.
          5    1    3    3  502    0  0.15886518071E+02 -0.15892092545E+02 -0.17145867812E+02  0.28572596048E+02  0.41800000000E+01 0. -1.
         -5    1    3    3    0  502 -0.33894333552E+02  0.10200140762E+03  0.92703920321E+02  0.14200212057E+03  0.41800000000E+01 0. -1.
        -11    1    1    2    0    0  0.36901942160E+01 -0.10054586190E+03  0.19180783333E+02  0.10242553553E+03  0.00000000000E+00 0.  1.
         11    1    1    2    0    0  0.14317621265E+02  0.14436546827E+02 -0.11178633026E+02  0.23202801540E+02  0.00000000000E+00 0. -1.
</event>
<event>
 7    1  0.2612321E-009  0.1474878E+03  0.7561462E-02  0.1203594E+00
          2   -1    0    0  501    0  0.00000000000E+00  0.00000000000E+00  0.59852088736E+03  0.59852088736E+03  0.00000000000E+00 0.  1.
         -2   -1    0    0    0  501 -0.00000000000E+00 -0.00000000000E+00 -0.51539678614E+02  0.51539678614E+02  0.00000000000E+00 0. -1.
         25    2    1    2    0    0 -0.89285221105E+01 -0.12376675922E+03  0.43641395252E+03  0.47064134793E+03  0.12509281049E+03 0.  0.
          5    1    3    3  502    0  0.53004730369E+02 -0.48416449348E+02  0.12415289872E+03  0.14347497576E+03  0.41800000000E+01 0. -1.
         -5    1    3    3    0  502 -0.61933252480E+02 -0.75350309874E+02  0.31226105380E+03  0.32716637217E+03  0.41800000000E+01 0. -1.
        -11    1    1    2    0    0  0.14060032277E+02  0.68110285232E+02  0.10113027804E+03  0.12273560444E+03  0.00000000000E+00 0.  1.
         11    1    1    2    0    0 -0.51315101661E+01  0.55656473989E+02  0.94369781923E+01  0.56683613601E+02  0.00000000000E+00 0. -1.
</event>
<event>
 7    1  0.2612321E-009  0.1739331E+03  0.7561462E-02  0.1173807E+00
          2   -1    0    0  501    0  0.00000000000E+00  0.00000000000E+00  0.25788301204E+03  0.25788301204E+03  0.00000000000E+00 0. -1.
         -2   -1    0    0    0  501 -0.00000000000E+00 -0.00000000000E+00 -0.41229680828E+03  0.41229680828E+03  0.00000000000E+00 0.  1.
         25    2    1    2    0    0 -0.13941108264E+03  0.20063552709E+02 -0.35972212836E+03  0.40606138225E+03  0.12509132827E+03 0.  0.
          5    1    3    3  502    0  0.61750037852E+01  0.39604691459E+02 -0.60375609066E+02  0.72590280530E+02  0.41800000000E+01 0.  1.
         -5    1    3    3    0  502 -0.14558608643E+03 -0.19541138750E+02 -0.29934651930E+03  0.33347110172E+03  0.41800000000E+01 0.  1.
        -11    1    1    2    0    0  0.12738230787E+03 -0.43224436285E+02  0.14178076139E+03  0.19543896375E+03  0.00000000000E+00 0.  1.
         11    1    1    2    0    0  0.12028774778E+02  0.23160883576E+02  0.63527570726E+02  0.68679474321E+02  0.00000000000E+00 0. -1.
</event>
<event>
 7    1  0.2612321E-009  0.8525801E+02  0.7561462E-02  0.1314759E+00
          1   -1    0    0  501    0  0.00000000000E+00  0.00000000000E+00  0.27759695505E+02  0.27759695505E+02  0.00000000000E+00 0. -1.
         -1   -1    0    0    0  501 -0.00000000000E+00 -0.00000000000E+00 -0.10817718454E+04  0.10817718454E+04  0.00000000000E+00 0.  1.
         25    2    1    2    0    0  0.81274770737E+01  0.34386883993E+02 -0.97495490442E+03  0.98358092461E+03  0.12508339588E+03 0.  0.
          5    1    3    3  502    0  0.20753340054E+02 -0.12796075270E+02 -0.83360097922E+03  0.83396792841E+03  0.41800000000E+01 0. -1.
         -5    1    3    3    0  502 -0.12625862981E+02  0.47182959263E+02 -0.14135392520E+03  0.14961299620E+03  0.41800000000E+01 0. -1.
        -11    1    1    2    0    0 -0.49275803010E+02 -0.19667436270E+02 -0.53389203640E+02  0.75268319212E+02  0.00000000000E+00 0.  1.
         11    1    1    2    0    0  0.41148325936E+02 -0.14719447723E+02 -0.25668041883E+02  0.50682297133E+02  0.00000000000E+00 0. -1.
</event>
<event>
 7    1  0.2612321E-009  0.1000931E+03  0.7561462E-02  0.1280100E+00
          1   -1    0    0  501    0  0.00000000000E+00  0.00000000000E+00  0.57400279836E+03  0.57400279836E+03  0.00000000000E+00 0. -1.
         -1   -1    0    0    0  501 -0.00000000000E+00 -0.00000000000E+00 -0.24553390290E+02  0.24553390290E+02  0.00000000000E+00 0.  1.
         25    2    1    2    0    0 -0.34094243931E+02  0.87420837093E+01  0.33123461840E+03  0.35581396374E+03  0.12509341658E+03 0.  0.
          5    1    3    3  502    0 -0.25920960902E+02 -0.48868135760E+02  0.24827025234E+03  0.25439257360E+03  0.41800000000E+01 0. -1.
         -5    1    3    3    0  502 -0.81732830283E+01  0.57610219469E+02  0.82964366060E+02  0.10142139014E+03  0.41800000000E+01 0. -1.
        -11    1    1    2    0    0  0.34699862810E+02 -0.41225404953E+02  0.57604913504E+02  0.78879278346E+02  0.00000000000E+00 0.  1.
         11    1    1    2    0    0 -0.60561887946E+00  0.32483321244E+02  0.16060987617E+03  0.16386294656E+03  0.00000000000E+00 0. -1.
</event>
<event>
 7    1  0.2612321E-009  0.1459893E+03  0.7561462E-02  0.1205490E+00
         -1   -1    0    0    0  501 -0.00000000000E+00  0.00000000000E+00  0.12061307192E+03  0.12061307192E+03  0.00000000000E+00 0.  1.
          1   -1    0    0  501    0  0.00000000000E+00 -0.00000000000E+00 -0.28940416120E+03  0.28940416120E+03  0.00000000000E+00 0. -1.
         25    2    1    2    0    0  0.11118226596E+00 -0.13398154941E+03 -0.14130091687E+02  0.18384413805E+03  0.12509172500E+03 0.  0.
          5    1    3    3  502    0 -0.22418167204E+02 -0.15113208912E+02 -0.50506559813E+02  0.57440127860E+02  0.41800000000E+01 0.  1.
         -5    1    3    3    0  502  0.22529349470E+02 -0.11886834050E+03  0.36376468126E+02  0.12640401019E+03  0.41800000000E+01 0.  1.
        -11    1    1    2    0    0 -0.25829282570E+02  0.69314860416E+02 -0.23364749735E+02  0.77573276602E+02  0.00000000000E+00 0.  1.
         11    1    1    2    0    0  0.25718100304E+02  0.64666688991E+02 -0.13129624785E+03  0.14859981847E+03  0.00000000000E+00 0. -1.
</event>
<event>
 7    1  0.2612321E-009  0.1157948E+03  0.7561462E-02  0.1250200E+00
          2   -1    0    0  501    0  0.00000000000E+00  0.00000000000E+00  0.37656410163E+03  0.37656410163E+03  0.00000000000E+00 0. -1.
         -2   -1    0    0    0  501 -0.00000000000E+00 -0.00000000000E+00 -0.51910224245E+02  0.51910224245E+02  0.00000000000E+00 0.  1.
         25    2    1    2    0    0  0.58276061300E+02 -0.64878779852E+02  0.15938705427E+03  0.22058311981E+03  0.12508926525E+03 0.  0.
          5    1    3    3  502    0  0.19736114181E+02  0.33193660103E+02  0.14675387949E+02  0.41523158424E+02  0.41800000000E+01 0.  1.
         -5    1    3    3    0  502  0.38539947119E+02 -0.98072439956E+02  0.14471166632E+03  0.17905996139E+03  0.41800000000E+01 0.  1.
        -11    1    1    2    0    0 -0.10946762510E+02  0.10069142283E+02 -0.10222328785E+02  0.18047582707E+02  0.00000000000E+00 0.  1.
         11    1    1    2    0    0 -0.47329298790E+02  0.54809637570E+02  0.17548915191E+03  0.18984362336E+03  0.00000000000E+00 0. -1.
</event>
<event>
 7    1  0.2612321E-009  0.1224649E+03  0.7561462E-02  0.1239085E+00
          2   -1    0    0  501    0  0.00000000000E+00  0.00000000000E+00  0.10735249870E+03  0.10735249870E+03  0.00000000000E+00 0. -1.
         -2   -1    0    0    0  501 -0.00000000000E+00 -0.00000000000E+00 -0.15837163447E+03  0.15837163447E+03  0.00000000000E+00 0.  1.
         25    2    1    2    0    0 -0.33975183614E+02 -0.54610296562E+02  0.48950710639E+01  0.14079208849E+03  0.12514732465E+03 0.  0.
          5    1    3    3  502    0  0.46955223016E+02 -0.11900291351E+02  0.72510214260E+01  0.49157498049E+02  0.41800000000E+01 0. -1.
         -5    1    3    3    0  502 -0.80930406630E+02 -0.42710005211E+02 -0.23559503621E+01  0.91634590437E+02  0.41800000000E+01 0. -1.
        -11    1    1    2    0    0 -0.20140016285E+01  0.66707383991E+02 -0.13652404651E+02  0.68119890151E+02  0.00000000000E+00 0. -1.
         11    1    1    2    0    0  0.35989185243E+02 -0.12097087429E+02 -0.42261802181E+02  0.56812154530E+02  0.00000000000E+00 0.  1.
</event>
<event>
 7    1  0.2612321E-009  0.1623755E+03  0.7561462E-02  0.1186041E+00
          3   -1    0    0  501    0  0.00000000000E+00  0.00000000000E+00  0.68626671821E+02  0.68626671821E+02  0.00000000000E+00 0. -1.
         -3   -1    0    0    0  501 -0.00000000000E+00 -0.00000000000E+00 -0.39430836260E+03  0.39430836260E+03  0.00000000000E+00 0.  1.
         25    2    1    2    0    0 -0.11703808662E+03  0.39618109274E+02 -0.17551408811E+03  0.24843582289E+03  0.12509058586E+03 0.  0.
          5    1    3    3  502    0 -0.14229154655E+03  0.36370196745E+02 -0.16397669599E+03  0.22017153463E+03  0.41800000000E+01 0. -1.
         -5    1    3    3    0  502  0.25253459932E+02  0.32479125285E+01 -0.11537392115E+02  0.28264288265E+02  0.41800000000E+01 0. -1.
        -11    1    1    2    0    0  0.11053386385E+03  0.13497695462E+01 -0.12035511900E+03  0.16341637496E+03  0.00000000000E+00 0.  1.
         11    1    1    2    0    0  0.65042227699E+01 -0.40967878820E+02 -0.29812483674E+02  0.51082836566E+02  0.00000000000E+00 0. -1.
</event>
<event>
 7    1  0.2612321E-009  0.1201706E+03  0.7561462E-02  0.1242816E+00
          1   -1    0    0  501    0  0.00000000000E+00  0.00000000000E+00  0.23794095527E+03  0.23794095527E+03  0.00000000000E+00 0. -1.
         -1   -1    0    0    0  501 -0.00000000000E+00 -0.00000000000E+00 -0.84478237396E+02  0.84478237396E+02  0.00000000000E+00 0.  1.
         25    2    1    2    0    0  0.44651796822E+02  0.70518781815E+02  0.44024360561E+02  0.15666748003E+03  0.12505947956E+03 0.  0.
          5    1    3    3  502    0 -0.35550640300E+02  0.54163873152E+02  0.29472477123E+01  0.64990244265E+02  0.41800000000E+01 0. -1.
         -5    1    3    3    0  502  0.80202437122E+02  0.16354908663E+02  0.41077112849E+02  0.91677235766E+02  0.41800000000E+01 0. -1.
        -11    1    1    2    0    0 -0.48724298607E+02 -0.41056469527E+02  0.13261779635E+02  0.65081224358E+02  0.00000000000E+00 0.  1.
         11    1    1    2    0    0  0.40725017856E+01 -0.29462312288E+02  0.96176577677E+02  0.10067048828E+03  0.00000000000E+00 0. -1.
</event>
<event>
 7    1  0.2612321E-009  0.1560052E+03  0.7561462E-02  0.1193282E+00
         -2   -1    0    0    0  501 -0.00000000000E+00  0.00000000000E+00  0.17219580459E+02  0.17219580459E+02  0.00000000000E+00 0.  1.
          2   -1    0    0  501    0  0.00000000000E+00 -0.00000000000E+00 -0.15965683760E+04  0.15965683760E+04  0.00000000000E+00 0. -1.
         25    2    1    2    0    0 -0.12160166753E+03  0.29225255479E+02 -0.84004277693E+03  0.85846401677E+03  0.12509004719E+03 0.  0.
          5    1    3    3  502    0 -0.14291295028E+03  0.44398568516E+02 -0.73852514805E+03  0.75354642256E+03  0.41800000000E+01 0. -1.
         -5    1    3    3    0  502  0.21311282756E+02 -0.15173313037E+02 -0.10151762888E+03  0.10491759421E+03  0.41800000000E+01 0. -1.
        -11    1    1    2    0    0  0.35424300626E+01  0.10628986289E+02 -0.87446177576E+01  0.14212406552E+02  0.00000000000E+00 0.  1.
         11    1    1    2    0    0  0.11805923746E+03 -0.39854241768E+02 -0.73056140086E+03  0.74111153314E+03  0.00000000000E+00 0. -1.
</event>
<event>
 7    1  0.2612321E-009  0.1429864E+03  0.7561462E-02  0.1209366E+00
         -2   -1    0    0    0  501 -0.00000000000E+00  0.00000000000E+00  0.83166653240E+02  0.83166653240E+02  0.00000000000E+00 0.  1.
          2   -1    0    0  501    0  0.00000000000E+00 -0.00000000000E+00 -0.32249828082E+03  0.32249828082E+03  0.00000000000E+00 0. -1.
         25    2    1    2    0    0 -0.60206787531E+02  0.94663020254E+02 -0.18817216526E+03  0.25227543095E+03  0.12509270407E+03 0.  0.
          5    1    3    3  502    0 -0.10047306932E+02  0.96198584681E+02 -0.17536839359E+03  0.20031640458E+03  0.41800000000E+01 0.  1.
         -5    1    3    3    0  502 -0.50159480599E+02 -0.15355644268E+01 -0.12803771668E+02  0.51959026367E+02  0.41800000000E+01 0.  1.
        -11    1    1    2    0    0  0.84312666765E+01  0.15183203306E+02  0.70238416555E+01  0.18733666806E+02  0.00000000000E+00 0.  1.
         11    1    1    2    0    0  0.51775520854E+02 -0.10984622356E+03 -0.58183303969E+02  0.13465583630E+03  0.00000000000E+00 0. -1.
</event>
<event>
 7    1  0.2612321E-009  0.1232143E+03  0.7561462E-02  0.1237887E+00
         -1   -1    0    0    0  501 -0.00000000000E+00  0.00000000000E+00  0.59225348124E+03  0.59225348124E+03  0.00000000000E+00 0.  1.
          1   -1    0    0  501    0  0.00000000000E+00 -0.00000000000E+00 -0.35090027362E+02  0.35090027362E+02  0.00000000000E+00 0. -1.
         25    2    1    2    0    0  0.79515960248E+02  0.41845132667E+02  0.24037076000E+03  0.28548153874E+03  0.12509118128E+03 0.  0.
          5    1    3    3  502    0 -0.29900605027E+02  0.23065629226E+02  0.33437085989E+02  0.50612059353E+02  0.41800000000E+01 0. -1.
         -5    1    3    3    0  502  0.10941656527E+03  0.18779503441E+02  0.20693367401E+03  0.23486947938E+03  0.41800000000E+01 0. -1.
        -11    1    1    2    0    0 -0.40108675268E+02 -0.34497057494E+00  0.31818417032E+02  0.51198012646E+02  0.00000000000E+00 0.  1.
         11    1    1    2    0    0 -0.39407284980E+02 -0.41500162092E+02  0.28497427684E+03  0.29066395722E+03  0.00000000000E+00 0. -1.
</event>
<event>
 7    1  0.2612321E-009  0.9003549E+02  0.7561462E-02  0.1302766E+00
          2   -1    0    0  501    0  0.00000000000E+00  0.00000000000E+00  0.60592432137E+03  0.60592432137E+03  0.00000000000E+00 0. -1.
         -2   -1    0    0    0  501 -0.00000000000E+00 -0.00000000000E+00 -0.27138124540E+02  0.27138124540E+02  0.00000000000E+00 0.  1.
         25    2    1    2    0    0 -0.36580466874E+02  0.31619383079E+02  0.44185244266E+03  0.46175590394E+03  0.12508804016E+03 0.  0.
          5    1    3    3  502    0 -0.53264791030E+02  0.26134709829E+02  0.43955057867E+03  0.44355647287E+03  0.41800000000E+01 0. -1.
         -5    1    3    3    0  502  0.16684324156E+02  0.54846732500E+01  0.23018639973E+01  0.18199431065E+02  0.41800000000E+01 0. -1.
        -11    1    1    2    0    0  0.46005613969E+02  0.19929086347E+02  0.74438077666E+02  0.89748049594E+02  0.00000000000E+00 0. -1.
         11    1    1    2    0    0 -0.94251470959E+01 -0.51548469425E+02  0.62495676498E+02  0.81558492377E+02  0.00000000000E+00 0.  1.
</event>
<event>
 7    1  0.2612321E-009  0.1731245E+03  0.7561462E-02  0.1174628E+00
          1   -1    0    0  501    0  0.00000000000E+00  0.00000000000E+00  0.69271871347E+03  0.69271871347E+03  0.00000000000E+00 0. -1.
         -1   -1    0    0    0  501 -0.00000000000E+00 -0.00000000000E+00 -0.57425830892E+02  0.57425830892E+02  0.00000000000E+00 0.  1.
         25    2    1    2    0    0  0.62774148645E+02  0.15337151584E+03  0.29051462169E+03  0.35708466845E+03  0.12508916585E+03 0.  0.
          5    1    3    3  502    0  0.58745711942E+02  0.59061412143E+02  0.46677671812E+02  0.95580262197E+02  0.41800000000E+01 0. -1.
         -5    1    3    3    0  502  0.40284367034E+01  0.94310103701E+02  0.24383694988E+03  0.26150440625E+03  0.41800000000E+01 0. -1.
        -11    1    1    2    0    0 -0.12280499068E+02 -0.68538511616E+02  0.23647625531E+03  0.24651441653E+03  0.00000000000E+00 0. -1.
         11    1    1    2    0    0 -0.50493649577E+02 -0.84833004227E+02  0.10830200557E+03  0.14654545938E+03  0.00000000000E+00 0.  1.
</event>
<event>
 7    1  0.2612321E-009  0.1174172E+03  0.7561462E-02  0.1247420E+00
          3   -1    0    0  501    0  0.00000000000E+00  0.00000000000E+00  0.36033473480E+02  0.36033473480E+02  0.00000000000E+00 0. -1.
         -3   -1    0    0    0  501 -0.00000000000E+00 -0.00000000000E+00 -0.44991176368E+03  0.44991176368E+03  0.00000000000E+00 0.  1.
         25    2    1    2    0    0 -0.47944942769E+01  0.55017338620E+02 -0.30010131075E+03  0.32978494671E+03  0.12508964640E+03 0.  0.
          5    1    3    3  502    0 -0.42613536750E+02 -0.23934042739E+02 -0.11169071635E+03  0.12198787003E+03  0.41800000000E+01 0.  1.
         -5    1    3    3    0  502  0.37819042473E+02  0.78951381359E+02 -0.18841059440E+03  0.20779707668E+03  0.41800000000E+01 0.  1.
        -11    1    1    2    0    0  0.25164906111E+02 -0.68990652456E+02 -0.10831219149E+03  0.13086066426E+03  0.00000000000E+00 0.  1.
         11    1    1    2    0    0 -0.20370411834E+02  0.13973313836E+02 -0.54647879579E+01  0.25299626189E+02  0.00000000000E+00 0. -1.
</event>
<event>
 7    1  0.2612321E-009  0.1303949E+03  0.7561462E-02  0.1226871E+00
          2   -1    0    0  501    0  0.00000000000E+00  0.00000000000E+00  0.76548143038E+02  0.76548143038E+02  0.00000000000E+00 0. -1.
         -2   -1    0    0    0  501 -0.00000000000E+00 -0.00000000000E+00 -0.38216437174E+03  0.38216437174E+03  0.00000000000E+00 0.  1.
         25    2    1    2    0    0 -0.78872386141E+02  0.28215547392E+02 -0.30021163546E+03  0.33584484198E+03  0.12509101249E+03 0.  0.
          5    1    3    3  502    0 -0.22610161198E+02  0.66202931192E+02 -0.21886002749E+03  0.22980694402E+03  0.41800000000E+01 0. -1.
         -5    1    3    3    0  502 -0.56262224943E+02 -0.37987383800E+02 -0.81351607975E+02  0.10603789796E+03  0.41800000000E+01 0. -1.
        -11    1    1    2    0    0  0.59824935764E+02  0.25998921804E+02 -0.47164998751E+01  0.65400399427E+02  0.00000000000E+00 0.  1.
         11    1    1    2    0    0  0.19047450378E+02 -0.54214469196E+02 -0.68809336150E+00  0.57467273370E+02  0.00000000000E+00 0. -1.
</event>
<event>
 7    1  0.2612321E-009  0.1173958E+03  0.7561462E-02  0.1247456E+00
         -1   -1    0    0    0  501 -0.00000000000E+00  0.00000000000E+00  0.95480423798E+02  0.95480423798E+02  0.00000000000E+00 0.  1.
          1   -1    0    0  501    0  0.00000000000E+00 -0.00000000000E+00 -0.20638374136E+03  0.20638374136E+03  0.00000000000E+00 0. -1.
         25    2    1    2    0    0  0.50918492839E+02  0.15323445080E+02  0.17757101910E+02  0.13707672359E+03  0.12508881884E+03 0.  0.
          5    1    3    3  502    0  0.35818043955E+02 -0.52944419078E+02 -0.26753190022E+01  0.64114534359E+02  0.41800000000E+01 0. -1.
         -5    1    3    3    0  502  0.15100448884E+02  0.68267864158E+02  0.20432420912E+02  0.72962189232E+02  0.41800000000E+01 0. -1.
        -11    1    1    2    0    0 -0.14159392289E+02  0.35354395682E+02 -0.32626242592E+02  0.50148712742E+02  0.00000000000E+00 0.  1.
         11    1    1    2    0    0 -0.36759100550E+02 -0.50677840762E+02 -0.96034176878E+02  0.11463872882E+03  0.00000000000E+00 0. -1.
</event>
<event>
 7    1  0.2612321E-009  0.1250160E+03  0.7561462E-02  0.1235044E+00
          2   -1    0    0  501    0  0.00000000000E+00  0.00000000000E+00  0.15974364742E+03  0.15974364742E+03  0.00000000000E+00 0.  1.
         -2   -1    0    0    0  501 -0.00000000000E+00 -0.00000000000E+00 -0.26023082232E+03  0.26023082232E+03  0.00000000000E+00 0. -1.
         25    2    1    2    0    0  0.10527890896E+03  0.52871153458E+02 -0.18182215441E+03  0.25017113070E+03  0.12508913327E+03 0.  0.
          5    1    3    3  502    0  0.89151385536E+02  0.60358283790E+02 -0.53023065145E+02  0.12008334523E+03  0.41800000000E+01 0. -1.
         -5    1    3    3    0  502  0.16127523426E+02 -0.74871303323E+01 -0.12879908926E+03  0.13008778547E+03  0.41800000000E+01 0. -1.
        -11    1    1    2    0    0 -0.79281318626E+02 -0.19360891732E+02  0.95002468272E+02  0.12524312592E+03  0.00000000000E+00 0. -1.
         11    1    1    2    0    0 -0.25997590336E+02 -0.33510261726E+02 -0.13667488773E+02  0.44560213123E+02  0.00000000000E+00 0.  1.
</event>
<event>
 7    1  0.2612321E-009  0.1043468E+03  0.7561462E-02  0.1271412E+00
          1   -1    0    0  501    0  0.00000000000E+00  0.00000000000E+00  0.64083352545E+02  0.64083352545E+02  0.00000000000E+00 0. -1.
         -1   -1    0    0    0  501 -0.00000000000E+00 -0.00000000000E+00 -0.26918880595E+03  0.26918880595E+03  0.00000000000E+00 0.  1.
         25    2    1    2    0    0  0.33405877132E+02 -0.11219262745E+02 -0.19709610996E+03  0.23608565829E+03  0.12509091497E+03 0.  0.
          5    1    3    3  502    0  0.62038995625E+02  0.37990341635E+02 -0.10937609765E+03  0.13142566786E+03  0.41800000000E+01 0. -1.
         -5    1    3    3    0  502 -0.28633118493E+02 -0.49209604380E+02 -0.87720012313E+02  0.10465999044E+03  0.41800000000E+01 0. -1.
        -11    1    1    2    0    0  0.21444010068E+02 -0.40086022298E+01  0.23547764864E+02  0.32100026320E+02  0.00000000000E+00 0. -1.
         11    1    1    2    0    0 -0.54849887200E+02  0.15227864974E+02 -0.31557108312E+02  0.65086473883E+02  0.00000000000E+00 0.  1.
</event>
<event>
 7    1  0.2612321E-009  0.1975450E+03  0.7561462E-02  0.1151827E+00
         -2   -1    0    0    0  501 -0.00000000000E+00  0.00000000000E+00  0.57544232906E+02  0.57544232906E+02  0.00000000000E+00 0. -1.
          2   -1    0    0  501    0  0.00000000000E+00 -0.00000000000E+00 -0.69414697887E+03  0.69414697887E+03  0.00000000000E+00 0.  1.
         25    2    1    2    0    0 -0.16093504442E+03 -0.41238050195E+02 -0.33669925806E+03  0.39574350140E+03  0.12508342500E+03 0.  0.
          5    1    3    3  502    0  0.20927057852E+02 -0.66623349853E+01 -0.44781266446E+02  0.50051600197E+02  0.41800000000E+01 0.  1.
         -5    1    3    3    0  502 -0.18186210227E+03 -0.34575715210E+02 -0.29191799162E+03  0.34569190120E+03  0.41800000000E+01 0.  1.
        -11    1    1    2    0    0  0.14957105485E+02 -0.23517457935E+02 -0.75832504215E+02  0.80792044954E+02  0.00000000000E+00 0.  1.
         11    1    1    2    0    0  0.14597793893E+03  0.64755508130E+02 -0.22407098368E+03  0.27515566543E+03  0.00000000000E+00 0. -1.
</event>
<event>
 7    1  0.2612321E-009  0.2044378E+03  0.7561462E-02  0.1146048E+00
          1   -1    0    0  501    0  0.00000000000E+00  0.00000000000E+00  0.51694296161E+02  0.51694296161E+02  0.00000000000E+00 0. -1.
         -1   -1    0    0    0  501 -0.00000000000E+00 -0.00000000000E+00 -0.17401105489E+04  0.17401105489E+04  0.00000000000E+00 0.  1.
         25    2    1    2    0    0 -0.17311191872E+03 -0.40208378795E+02 -0.15072359672E+04  0.15228232094E+04  0.12508323743E+03 0.  0.
          5    1    3    3  502    0 -0.30232627567E+02  0.36720412062E+02 -0.53527358148E+03  0.53739899504E+03  0.41800000000E+01 0.  1.
         -5    1    3    3    0  502 -0.14287929115E+03 -0.76928790856E+02 -0.97196238570E+03  0.98542421440E+03  0.41800000000E+01 0.  1.
        -11    1    1    2    0    0  0.36709761454E+02  0.50021160363E+02 -0.57646825846E+02  0.84692854481E+02  0.00000000000E+00 0.  1.
         11    1    1    2    0    0  0.13640215727E+03 -0.98127815682E+01 -0.12353345971E+03  0.18428878115E+03  0.00000000000E+00 0. -1.
</event>
<event>
 7    1  0.2612321E-009  0.1037445E+03  0.7561462E-02  0.1272613E+00
          2   -1    0    0  501    0  0.00000000000E+00  0.00000000000E+00  0.97221008771E+03  0.97221008771E+03  0.00000000000E+00 0. -1.
         -2   -1    0    0    0  501 -0.00000000000E+00 -0.00000000000E+00 -0.18884784234E+02  0.18884784234E+02  0.00000000000E+00 0.  1.
         25    2    1    2    0    0  0.44487249465E+02 -0.21143568092E+02  0.77244724470E+03  0.78405850719E+03  0.12508729362E+03 0.  0.
          5    1    3    3  502    0  0.73730647941E+02 -0.40675864467E+01  0.25558591633E+03  0.26607214573E+03  0.41800000000E+01 0. -1.
         -5    1    3    3    0  502 -0.29243398476E+02 -0.17075981645E+02  0.51686132836E+03  0.51798636146E+03  0.41800000000E+01 0. -1.
        -11    1    1    2    0    0  0.16039348656E+02 -0.20433056515E+02  0.63162354068E+02  0.68295340070E+02  0.00000000000E+00 0. -1.
         11    1    1    2    0    0 -0.60526598122E+02  0.41576624607E+02  0.11771570471E+03  0.13874102468E+03  0.00000000000E+00 0.  1.
</event>
<event>
 7    1  0.2612321E-009  0.1420240E+03  0.7561462E-02  0.1210631E+00
         -1   -1    0    0    0  501 -0.00000000000E+00  0.00000000000E+00  0.42964346975E+02  0.42964346975E+02  0.00000000000E+00 0.  1.
          1   -1    0    0  501    0  0.00000000000E+00 -0.00000000000E+00 -0.57828455530E+03  0.57828455530E+03  0.00000000000E+00 0. -1.
         25    2    1    2    0    0 -0.11125026678E+02  0.10030500861E+03 -0.39852579803E+03  0.42971436591E+03  0.12508702415E+03 0.  0.
          5    1    3    3  502    0  0.35591530732E+02 -0.69056725656E+01 -0.48852161539E+02  0.60979106753E+02  0.41800000000E+01 0. -1.
         -5    1    3    3    0  502 -0.46716557409E+02  0.10721068117E+03 -0.34967363649E+03  0.36873525916E+03  0.41800000000E+01 0. -1.
        -11    1    1    2    0    0  0.39579364090E+02 -0.18064098597E+02 -0.67433981408E+02  0.80250729395E+02  0.00000000000E+00 0. -1.
         11    1    1    2    0    0 -0.28454337413E+02 -0.82240910012E+02 -0.69360428894E+02  0.11128380697E+03  0.00000000000E+00 0.  1.
</event>
<event>
 7    1  0.2668180E-009  0.6454024E+02  0.7561462E-02  0.1379709E+00
          3   -1    0    0  501    0  0.00000000000E+00  0.00000000000E+00  0.15952423169E+03  0.15952423169E+03  0.00000000000E+00 0.  1.
         -3   -1    0    0    0  501 -0.00000000000E+00 -0.00000000000E+00 -0.97685697453E+02  0.97685697453E+02  0.00000000000E+00 0. -1.
         25    2    1    2    0    0  0.35805624841E+02 -0.40027421506E+02  0.28725495271E+01  0.13616592712E+03  0.12509464787E+03 0.  0.
          5    1    3    3  502    0  0.24550783666E+02 -0.43296637559E+02 -0.56552587295E+02  0.75452020067E+02  0.41800000000E+01 0.  1.
         -5    1    3    3    0  502  0.11254841175E+02  0.32692160529E+01  0.59425136822E+02  0.60713907054E+02  0.41800000000E+01 0.  1.
        -11    1    1    2    0    0 -0.40879475124E+01  0.34196584225E+02  0.76816816189E+02  0.84183970784E+02  0.00000000000E+00 0.  1.
         11    1    1    2    0    0 -0.31717677329E+02  0.58308372805E+01 -0.17850831478E+02  0.36860031240E+02  0.00000000000E+00 0. -1.
</event>
<event>
 7    1  0.2612321E-009  0.1288624E+03  0.7561462E-02  0.1229154E+00
         -1   -1    0    0    0  501 -0.00000000000E+00  0.00000000000E+00  0.10098992878E+03  0.10098992878E+03  0.00000000000E+00 0.  1.
          1   -1    0    0  501    0  0.00000000000E+00 -0.00000000000E+00 -0.18544752023E+03  0.18544752023E+03  0.00000000000E+00 0. -1.
         25    2    1    2    0    0  0.32678033914E+02 -0.68987475024E+02 -0.81629301506E+01  0.14676997968E+03  0.12509063872E+03 0.  0.
          5    1    3    3  502    0  0.57951892676E+02  0.90597824515E+01  0.16370555456E+02  0.61040715991E+02  0.41800000000E+01 0. -1.
         -5    1    3    3    0  502 -0.25273858761E+02 -0.78047257476E+02 -0.24533485607E+02  0.85729263686E+02  0.41800000000E+01 0. -1.
        -11    1    1    2    0    0  0.30614033468E+02  0.27038152094E+02 -0.30729643140E+02  0.51113517599E+02  0.00000000000E+00 0.  1.
         11    1    1    2    0    0 -0.63292067382E+02  0.41949322930E+02 -0.45565018154E+02  0.88553951731E+02  0.00000000000E+00 0. -1.
</event>
<event>
 7    1  0.2612321E-009  0.1108272E+03  0.7561462E-02  0.1259046E+00
         -2   -1    0    0    0  501 -0.00000000000E+00  0.00000000000E+00  0.25315377936E+02  0.25315377936E+02  0.00000000000E+00 0.  1.
          2   -1    0    0  501    0  0.00000000000E+00 -0.00000000000E+00 -0.49073592079E+03  0.49073592079E+03  0.00000000000E+00 0. -1.
         25    2    1    2    0    0  0.25374824680E+02  0.16307025753E+02 -0.27166104160E+03  0.30059488661E+03  0.12509102092E+03 0.  0.
          5    1    3    3  502    0  0.30061766259E+02  0.68941759833E+02 -0.14855589359E+03  0.16656230654E+03  0.41800000000E+01 0.  1.
         -5    1    3    3    0  502 -0.46869415787E+01 -0.52634734080E+02 -0.12310514802E+03  0.13403258007E+03  0.41800000000E+01 0.  1.
        -11    1    1    2    0    0  0.16343326673E+02 -0.41487778710E+02 -0.77764905119E+02  0.89642180792E+02  0.00000000000E+00 0.  1.
         11    1    1    2    0    0 -0.41718151353E+02  0.25180752957E+02 -0.11599459613E+03  0.12581423132E+03  0.00000000000E+00 0. -1.
</event>
<event>
 7    1  0.2612321E-009  0.1354639E+03  0.7561462E-02  0.1219566E+00
         -2   -1    0    0    0  501 -0.00000000000E+00  0.00000000000E+00  0.24605523123E+03  0.24605523123E+03  0.00000000000E+00 0.  1.
          2   -1    0    0  501    0  0.00000000000E+00 -0.00000000000E+00 -0.83527985540E+02  0.83527985540E+02  0.00000000000E+00 0. -1.
         25    2    1    2    0    0 -0.92626202700E+02 -0.16026132292E+02  0.90657990917E+02  0.18083620937E+03  0.12508562251E+03 0.  0.
          5    1    3    3  502    0 -0.67562556132E+02 -0.66534890571E+02  0.34078305138E+02  0.10084837101E+03  0.41800000000E+01 0. -1.
         -5    1    3    3    0  502 -0.25063646568E+02  0.50508758279E+02  0.56579685778E+02  0.79987838357E+02  0.41800000000E+01 0. -1.
        -11    1    1    2    0    0  0.54037731231E+02 -0.28054941246E+02  0.69187280607E+01  0.61278258158E+02  0.00000000000E+00 0. -1.
         11    1    1    2    0    0  0.38588471470E+02  0.44081073538E+02  0.64950526717E+02  0.87468749250E+02  0.00000000000E+00 0.  1.
</event>
<event>
 7    1  0.2612321E-009  0.8869529E+02  0.7561462E-02  0.1306042E+00
         -2   -1    0    0    0  501 -0.00000000000E+00  0.00000000000E+00  0.68391919017E+02  0.68391919017E+02  0.00000000000E+00 0.  1.
          2   -1    0    0  501    0  0.00000000000E+00 -0.00000000000E+00 -0.17948645232E+03  0.17948645232E+03  0.00000000000E+00 0. -1.
         25    2    1    2    0    0 -0.23543556333E+02  0.14802905856E+02 -0.58683607648E+02  0.14094115777E+03  0.12508884474E+03 0.  0.
          5    1    3    3  502    0 -0.48970785963E+02 -0.22463503883E+02 -0.75298698240E+02  0.92682863795E+02  0.41800000000E+01 0. -1.
         -5    1    3    3    0  502  0.25427229630E+02  0.37266409740E+02  0.16615090592E+02  0.48258293970E+02  0.41800000000E+01 0. -1.
        -11    1    1    2    0    0  0.24845704772E+02 -0.43082882190E+02 -0.59702347257E+02  0.77703372201E+02  0.00000000000E+00 0. -1.
         11    1    1    2    0    0 -0.13021484388E+01  0.28279976334E+02  0.72914216064E+01  0.29233841366E+02  0.00000000000E+00 0.  1.
</event>
<event>
 7    1  0.2612321E-009  0.1159047E+03  0.7561462E-02  0.1250010E+00
         -1   -1    0    0    0  501 -0.00000000000E+00  0.00000000000E+00  0.82577631927E+02  0.82577631927E+02  0.00000000000E+00 0.  1.
          1   -1    0    0  501    0  0.00000000000E+00 -0.00000000000E+00 -0.29676743485E+03  0.29676743485E+03  0.00000000000E+00 0. -1.
         25    2    1    2    0    0 -0.94271812571E+02  0.36168539696E+02 -0.56776472408E+02  0.17048892012E+03  0.12509023205E+03 0.  0.
          5    1    3    3  502    0 -0.83375780874E+02  0.28768038997E+02  0.21601340760E+02  0.90902206940E+02  0.41800000000E+01 0. -1.
         -5    1    3    3    0  502 -0.10896031698E+02  0.74005006992E+01 -0.78377813168E+02  0.79586713177E+02  0.41800000000E+01 0. -1.
        -11    1    1    2    0    0 -0.14660251255E+02 -0.97368222389E+01 -0.52327093689E+02  0.55207367336E+02  0.00000000000E+00 0. -1.
         11    1    1    2    0    0  0.10893206383E+03 -0.26431717457E+02 -0.10508623682E+03  0.15364877932E+03  0.00000000000E+00 0.  1.
</event>
<event>
 7    1  0.2754798E-009  0.3387825E+03  0.7561462E-02  0.1067316E+00
         -2   -1    0    0    0  501 -0.00000000000E+00  0.00000000000E+00  0.80423434143E+02  0.80423434143E+02  0.00000000000E+00 0.  1.
          2   -1    0    0  501    0  0.00000000000E+00 -0.00000000000E+00 -0.15852390305E+04  0.15852390305E+04  0.00000000000E+00 0. -1.
         25    2    1    2    0    0 -0.20194504125E+03  0.27116990679E+03 -0.68122682168E+03  0.77073461061E+03  0.12508772676E+03 0.  0.
          5    1    3    3  502    0 -0.97344271472E+02  0.14245191907E+03 -0.47908200798E+03  0.50922048192E+03  0.41800000000E+01 0. -1.
         -5    1    3    3    0  502 -0.10460076978E+03  0.12871798772E+03 -0.20214481369E+03  0.26151412869E+03  0.41800000000E+01 0. -1.
        -11    1    1    2    0    0  0.11539027483E+03 -0.13360656936E+03 -0.31619798710E+03  0.36214195828E+03  0.00000000000E+00 0.  1.
         11    1    1    2    0    0  0.86554766423E+02 -0.13756333743E+03 -0.50739078760E+03  0.53278589578E+03  0.00000000000E+00 0. -1.
</event>
<event>
 7    1  0.2612321E-009  0.2991385E+03  0.7561462E-02  0.1085672E+00
          1   -1    0    0  501    0  0.00000000000E+00  0.00000000000E+00  0.11181965211E+04  0.11181965211E+04  0.00000000000E+00 0. -1.
         -1   -1    0    0    0  501 -0.00000000000E+00 -0.00000000000E+00 -0.95810981963E+02  0.95810981963E+02  0.00000000000E+00 0.  1.
         25    2    1    2    0    0  0.27247501352E+03  0.77022808970E+02  0.29357546821E+03  0.42662514262E+03  0.12508921090E+03 0.  0.
          5    1    3    3  502    0  0.13473152132E+02  0.46347556418E+02  0.52508367247E+02  0.71443843998E+02  0.41800000000E+01 0. -1.
         -5    1    3    3    0  502  0.25900186139E+03  0.30675252552E+02  0.24106710097E+03  0.35518129862E+03  0.41800000000E+01 0. -1.
        -11    1    1    2    0    0 -0.14758805670E+03 -0.11714415293E+02  0.46894951560E+03  0.49176529990E+03  0.00000000000E+00 0.  1.
         11    1    1    2    0    0 -0.12488695682E+03 -0.65308393677E+02  0.25986055532E+03  0.29561706054E+03  0.00000000000E+00 0. -1.
</event>
<event>
 7    1  0.2612321E-009  0.8370450E+02  0.7561462E-02  0.1318856E+00
         -2   -1    0    0    0  501 -0.00000000000E+00  0.00000000000E+00  0.52806894616E+03  0.52806894616E+03  0.00000000000E+00 0.  1.
          2   -1    0    0  501    0  0.00000000000E+00 -0.00000000000E+00 -0.31260139816E+02  0.31260139816E+02  0.00000000000E+00 0. -1.
         25    2    1    2    0    0  0.26614132339E+02 -0.60318419255E+02  0.32045264194E+03  0.35026269491E+03  0.12508971171E+03 0.  0.
          5    1    3    3  502    0  0.60861580924E+01 -0.28533865040E+02  0.30915137811E+03  0.31055316737E+03  0.41800000000E+01 0. -1.
         -5    1    3    3    0  502  0.20527974246E+02 -0.31784554215E+02  0.11301263829E+02  0.39709527540E+02  0.41800000000E+01 0. -1.
        -11    1    1    2    0    0  0.96736625549E+01 -0.14085026668E+02  0.35445822887E+01  0.17450839151E+02  0.00000000000E+00 0. -1.
         11    1    1    2    0    0 -0.36287794894E+02  0.74403445923E+02  0.17281158212E+03  0.19161555192E+03  0.00000000000E+00 0.  1.
</event>
<event>
 7    1  0.2612321E-009  0.1089836E+03  0.7561462E-02  0.1262464E+00
          2   -1    0    0  501    0  0.00000000000E+00  0.00000000000E+00  0.72471376123E+03  0.72471376123E+03  0.00000000000E+00 0. -1.
         -2   -1    0    0    0  501 -0.00000000000E+00 -0.00000000000E+00 -0.28793939029E+02  0.28793939029E+02  0.00000000000E+00 0.  1.
         25    2    1    2    0    0  0.37995611671E+02  0.81602383887E+02  0.45083087954E+03  0.47644348002E+03  0.12508913679E+03 0.  0.
          5    1    3    3  502    0  0.16337912519E+02  0.15121311026E+02  0.26306110632E+01  0.22802937250E+02  0.41800000000E+01 0. -1.
         -5    1    3    3    0  502  0.21657699151E+02  0.66481072861E+02  0.44820026848E+03  0.45364054277E+03  0.41800000000E+01 0. -1.
        -11    1    1    2    0    0 -0.13869982895E+02 -0.96119638192E+02  0.15723533925E+03  0.18480885579E+03  0.00000000000E+00 0. -1.
         11    1    1    2    0    0 -0.24125628776E+02  0.14517254305E+02  0.87853603411E+02  0.92255364444E+02  0.00000000000E+00 0.  1.
</event>
<event>
 7    1  0.2612321E-009  0.1956484E+03  0.7561462E-02  0.1153463E+00
         -1   -1    0    0    0  501 -0.00000000000E+00  0.00000000000E+00  0.49039533503E+03  0.49039533503E+03  0.00000000000E+00 0.  1.
          1   -1    0    0  501    0  0.00000000000E+00 -0.00000000000E+00 -0.89356143967E+02  0.89356143967E+02  0.00000000000E+00 0. -1.
         25    2    1    2    0    0  0.92150666459E+02  0.13749548073E+03  0.11411394368E+03  0.23678089956E+03  0.12508576939E+03 0.  0.
          5    1    3    3  502    0 -0.24013193319E+02 -0.36217258440E+01  0.13592108070E+02  0.28141928741E+02  0.41800000000E+01 0.  1.
         -5    1    3    3    0  502  0.11616385978E+03  0.14111720658E+03  0.10052183561E+03  0.20863897082E+03  0.41800000000E+01 0.  1.
        -11    1    1    2    0    0 -0.94982830504E+02 -0.74357005991E+02  0.22012852549E+03  0.25101249005E+03  0.00000000000E+00 0.  1.
         11    1    1    2    0    0  0.28321640458E+01 -0.63138474743E+02  0.66796721896E+02  0.91958089378E+02  0.00000000000E+00 0. -1.
</event>
<event>
 7    1  0.2612321E-009  0.1132491E+03  0.7561462E-02  0.1254669E+00
          4   -1    0    0  501    0  0.00000000000E+00  0.00000000000E+00  0.11072291511E+03  0.11072291511E+03  0.00000000000E+00 0.  1.
         -4   -1    0    0    0  501 -0.00000000000E+00 -0.00000000000E+00 -0.25936351722E+03  0.25936351722E+03  0.00000000000E+00 0. -1.
         25    2    1    2    0    0  0.87551018852E+02  0.46218085790E+02 -0.17109052352E+03  0.23392759071E+03  0.12509539600E+03 0.  0.
          5    1    3    3  502    0  0.14555406869E+01  0.53315831959E+01 -0.12978063910E+03  0.12996549951E+03  0.41800000000E+01 0.  1.
         -5    1    3    3    0  502  0.86095478165E+02  0.40886502594E+02 -0.41309884415E+02  0.10396209119E+03  0.41800000000E+01 0.  1.
        -11    1    1    2    0    0 -0.87967407580E+02 -0.10665806284E+02  0.39153028102E+02  0.96876126211E+02  0.00000000000E+00 0.  1.
         11    1    1    2    0    0  0.41638872777E+00 -0.35552279506E+02 -0.16703106695E+02  0.39282715422E+02  0.00000000000E+00 0. -1.
</event>
<event>
 7    1  0.2612321E-009  0.1490879E+03  0.7561462E-02  0.1201598E+00
          3   -1    0    0  501    0  0.00000000000E+00  0.00000000000E+00  0.24070895103E+03  0.24070895103E+03  0.00000000000E+00 0. -1.
         -3   -1    0    0    0  501 -0.00000000000E+00 -0.00000000000E+00 -0.98601746793E+02  0.98601746793E+02  0.00000000000E+00 0.  1.
         25    2    1    2    0    0 -0.10508028102E+03 -0.29175829611E+02  0.83377146400E+02  0.18572116420E+03  0.12508999880E+03 0.  0.
          5    1    3    3  502    0 -0.54684436015E+02  0.45250798472E+02  0.59273243097E+02  0.92567878078E+02  0.41800000000E+01 0. -1.
         -5    1    3    3    0  502 -0.50395845006E+02 -0.74426628083E+02  0.24103903303E+02  0.93153286126E+02  0.41800000000E+01 0. -1.
        -11    1    1    2    0    0  0.62142723200E+02 -0.25843448624E+02  0.48717266716E+02  0.83084137835E+02  0.00000000000E+00 0. -1.
         11    1    1    2    0    0  0.42937557820E+02  0.55019278235E+02  0.10012791124E+02  0.70505395788E+02  0.00000000000E+00 0.  1.
</event>
<event>
 7    1  0.2612321E-009  0.2163220E+03  0.7561462E-02  0.1136655E+00
          2   -1    0    0  501    0  0.00000000000E+00  0.00000000000E+00  0.12722239183E+04  0.12722239183E+04  0.00000000000E+00 0. -1.
         -2   -1    0    0    0  501 -0.00000000000E+00 -0.00000000000E+00 -0.39227985155E+02  0.39227985155E+02  0.00000000000E+00 0.  1.
         25    2    1    2    0    0 -0.37293791421E+02 -0.18470149927E+03  0.77103246091E+03  0.80351933298E+03  0.12508713760E+03 0.  0.
          5    1    3    3  502    0 -0.78879570177E+02 -0.15778017723E+03  0.59932529306E+03  0.62475983403E+03  0.41800000000E+01 0.  1.
         -5    1    3    3    0  502  0.41585778756E+02 -0.26921322043E+02  0.17170716785E+03  0.17875949895E+03  0.41800000000E+01 0.  1.
        -11    1    1    2    0    0  0.14209259355E+01  0.16603556277E+03  0.32263351041E+03  0.36285287538E+03  0.00000000000E+00 0.  1.
         11    1    1    2    0    0  0.35872865485E+02  0.18665936500E+02  0.13932996185E+03  0.14507969510E+03  0.00000000000E+00 0. -1.
</event>
<event>
 7    1  0.2612321E-009  0.1428841E+03  0.7561462E-02  0.1209500E+00
          1   -1    0    0  501    0  0.00000000000E+00  0.00000000000E+00  0.12646210984E+03  0.12646210984E+03  0.00000000000E+00 0. -1.
         -1   -1    0    0    0  501 -0.00000000000E+00 -0.00000000000E+00 -0.24140157947E+03  0.24140157947E+03  0.00000000000E+00 0.  1.
         25    2    1    2    0    0 -0.10661874604E+03  0.86027896875E+02 -0.67968256999E+02  0.19757309711E+03  0.12508832357E+03 0.  0.
          5    1    3    3  502    0 -0.85306062836E+02  0.34519528238E+02 -0.97680548201E+02  0.13426721150E+03  0.41800000000E+01 0.  1.
         -5    1    3    3    0  502 -0.21312683204E+02  0.51508368637E+02  0.29712291201E+02  0.63305885615E+02  0.41800000000E+01 0.  1.
        -11    1    1    2    0    0  0.60351286154E+02 -0.57705617524E+02  0.18236440688E+02  0.85468027959E+02  0.00000000000E+00 0. -1.
         11    1    1    2    0    0  0.46267459886E+02 -0.28322279351E+02 -0.65207653317E+02  0.84822564232E+02  0.00000000000E+00 0.  1.
</event>
<event>
 7    1  0.2612321E-009  0.1008603E+03  0.7561462E-02  0.1278497E+00
          1   -1    0    0  501    0  0.00000000000E+00  0.00000000000E+00  0.62070247450E+03  0.62070247450E+03  0.00000000000E+00 0. -1.
         -1   -1    0    0    0  501 -0.00000000000E+00 -0.00000000000E+00 -0.26255239548E+02  0.26255239548E+02  0.00000000000E+00 0.  1.
         25    2    1    2    0    0  0.23500216136E+02 -0.45963220746E-01  0.51074616067E+03  0.52636640854E+03  0.12509073959E+03 0.  0.
          5    1    3    3  502    0 -0.11360874459E+02  0.57737143987E+02  0.21120979061E+03  0.21929362807E+03  0.41800000000E+01 0.  1.
         -5    1    3    3    0  502  0.34861090595E+02 -0.57783107208E+02  0.29953637006E+03  0.30707278047E+03  0.41800000000E+01 0.  1.
        -11    1    1    2    0    0  0.21832088326E+02  0.15988079931E+02  0.37619043811E+01  0.27320518024E+02  0.00000000000E+00 0.  1.
         11    1    1    2    0    0 -0.45332304461E+02 -0.15942116710E+02  0.79939169900E+02  0.93270787481E+02  0.00000000000E+00 0. -1.
</event>
<event>
 7    1  0.2612321E-009  0.9527559E+02  0.7561462E-02  0.1290557E+00
         -3   -1    0    0    0  501 -0.00000000000E+00  0.00000000000E+00  0.87152694552E+03  0.87152694552E+03  0.00000000000E+00 0.  1.
          3   -1    0    0  501    0  0.00000000000E+00 -0.00000000000E+00 -0.21392752972E+02  0.21392752972E+02  0.00000000000E+00 0. -1.
         25    2    1    2    0    0 -0.60686978539E+01  0.44568377187E+02  0.67848319513E+03  0.69138024687E+03  0.12507609823E+03 0.  0.
          5    1    3    3  502    0  0.42208547072E+02  0.14632226366E+02  0.53686597749E+03  0.53873761116E+03  0.41800000000E+01 0.  1.
         -5    1    3    3    0  502 -0.48277244925E+02  0.29936150821E+02  0.14161721764E+03  0.15264263571E+03  0.41800000000E+01 0.  1.
        -11    1    1    2    0    0  0.41388302454E+02 -0.24758582226E+02  0.36588669935E+02  0.60536846148E+02  0.00000000000E+00 0. -1.
         11    1    1    2    0    0 -0.35319604600E+02 -0.19809794960E+02  0.13506232748E+03  0.14100260547E+03  0.00000000000E+00 0.  1.
</event>
<event>
 7    1  0.2612321E-009  0.1090752E+03  0.7561462E-02  0.1262292E+00
         -2   -1    0    0    0  501 -0.00000000000E+00  0.00000000000E+00  0.97895632697E+01  0.97895632697E+01  0.00000000000E+00 0. -1.
          2   -1    0    0  501    0  0.00000000000E+00 -0.00000000000E+00 -0.16152288037E+04  0.16152288037E+04  0.00000000000E+00 0.  1.
         25    2    1    2    0    0 -0.58080291031E+02  0.10750891004E+02 -0.10189991428E+04  0.10283461053E+04  0.12509019705E+03 0.  0.
          5    1    3    3  502    0 -0.22185833020E+02 -0.40004159569E+02 -0.14439158615E+03  0.15152209912E+03  0.41800000000E+01 0. -1.
         -5    1    3    3    0  502 -0.35894458011E+02  0.50755050573E+02 -0.87460755665E+03  0.87682400619E+03  0.41800000000E+01 0. -1.
        -11    1    1    2    0    0  0.79304803506E+02 -0.26352112380E+02 -0.45728319292E+03  0.46485654154E+03  0.00000000000E+00 0. -1.
         11    1    1    2    0    0 -0.21224512475E+02  0.15601221376E+02 -0.12915690469E+03  0.13181572010E+03  0.00000000000E+00 0.  1.
</event>
<event>
 7    1  0.2612321E-009  0.9285200E+02  0.7561462E-02  0.1296089E+00
         -1   -1    0    0    0  501 -0.00000000000E+00  0.00000000000E+00  0.28171052271E+02  0.28171052271E+02  0.00000000000E+00 0.  1.
          1   -1    0    0  501    0  0.00000000000E+00 -0.00000000000E+00 -0.44347053668E+03  0.44347053668E+03  0.00000000000E+00 0. -1.
         25    2    1    2    0    0  0.13735990894E+02  0.22579066041E+02 -0.25900891616E+03  0.28884449456E+03  0.12508809583E+03 0.  0.
          5    1    3    3  502    0 -0.31721330460E+02 -0.11457700512E+02 -0.13089405833E+02  0.36418767857E+02  0.41800000000E+01 0.  1.
         -5    1    3    3    0  502  0.45457321353E+02  0.34036766554E+02 -0.24591951032E+03  0.25242572670E+03  0.41800000000E+01 0.  1.
        -11    1    1    2    0    0 -0.45013227948E+02  0.13532784314E+02 -0.79732619229E+02  0.92556023633E+02  0.00000000000E+00 0.  1.
         11    1    1    2    0    0  0.31277237054E+02 -0.36111850355E+02 -0.76557949026E+02  0.90241070766E+02  0.00000000000E+00 0. -1.
</event>
<event>
 7    1  0.2612321E-009  0.9730849E+02  0.7561462E-02  0.1286060E+00
         -2   -1    0    0    0  501 -0.00000000000E+00  0.00000000000E+00  0.16175144309E+03  0.16175144309E+03  0.00000000000E+00 0.  1.
          2   -1    0    0  501    0  0.00000000000E+00 -0.00000000000E+00 -0.14092920070E+03  0.14092920070E+03  0.00000000000E+00 0. -1.
         25    2    1    2    0    0 -0.93047494714E+01 -0.19615883934E+02  0.11472794257E+03  0.17111840211E+03  0.12509054908E+03 0.  0.
          5    1    3    3  502    0  0.30411441631E+02  0.27258116486E+02  0.16375314197E+00  0.41053135222E+02  0.41800000000E+01 0.  1.
         -5    1    3    3    0  502 -0.39716191102E+02 -0.46874000421E+02  0.11456418943E+03  0.13006526689E+03  0.41800000000E+01 0.  1.
        -11    1    1    2    0    0 -0.10233178346E+02 -0.33690669919E+02 -0.39730492315E+02  0.53087580452E+02  0.00000000000E+00 0.  1.
         11    1    1    2    0    0  0.19537927818E+02  0.53306553853E+02 -0.54175207869E+02  0.78474661227E+02  0.00000000000E+00 0. -1.
</event>
<event>
 7    1  0.2612321E-009  0.1173073E+03  0.7561462E-02  0.1247606E+00
         -2   -1    0    0    0  501 -0.00000000000E+00  0.00000000000E+00  0.90728023281E+02  0.90728023281E+02  0.00000000000E+00 0.  1.
          2   -1    0    0  501    0  0.00000000000E+00 -0.00000000000E+00 -0.20540251614E+03  0.20540251614E+03  0.00000000000E+00 0. -1.
         25    2    1    2    0    0 -0.21640682042E+02 -0.56882011916E+02 -0.36315121093E+01  0.13915582728E+03  0.12508906421E+03 0.  0.
          5    1    3    3  502    0 -0.64986658073E+02 -0.67432028774E+02 -0.82812185558E+01  0.94108422646E+02  0.41800000000E+01 0.  1.
         -5    1    3    3    0  502  0.43345976031E+02  0.10550016858E+02  0.46497064465E+01  0.45047404629E+02  0.41800000000E+01 0.  1.
        -11    1    1    2    0    0  0.19764352759E+02  0.75147387999E+02 -0.48048365390E+02  0.91358661219E+02  0.00000000000E+00 0.  1.
         11    1    1    2    0    0  0.18763292832E+01 -0.18265376083E+02 -0.62994615363E+02  0.65616050930E+02  0.00000000000E+00 0. -1.
</event>
<event>
 7    1  0.2612321E-009  0.1131121E+03  0.7561462E-02  0.1254913E+00
          1   -1    0    0  501    0  0.00000000000E+00  0.00000000000E+00  0.16381889256E+03  0.16381889256E+03  0.00000000000E+00 0. -1.
         -1   -1    0    0    0  501 -0.00000000000E+00 -0.00000000000E+00 -0.12605948542E+03  0.12605948542E+03  0.00000000000E+00 0.  1.
         25    2    1    2    0    0 -0.82375282822E+02  0.33196931249E+01  0.68461368376E+02  0.16471487177E+03  0.12508925789E+03 0.  0.
          5    1    3    3  502    0  0.19816209419E+02 -0.22654827198E+02  0.48630612429E+02  0.57343981518E+02  0.41800000000E+01 0. -1.
         -5    1    3    3    0  502 -0.10219149224E+03  0.25974520323E+02  0.19830755947E+02  0.10737089025E+03  0.41800000000E+01 0. -1.
        -11    1    1    2    0    0  0.18755577788E+02  0.15102093028E+02  0.27810119402E+02  0.36786514555E+02  0.00000000000E+00 0. -1.
         11    1    1    2    0    0  0.63619705035E+02 -0.18421786153E+02 -0.58512080637E+02  0.88376991657E+02  0.00000000000E+00 0.  1.
</event>
<event>
 7    1  0.2612321E-009  0.1292568E+03  0.7561462E-02  0.1228563E+00
         -3   -1    0    0    0  501 -0.00000000000E+00  0.00000000000E+00  0.25106952824E+02  0.25106952824E+02  0.00000000000E+00 0.  1.
          3   -1    0    0  501    0  0.00000000000E+00 -0.00000000000E+00 -0.80655890611E+03  0.80655890611E+03  0.00000000000E+00 0. -1.
         25    2    1    2    0    0  0.42032178611E+02  0.62952094223E+02 -0.53853167317E+03  0.55803215823E+03  0.12511537241E+03 0.  0.
          5    1    3    3  502    0  0.73438342895E+02  0.81155683452E+02 -0.41484222946E+03  0.42905825118E+03  0.41800000000E+01 0.  1.
         -5    1    3    3    0  502 -0.31406164284E+02 -0.18203589229E+02 -0.12368944371E+03  0.12897390705E+03  0.41800000000E+01 0.  1.
        -11    1    1    2    0    0 -0.12363820089E+02  0.20463339716E+02 -0.12907201806E+02  0.27169986713E+02  0.00000000000E+00 0.  1.
         11    1    1    2    0    0 -0.29668358522E+02 -0.83415433939E+02 -0.23001307831E+03  0.24646371398E+03  0.00000000000E+00 0. -1.
</event>
<event>
 7    1  0.2612321E-009  0.1275162E+03  0.7561462E-02  0.1231189E+00
         -2   -1    0    0    0  501 -0.00000000000E+00  0.00000000000E+00  0.53411742103E+03  0.53411742103E+03  0.00000000000E+00 0.  1.
          2   -1    0    0  501    0  0.00000000000E+00 -0.00000000000E+00 -0.43034917759E+02  0.43034917759E+02  0.00000000000E+00 0. -1.
         25    2    1    2    0    0 -0.27786746906E+02 -0.95111539667E+02  0.33292833451E+03  0.36919849188E+03  0.12509173516E+03 0.  0.
          5    1    3    3  502    0 -0.66311603880E+02 -0.38887493103E+02  0.98437045007E+02  0.12496715632E+03  0.41800000000E+01 0. -1.
         -5    1    3    3    0  502  0.38524856974E+02 -0.56224046564E+02  0.23449128951E+03  0.24423133556E+03  0.41800000000E+01 0. -1.
        -11    1    1    2    0    0  0.52031751092E+01  0.84757764098E+02  0.16191041757E+03  0.18282760985E+03  0.00000000000E+00 0.  1.
         11    1    1    2    0    0  0.22583571797E+02  0.10353775569E+02 -0.37562488074E+01  0.25126237059E+02  0.00000000000E+00 0. -1.
</event>
<event>
 7    1  0.2612321E-009  0.1260825E+03  0.7561462E-02  0.1233387E+00
          1   -1    0    0  501    0  0.00000000000E+00  0.00000000000E+00  0.17088271166E+03  0.17088271166E+03  0.00000000000E+00 0. -1.
         -1   -1    0    0    0  501 -0.00000000000E+00 -0.00000000000E+00 -0.13117153803E+03  0.13117153803E+03  0.00000000000E+00 0.  1.
         25    2    1    2    0    0  0.86567375477E+02  0.44568671208E+02 -0.11733700873E+02  0.15894928512E+03  0.12508764349E+03 0.  0.
          5    1    3    3  502    0  0.11017672670E+03  0.26663292501E+02 -0.37487883047E+02  0.11946822192E+03  0.41800000000E+01 0.  1.
         -5    1    3    3    0  502 -0.23609351223E+02  0.17905378707E+02  0.25754182174E+02  0.39481063198E+02  0.41800000000E+01 0.  1.
        -11    1    1    2    0    0  0.49372635164E+01 -0.96980656501E+01 -0.19398166478E+02  0.22242255081E+02  0.00000000000E+00 0.  1.
         11    1    1    2    0    0 -0.91504638994E+02 -0.34870605558E+02  0.70843040987E+02  0.12086270949E+03  0.00000000000E+00 0. -1.
</event>
<event>
 7    1  0.2612321E-009  0.1093595E+03  0.7561462E-02  0.1261761E+00
          2   -1    0    0  501    0  0.00000000000E+00  0.00000000000E+00  0.13360887860E+03  0.13360887860E+03  0.00000000000E+00 0. -1.
         -2   -1    0    0    0  501 -0.00000000000E+00 -0.00000000000E+00 -0.21853694242E+03  0.21853694242E+03  0.00000000000E+00 0.  1.
         25    2    1    2    0    0 -0.59933779355E+02  0.31012556377E+02  0.71717192383E+02  0.15919950708E+03  0.12508913146E+03 0.  0.
          5    1    3    3  502    0 -0.35916875935E+02  0.79310675439E+02  0.35624714700E+02  0.94163676186E+02  0.41800000000E+01 0.  1.
         -5    1    3    3    0  502 -0.24016903420E+02 -0.48298119062E+02  0.36092477683E+02  0.65035830894E+02  0.41800000000E+01 0.  1.
        -11    1    1    2    0    0  0.33873363550E+02  0.36686349105E+01 -0.14368665784E+03  0.14767098321E+03  0.00000000000E+00 0.  1.
         11    1    1    2    0    0  0.26060415805E+02 -0.34681191287E+02 -0.12958598353E+02  0.45275330726E+02  0.00000000000E+00 0. -1.
</event>
<event>
 7    1  0.2612321E-009  0.8930193E+02  0.7561462E-02  0.1304551E+00
         -4   -1    0    0    0  501 -0.00000000000E+00  0.00000000000E+00  0.32964435377E+03  0.32964435377E+03  0.00000000000E+00 0.  1.
          4   -1    0    0  501    0  0.00000000000E+00 -0.00000000000E+00 -0.52012369297E+02  0.52012369297E+02  0.00000000000E+00 0. -1.
         25    2    1    2    0    0 -0.10958562136E+01 -0.45508297059E+02  0.70452588523E+02  0.15060951549E+03  0.12508977946E+03 0.  0.
          5    1    3    3  502    0  0.44776787153E+02 -0.53161859793E+02  0.44690626080E+01  0.69775274453E+02  0.41800000000E+01 0.  1.
         -5    1    3    3    0  502 -0.45872643367E+02  0.76535627338E+01  0.65983525915E+02  0.80834241038E+02  0.41800000000E+01 0.  1.
        -11    1    1    2    0    0  0.17648038886E+02  0.41717628535E+02  0.20910751905E+03  0.21395739840E+03  0.00000000000E+00 0.  1.
         11    1    1    2    0    0 -0.16552182673E+02  0.37906685234E+01 -0.19281230981E+01  0.17089809179E+02  0.00000000000E+00 0. -1.
</event>
<event>
 7    1  0.2612321E-009  0.1491919E+03  0.7561462E-02  0.1201469E+00
         -2   -1    0    0    0  501 -0.00000000000E+00  0.00000000000E+00  0.14185786764E+03  0.14185786764E+03  0.00000000000E+00 0. -1.
          2   -1    0    0  501    0  0.00000000000E+00 -0.00000000000E+00 -0.18123431774E+03  0.18123431774E+03  0.00000000000E+00 0.  1.
         25    2    1    2    0    0  0.51857408748E+02 -0.94975316715E+02  0.19812983864E+02  0.16658186953E+03  0.12508982093E+03 0.  0.
          5    1    3    3  502    0  0.82354611685E+02 -0.93785137869E+02 -0.79194516658E+01  0.12513242691E+03  0.41800000000E+01 0. -1.
         -5    1    3    3    0  502 -0.30497202937E+02 -0.11901788460E+01  0.27732435530E+02  0.41449442615E+02  0.41800000000E+01 0. -1.
        -11    1    1    2    0    0  0.53419398449E+01  0.84350116468E+02 -0.21566541744E+02  0.87227256017E+02  0.00000000000E+00 0.  1.
         11    1    1    2    0    0 -0.57199348593E+02  0.10625200247E+02 -0.37622892221E+02  0.69283059826E+02  0.00000000000E+00 0. -1.
</event>
<event>
 7    1  0.2612321E-009  0.7287762E+02  0.7561462E-02  0.1350572E+00
         -2   -1    0    0    0  501 -0.00000000000E+00  0.00000000000E+00  0.44928039737E+02  0.44928039737E+02  0.00000000000E+00 0.  1.
          2   -1    0    0  501    0  0.00000000000E+00 -0.00000000000E+00 -0.35236573925E+03  0.35236573925E+03  0.00000000000E+00 0. -1.
         25    2    1    2    0    0  0.12954596573E+02  0.27113217389E+02 -0.26007929832E+03  0.29015757421E+03  0.12508888170E+03 0.  0.
          5    1    3    3  502    0 -0.13482164019E+02  0.16352497894E+02  0.60786213125E+01  0.22440921797E+02  0.41800000000E+01 0. -1.
         -5    1    3    3    0  502  0.26436760592E+02  0.10760719495E+02 -0.26615791963E+03  0.26771665241E+03  0.41800000000E+01 0. -1.
        -11    1    1    2    0    0  0.37474132904E+02 -0.24574953641E+02 -0.29154506270E+02  0.53462362641E+02  0.00000000000E+00 0. -1.
         11    1    1    2    0    0 -0.50428729476E+02 -0.25382637486E+01 -0.18203894921E+02  0.53673842137E+02  0.00000000000E+00 0.  1.
</event>
<event>
 7    1  0.2612321E-009  0.1017860E+03  0.7561462E-02  0.1276584E+00
          1   -1    0    0  501    0  0.00000000000E+00  0.00000000000E+00  0.61889095102E+03  0.61889095102E+03  0.00000000000E+00 0. -1.
         -1   -1    0    0    0  501 -0.00000000000E+00 -0.00000000000E+00 -0.20063041241E+02  0.20063041241E+02  0.00000000000E+00 0.  1.
         25    2    1    2    0    0  0.22658209883E+02  0.10193616531E+02  0.30209118680E+03  0.32790903556E+03  0.12509175098E+03 0.  0.
          5    1    3    3  502    0 -0.24956639368E+02  0.46225751251E+02  0.22053514085E+03  0.22674407308E+03  0.41800000000E+01 0.  1.
         -5    1    3    3    0  502  0.47614849251E+02 -0.36032134721E+02  0.81556045956E+02  0.10116496248E+03  0.41800000000E+01 0.  1.
        -11    1    1    2    0    0  0.33842381300E+02 -0.58941304285E+01  0.80836858874E+02  0.87833053563E+02  0.00000000000E+00 0.  1.
         11    1    1    2    0    0 -0.56500591183E+02 -0.42994861024E+01  0.21589986411E+03  0.22321190315E+03  0.00000000000E+00 0. -1.
</event>
<event>
 7    1  0.2612321E-009  0.6853642E+02  0.7561462E-02  0.1365142E+00
          1   -1    0    0  501    0  0.00000000000E+00  0.00000000000E+00  0.81631645693E+02  0.81631645693E+02  0.00000000000E+00 0. -1.
         -1   -1    0    0    0  501 -0.00000000000E+00 -0.00000000000E+00 -0.17674936308E+03  0.17674936308E+03  0.00000000000E+00 0.  1.
         25    2    1    2    0    0 -0.47796866175E+02  0.39956735192E+00 -0.35978612088E+02  0.13866095895E+03  0.12509077080E+03 0.  0.
          5    1    3    3  502    0 -0.29036520871E+02  0.36131351274E+02 -0.71113460350E+02  0.84989356582E+02  0.41800000000E+01 0. -1.
         -5    1    3    3    0  502 -0.18760345304E+02 -0.35731783922E+02  0.35134848262E+02  0.53671602367E+02  0.41800000000E+01 0. -1.
        -11    1    1    2    0    0  0.11739062978E+02  0.62402420258E+01 -0.77558195677E+02  0.78689388973E+02  0.00000000000E+00 0.  1.
         11    1    1    2    0    0  0.36057803198E+02 -0.66398093777E+01  0.18419090374E+02  0.41030660855E+02  0.00000000000E+00 0. -1.
</event>
<event>
 7    1  0.2612321E-009  0.1655962E+03  0.7561462E-02  0.1182520E+00
         -2   -1    0    0    0  501 -0.00000000000E+00  0.00000000000E+00  0.59464627651E+02  0.59464627651E+02  0.00000000000E+00 0.  1.
          2   -1    0    0  501    0  0.00000000000E+00 -0.00000000000E+00 -0.49476218464E+03  0.49476218464E+03  0.00000000000E+00 0. -1.
         25    2    1    2    0    0 -0.91006023800E+02 -0.94464613032E+02 -0.18945389867E+03  0.26219639220E+03  0.12509400017E+03 0.  0.
          5    1    3    3  502    0 -0.34458869617E+02  0.28968813189E+02 -0.52908404592E+02  0.69594378432E+02  0.41800000000E+01 0. -1.
         -5    1    3    3    0  502 -0.56547154182E+02 -0.12343342622E+03 -0.13654549408E+03  0.19260201377E+03  0.41800000000E+01 0. -1.
        -11    1    1    2    0    0  0.43940053324E+02  0.93228866712E+02 -0.12299433247E+03  0.16046792731E+03  0.00000000000E+00 0.  1.
         11    1    1    2    0    0  0.47065970476E+02  0.12357463194E+01 -0.12284932585E+03  0.13156249279E+03  0.00000000000E+00 0. -1.
</event>
<event>
 7    1  0.2612321E-009  0.8424476E+02  0.7561462E-02  0.1317419E+00
         -1   -1    0    0    0  501 -0.00000000000E+00  0.00000000000E+00  0.47690251077E+02  0.47690251077E+02  0.00000000000E+00 0.  1.
          1   -1    0    0  501    0  0.00000000000E+00 -0.00000000000E+00 -0.39970768013E+03  0.39970768013E+03  0.00000000000E+00 0. -1.
         25    2    1    2    0    0 -0.20516076837E+02  0.32175144722E+02 -0.31578287379E+03  0.34178509712E+03  0.12506830090E+03 0.  0.
          5    1    3    3  502    0  0.23620149134E+01 -0.32334368713E+02 -0.22830452697E+03  0.23063286832E+03  0.41800000000E+01 0.  1.
         -5    1    3    3    0  502 -0.22878091751E+02  0.64509513435E+02 -0.87478346818E+02  0.11115222880E+03  0.41800000000E+01 0.  1.
        -11    1    1    2    0    0  0.36475142379E+01  0.15881868325E+02 -0.50218687715E+02  0.52796351175E+02  0.00000000000E+00 0. -1.
         11    1    1    2    0    0  0.16868562599E+02 -0.48057013047E+02  0.13984132445E+02  0.52816482914E+02  0.00000000000E+00 0.  1.
</event>
<event>
 7    1  0.2612321E-009  0.1026123E+03  0.7561462E-02  0.1274897E+00
          3   -1    0    0  501    0  0.00000000000E+00  0.00000000000E+00  0.32491667110E+03  0.32491667110E+03  0.00000000000E+00 0. -1.
         -3   -1    0    0    0  501 -0.00000000000E+00 -0.00000000000E+00 -0.38483610735E+02  0.38483610735E+02  0.00000000000E+00 0.  1.
         25    2    1    2    0    0  0.20400005592E+02  0.87771498330E+01  0.14587381758E+03  0.19344358486E+03  0.12509217114E+03 0.  0.
          5    1    3    3  502    0 -0.28489971876E+02 -0.36543094700E+02  0.19385380026E+02  0.50401801818E+02  0.41800000000E+01 0. -1.
         -5    1    3    3    0  502  0.48889977468E+02  0.45320244534E+02  0.12648843755E+03  0.14304178304E+03  0.41800000000E+01 0. -1.
        -11    1    1    2    0    0 -0.44931918429E+02 -0.34281780358E+02  0.10788155054E+03  0.12178894328E+03  0.00000000000E+00 0.  1.
         11    1    1    2    0    0  0.24531912837E+02  0.25504630525E+02  0.32677692257E+02  0.48167753704E+02  0.00000000000E+00 0. -1.
</event>
<event>
 7    1  0.2612321E-009  0.6574160E+02  0.7561462E-02  0.1375203E+00
          2   -1    0    0  501    0  0.00000000000E+00  0.00000000000E+00  0.25377692082E+03  0.25377692082E+03  0.00000000000E+00 0. -1.
         -2   -1    0    0    0  501 -0.00000000000E+00 -0.00000000000E+00 -0.53458737255E+02  0.53458737255E+02  0.00000000000E+00 0.  1.
         25    2    1    2    0    0  0.40975328853E+02  0.49721605843E+00  0.97165693433E+02  0.16360828699E+03  0.12508906744E+03 0.  0.
          5    1    3    3  502    0  0.39774705671E+02  0.16391937278E+02  0.12444529822E+03  0.13173772227E+03  0.41800000000E+01 0. -1.
         -5    1    3    3    0  502  0.12006231820E+01 -0.15894721220E+02 -0.27279604786E+02  0.31870564726E+02  0.41800000000E+01 0. -1.
        -11    1    1    2    0    0 -0.25817715894E+02  0.28871919554E+02  0.10356950095E+03  0.11057478790E+03  0.00000000000E+00 0. -1.
         11    1    1    2    0    0 -0.15157612959E+02 -0.29369135613E+02 -0.41701081327E+00  0.33052583186E+02  0.00000000000E+00 0.  1.
</event>
<event>
 7    1  0.2612321E-009  0.1338303E+03  0.7561462E-02  0.1221880E+00
          2   -1    0    0  501    0  0.00000000000E+00  0.00000000000E+00  0.11575748858E+03  0.11575748858E+03  0.00000000000E+00 0. -1.
         -2   -1    0    0    0  501 -0.00000000000E+00 -0.00000000000E+00 -0.19097322850E+03  0.19097322850E+03  0.00000000000E+00 0.  1.
         25    2    1    2    0    0  0.65845544611E+02 -0.78913908987E+02 -0.33219476102E+02  0.16526955267E+03  0.12508977045E+03 0.  0.
          5    1    3    3  502    0  0.47165686008E+02 -0.10297526748E+03 -0.56558407894E+02  0.12666820261E+03  0.41800000000E+01 0.  1.
         -5    1    3    3    0  502  0.18679858602E+02  0.24061358489E+02  0.23338931792E+02  0.38601350066E+02  0.41800000000E+01 0.  1.
        -11    1    1    2    0    0 -0.51084562133E+02  0.91091528056E+02 -0.55280644905E+02  0.11816619090E+03  0.00000000000E+00 0.  1.
         11    1    1    2    0    0 -0.14760982478E+02 -0.12177619070E+02  0.13284381087E+02  0.23294973509E+02  0.00000000000E+00 0. -1.
</event>
<event>
 7    1  0.2612321E-009  0.9339290E+02  0.7561462E-02  0.1294837E+00
          1   -1    0    0  501    0  0.00000000000E+00  0.00000000000E+00  0.49820127578E+02  0.49820127578E+02  0.00000000000E+00 0. -1.
         -1   -1    0    0    0  501 -0.00000000000E+00 -0.00000000000E+00 -0.27498486059E+03  0.27498486059E+03  0.00000000000E+00 0.  1.
         25    2    1    2    0    0 -0.30025962077E+02  0.27895137361E+01 -0.15808439300E+03  0.20381507546E+03  0.12506226405E+03 0.  0.
          5    1    3    3  502    0 -0.30867483935E+02  0.55372817470E+02 -0.41599251165E+02  0.75940243458E+02  0.41800000000E+01 0.  1.
         -5    1    3    3    0  502  0.84152185818E+00 -0.52583303734E+02 -0.11648514184E+03  0.12787483200E+03  0.41800000000E+01 0.  1.
        -11    1    1    2    0    0 -0.19287353071E+02 -0.80583182926E+01 -0.68252920029E+02  0.71382067599E+02  0.00000000000E+00 0.  1.
         11    1    1    2    0    0  0.49313315147E+02  0.52688045565E+01  0.11725800211E+01  0.49607845107E+02  0.00000000000E+00 0. -1.
</event>
<event>
 7    1  0.2612321E-009  0.1217647E+03  0.7561462E-02  0.1240214E+00
          2   -1    0    0  501    0  0.00000000000E+00  0.00000000000E+00  0.38370828315E+03  0.38370828315E+03  0.00000000000E+00 0. -1.
         -2   -1    0    0    0  501 -0.00000000000E+00 -0.00000000000E+00 -0.61036689689E+02  0.61036689689E+02  0.00000000000E+00 0.  1.
         25    2    1    2    0    0  0.19257948509E+02 -0.63182742890E+02  0.29528891128E+03  0.32742364552E+03  0.12509106659E+03 0.  0.
          5    1    3    3  502    0  0.65303459269E+02 -0.49102022518E+02  0.11745317709E+03  0.14313724748E+03  0.41800000000E+01 0.  1.
         -5    1    3    3    0  502 -0.46045510760E+02 -0.14080720372E+02  0.17783573419E+03  0.18428639804E+03  0.41800000000E+01 0.  1.
        -11    1    1    2    0    0  0.21635483034E+02 -0.14189043968E+02  0.90220179175E+00  0.25888937076E+02  0.00000000000E+00 0.  1.
         11    1    1    2    0    0 -0.40893431543E+02  0.77371786858E+02  0.26480480398E+02  0.91432390251E+02  0.00000000000E+00 0. -1.
</event>
<event>
 7    1  0.2669964E-009  0.9019058E+02  0.7561462E-02  0.1302391E+00
          1   -1    0    0  501    0  0.00000000000E+00  0.00000000000E+00  0.16919528103E+03  0.16919528103E+03  0.00000000000E+00 0. -1.
         -1   -1    0    0    0  501 -0.00000000000E+00 -0.00000000000E+00 -0.10785046674E+03  0.10785046674E+03  0.00000000000E+00 0.  1.
         25    2    1    2    0    0 -0.62146151855E+01 -0.60116268725E+02 -0.19876856655E+02  0.14033989005E+03  0.12509039972E+03 0.  0.
          5    1    3    3  502    0 -0.45698125555E+02 -0.42773882459E+02 -0.55876305307E+02  0.84009270885E+02  0.41800000000E+01 0. -1.
         -5    1    3    3    0  502  0.39483510370E+02 -0.17342386266E+02  0.35999448652E+02  0.56330619167E+02  0.41800000000E+01 0. -1.
        -11    1    1    2    0    0 -0.18481597610E+02  0.20159115703E+02 -0.13855251637E+02  0.30658235339E+02  0.00000000000E+00 0.  1.
         11    1    1    2    0    0  0.24696212795E+02  0.39957153022E+02  0.95076922585E+02  0.10604762238E+03  0.00000000000E+00 0. -1.
</event>
<event>
 7    1  0.2682042E-009  0.8770795E+02  0.7561462E-02  0.1308499E+00
         -1   -1    0    0    0  501 -0.00000000000E+00  0.00000000000E+00  0.25149170023E+02  0.25149170023E+02  0.00000000000E+00 0.  1.
          1   -1    0    0  501    0  0.00000000000E+00 -0.00000000000E+00 -0.54983931492E+03  0.54983931492E+03  0.00000000000E+00 0. -1.
         25    2    1    2    0    0  0.12469843816E+02  0.43062994892E+02 -0.29445272175E+03  0.32304713027E+03  0.12508846668E+03 0.  0.
          5    1    3    3  502    0  0.38158398324E+02  0.24218943194E+02 -0.25260691020E+02  0.51944157351E+02  0.41800000000E+01 0.  1.
         -5    1    3    3    0  502 -0.25688554508E+02  0.18844051698E+02 -0.26919203073E+03  0.27110297292E+03  0.41800000000E+01 0.  1.
        -11    1    1    2    0    0 -0.33702348600E+02 -0.61268773220E+02 -0.12695509909E+03  0.14493898046E+03  0.00000000000E+00 0.  1.
         11    1    1    2    0    0  0.21232504783E+02  0.18205778328E+02 -0.10328232406E+03  0.10700237421E+03  0.00000000000E+00 0. -1.
</event>
<event>
 7    1  0.2612321E-009  0.1219890E+03  0.7561462E-02  0.1239851E+00
          1   -1    0    0  501    0  0.00000000000E+00  0.00000000000E+00  0.12073869097E+03  0.12073869097E+03  0.00000000000E+00 0. -1.
         -1   -1    0    0    0  501 -0.00000000000E+00 -0.00000000000E+00 -0.19819047848E+03  0.19819047848E+03  0.00000000000E+00 0.  1.
         25    2    1    2    0    0 -0.71805933950E+02 -0.45477445327E+02  0.28631054810E+02  0.15392385938E+03  0.12509407261E+03 0.  0.
          5    1    3    3  502    0 -0.79064286731E+02 -0.66432263049E+02 -0.15354138815E+02  0.10448745852E+03  0.41800000000E+01 0.  1.
         -5    1    3    3    0  502  0.72583527816E+01  0.20954817722E+02  0.43985193625E+02  0.49436400851E+02  0.41800000000E+01 0.  1.
        -11    1    1    2    0    0 -0.18260146154E+02  0.31040674433E+01 -0.43886534503E+02  0.47635029998E+02  0.00000000000E+00 0.  1.
         11    1    1    2    0    0  0.90066080103E+02  0.42373377884E+02 -0.62196307816E+02  0.11737028007E+03  0.00000000000E+00 0. -1.
</event>
<event>
 7    1  0.2612321E-009  0.1035626E+03  0.7561462E-02  0.1272978E+00
         -2   -1    0    0    0  501 -0.00000000000E+00  0.00000000000E+00  0.34964991431E+02  0.34964991431E+02  0.00000000000E+00 0. -1.
          2   -1    0    0  501    0  0.00000000000E+00 -0.00000000000E+00 -0.33335382972E+03  0.33335382972E+03  0.00000000000E+00 0.  1.
         25    2    1    2    0    0 -0.22443136282E+01 -0.15185767171E+02 -0.18795784298E+03  0.22630468605E+03  0.12510002288E+03 0.  0.
          5    1    3    3  502    0  0.45967257929E+02 -0.47237646881E+02 -0.80066728053E+02  0.10379083498E+03  0.41800000000E+01 0.  1.
         -5    1    3    3    0  502 -0.48211571557E+02  0.32051879710E+02 -0.10789111493E+03  0.12251385108E+03  0.41800000000E+01 0.  1.
        -11    1    1    2    0    0  0.26760887990E+02 -0.24569695330E+02 -0.75179834243E+02  0.83497440268E+02  0.00000000000E+00 0.  1.
         11    1    1    2    0    0 -0.24516574362E+02  0.39755462501E+02 -0.35251161064E+02  0.58516694827E+02  0.00000000000E+00 0. -1.
</event>
<event>
 7    1  0.2612321E-009  0.1102899E+03  0.7561462E-02  0.1260034E+00
          2   -1    0    0  501    0  0.00000000000E+00  0.00000000000E+00  0.62331144213E+03  0.62331144213E+03  0.00000000000E+00 0. -1.
         -2   -1    0    0    0  501 -0.00000000000E+00 -0.00000000000E+00 -0.22858235662E+02  0.22858235662E+02  0.00000000000E+00 0.  1.
         25    2    1    2    0    0  0.37236168332E+02  0.30174673693E+02  0.29117619782E+03  0.32051271286E+03  0.12509107787E+03 0.  0.
          5    1    3    3  502    0 -0.41094508203E+02  0.23700220701E+02  0.61880148495E+02  0.78083828310E+02  0.41800000000E+01 0.  1.
         -5    1    3    3    0  502  0.78330676535E+02  0.64744529920E+01  0.22929604933E+03  0.24242888455E+03  0.41800000000E+01 0.  1.
        -11    1    1    2    0    0 -0.63258075707E+02 -0.20836051115E+02  0.15174644039E+03  0.16571875977E+03  0.00000000000E+00 0.  1.
         11    1    1    2    0    0  0.26021907375E+02 -0.93386225779E+01  0.15753056826E+03  0.15993820516E+03  0.00000000000E+00 0. -1.
</event>
<event>
 7    1  0.2612321E-009  0.1285056E+03  0.7561462E-02  0.1229690E+00
         -1   -1    0    0    0  501 -0.00000000000E+00  0.00000000000E+00  0.23688067169E+03  0.23688067169E+03  0.00000000000E+00 0.  1.
          1   -1    0    0  501    0  0.00000000000E+00 -0.00000000000E+00 -0.10022795062E+03  0.10022795062E+03  0.00000000000E+00 0. -1.
         25    2    1    2    0    0  0.59724250807E+02  0.49811062241E+02 -0.90333576463E+01  0.14757174140E+03  0.12509072409E+03 0.  0.
          5    1    3    3  502    0  0.96423032147E+02  0.18740084294E+02 -0.12859551873E+02  0.99153579674E+02  0.41800000000E+01 0. -1.
         -5    1    3    3    0  502 -0.36698781341E+02  0.31070977946E+02  0.38261942270E+01  0.48418161724E+02  0.41800000000E+01 0. -1.
        -11    1    1    2    0    0 -0.76660260888E+02 -0.52996240109E+02  0.14490390486E+03  0.17228621160E+03  0.00000000000E+00 0.  1.
         11    1    1    2    0    0  0.16936010082E+02  0.31851778679E+01  0.78217385395E+00  0.17250669305E+02  0.00000000000E+00 0. -1.
</event>
<event>
 7    1  0.2612321E-009  0.1645495E+03  0.7561462E-02  0.1183654E+00
          1   -1    0    0  501    0  0.00000000000E+00  0.00000000000E+00  0.12116846712E+04  0.12116846712E+04  0.00000000000E+00 0. -1.
         -1   -1    0    0    0  501 -0.00000000000E+00 -0.00000000000E+00 -0.33279601181E+02  0.33279601181E+02  0.00000000000E+00 0.  1.
         25    2    1    2    0    0 -0.13784584947E+03 -0.63906719478E+02  0.39051343509E+03  0.43730260868E+03  0.12508909451E+03 0.  0.
          5    1    3    3  502    0 -0.17581983275E+02 -0.83589452658E+01  0.22210063092E+03  0.22299139167E+03  0.41800000000E+01 0.  1.
         -5    1    3    3    0  502 -0.12026386619E+03 -0.55547774212E+02  0.16841280417E+03  0.21431121701E+03  0.41800000000E+01 0.  1.
        -11    1    1    2    0    0  0.13984889686E+03  0.30441164281E+02  0.66868658803E+03  0.68383194679E+03  0.00000000000E+00 0.  1.
         11    1    1    2    0    0 -0.20030473935E+01  0.33465555197E+02  0.11920504692E+03  0.12382971693E+03  0.00000000000E+00 0. -1.
</event>
<event>
 7    1  0.2612321E-009  0.1272950E+03  0.7561462E-02  0.1231526E+00
         -1   -1    0    0    0  501 -0.00000000000E+00  0.00000000000E+00  0.61499625005E+02  0.61499625005E+02  0.00000000000E+00 0.  1.
          1   -1    0    0  501    0  0.00000000000E+00 -0.00000000000E+00 -0.47443918786E+03  0.47443918786E+03  0.00000000000E+00 0. -1.
         25    2    1    2    0    0 -0.91472383085E+02 -0.58654553019E+02 -0.10245770905E+03  0.19481408015E+03  0.12508952883E+03 0.  0.
          5    1    3    3  502    0  0.71755798368E+01 -0.34822442616E+01  0.23714750024E+02  0.25366843315E+02  0.41800000000E+01 0.  1.
         -5    1    3    3    0  502 -0.98647962922E+02 -0.55172308758E+02 -0.12617245907E+03  0.16944723683E+03  0.41800000000E+01 0.  1.
        -11    1    1    2    0    0  0.41822132254E+02  0.70006986747E+02 -0.12885208538E+03  0.15248911058E+03  0.00000000000E+00 0.  1.
         11    1    1    2    0    0  0.49650250830E+02 -0.11352433728E+02 -0.18162976843E+03  0.18863562214E+03  0.00000000000E+00 0. -1.
</event>
<event>
 7    1  0.2612321E-009  0.1613342E+03  0.7561462E-02  0.1187199E+00
          1   -1    0    0  501    0  0.00000000000E+00  0.00000000000E+00  0.27135527475E+03  0.27135527475E+03  0.00000000000E+00 0. -1.
         -1   -1    0    0    0  501 -0.00000000000E+00 -0.00000000000E+00 -0.10258194672E+03  0.10258194672E+03  0.00000000000E+00 0.  1.
         25    2    1    2    0    0 -0.11907403412E+03 -0.32651281255E+02  0.57615130030E+02  0.18496523016E+03  0.12509157202E+03 0.  0.
          5    1    3    3  502    0 -0.50382623636E+02  0.44178062386E+02  0.66224565905E+00  0.67141797191E+02  0.41800000000E+01 0.  1.
         -5    1    3    3    0  502 -0.68691410485E+02 -0.76829343642E+02  0.56952884371E+02  0.11782343297E+03  0.41800000000E+01 0.  1.
        -11    1    1    2    0    0 -0.11737825547E+02  0.16974710221E+02  0.10391382560E+02  0.23106236543E+02  0.00000000000E+00 0.  1.
         11    1    1    2    0    0  0.13081185967E+03  0.15676571034E+02  0.10076681544E+03  0.16586575477E+03  0.00000000000E+00 0. -1.
</event>
<event>
 7    1  0.2612321E-009  0.8084995E+02  0.7561462E-02  0.1326657E+00
          2   -1    0    0  501    0  0.00000000000E+00  0.00000000000E+00  0.58929389070E+02  0.58929389070E+02  0.00000000000E+00 0.  1.
         -2   -1    0    0    0  501 -0.00000000000E+00 -0.00000000000E+00 -0.20627835372E+03  0.20627835372E+03  0.00000000000E+00 0. -1.
         25    2    1    2    0    0 -0.35533669613E+02 -0.67294711632E+00 -0.77347866897E+02  0.15130480441E+03  0.12508939519E+03 0.  0.
          5    1    3    3  502    0  0.74042259477E+01  0.35015369171E+02 -0.87294559415E+02  0.94438928115E+02  0.41800000000E+01 0. -1.
         -5    1    3    3    0  502 -0.42937895561E+02 -0.35688316287E+02  0.99466925180E+01  0.56865876294E+02  0.41800000000E+01 0. -1.
        -11    1    1    2    0    0  0.50640444361E+02 -0.94206504927E+01 -0.11679359164E+02  0.52816765248E+02  0.00000000000E+00 0.  1.
         11    1    1    2    0    0 -0.15106774748E+02  0.10093597609E+02 -0.58321738591E+02  0.61086173135E+02  0.00000000000E+00 0. -1.
</event>
<event>
 7    1  0.2612321E-009  0.3216289E+03  0.7561462E-02  0.1074902E+00
          1   -1    0    0  501    0  0.00000000000E+00  0.00000000000E+00  0.80688885533E+03  0.80688885533E+03  0.00000000000E+00 0. -1.
         -1   -1    0    0    0  501 -0.00000000000E+00 -0.00000000000E+00 -0.17961967456E+03  0.17961967456E+03  0.00000000000E+00 0.  1.
         25    2    1    2    0    0  0.30252341050E+03 -0.10592140258E+03  0.54317125342E+03  0.64297913535E+03  0.12508957001E+03 0.  0.
          5    1    3    3  502    0  0.24075104993E+03 -0.83587608170E+02  0.50799022438E+03  0.56834804191E+03  0.41800000000E+01 0. -1.
         -5    1    3    3    0  502  0.61772360564E+02 -0.22333794414E+02  0.35181029044E+02  0.74631093434E+02  0.41800000000E+01 0. -1.
        -11    1    1    2    0    0 -0.22574611483E+03  0.62007986133E+02  0.98373392098E+02  0.25393625771E+03  0.00000000000E+00 0.  1.
         11    1    1    2    0    0 -0.76777295665E+02  0.43913416451E+02 -0.14275464747E+02  0.89593136834E+02  0.00000000000E+00 0. -1.
</event>
<event>
 7    1  0.2612321E-009  0.1121581E+03  0.7561462E-02  0.1256625E+00
         -2   -1    0    0    0  501 -0.00000000000E+00  0.00000000000E+00  0.40561850660E+02  0.40561850660E+02  0.00000000000E+00 0. -1.
          2   -1    0    0  501    0  0.00000000000E+00 -0.00000000000E+00 -0.33484258050E+03  0.33484258050E+03  0.00000000000E+00 0.  1.
         25    2    1    2    0    0 -0.44328094319E+02 -0.10480466797E+01 -0.15728243328E+03  0.20579514245E+03  0.12509116072E+03 0.  0.
          5    1    3    3  502    0  0.33208764192E+02  0.31403104315E+02 -0.76064971925E+02  0.88838782825E+02  0.41800000000E+01 0.  1.
         -5    1    3    3    0  502 -0.77536858511E+02 -0.32451150995E+02 -0.81217461351E+02  0.11695635963E+03  0.41800000000E+01 0.  1.
        -11    1    1    2    0    0  0.14321264828E+01  0.37768756094E+02 -0.28641301538E+02  0.47422084274E+02  0.00000000000E+00 0. -1.
         11    1    1    2    0    0  0.42895967836E+02 -0.36720709414E+02 -0.10835699502E+03  0.12218720443E+03  0.00000000000E+00 0.  1.
</event>
<event>
 7    1  0.2612321E-009  0.9887086E+02  0.7561462E-02  0.1282688E+00
          2   -1    0    0  501    0  0.00000000000E+00  0.00000000000E+00  0.94312619224E+03  0.94312619224E+03  0.00000000000E+00 0. -1.
         -2   -1    0    0    0  501 -0.00000000000E+00 -0.00000000000E+00 -0.13425846708E+02  0.13425846708E+02  0.00000000000E+00 0.  1.
         25    2    1    2    0    0 -0.28610449043E+02  0.58249756563E+01  0.53563958031E+03  0.55082633214E+03  0.12508956811E+03 0.  0.
          5    1    3    3  502    0  0.63336238663E+01  0.51069512659E+02  0.11201279828E+03  0.12333916366E+03  0.41800000000E+01 0. -1.
         -5    1    3    3    0  502 -0.34944072909E+02 -0.45244537003E+02  0.42362678203E+03  0.42748716848E+03  0.41800000000E+01 0. -1.
        -11    1    1    2    0    0 -0.23133887974E+02  0.20343152026E+02  0.69437045575E+02  0.75963964518E+02  0.00000000000E+00 0.  1.
         11    1    1    2    0    0  0.51744337017E+02 -0.26168127682E+02  0.32462371965E+03  0.32976174229E+03  0.00000000000E+00 0. -1.
</event>
<event>
 7    1  0.2612321E-009  0.1102067E+03  0.7561462E-02  0.1260188E+00
          3   -1    0    0  501    0  0.00000000000E+00  0.00000000000E+00  0.80679235938E+03  0.80679235938E+03  0.00000000000E+00 0. -1.
         -3   -1    0    0    0  501 -0.00000000000E+00 -0.00000000000E+00 -0.15464929688E+02  0.15464929688E+02  0.00000000000E+00 0.  1.
         25    2    1    2    0    0  0.24702434235E+01 -0.33586960399E+02  0.52359390282E+03  0.53938339089E+03  0.12509868621E+03 0.  0.
          5    1    3    3  502    0 -0.12075061433E+02 -0.79642775330E+02  0.34745699949E+03  0.35669681477E+03  0.41800000000E+01 0. -1.
         -5    1    3    3    0  502  0.14545304857E+02  0.46055814931E+02  0.17613690332E+03  0.18268657612E+03  0.41800000000E+01 0. -1.
        -11    1    1    2    0    0 -0.12775216553E+02 -0.26971715621E+02  0.91000094495E+02  0.95768976185E+02  0.00000000000E+00 0.  1.
         11    1    1    2    0    0  0.10304973130E+02  0.60558676020E+02  0.17673343238E+03  0.18710492199E+03  0.00000000000E+00 0. -1.
</event>
<event>
 7    1  0.5532011E-009  0.9796898E+02  0.7561462E-02  0.1284626E+00
          1   -1    0    0  501    0  0.00000000000E+00  0.00000000000E+00  0.33922861616E+03  0.33922861616E+03  0.00000000000E+00 0. -1.
         -1   -1    0    0    0  501 -0.00000000000E+00 -0.00000000000E+00 -0.60993382617E+02  0.60993382617E+02  0.00000000000E+00 0.  1.
         25    2    1    2    0    0  0.81976688865E+02 -0.39535400119E+02  0.11995814784E+03  0.19576988718E+03  0.12511061550E+03 0.  0.
          5    1    3    3  502    0  0.45455581320E+01 -0.19196115552E+02 -0.23785295790E+02  0.31182778048E+02  0.41800000000E+01 0. -1.
         -5    1    3    3    0  502  0.77431130733E+02 -0.20339284567E+02  0.14374344363E+03  0.16458710913E+03  0.41800000000E+01 0. -1.
        -11    1    1    2    0    0 -0.54953439440E+02  0.40969590970E+02  0.32613979209E+02  0.75908230979E+02  0.00000000000E+00 0.  1.
         11    1    1    2    0    0 -0.27023249425E+02 -0.14341908505E+01  0.12566310649E+03  0.12854388062E+03  0.00000000000E+00 0. -1.
</event>
<event>
 7    1  0.2612321E-009  0.7653874E+02  0.7561462E-02  0.1339171E+00
         -2   -1    0    0    0  501 -0.00000000000E+00  0.00000000000E+00  0.23862511649E+03  0.23862511649E+03  0.00000000000E+00 0.  1.
          2   -1    0    0  501    0  0.00000000000E+00 -0.00000000000E+00 -0.74609441199E+02  0.74609441199E+02  0.00000000000E+00 0. -1.
         25    2    1    2    0    0 -0.57533251371E+01 -0.53681511412E+02  0.22975706781E+02  0.13816742499E+03  0.12509016272E+03 0.  0.
          5    1    3    3  502    0 -0.92779697130E+01 -0.15481597633E+02 -0.51257688362E+02  0.54503060497E+02  0.41800000000E+01 0. -1.
         -5    1    3    3    0  502  0.35246445759E+01 -0.38199913779E+02  0.74233395143E+02  0.83664364497E+02  0.41800000000E+01 0. -1.
        -11    1    1    2    0    0  0.25903713496E+02  0.66982783970E+02  0.12999982667E+03  0.14851818291E+03  0.00000000000E+00 0.  1.
         11    1    1    2    0    0 -0.20150388359E+02 -0.13301272558E+02  0.11040141838E+02  0.26548949781E+02  0.00000000000E+00 0. -1.
</event>
<event>
 7    1  0.2612321E-009  0.8609679E+02  0.7561462E-02  0.1312589E+00
          2   -1    0    0  501    0  0.00000000000E+00  0.00000000000E+00  0.76416561143E+02  0.76416561143E+02  0.00000000000E+00 0.  1.
         -2   -1    0    0    0  501 -0.00000000000E+00 -0.00000000000E+00 -0.23589903866E+03  0.23589903866E+03  0.00000000000E+00 0. -1.
         25    2    1    2    0    0  0.36278736043E+02 -0.63539568828E+02 -0.12053378858E+03  0.18849499872E+03  0.12509415197E+03 0.  0.
          5    1    3    3  502    0  0.30557851223E+02 -0.25499610500E+02 -0.13969666104E+03  0.14531566300E+03  0.41800000000E+01 0. -1.
         -5    1    3    3    0  502  0.57208848206E+01 -0.38039958328E+02  0.19162872457E+02  0.43179335724E+02  0.41800000000E+01 0. -1.
        -11    1    1    2    0    0  0.99459598087E+01  0.40745067248E+02  0.19192683051E+02  0.46124198684E+02  0.00000000000E+00 0.  1.
         11    1    1    2    0    0 -0.46224695852E+02  0.22794501580E+02 -0.58141371984E+02  0.77696402395E+02  0.00000000000E+00 0. -1.
</event>
<event>
 7    1  0.2612321E-009  0.1362237E+03  0.7561462E-02  0.1218502E+00
          2   -1    0    0  501    0  0.00000000000E+00  0.00000000000E+00  0.20505887322E+03  0.20505887322E+03  0.00000000000E+00 0. -1.
         -2   -1    0    0    0  501 -0.00000000000E+00 -0.00000000000E+00 -0.12959628832E+03  0.12959628832E+03  0.00000000000E+00 0.  1.
         25    2    1    2    0    0 -0.95403516948E+02 -0.13474528281E+02 -0.34787783010E+02  0.16168190179E+03  0.12508978200E+03 0.  0.
          5    1    3    3  502    0 -0.26455751890E+02  0.42536760588E+02  0.23359259781E+02  0.55429326416E+02  0.41800000000E+01 0.  1.
         -5    1    3    3    0  502 -0.68947765058E+02 -0.56011288870E+02 -0.58147042790E+02  0.10625257537E+03  0.41800000000E+01 0.  1.
        -11    1    1    2    0    0  0.94885863345E+02  0.42678428182E+02  0.84469382752E+02  0.13401437205E+03  0.00000000000E+00 0.  1.
         11    1    1    2    0    0  0.51765360308E+00 -0.29203899900E+02  0.25780985156E+02  0.38958887693E+02  0.00000000000E+00 0. -1.
</event>
<event>
 7    1  0.2612321E-009  0.1547367E+03  0.7561462E-02  0.1194770E+00
         -2   -1    0    0    0  501 -0.00000000000E+00  0.00000000000E+00  0.25803388448E+02  0.25803388448E+02  0.00000000000E+00 0.  1.
          2   -1    0    0  501    0  0.00000000000E+00 -0.00000000000E+00 -0.11932839878E+04  0.11932839878E+04  0.00000000000E+00 0. -1.
         25    2    1    2    0    0 -0.13185055701E+03 -0.42450741500E+02 -0.58221947746E+03  0.61140043364E+03  0.12507731805E+03 0.  0.
          5    1    3    3  502    0 -0.98318197611E+02 -0.88035998445E+01 -0.53586361578E+03  0.54489563998E+03  0.41800000000E+01 0. -1.
         -5    1    3    3    0  502 -0.33532359395E+02 -0.33647141655E+02 -0.46355861673E+02  0.66504793659E+02  0.41800000000E+01 0. -1.
        -11    1    1    2    0    0  0.14323379403E+03  0.46970875538E+02 -0.52597291179E+03  0.54714686039E+03  0.00000000000E+00 0. -1.
         11    1    1    2    0    0 -0.11383237027E+02 -0.45201340386E+01 -0.59288210149E+02  0.60540082256E+02  0.00000000000E+00 0.  1.
</event>
<event>
 7    1  0.2612321E-009  0.1027325E+03  0.7561462E-02  0.1274653E+00
         -1   -1    0    0    0  501 -0.00000000000E+00  0.00000000000E+00  0.10442529619E+03  0.10442529619E+03  0.00000000000E+00 0.  1.
          1   -1    0    0  501    0  0.00000000000E+00 -0.00000000000E+00 -0.20422868073E+03  0.20422868073E+03  0.00000000000E+00 0. -1.
         25    2    1    2    0    0  0.99517436190E+02 -0.15000901449E+01 -0.41933290740E+02  0.16526033728E+03  0.12508640146E+03 0.  0.
          5    1    3    3  502    0  0.67236816752E+02 -0.21242381744E+01  0.39107908623E+02  0.77924340431E+02  0.41800000000E+01 0.  1.
         -5    1    3    3    0  502  0.32280619438E+02  0.62414802956E+00 -0.81041199363E+02  0.87335996852E+02  0.41800000000E+01 0.  1.
        -11    1    1    2    0    0 -0.31078872431E+02 -0.15875594242E+02  0.18403629080E+02  0.39454079224E+02  0.00000000000E+00 0. -1.
         11    1    1    2    0    0 -0.68438563759E+02  0.17375684387E+02 -0.76273722882E+02  0.10393956042E+03  0.00000000000E+00 0.  1.
</event>
<event>
 6    1  0.2612321E-009  0.1333795E+03  0.7561462E-02  0.1222526E+00
          1   -1    0    0  501    0  0.00000000000E+00  0.00000000000E+00  0.12796762846E+04  0.12796762846E+04  0.00000000000E+00 0. -1.
         -1   -1    0    0    0  501 -0.00000000000E+00 -0.00000000000E+00 -0.61712501272E+02  0.61712501272E+02  0.00000000000E+00 0.  1.
          5    1    1    2  502    0 -0.11368845020E+03 -0.71002389983E+01  0.58564816469E+03  0.59663784853E+03  0.41800000000E+01 0. -1.
         -5    1    1    2    0  502  0.87068786667E+01  0.10846824497E+02  0.60303387429E+03  0.60320874437E+03  0.41800000000E+01 0. -1.
        -11    1    1    2    0    0  0.59173753919E+02  0.42732401220E+02  0.11372726125E+02  0.73871037399E+02  0.00000000000E+00 0. -1.
         11    1    1    2    0    0  0.45807817610E+02 -0.46478986719E+02  0.17909018201E+02  0.67671155550E+02  0.00000000000E+00 0.  1.
</event>
<event>
 7    1  0.2612321E-009  0.1662513E+03  0.7561462E-02  0.1181814E+00
         -4   -1    0    0    0  501 -0.00000000000E+00  0.00000000000E+00  0.12921606856E+03  0.12921606856E+03  0.00000000000E+00 0. -1.
          4   -1    0    0  501    0  0.00000000000E+00 -0.00000000000E+00 -0.27073036944E+03  0.27073036944E+03  0.00000000000E+00 0.  1.
         25    2    1    2    0    0 -0.46559254519E+02 -0.14187413910E+03 -0.84165078142E+02  0.21219854474E+03  0.12509367084E+03 0.  0.
          5    1    3    3  502    0 -0.66514183572E+02 -0.13714787455E+03 -0.31741783059E+02  0.15575201219E+03  0.41800000000E+01 0. -1.
         -5    1    3    3    0  502  0.19954929053E+02 -0.47262645550E+01 -0.52423295083E+02  0.56446532555E+02  0.41800000000E+01 0. -1.
        -11    1    1    2    0    0  0.26868717067E+02  0.15149370721E+02  0.21136242762E+02  0.37392140193E+02  0.00000000000E+00 0. -1.
         11    1    1    2    0    0  0.19690537452E+02  0.12672476838E+03 -0.78485465494E+02  0.15035575306E+03  0.00000000000E+00 0.  1.
</event>
<event>
 7    1  0.2612321E-009  0.1647752E+03  0.7561462E-02  0.1183409E+00
         -2   -1    0    0    0  501 -0.00000000000E+00  0.00000000000E+00  0.24264497683E+02  0.24264497683E+02  0.00000000000E+00 0.  1.
          2   -1    0    0  501    0  0.00000000000E+00 -0.00000000000E+00 -0.12340970366E+04  0.12340970366E+04  0.00000000000E+00 0. -1.
         25    2    1    2    0    0  0.94185686649E+02 -0.86679286970E+02 -0.48553649577E+03  0.51747354531E+03  0.12509571941E+03 0.  0.
          5    1    3    3  502    0  0.11151442995E+03 -0.29377510395E+02 -0.26747747355E+03  0.29130770237E+03  0.41800000000E+01 0. -1.
         -5    1    3    3    0  502 -0.17328743298E+02 -0.57301776575E+02 -0.21805902222E+03  0.22616584294E+03  0.41800000000E+01 0. -1.
        -11    1    1    2    0    0 -0.40335611123E+02  0.91583148324E+02 -0.52099380698E+03  0.53051765428E+03  0.00000000000E+00 0.  1.
         11    1    1    2    0    0 -0.53850075526E+02 -0.49038613548E+01 -0.20330223617E+03  0.21037033470E+03  0.00000000000E+00 0. -1.
</event>
<event>
 7    1  0.2612321E-009  0.1343813E+03  0.7561462E-02  0.1221096E+00
         -1   -1    0    0    0  501 -0.00000000000E+00  0.00000000000E+00  0.18836117886E+03  0.18836117886E+03  0.00000000000E+00 0.  1.
          1   -1    0    0  501    0  0.00000000000E+00 -0.00000000000E+00 -0.16743256953E+03  0.16743256953E+03  0.00000000000E+00 0. -1.
         25    2    1    2    0    0  0.77878621232E+02  0.36624452400E+02 -0.99633765244E+02  0.18160619719E+03  0.12508994174E+03 0.  0.
          5    1    3    3  502    0  0.57698000448E+02  0.81182277608E+02 -0.48988127967E+02  0.11107173599E+03  0.41800000000E+01 0.  1.
         -5    1    3    3    0  502  0.20180620785E+02 -0.44557825208E+02 -0.50645637277E+02  0.70534461207E+02  0.41800000000E+01 0.  1.
        -11    1    1    2    0    0 -0.89330245320E+02 -0.86393238976E+01  0.11042445907E+03  0.14229578984E+03  0.00000000000E+00 0.  1.
         11    1    1    2    0    0  0.11451624088E+02 -0.27985128502E+02  0.10137915504E+02  0.31891761355E+02  0.00000000000E+00 0. -1.
</event>
<event>
 7    1  0.2612321E-009  0.1817018E+03  0.7561462E-02  0.1166166E+00
          2   -1    0    0  501    0  0.00000000000E+00  0.00000000000E+00  0.22961581453E+03  0.22961581453E+03  0.00000000000E+00 0.  1.
         -2   -1    0    0    0  501 -0.00000000000E+00 -0.00000000000E+00 -0.19035811956E+03  0.19035811956E+03  0.00000000000E+00 0. -1.
         25    2    1    2    0    0  0.79095389270E+02 -0.15438478792E+03 -0.21757648959E+02  0.21496886618E+03  0.12508986687E+03 0.  0.
          5    1    3    3  502    0  0.64668231528E+01 -0.62083502477E+02 -0.64555387631E+02  0.89894669217E+02  0.41800000000E+01 0.  1.
         -5    1    3    3    0  502  0.72628566117E+02 -0.92301285440E+02  0.42797738672E+02  0.12507419696E+03  0.41800000000E+01 0.  1.
        -11    1    1    2    0    0 -0.62772721430E+02  0.57684310212E+02  0.64456578584E+02  0.10687630571E+03  0.00000000000E+00 0.  1.
         11    1    1    2    0    0 -0.16322667840E+02  0.96700477705E+02 -0.34412346585E+01  0.98128762194E+02  0.00000000000E+00 0. -1.
</event>
<event>
 7    1  0.2612321E-009  0.1742345E+03  0.7561462E-02  0.1173503E+00
         -2   -1    0    0    0  501 -0.00000000000E+00  0.00000000000E+00  0.30479271243E+02  0.30479271243E+02  0.00000000000E+00 0.  1.
          2   -1    0    0  501    0  0.00000000000E+00 -0.00000000000E+00 -0.14074960966E+04  0.14074960966E+04  0.00000000000E+00 0. -1.
         25    2    1    2    0    0 -0.71848614044E+02 -0.13629111053E+03 -0.42006224645E+03  0.46458294007E+03  0.12509007619E+03 0.  0.
          5    1    3    3  502    0  0.12210038289E+02 -0.47958771120E+02 -0.35279203241E+02  0.60919810766E+02  0.41800000000E+01 0.  1.
         -5    1    3    3    0  502 -0.84058652332E+02 -0.88332339411E+02 -0.38478304320E+03  0.40366312930E+03  0.41800000000E+01 0.  1.
        -11    1    1    2    0    0  0.52389452878E+02  0.15766068811E+02 -0.24379894665E+03  0.24986226223E+03  0.00000000000E+00 0.  1.
         11    1    1    2    0    0  0.19459161166E+02  0.12052504172E+03 -0.71315563227E+03  0.72353016556E+03  0.00000000000E+00 0. -1.
</event>
<event>
 7    1  0.2612321E-009  0.1459855E+03  0.7561462E-02  0.1205495E+00
         -1   -1    0    0    0  501 -0.00000000000E+00  0.00000000000E+00  0.64255196193E+02  0.64255196193E+02  0.00000000000E+00 0.  1.
          1   -1    0    0  501    0  0.00000000000E+00 -0.00000000000E+00 -0.49638203089E+03  0.49638203089E+03  0.00000000000E+00 0. -1.
         25    2    1    2    0    0  0.63257733596E+02 -0.75410983734E+02 -0.38721533439E+03  0.41865516266E+03  0.12509225676E+03 0.  0.
          5    1    3    3  502    0 -0.37715862710E+02 -0.18037262731E+02 -0.12408429648E+03  0.13100463419E+03  0.41800000000E+01 0.  1.
         -5    1    3    3    0  502  0.10097359631E+03 -0.57373721003E+02 -0.26313103792E+03  0.28765052847E+03  0.41800000000E+01 0.  1.
        -11    1    1    2    0    0 -0.35332864840E+01 -0.20476208794E+02 -0.13320182067E+02  0.24681703553E+02  0.00000000000E+00 0. -1.
         11    1    1    2    0    0 -0.59724447112E+02  0.95887192528E+02 -0.31591318238E+02  0.11730036088E+03  0.00000000000E+00 0.  1.
</event>
<event>
 7    1  0.2612321E-009  0.8246387E+02  0.7561462E-02  0.1322201E+00
         -1   -1    0    0    0  501 -0.00000000000E+00  0.00000000000E+00  0.32817827098E+02  0.32817827098E+02  0.00000000000E+00 0.  1.
          1   -1    0    0  501    0  0.00000000000E+00 -0.00000000000E+00 -0.64457168217E+03  0.64457168217E+03  0.00000000000E+00 0. -1.
         25    2    1    2    0    0  0.26909005374E+02 -0.51825597612E+02 -0.52357099169E+03  0.54146565381E+03  0.12509389984E+03 0.  0.
          5    1    3    3  502    0  0.48993183826E+02 -0.25873300521E+01 -0.75500003713E+02  0.90137391236E+02  0.41800000000E+01 0. -1.
         -5    1    3    3    0  502 -0.22084178452E+02 -0.49238267560E+02 -0.44807098797E+03  0.45132826257E+03  0.41800000000E+01 0. -1.
        -11    1    1    2    0    0  0.58825691750E+00  0.17825532628E+02 -0.90397567472E+02  0.92140196790E+02  0.00000000000E+00 0. -1.
         11    1    1    2    0    0 -0.27497262292E+02  0.34000064984E+02  0.22147040869E+01  0.43783658671E+02  0.00000000000E+00 0.  1.
</event>
<event>
 7    1  0.2612321E-009  0.1461427E+03  0.7561462E-02  0.1205295E+00
         -1   -1    0    0    0  501 -0.00000000000E+00  0.00000000000E+00  0.39888941759E+03  0.39888941759E+03  0.00000000000E+00 0.  1.
          1   -1    0    0  501    0  0.00000000000E+00 -0.00000000000E+00 -0.70082355319E+02  0.70082355319E+02  0.00000000000E+00 0. -1.
         25    2    1    2    0    0 -0.71367574552E+02 -0.97803806302E+02  0.22821825839E+03  0.28704018614E+03  0.12509828046E+03 0.  0.
          5    1    3    3  502    0  0.20229719059E+02 -0.21665172006E+02  0.12759816027E+03  0.13106251987E+03  0.41800000000E+01 0.  1.
         -5    1    3    3    0  502 -0.91597293611E+02 -0.76138634296E+02  0.10062009812E+03  0.15597766627E+03  0.41800000000E+01 0.  1.
        -11    1    1    2    0    0  0.66635253501E+01  0.73883362801E+02  0.22033564399E+02  0.77386250904E+02  0.00000000000E+00 0. -1.
         11    1    1    2    0    0  0.64704049202E+02  0.23920443501E+02  0.78555239490E+02  0.10454533587E+03  0.00000000000E+00 0.  1.
</event>
<event>
 7    1  0.2612321E-009  0.9503687E+02  0.7561462E-02  0.1291093E+00
          2   -1    0    0  501    0  0.00000000000E+00  0.00000000000E+00  0.17397116041E+03  0.17397116041E+03  0.00000000000E+00 0. -1.
         -2   -1    0    0    0  501 -0.00000000000E+00 -0.00000000000E+00 -0.87208117512E+02  0.87208117512E+02  0.00000000000E+00 0.  1.
         25    2    1    2    0    0 -0.13714964604E+02 -0.43717727660E+02  0.87915545956E+02  0.15960950920E+03  0.12508681881E+03 0.  0.
          5    1    3    3  502    0  0.44359133082E+02 -0.43936602316E+02  0.78882822358E+02  0.10068828022E+03  0.41800000000E+01 0.  1.
         -5    1    3    3    0  502 -0.58074097686E+02  0.21887465627E+00  0.90327235981E+01  0.58921228973E+02  0.41800000000E+01 0.  1.
        -11    1    1    2    0    0  0.24968193906E+02  0.88090448541E+00 -0.36962318514E+02  0.44613895700E+02  0.00000000000E+00 0.  1.
         11    1    1    2    0    0 -0.11253229303E+02  0.42836823175E+02  0.35809815459E+02  0.56955873030E+02  0.00000000000E+00 0. -1.
</event>
<event>
 7    1  0.2787576E-009  0.9108374E+02  0.7561462E-02  0.1300248E+00
         -4   -1    0    0    0  501 -0.00000000000E+00  0.00000000000E+00  0.14810545807E+03  0.14810545807E+03  0.00000000000E+00 0.  1.
          4   -1    0    0  501    0  0.00000000000E+00 -0.00000000000E+00 -0.14666745373E+03  0.14666745373E+03  0.00000000000E+00 0. -1.
         25    2    1    2    0    0 -0.39961766980E+02 -0.17568962711E+02  0.90056977646E+02  0.16019707444E+03  0.12508889705E+03 0.  0.
          5    1    3    3  502    0 -0.41495828466E+00  0.36695272539E+02 -0.11228881705E+02  0.38604085294E+02  0.41800000000E+01 0.  1.
         -5    1    3    3    0  502 -0.39546808696E+02 -0.54264235250E+02  0.10128585935E+03  0.12159298915E+03  0.41800000000E+01 0.  1.
        -11    1    1    2    0    0  0.20406881933E+02 -0.24308496155E+02  0.30801047443E+01  0.31887785448E+02  0.00000000000E+00 0.  1.
         11    1    1    2    0    0  0.19554885047E+02  0.41877458866E+02 -0.91699078054E+02  0.10268805192E+03  0.00000000000E+00 0. -1.
</event>
<event>
 7    1  0.2612321E-009  0.1138200E+03  0.7561462E-02  0.1253655E+00
         -1   -1    0    0    0  501 -0.00000000000E+00  0.00000000000E+00  0.74361700184E+02  0.74361700184E+02  0.00000000000E+00 0.  1.
          1   -1    0    0  501    0  0.00000000000E+00 -0.00000000000E+00 -0.22627878773E+03  0.22627878773E+03  0.00000000000E+00 0. -1.
         25    2    1    2    0    0 -0.57949250847E+02  0.35587443587E+02 -0.12624892252E+03  0.19029153302E+03  0.12508994878E+03 0.  0.
          5    1    3    3  502    0  0.22731601646E+02 -0.28222169562E+02 -0.51311104300E+02  0.62956480148E+02  0.41800000000E+01 0.  1.
         -5    1    3    3    0  502 -0.80680852493E+02  0.63809613149E+02 -0.74937818219E+02  0.12733505287E+03  0.41800000000E+01 0.  1.
        -11    1    1    2    0    0  0.16065292984E+02 -0.42796394779E+02  0.18262093367E+02  0.49225289220E+02  0.00000000000E+00 0.  1.
         11    1    1    2    0    0  0.41883957864E+02  0.72089511917E+01 -0.43930258399E+02  0.61123665684E+02  0.00000000000E+00 0. -1.
</event>
<event>
 7    1  0.2739655E-009  0.1069057E+03  0.7561462E-02  0.1266410E+00
         -2   -1    0    0    0  501 -0.00000000000E+00  0.00000000000E+00  0.20122686493E+02  0.20122686493E+02  0.00000000000E+00 0.  1.
          2   -1    0    0  501    0  0.00000000000E+00 -0.00000000000E+00 -0.71120662003E+03  0.71120662003E+03  0.00000000000E+00 0. -1.
         25    2    1    2    0    0  0.40449962185E+02 -0.28145089657E+02 -0.42035424177E+03  0.44133122377E+03  0.12508882838E+03 0.  0.
          5    1    3    3  502    0  0.58932250621E+02 -0.62219345960E+02 -0.35508077237E+03  0.36529999244E+03  0.41800000000E+01 0. -1.
         -5    1    3    3    0  502 -0.18482288436E+02  0.34074256303E+02 -0.65273469404E+02  0.76031231323E+02  0.41800000000E+01 0. -1.
        -11    1    1    2    0    0 -0.13813835779E+01  0.46032627289E+02 -0.63983995317E+02  0.78834400185E+02  0.00000000000E+00 0.  1.
         11    1    1    2    0    0 -0.39068578607E+02 -0.17887537632E+02 -0.20674569645E+03  0.21116368258E+03  0.00000000000E+00 0. -1.
</event>
<event>
 7    1  0.2612321E-009  0.1657266E+03  0.7561462E-02  0.1182379E+00
         -2   -1    0    0    0  501 -0.00000000000E+00  0.00000000000E+00  0.32649690332E+02  0.32649690332E+02  0.00000000000E+00 0. -1.
          2   -1    0    0  501    0  0.00000000000E+00 -0.00000000000E+00 -0.91017721307E+03  0.91017721307E+03  0.00000000000E+00 0.  1.
         25    2    1    2    0    0  0.10445257302E+03  0.80163112137E+02 -0.39933463657E+03  0.43869402644E+03  0.12509129589E+03 0.  0.
          5    1    3    3  502    0 -0.21792717419E+02  0.27197472355E+02 -0.35464325777E+02  0.49898054449E+02  0.41800000000E+01 0. -1.
         -5    1    3    3    0  502  0.12624529044E+03  0.52965639783E+02 -0.36387031079E+03  0.38879597199E+03  0.41800000000E+01 0. -1.
        -11    1    1    2    0    0 -0.73174151073E+02 -0.98819548434E+02 -0.35674102298E+03  0.37733793477E+03  0.00000000000E+00 0.  1.
         11    1    1    2    0    0 -0.31278421952E+02  0.18656436296E+02 -0.12145186318E+03  0.12679494219E+03  0.00000000000E+00 0. -1.
</event>
<event>
 7    1  0.2612321E-009  0.1166191E+03  0.7561462E-02  0.1248781E+00
          4   -1    0    0  501    0  0.00000000000E+00  0.00000000000E+00  0.40275742785E+02  0.40275742785E+02  0.00000000000E+00 0. -1.
         -4   -1    0    0    0  501 -0.00000000000E+00 -0.00000000000E+00 -0.37443555982E+03  0.37443555982E+03  0.00000000000E+00 0.  1.
         25    2    1    2    0    0  0.13910589576E+02 -0.46100736695E+02 -0.13730590452E+03  0.19188120915E+03  0.12508678821E+03 0.  0.
          5    1    3    3  502    0 -0.19968086427E+02  0.35490823473E+02 -0.68600553588E+02  0.79886365413E+02  0.41800000000E+01 0.  1.
         -5    1    3    3    0  502  0.33878676003E+02 -0.81591560169E+02 -0.68705350928E+02  0.11199484374E+03  0.41800000000E+01 0.  1.
        -11    1    1    2    0    0 -0.12313041909E+02  0.74450878379E+02 -0.13232648967E+03  0.15233136302E+03  0.00000000000E+00 0.  1.
         11    1    1    2    0    0 -0.15975476669E+01 -0.28350141684E+02 -0.64527422849E+02  0.70498730425E+02  0.00000000000E+00 0. -1.
</event>
<event>
 6    1  0.2612321E-009  0.1091520E+03  0.7561462E-02  0.1262148E+00
          2   -1    0    0  501    0  0.00000000000E+00  0.00000000000E+00  0.41640316662E+03  0.41640316662E+03  0.00000000000E+00 0. -1.
         -2   -1    0    0    0  501 -0.00000000000E+00 -0.00000000000E+00 -0.35297909875E+02  0.35297909875E+02  0.00000000000E+00 0.  1.
          5    1    1    2  502    0 -0.48063902547E+02 -0.17038637942E+02  0.16145331000E+03  0.16936675477E+03  0.41800000000E+01 0.  1.
         -5    1    1    2    0  502  0.62648472599E+02 -0.31994169280E+02  0.75453110127E+02  0.10324292816E+03  0.41800000000E+01 0.  1.
        -11    1    1    2    0    0  0.33401481032E+02  0.30489640122E+02  0.31228104180E+02  0.54958817132E+02  0.00000000000E+00 0.  1.
         11    1    1    2    0    0 -0.47986051085E+02  0.18543167100E+02  0.11297073244E+03  0.12413257644E+03  0.00000000000E+00 0. -1.
</event>
<event>
 7    1  0.2612321E-009  0.2733017E+03  0.7561462E-02  0.1099405E+00
          1   -1    0    0  501    0  0.00000000000E+00  0.00000000000E+00  0.48480296669E+03  0.48480296669E+03  0.00000000000E+00 0. -1.
         -1   -1    0    0    0  501 -0.00000000000E+00 -0.00000000000E+00 -0.17438920957E+03  0.17438920957E+03  0.00000000000E+00 0.  1.
         25    2    1    2    0    0  0.90533280198E+02  0.25325703971E+03  0.14023816022E+03  0.32809947276E+03  0.12508844656E+03 0.  0.
          5    1    3    3  502    0  0.40388103899E+02  0.18134296494E+03  0.15129772340E+03  0.23963502118E+03  0.41800000000E+01 0. -1.
         -5    1    3    3    0  502  0.50145176299E+02  0.71914074768E+02 -0.11059563187E+02  0.88464451582E+02  0.41800000000E+01 0. -1.
        -11    1    1    2    0    0 -0.11083282612E+02 -0.97713264692E+02  0.19138192297E+02  0.10018478754E+03  0.00000000000E+00 0.  1.
         11    1    1    2    0    0 -0.79449997586E+02 -0.15554377501E+03  0.15103740461E+03  0.23090791596E+03  0.00000000000E+00 0. -1.
</event>
<event>
 7    1  0.2612321E-009  0.1343793E+03  0.7561462E-02  0.1221099E+00
         -1   -1    0    0    0  501 -0.00000000000E+00  0.00000000000E+00  0.32442311913E+03  0.32442311913E+03  0.00000000000E+00 0.  1.
          1   -1    0    0  501    0  0.00000000000E+00 -0.00000000000E+00 -0.70283614271E+02  0.70283614271E+02  0.00000000000E+00 0. -1.
         25    2    1    2    0    0 -0.10316037428E+03 -0.16797895206E+02  0.14859425061E+03  0.22057093317E+03  0.12508818145E+03 0.  0.
          5    1    3    3  502    0 -0.11046401345E+03 -0.37053719084E+02  0.15828759692E+03  0.19659021365E+03  0.41800000000E+01 0. -1.
         -5    1    3    3    0  502  0.73036391697E+01  0.20255823878E+02 -0.96933463030E+01  0.23980719519E+02  0.41800000000E+01 0. -1.
        -11    1    1    2    0    0  0.67552017303E+02  0.48018191479E+02  0.94140539658E+02  0.12542512891E+03  0.00000000000E+00 0. -1.
         11    1    1    2    0    0  0.35608356978E+02 -0.31220296273E+02  0.11404714589E+02  0.48710671325E+02  0.00000000000E+00 0.  1.
</event>
<event>
 7    1  0.2612321E-009  0.1548776E+03  0.7561462E-02  0.1194604E+00
          2   -1    0    0  501    0  0.00000000000E+00  0.00000000000E+00  0.12398703686E+03  0.12398703686E+03  0.00000000000E+00 0.  1.
         -2   -1    0    0    0  501 -0.00000000000E+00 -0.00000000000E+00 -0.23874962288E+03  0.23874962288E+03  0.00000000000E+00 0. -1.
         25    2    1    2    0    0 -0.12500047391E+03 -0.27929294064E+02 -0.97726126818E+02  0.20396692592E+03  0.12508775745E+03 0.  0.
          5    1    3    3  502    0 -0.81716029064E+02  0.22978776765E+02  0.62390353912E+00  0.84990559730E+02  0.41800000000E+01 0. -1.
         -5    1    3    3    0  502 -0.43284444849E+02 -0.50908070829E+02 -0.98350030357E+02  0.11897636619E+03  0.41800000000E+01 0. -1.
        -11    1    1    2    0    0  0.11086270959E+02  0.41628419563E+02 -0.62194391765E+01  0.43525993874E+02  0.00000000000E+00 0.  1.
         11    1    1    2    0    0  0.11391420295E+03 -0.13699125499E+02 -0.10817020024E+02  0.11524373994E+03  0.00000000000E+00 0. -1.
</event>
<event>
 7    1  0.2612321E-009  0.1174418E+03  0.7561462E-02  0.1247378E+00
         -1   -1    0    0    0  501 -0.00000000000E+00  0.00000000000E+00  0.31513910174E+02  0.31513910174E+02  0.00000000000E+00 0.  1.
          1   -1    0    0  501    0  0.00000000000E+00 -0.00000000000E+00 -0.57941470659E+03  0.57941470659E+03  0.00000000000E+00 0. -1.
         25    2    1    2    0    0  0.20557624281E+01  0.66772129171E+02 -0.19416692579E+03  0.24044095818E+03  0.12509322886E+03 0.  0.
          5    1    3    3  502    0  0.29517846506E+02 -0.18702241100E+02 -0.11635892647E+03  0.12156458881E+03  0.41800000000E+01 0. -1.
         -5    1    3    3    0  502 -0.27462084078E+02  0.85474370270E+02 -0.77807999318E+02  0.11887636936E+03  0.41800000000E+01 0. -1.
        -11    1    1    2    0    0  0.14209478445E+01 -0.88147680258E+02 -0.29485374288E+03  0.30775113699E+03  0.00000000000E+00 0.  1.
         11    1    1    2    0    0 -0.34767102725E+01  0.21375551087E+02 -0.58880127750E+02  0.62736521599E+02  0.00000000000E+00 0. -1.
</event>
<event>
 7    1  0.2612321E-009  0.1149628E+03  0.7561462E-02  0.1251646E+00
          2   -1    0    0  501    0  0.00000000000E+00  0.00000000000E+00  0.61011238898E+03  0.61011238898E+03  0.00000000000E+00 0. -1.
         -2   -1    0    0    0  501 -0.00000000000E+00 -0.00000000000E+00 -0.24755542803E+02  0.24755542803E+02  0.00000000000E+00 0.  1.
         25    2    1    2    0    0 -0.19463448708E+02  0.34336363554E+02  0.22145305610E+03  0.25738788968E+03  0.12509699436E+03 0.  0.
          5    1    3    3  502    0  0.35978619409E+02  0.59241998513E+02  0.10357080400E+03  0.12469346127E+03  0.41800000000E+01 0. -1.
         -5    1    3    3    0  502 -0.55442068117E+02 -0.24905634959E+02  0.11788225211E+03  0.13269442841E+03  0.41800000000E+01 0. -1.
        -11    1    1    2    0    0  0.51132698667E+02  0.22427339842E+01  0.16380847785E+03  0.17161818128E+03  0.00000000000E+00 0.  1.
         11    1    1    2    0    0 -0.31669249959E+02 -0.36579097538E+02  0.20009531222E+03  0.20586186082E+03  0.00000000000E+00 0. -1.
</event>
<event>
 7    1  0.2612321E-009  0.9175710E+02  0.7561462E-02  0.1298652E+00
         -1   -1    0    0    0  501 -0.00000000000E+00  0.00000000000E+00  0.49878242182E+02  0.49878242182E+02  0.00000000000E+00 0.  1.
          1   -1    0    0  501    0  0.00000000000E+00 -0.00000000000E+00 -0.36626891589E+03  0.36626891589E+03  0.00000000000E+00 0. -1.
         25    2    1    2    0    0  0.64219021871E+02  0.27765890751E+02 -0.23408602557E+03  0.27447967121E+03  0.12509114710E+03 0.  0.
          5    1    3    3  502    0  0.53970490906E+02  0.42586194352E+02 -0.24397101078E+03  0.25350685265E+03  0.41800000000E+01 0.  1.
         -5    1    3    3    0  502  0.10248530965E+02 -0.14820303601E+02  0.98849852141E+01  0.20972818563E+02  0.41800000000E+01 0.  1.
        -11    1    1    2    0    0 -0.72252984265E+02 -0.54904289067E+01 -0.20234094426E+02  0.75233351129E+02  0.00000000000E+00 0.  1.
         11    1    1    2    0    0  0.80339623944E+01 -0.22275461844E+02 -0.62070553715E+02  0.66434135733E+02  0.00000000000E+00 0. -1.
</event>
<event>
 7    1  0.2612321E-009  0.1174641E+03  0.7561462E-02  0.1247340E+00
          1   -1    0    0  501    0  0.00000000000E+00  0.00000000000E+00  0.50480132532E+02  0.50480132532E+02  0.00000000000E+00 0.  1.
         -1   -1    0    0    0  501 -0.00000000000E+00 -0.00000000000E+00 -0.34117484801E+03  0.34117484801E+03  0.00000000000E+00 0. -1.
         25    2    1    2    0    0 -0.65609168345E+02  0.97366596141E+01 -0.20839913261E+03  0.25194650788E+03  0.12508988308E+03 0.  0.
          5    1    3    3  502    0  0.27070413250E+02 -0.15776817139E+02 -0.13070957560E+02  0.34205811847E+02  0.41800000000E+01 0. -1.
         -5    1    3    3    0  502 -0.92679581595E+02  0.25513476753E+02 -0.19532817505E+03  0.21774069603E+03  0.41800000000E+01 0. -1.
        -11    1    1    2    0    0  0.79276589145E+02  0.13231485524E+02 -0.40253008359E+02  0.89889679483E+02  0.00000000000E+00 0.  1.
         11    1    1    2    0    0 -0.13667420800E+02 -0.22968145138E+02 -0.42042574508E+02  0.49818793177E+02  0.00000000000E+00 0. -1.
</event>
<event>
 7    1  0.2612321E-009  0.1191172E+03  0.7561462E-02  0.1244561E+00
          2   -1    0    0  501    0  0.00000000000E+00  0.00000000000E+00  0.61835929265E+03  0.61835929265E+03  0.00000000000E+00 0. -1.
         -2   -1    0    0    0  501 -0.00000000000E+00 -0.00000000000E+00 -0.24179048099E+02  0.24179048099E+02  0.00000000000E+00 0.  1.
         25    2    1    2    0    0  0.44650910100E+02 -0.29193182006E+02  0.26935285034E+03  0.30173540605E+03  0.12508937456E+03 0.  0.
          5    1    3    3  502    0 -0.30863181437E+02 -0.48468051040E+02  0.10409274079E+03  0.11897251374E+03  0.41800000000E+01 0. -1.
         -5    1    3    3    0  502  0.75514091537E+02  0.19274869034E+02  0.16526010955E+03  0.18276289231E+03  0.41800000000E+01 0. -1.
        -11    1    1    2    0    0  0.23809650209E+02 -0.74196383702E+01  0.64810547909E+02  0.69443196908E+02  0.00000000000E+00 0. -1.
         11    1    1    2    0    0 -0.68460560309E+02  0.36612820376E+02  0.26001684630E+03  0.27135973779E+03  0.00000000000E+00 0.  1.
</event>
<event>
 7    1  0.2612321E-009  0.1681012E+03  0.7561462E-02  0.1179843E+00
          1   -1    0    0  501    0  0.00000000000E+00  0.00000000000E+00  0.55120967510E+03  0.55120967510E+03  0.00000000000E+00 0. -1.
         -1   -1    0    0    0  501 -0.00000000000E+00 -0.00000000000E+00 -0.61132859105E+02  0.61132859105E+02  0.00000000000E+00 0.  1.
         25    2    1    2    0    0 -0.11672093101E+03  0.83011266013E+02  0.19881477877E+03  0.27511752780E+03  0.12509073436E+03 0.  0.
          5    1    3    3  502    0 -0.13229109362E+03  0.82560087398E+02  0.20520774104E+03  0.25776887101E+03  0.41800000000E+01 0. -1.
         -5    1    3    3    0  502  0.15570162608E+02  0.45117861545E+00 -0.63929622634E+01  0.17348656786E+02  0.41800000000E+01 0. -1.
        -11    1    1    2    0    0 -0.65921649483E+01 -0.28504169326E+02  0.23841787959E+02  0.37740895071E+02  0.00000000000E+00 0.  1.
         11    1    1    2    0    0  0.12331309596E+03 -0.54507096687E+02  0.26742024926E+03  0.29948411133E+03  0.00000000000E+00 0. -1.
</event>
<event>
 7    1  0.2612321E-009  0.9499888E+02  0.7561462E-02  0.1291179E+00
         -1   -1    0    0    0  501 -0.00000000000E+00  0.00000000000E+00  0.55955056146E+02  0.55955056146E+02  0.00000000000E+00 0.  1.
          1   -1    0    0  501    0  0.00000000000E+00 -0.00000000000E+00 -0.22585795328E+03  0.22585795328E+03  0.00000000000E+00 0. -1.
         25    2    1    2    0    0 -0.12921533350E+02 -0.27143482057E+02 -0.11017114883E+03  0.16937634044E+03  0.12508768134E+03 0.  0.
          5    1    3    3  502    0 -0.27542630885E+02  0.46084638031E+02 -0.45154516091E+02  0.70276547311E+02  0.41800000000E+01 0. -1.
         -5    1    3    3    0  502  0.14621097535E+02 -0.73228120087E+02 -0.65016632739E+02  0.99099793125E+02  0.41800000000E+01 0. -1.
        -11    1    1    2    0    0 -0.18419712874E+02 -0.20399873348E+01  0.16621185487E+02  0.24893998829E+02  0.00000000000E+00 0.  1.
         11    1    1    2    0    0  0.31341246224E+02  0.29183469391E+02 -0.76352933796E+02  0.87542670166E+02  0.00000000000E+00 0. -1.
</event>
<event>
 7    1  0.2612321E-009  0.8846122E+02  0.7561462E-02  0.1306621E+00
          2   -1    0    0  501    0  0.00000000000E+00  0.00000000000E+00  0.10978294212E+03  0.10978294212E+03  0.00000000000E+00 0. -1.
         -2   -1    0    0    0  501 -0.00000000000E+00 -0.00000000000E+00 -0.16008767235E+03  0.16008767235E+03  0.00000000000E+00 0.  1.
         25    2    1    2    0    0  0.42784264524E+02  0.41317104496E+02  0.24105770833E+02  0.14060094919E+03  0.12509972946E+03 0.  0.
          5    1    3    3  502    0  0.33670206401E+02  0.61470375109E+02 -0.34201629675E+02  0.78099383400E+02  0.41800000000E+01 0.  1.
         -5    1    3    3    0  502  0.91140581230E+01 -0.20153270613E+02  0.58307400508E+02  0.62501565787E+02  0.41800000000E+01 0.  1.
        -11    1    1    2    0    0 -0.32482437642E+02  0.82991587134E+01 -0.70955951199E+02  0.78477587890E+02  0.00000000000E+00 0.  1.
         11    1    1    2    0    0 -0.10301826882E+02 -0.49616263209E+02 -0.34545498637E+01  0.50792077401E+02  0.00000000000E+00 0. -1.
</event>
<event>
 7    1  0.2612321E-009  0.5956232E+02  0.7561462E-02  0.1399678E+00
          1   -1    0    0  501    0  0.00000000000E+00  0.00000000000E+00  0.16248344146E+03  0.16248344146E+03  0.00000000000E+00 0. -1.
         -1   -1    0    0    0  501 -0.00000000000E+00 -0.00000000000E+00 -0.72704105351E+02  0.72704105351E+02  0.00000000000E+00 0.  1.
         25    2    1    2    0    0  0.14757841118E+02  0.31601814960E+01  0.49444191635E+02  0.13534928692E+03  0.12508765231E+03 0.  0.
          5    1    3    3  502    0  0.25459734066E+02  0.68602182753E+01  0.89561304983E+02  0.93455660095E+02  0.41800000000E+01 0. -1.
         -5    1    3    3    0  502 -0.10701892947E+02 -0.37000367793E+01 -0.40117113348E+02  0.41893626821E+02  0.41800000000E+01 0. -1.
        -11    1    1    2    0    0 -0.37038496327E+02  0.24822995651E+02 -0.17299464479E+01  0.44620892393E+02  0.00000000000E+00 0.  1.
         11    1    1    2    0    0  0.22280655209E+02 -0.27983177147E+02  0.42065090926E+02  0.55217367506E+02  0.00000000000E+00 0. -1.
</event>
<event>
 7    1  0.2612321E-009  0.1517752E+03  0.7561462E-02  0.1198308E+00
         -2   -1    0    0    0  501 -0.00000000000E+00  0.00000000000E+00  0.60799256746E+02  0.60799256746E+02  0.00000000000E+00 0.  1.
          2   -1    0    0  501    0  0.00000000000E+00 -0.00000000000E+00 -0.44972271814E+03  0.44972271814E+03  0.00000000000E+00 0. -1.
         25    2    1    2    0    0 -0.11617395589E+03 -0.18479489278E+02 -0.24478136363E+03  0.29900389036E+03  0.12509009120E+03 0.  0.
          5    1    3    3  502    0 -0.59069394426E+02 -0.68832278294E+02 -0.97992510771E+02  0.13359296561E+03  0.41800000000E+01 0.  1.
         -5    1    3    3    0  502 -0.57104561461E+02  0.50352789016E+02 -0.14678885286E+03  0.16541092475E+03  0.41800000000E+01 0.  1.
        -11    1    1    2    0    0  0.46891457640E+02 -0.26537037182E+02 -0.10928138235E+03  0.12184187979E+03  0.00000000000E+00 0.  1.
         11    1    1    2    0    0  0.69282498247E+02  0.45016526459E+02 -0.34860715410E+02  0.89676204741E+02  0.00000000000E+00 0. -1.
</event>
<event>
 7    1  0.2784352E-009  0.1317385E+03  0.7561462E-02  0.1224899E+00
         -3   -1    0    0    0  501 -0.00000000000E+00  0.00000000000E+00  0.62781847900E+02  0.62781847900E+02  0.00000000000E+00 0.  1.
          3   -1    0    0  501    0  0.00000000000E+00 -0.00000000000E+00 -0.37525301075E+03  0.37525301075E+03  0.00000000000E+00 0. -1.
         25    2    1    2    0    0 -0.99607102722E+02 -0.21986484442E+02 -0.22187858878E+03  0.27437781290E+03  0.12509234847E+03 0.  0.
          5    1    3    3  502    0 -0.96842423842E+02 -0.50498864995E+02 -0.96826639654E+02  0.14601870075E+03  0.41800000000E+01 0. -1.
         -5    1    3    3    0  502 -0.27646788801E+01  0.28512380553E+02 -0.12505194912E+03  0.12835911215E+03  0.41800000000E+01 0. -1.
        -11    1    1    2    0    0  0.68291293001E+02 -0.21540489602E+02 -0.82804629055E+02  0.10947282761E+03  0.00000000000E+00 0. -1.
         11    1    1    2    0    0  0.31315809721E+02  0.43526974043E+02 -0.77879450231E+01  0.54184218141E+02  0.00000000000E+00 0.  1.
</event>
<event>
 7    1  0.2612321E-009  0.2237130E+03  0.7561462E-02  0.1131145E+00
          2   -1    0    0  501    0  0.00000000000E+00  0.00000000000E+00  0.25100058227E+04  0.25100058227E+04  0.00000000000E+00 0. -1.
         -2   -1    0    0    0  501 -0.00000000000E+00 -0.00000000000E+00 -0.23798091414E+02  0.23798091414E+02  0.00000000000E+00 0.  1.
         25    2    1    2    0    0 -0.20413210693E+03 -0.51330758730E+02  0.15912454585E+04  0.16099733501E+04  0.12508922827E+03 0.  0.
          5    1    3    3  502    0 -0.53193889085E+01 -0.18507408083E+02  0.30788647549E+02  0.36554524620E+02  0.41800000000E+01 0. -1.
         -5    1    3    3    0  502 -0.19881271802E+03 -0.32823350647E+02  0.15604568109E+04  0.15734188255E+04  0.41800000000E+01 0. -1.
        -11    1    1    2    0    0  0.45439201602E+02 -0.23007345312E+02  0.27010872111E+03  0.27486865991E+03  0.00000000000E+00 0. -1.
         11    1    1    2    0    0  0.15869290532E+03  0.74338104042E+02  0.62485355170E+03  0.64896190411E+03  0.00000000000E+00 0.  1.
</event>
<event>
 7    1  0.2612321E-009  0.3897007E+03  0.7561462E-02  0.1047405E+00
          2   -1    0    0  501    0  0.00000000000E+00  0.00000000000E+00  0.12617852844E+04  0.12617852844E+04  0.00000000000E+00 0. -1.
         -2   -1    0    0    0  501 -0.00000000000E+00 -0.00000000000E+00 -0.12132302321E+03  0.12132302321E+03  0.00000000000E+00 0.  1.
         25    2    1    2    0    0  0.56358294760E+02 -0.37035533437E+03  0.54325948826E+03  0.67165108846E+03  0.12507990231E+03 0.  0.
          5    1    3    3  502    0 -0.31145358293E+01 -0.30903112954E+03  0.43680721988E+03  0.53509621480E+03  0.41800000000E+01 0. -1.
         -5    1    3    3    0  502  0.59472830589E+02 -0.61324204827E+02  0.10645226838E+03  0.13655487366E+03  0.41800000000E+01 0. -1.
        -11    1    1    2    0    0 -0.62586460055E+02  0.12918779174E+03  0.18961877674E+03  0.23782731342E+03  0.00000000000E+00 0.  1.
         11    1    1    2    0    0  0.62281652955E+01  0.24116754263E+03  0.40758399623E+03  0.47362990577E+03  0.00000000000E+00 0. -1.
</event>
<event>
 7    1  0.2612321E-009  0.1298056E+03  0.7561462E-02  0.1227744E+00
          1   -1    0    0  501    0  0.00000000000E+00  0.00000000000E+00  0.39166030610E+03  0.39166030610E+03  0.00000000000E+00 0. -1.
         -1   -1    0    0    0  501 -0.00000000000E+00 -0.00000000000E+00 -0.65577425922E+02  0.65577425922E+02  0.00000000000E+00 0.  1.
         25    2    1    2    0    0 -0.39059528217E+02 -0.74206606689E+02  0.28610591830E+03  0.32331776671E+03  0.12508203134E+03 0.  0.
          5    1    3    3  502    0 -0.52192095089E+02  0.19243826779E+02  0.11699028085E+03  0.12960917356E+03  0.41800000000E+01 0.  1.
         -5    1    3    3    0  502  0.13132566872E+02 -0.93450433468E+02  0.16911563746E+03  0.19370859315E+03  0.41800000000E+01 0.  1.
        -11    1    1    2    0    0  0.48839734100E+02  0.17589328580E+02 -0.15374363470E+02  0.54139404864E+02  0.00000000000E+00 0.  1.
         11    1    1    2    0    0 -0.97802058837E+01  0.56617278109E+02  0.55351325344E+02  0.79780560445E+02  0.00000000000E+00 0. -1.
</event>
<event>
 7    1  0.2612321E-009  0.8245991E+02  0.7561462E-02  0.1322212E+00
          2   -1    0    0  501    0  0.00000000000E+00  0.00000000000E+00  0.34290836787E+03  0.34290836787E+03  0.00000000000E+00 0.  1.
         -2   -1    0    0    0  501 -0.00000000000E+00 -0.00000000000E+00 -0.34803932418E+02  0.34803932418E+02  0.00000000000E+00 0. -1.
         25    2    1    2    0    0 -0.18731918973E+02  0.51811048753E+01  0.17316362100E+03  0.21450118593E+03  0.12508952990E+03 0.  0.
          5    1    3    3  502    0  0.43294379426E+02  0.35164983535E+02  0.94850294860E+02  0.11011371482E+03  0.41800000000E+01 0. -1.
         -5    1    3    3    0  502 -0.62026298398E+02 -0.29983878660E+02  0.78313326145E+02  0.10438747111E+03  0.41800000000E+01 0. -1.
        -11    1    1    2    0    0  0.13391246240E+02 -0.20082439679E+02  0.14329404923E+03  0.14531281569E+03  0.00000000000E+00 0.  1.
         11    1    1    2    0    0  0.53406727331E+01  0.14901334804E+02 -0.83532347763E+01  0.17898298674E+02  0.00000000000E+00 0. -1.
</event>
<event>
 7    1  0.2612321E-009  0.1001273E+03  0.7561462E-02  0.1280029E+00
          1   -1    0    0  501    0  0.00000000000E+00  0.00000000000E+00  0.11693946245E+03  0.11693946245E+03  0.00000000000E+00 0. -1.
         -1   -1    0    0    0  501 -0.00000000000E+00 -0.00000000000E+00 -0.12876635499E+03  0.12876635499E+03  0.00000000000E+00 0.  1.
         25    2    1    2    0    0  0.32550282969E+01 -0.52833596428E+01  0.50589492292E+02  0.13507589258E+03  0.12509073078E+03 0.  0.
          5    1    3    3  502    0  0.26958594239E+02  0.49526012964E+02 -0.24355703926E+00  0.56543111725E+02  0.41800000000E+01 0. -1.
         -5    1    3    3    0  502 -0.23703565943E+02 -0.54809372607E+02  0.50833049331E+02  0.78532780851E+02  0.41800000000E+01 0. -1.
        -11    1    1    2    0    0 -0.17682858074E+02  0.41367755686E+02 -0.11241656481E+02  0.46371861302E+02  0.00000000000E+00 0. -1.
         11    1    1    2    0    0  0.14427829777E+02 -0.36084396044E+02 -0.51174728359E+02  0.64258063560E+02  0.00000000000E+00 0.  1.
</event>
<event>
 7    1  0.2612321E-009  0.9514369E+02  0.7561462E-02  0.1290853E+00
          3   -1    0    0  501    0  0.00000000000E+00  0.00000000000E+00  0.60450567792E+02  0.60450567792E+02  0.00000000000E+00 0. -1.
         -3   -1    0    0    0  501 -0.00000000000E+00 -0.00000000000E+00 -0.35425017594E+03  0.35425017594E+03  0.00000000000E+00 0.  1.
         25    2    1    2    0    0 -0.40778286127E+01  0.66310218675E+02 -0.28239676388E+03  0.31592758233E+03  0.12509448926E+03 0.  0.
          5    1    3    3  502    0 -0.26200125303E+02 -0.36771858340E+01 -0.29214636052E+01  0.26943934589E+02  0.41800000000E+01 0. -1.
         -5    1    3    3    0  502  0.22122296690E+02  0.69987404509E+02 -0.27947530027E+03  0.28898364774E+03  0.41800000000E+01 0. -1.
        -11    1    1    2    0    0  0.16536948481E+02  0.52467642928E+01 -0.19016659589E+02  0.25741649957E+02  0.00000000000E+00 0.  1.
         11    1    1    2    0    0 -0.12459119868E+02 -0.71556982967E+02  0.76138153217E+01  0.73031511439E+02  0.00000000000E+00 0. -1.
</event>
<event>
 7    1  0.2612321E-009  0.9406826E+02  0.7561462E-02  0.1293288E+00
         -1   -1    0    0    0  501 -0.00000000000E+00  0.00000000000E+00  0.58312062048E+02  0.58312062048E+02  0.00000000000E+00 0.  1.
          1   -1    0    0  501    0  0.00000000000E+00 -0.00000000000E+00 -0.44406699282E+03  0.44406699282E+03  0.00000000000E+00 0. -1.
         25    2    1    2    0    0 -0.17458564788E+02  0.72965063646E+02 -0.62600336592E+02  0.15872783329E+03  0.12508805268E+03 0.  0.
          5    1    3    3  502    0 -0.76565791380E+01  0.18378239833E+02  0.38383430963E+02  0.43441260064E+02  0.41800000000E+01 0.  1.
         -5    1    3    3    0  502 -0.98019856505E+01  0.54586823813E+02 -0.10098376755E+03  0.11528657323E+03  0.41800000000E+01 0.  1.
        -11    1    1    2    0    0  0.48913807017E+02 -0.25305888537E+02 -0.11050341256E+03  0.12346640312E+03  0.00000000000E+00 0.  1.
         11    1    1    2    0    0 -0.31455242229E+02 -0.47659175109E+02 -0.21265118162E+03  0.22018481846E+03  0.00000000000E+00 0. -1.
</event>
<event>
 7    1  0.2612321E-009  0.1019636E+03  0.7561462E-02  0.1276220E+00
          1   -1    0    0  501    0  0.00000000000E+00  0.00000000000E+00  0.16300528222E+03  0.16300528222E+03  0.00000000000E+00 0. -1.
         -1   -1    0    0    0  501 -0.00000000000E+00 -0.00000000000E+00 -0.72405975799E+02  0.72405975799E+02  0.00000000000E+00 0.  1.
         25    2    1    2    0    0  0.24400634126E+01  0.23903679611E+01  0.51437298502E+02  0.13528852677E+03  0.12508206118E+03 0.  0.
          5    1    3    3  502    0  0.57569643761E+02  0.81815350941E+01 -0.17887688927E+01  0.58325581809E+02  0.41800000000E+01 0.  1.
         -5    1    3    3    0  502 -0.55129580348E+02 -0.57911671330E+01  0.53226067395E+02  0.76962944957E+02  0.41800000000E+01 0.  1.
        -11    1    1    2    0    0  0.43570012882E+02  0.32148177144E+01  0.29669034276E+02  0.52810346243E+02  0.00000000000E+00 0.  1.
         11    1    1    2    0    0 -0.46010076294E+02 -0.56051856755E+01  0.94929736470E+01  0.47312385014E+02  0.00000000000E+00 0. -1.
</event>
<event>
 7    1  0.2612321E-009  0.1319666E+03  0.7561462E-02  0.1224566E+00
          3   -1    0    0  501    0  0.00000000000E+00  0.00000000000E+00  0.91248849873E+02  0.91248849873E+02  0.00000000000E+00 0. -1.
         -3   -1    0    0    0  501 -0.00000000000E+00 -0.00000000000E+00 -0.28025002058E+03  0.28025002058E+03  0.00000000000E+00 0.  1.
         25    2    1    2    0    0  0.83668275760E+02  0.57540640884E+02 -0.14035897175E+03  0.21367976178E+03  0.12508834447E+03 0.  0.
          5    1    3    3  502    0  0.15349493068E+02  0.67190263387E+02 -0.15199602133E+02  0.70701051876E+02  0.41800000000E+01 0.  1.
         -5    1    3    3    0  502  0.68318782692E+02 -0.96496225020E+01 -0.12515936962E+03  0.14297870991E+03  0.41800000000E+01 0.  1.
        -11    1    1    2    0    0 -0.19607460243E+02 -0.58495254920E+02 -0.67094139772E+02  0.91146974371E+02  0.00000000000E+00 0.  1.
         11    1    1    2    0    0 -0.64060815517E+02  0.95461403540E+00  0.18451940814E+02  0.66672134302E+02  0.00000000000E+00 0. -1.
</event>
<event>
 7    1  0.2612321E-009  0.1452101E+03  0.7561462E-02  0.1206485E+00
         -1   -1    0    0    0  501 -0.00000000000E+00  0.00000000000E+00  0.16312333957E+02  0.16312333957E+02  0.00000000000E+00 0.  1.
          1   -1    0    0  501    0  0.00000000000E+00 -0.00000000000E+00 -0.15213146053E+04  0.15213146053E+04  0.00000000000E+00 0. -1.
         25    2    1    2    0    0 -0.95544455092E+02  0.56882690998E+02 -0.92218165515E+03  0.93724665067E+03  0.12509154918E+03 0.  0.
          5    1    3    3  502    0 -0.96533685670E+02  0.78538676852E+02 -0.52945623306E+03  0.54390114116E+03  0.41800000000E+01 0.  1.
         -5    1    3    3    0  502  0.98923057735E+00 -0.21655985854E+02 -0.39272542208E+03  0.39334550951E+03  0.41800000000E+01 0.  1.
        -11    1    1    2    0    0  0.48388111618E+02  0.21024123883E+02 -0.19498343893E+03  0.20199496179E+03  0.00000000000E+00 0.  1.
         11    1    1    2    0    0  0.47156343474E+02 -0.77906814881E+02 -0.38783717722E+03  0.39838532675E+03  0.00000000000E+00 0. -1.
</event>
<event>
 7    1  0.2612321E-009  0.1011141E+03  0.7561462E-02  0.1277971E+00
         -1   -1    0    0    0  501 -0.00000000000E+00  0.00000000000E+00  0.10775510052E+03  0.10775510052E+03  0.00000000000E+00 0.  1.
          1   -1    0    0  501    0  0.00000000000E+00 -0.00000000000E+00 -0.11932080044E+03  0.11932080044E+03  0.00000000000E+00 0. -1.
         25    2    1    2    0    0 -0.19784126516E+02 -0.24455172189E+02 -0.23089950070E+02  0.13103379736E+03  0.12508894095E+03 0.  0.
          5    1    3    3  502    0 -0.50382811170E+02  0.21964359961E+02 -0.44971917086E+02  0.71139345627E+02  0.41800000000E+01 0.  1.
         -5    1    3    3    0  502  0.30598684653E+02 -0.46419532150E+02  0.21881967016E+02  0.59894451730E+02  0.41800000000E+01 0.  1.
        -11    1    1    2    0    0  0.51221709483E+02  0.30102174947E+02 -0.58192037077E+01  0.59696462128E+02  0.00000000000E+00 0. -1.
         11    1    1    2    0    0 -0.31437582966E+02 -0.56470027574E+01  0.17343453856E+02  0.36345641480E+02  0.00000000000E+00 0.  1.
</event>
<event>
 7    1  0.2612321E-009  0.1549977E+03  0.7561462E-02  0.1194463E+00
          2   -1    0    0  501    0  0.00000000000E+00  0.00000000000E+00  0.60288342118E+03  0.60288342118E+03  0.00000000000E+00 0. -1.
         -2   -1    0    0    0  501 -0.00000000000E+00 -0.00000000000E+00 -0.93485046885E+02  0.93485046885E+02  0.00000000000E+00 0.  1.
         25    2    1    2    0    0 -0.11660140665E+03 -0.75593385799E+02  0.49423879257E+03  0.52841809799E+03  0.12507379501E+03 0.  0.
          5    1    3    3  502    0 -0.11560391002E+03 -0.24254499926E+02  0.43066862362E+03  0.44659319358E+03  0.41800000000E+01 0. -1.
         -5    1    3    3    0  502 -0.99749662276E+00 -0.51338885873E+02  0.63570168947E+02  0.81824904413E+02  0.41800000000E+01 0. -1.
        -11    1    1    2    0    0  0.35287540514E+02  0.12771946090E+02 -0.37012974490E+02  0.52709519093E+02  0.00000000000E+00 0.  1.
         11    1    1    2    0    0  0.81313866133E+02  0.62821439709E+02  0.52172556218E+02  0.11524085098E+03  0.00000000000E+00 0. -1.
</event>
<event>
 7    1  0.2612321E-009  0.8855165E+02  0.7561462E-02  0.1306397E+00
         -2   -1    0    0    0  501 -0.00000000000E+00  0.00000000000E+00  0.73653774353E+02  0.73653774353E+02  0.00000000000E+00 0.  1.
          2   -1    0    0  501    0  0.00000000000E+00 -0.00000000000E+00 -0.16564442077E+03  0.16564442077E+03  0.00000000000E+00 0. -1.
         25    2    1    2    0    0  0.54935422066E+01 -0.17505023870E+02 -0.38389867675E+02  0.13213439267E+03  0.12509640650E+03 0.  0.
          5    1    3    3  502    0  0.20900251160E+02  0.31689918641E+02 -0.63917015074E+02  0.74457562799E+02  0.41800000000E+01 0.  1.
         -5    1    3    3    0  502 -0.15406708953E+02 -0.49194942511E+02  0.25527147399E+02  0.57676829870E+02  0.41800000000E+01 0.  1.
        -11    1    1    2    0    0 -0.45048874857E+02  0.33228238853E+01 -0.45982259967E+02  0.64457819666E+02  0.00000000000E+00 0. -1.
         11    1    1    2    0    0  0.39555332650E+02  0.14182199985E+02 -0.76185187750E+01  0.42705982787E+02  0.00000000000E+00 0.  1.
</event>
<event>
 7    1  0.2612321E-009  0.1061670E+03  0.7561462E-02  0.1267837E+00
         -2   -1    0    0    0  501 -0.00000000000E+00  0.00000000000E+00  0.61205031602E+02  0.61205031602E+02  0.00000000000E+00 0.  1.
          2   -1    0    0  501    0  0.00000000000E+00 -0.00000000000E+00 -0.19737702129E+03  0.19737702129E+03  0.00000000000E+00 0. -1.
         25    2    1    2    0    0 -0.15134642240E+02  0.20469699839E+00 -0.76038142410E+02  0.14717211909E+03  0.12509490093E+03 0.  0.
          5    1    3    3  502    0 -0.60632692327E+02  0.31598006480E+02 -0.55114179553E+02  0.87919295835E+02  0.41800000000E+01 0.  1.
         -5    1    3    3    0  502  0.45498050087E+02 -0.31393309482E+02 -0.20923962857E+02  0.59252823254E+02  0.41800000000E+01 0.  1.
        -11    1    1    2    0    0 -0.23974666779E+02  0.30415535244E+02 -0.82774686976E+01  0.39603104921E+02  0.00000000000E+00 0.  1.
         11    1    1    2    0    0  0.39109309019E+02 -0.30620232243E+02 -0.51856378580E+02  0.71806828881E+02  0.00000000000E+00 0. -1.
</event>
<event>
 7    1  0.2612321E-009  0.1173629E+03  0.7561462E-02  0.1247512E+00
          2   -1    0    0  501    0  0.00000000000E+00  0.00000000000E+00  0.22362683916E+03  0.22362683916E+03  0.00000000000E+00 0. -1.
         -2   -1    0    0    0  501 -0.00000000000E+00 -0.00000000000E+00 -0.75094246355E+02  0.75094246355E+02  0.00000000000E+00 0.  1.
         25    2    1    2    0    0  0.58848200588E+02  0.40250418146E+02  0.93060633132E+02  0.17143677960E+03  0.12508829316E+03 0.  0.
          5    1    3    3  502    0  0.57953723171E+02 -0.30920125557E+02  0.18715155234E+02  0.68428193234E+02  0.41800000000E+01 0. -1.
         -5    1    3    3    0  502  0.89447741729E+00  0.71170543703E+02  0.74345477897E+02  0.10300858636E+03  0.41800000000E+01 0. -1.
        -11    1    1    2    0    0 -0.69083171428E+02 -0.15465962730E+02  0.67572484473E+02  0.97865832830E+02  0.00000000000E+00 0. -1.
         11    1    1    2    0    0  0.10234970840E+02 -0.24784455416E+02 -0.12100524800E+02  0.29418473087E+02  0.00000000000E+00 0.  1.
</event>
<event>
 7    1  0.2612321E-009  0.1033903E+03  0.7561462E-02  0.1273324E+00
         -2   -1    0    0    0  501 -0.00000000000E+00  0.00000000000E+00  0.39265801693E+02  0.39265801693E+02  0.00000000000E+00 0.  1.
          2   -1    0    0  501    0  0.00000000000E+00 -0.00000000000E+00 -0.32510180974E+03  0.32510180974E+03  0.00000000000E+00 0. -1.
         25    2    1    2    0    0  0.22858974850E+02  0.19044303904E+02 -0.16368642642E+03  0.20814890049E+03  0.12508996897E+03 0.  0.
          5    1    3    3  502    0  0.39226780453E+02 -0.46303888060E+02 -0.84130592446E+02  0.10381820332E+03  0.41800000000E+01 0. -1.
         -5    1    3    3    0  502 -0.16367805603E+02  0.65348191964E+02 -0.79555833972E+02  0.10433069717E+03  0.41800000000E+01 0. -1.
        -11    1    1    2    0    0  0.23756303371E+02 -0.21128437081E+02 -0.78297585689E+01  0.32742601035E+02  0.00000000000E+00 0.  1.
         11    1    1    2    0    0 -0.46615278220E+02  0.20841331764E+01 -0.11431982306E+03  0.12347610992E+03  0.00000000000E+00 0. -1.
</event>
<event>
 7    1  0.2612321E-009  0.1101967E+03  0.7561462E-02  0.1260206E+00
          1   -1    0    0  501    0  0.00000000000E+00  0.00000000000E+00  0.51661039433E+03  0.51661039433E+03  0.00000000000E+00 0. -1.
         -1   -1    0    0    0  501 -0.00000000000E+00 -0.00000000000E+00 -0.33455042975E+02  0.33455042975E+02  0.00000000000E+00 0.  1.
         25    2    1    2    0    0  0.50020387837E+02  0.51400453339E+02  0.25999608871E+03  0.29730749045E+03  0.12509888861E+03 0.  0.
          5    1    3    3  502    0 -0.12639386655E+02 -0.95652981128E+01 -0.58646646218E+01  0.17410218669E+02  0.41800000000E+01 0.  1.
         -5    1    3    3    0  502  0.62659774491E+02  0.60965751452E+02  0.26586075333E+03  0.27989727178E+03  0.41800000000E+01 0.  1.
        -11    1    1    2    0    0 -0.72717804259E+01  0.26574738260E+02  0.75735721892E+02  0.80591532277E+02  0.00000000000E+00 0.  1.
         11    1    1    2    0    0 -0.42748607411E+02 -0.77975191599E+02  0.14742354076E+03  0.17216641458E+03  0.00000000000E+00 0. -1.
</event>
<event>
 7    1  0.2612321E-009  0.1461916E+03  0.7561462E-02  0.1205232E+00
          1   -1    0    0  501    0  0.00000000000E+00  0.00000000000E+00  0.17229063325E+03  0.17229063325E+03  0.00000000000E+00 0. -1.
         -1   -1    0    0    0  501 -0.00000000000E+00 -0.00000000000E+00 -0.15901636863E+03  0.15901636863E+03  0.00000000000E+00 0.  1.
         25    2    1    2    0    0 -0.18783565411E+02 -0.11972541555E+03  0.47276956136E+02  0.18047049978E+03  0.12508994065E+03 0.  0.
          5    1    3    3  502    0  0.96316310842E+01  0.14538380488E+02  0.38993293408E+02  0.42919484566E+02  0.41800000000E+01 0.  1.
         -5    1    3    3    0  502 -0.28415196495E+02 -0.13426379604E+03  0.82836627276E+01  0.13755101521E+03  0.41800000000E+01 0.  1.
        -11    1    1    2    0    0 -0.79808790774E+01  0.10737638236E+03 -0.48378428055E+02  0.11804174779E+03  0.00000000000E+00 0.  1.
         11    1    1    2    0    0  0.26764444488E+02  0.12349033186E+02  0.14375736535E+02  0.32794754311E+02  0.00000000000E+00 0. -1.
</event>
<event>
 7    1  0.2612321E-009  0.1322508E+03  0.7561462E-02  0.1224154E+00
         -2   -1    0    0    0  501 -0.00000000000E+00  0.00000000000E+00  0.34533525458E+02  0.34533525458E+02  0.00000000000E+00 0.  1.
          2   -1    0    0  501    0  0.00000000000E+00 -0.00000000000E+00 -0.78530681257E+03  0.78530681257E+03  0.00000000000E+00 0. -1.
         25    2    1    2    0    0  0.88995240471E+00  0.10284211196E+03 -0.57748937613E+03  0.59976571285E+03  0.12509052223E+03 0.  0.
          5    1    3    3  502    0  0.57118468519E+02  0.85036742725E+02 -0.34874355139E+03  0.36350144993E+03  0.41800000000E+01 0. -1.
         -5    1    3    3    0  502 -0.56228516115E+02  0.17805369238E+02 -0.22874582474E+03  0.23626426292E+03  0.41800000000E+01 0. -1.
        -11    1    1    2    0    0 -0.35240013381E+00 -0.78914614323E+02 -0.47658910091E+02  0.92190087595E+02  0.00000000000E+00 0.  1.
         11    1    1    2    0    0 -0.53755227089E+00 -0.23927497640E+02 -0.12562500089E+03  0.12788453759E+03  0.00000000000E+00 0. -1.
</event>
<event>
 7    1  0.2612321E-009  0.1217927E+03  0.7561462E-02  0.1240169E+00
         -1   -1    0    0    0  501 -0.00000000000E+00  0.00000000000E+00  0.66369160017E+02  0.66369160017E+02  0.00000000000E+00 0.  1.
          1   -1    0    0  501    0  0.00000000000E+00 -0.00000000000E+00 -0.28672513000E+03  0.28672513000E+03  0.00000000000E+00 0. -1.
         25    2    1    2    0    0 -0.10967082117E+02  0.64398221034E+02 -0.48837589948E+02  0.14933649015E+03  0.12509544091E+03 0.  0.
          5    1    3    3  502    0  0.27665742027E+02 -0.24157648806E+02 -0.36321118391E+02  0.51823559496E+02  0.41800000000E+01 0. -1.
         -5    1    3    3    0  502 -0.38632824143E+02  0.88555869840E+02 -0.12516471558E+02  0.97512930654E+02  0.41800000000E+01 0. -1.
        -11    1    1    2    0    0  0.39950833163E+02 -0.69805858350E+02 -0.12199747865E+03  0.14612430232E+03  0.00000000000E+00 0.  1.
         11    1    1    2    0    0 -0.28983751046E+02  0.54076373163E+01 -0.49520901384E+02  0.57633497551E+02  0.00000000000E+00 0. -1.
</event>
<event>
 7    1  0.2612321E-009  0.1962206E+03  0.7561462E-02  0.1152967E+00
         -1   -1    0    0    0  501 -0.00000000000E+00  0.00000000000E+00  0.91183236728E+03  0.91183236728E+03  0.00000000000E+00 0.  1.
          1   -1    0    0  501    0  0.00000000000E+00 -0.00000000000E+00 -0.46015321069E+02  0.46015321069E+02  0.00000000000E+00 0. -1.
         25    2    1    2    0    0  0.16256584652E+03 -0.62438730462E+02  0.45821280193E+03  0.50590008227E+03  0.12509864858E+03 0.  0.
          5    1    3    3  502    0  0.16923703683E+03 -0.39959829796E+02  0.30724517664E+03  0.35306519738E+03  0.41800000000E+01 0. -1.
         -5    1    3    3    0  502 -0.66711903094E+01 -0.22478900665E+02  0.15096762529E+03  0.15283488489E+03  0.41800000000E+01 0. -1.
        -11    1    1    2    0    0 -0.47957152485E+02  0.64109264889E+02  0.15115899351E+03  0.17105241196E+03  0.00000000000E+00 0. -1.
         11    1    1    2    0    0 -0.11460869403E+03 -0.16705344276E+01  0.25644525077E+03  0.28089519411E+03  0.00000000000E+00 0.  1.
</event>
<event>
 7    1  0.2612321E-009  0.1091892E+03  0.7561462E-02  0.1262079E+00
          2   -1    0    0  501    0  0.00000000000E+00  0.00000000000E+00  0.24283156636E+03  0.24283156636E+03  0.00000000000E+00 0. -1.
         -2   -1    0    0    0  501 -0.00000000000E+00 -0.00000000000E+00 -0.80860366968E+02  0.80860366968E+02  0.00000000000E+00 0.  1.
         25    2    1    2    0    0 -0.39973304921E+02 -0.71604454596E+01 -0.45392761269E+01  0.13160324165E+03  0.12509864548E+03 0.  0.
          5    1    3    3  502    0  0.11590579730E+02 -0.56908137903E+02 -0.11982518690E+02  0.59446874201E+02  0.41800000000E+01 0.  1.
         -5    1    3    3    0  502 -0.51563884651E+02  0.49747692444E+02  0.74432425627E+01  0.72156367450E+02  0.41800000000E+01 0.  1.
        -11    1    1    2    0    0  0.38159060420E+02 -0.31619969354E+02  0.55099662331E+02  0.74107416250E+02  0.00000000000E+00 0.  1.
         11    1    1    2    0    0  0.18142445001E+01  0.38780414814E+02  0.11141081319E+03  0.11798127542E+03  0.00000000000E+00 0. -1.
</event>
<event>
 7    1  0.2612321E-009  0.8846519E+02  0.7561462E-02  0.1306612E+00
          2   -1    0    0  501    0  0.00000000000E+00  0.00000000000E+00  0.59778852978E+03  0.59778852978E+03  0.00000000000E+00 0. -1.
         -2   -1    0    0    0  501 -0.00000000000E+00 -0.00000000000E+00 -0.22320567441E+02  0.22320567441E+02  0.00000000000E+00 0.  1.
         25    2    1    2    0    0  0.29222079794E+02  0.22231488675E+02  0.34956654669E+03  0.37308931978E+03  0.12510276148E+03 0.  0.
          5    1    3    3  502    0 -0.32835755908E+02  0.22005849945E+02  0.36699837886E+02  0.54099859508E+02  0.41800000000E+01 0.  1.
         -5    1    3    3    0  502  0.62057835703E+02  0.22563873083E+00  0.31286670880E+03  0.31898946027E+03  0.41800000000E+01 0.  1.
        -11    1    1    2    0    0 -0.46021459274E+02 -0.31526121516E+02  0.21995818259E+03  0.22692173351E+03  0.00000000000E+00 0. -1.
         11    1    1    2    0    0  0.16799379480E+02  0.92946328405E+01  0.59432330530E+01  0.20098043926E+02  0.00000000000E+00 0.  1.
</event>
<event>
 7    1  0.3310442E-009  0.1115176E+03  0.7561462E-02  0.1257785E+00
         -1   -1    0    0    0  501 -0.00000000000E+00  0.00000000000E+00  0.77729280523E+02  0.77729280523E+02  0.00000000000E+00 0.  1.
          1   -1    0    0  501    0  0.00000000000E+00 -0.00000000000E+00 -0.32876906041E+03  0.32876906041E+03  0.00000000000E+00 0. -1.
         25    2    1    2    0    0 -0.10971798881E+03  0.44318796834E+01 -0.18663346056E+03  0.25008014643E+03  0.12510136854E+03 0.  0.
          5    1    3    3  502    0 -0.55727540746E+02 -0.21445350325E+01 -0.18735681708E+03  0.19552546416E+03  0.41800000000E+01 0.  1.
         -5    1    3    3    0  502 -0.53990448066E+02  0.65764147159E+01  0.72335652259E+00  0.54554682269E+02  0.41800000000E+01 0.  1.
        -11    1    1    2    0    0  0.64059411255E+02 -0.14782882884E+02  0.11980607828E+02  0.66825719305E+02  0.00000000000E+00 0.  1.
         11    1    1    2    0    0  0.45658577557E+02  0.10351003201E+02 -0.76386927152E+02  0.89592475195E+02  0.00000000000E+00 0. -1.
</event>
<event>
 7    1  0.2612321E-009  0.2884537E+03  0.7561462E-02  0.1091159E+00
          1   -1    0    0  501    0  0.00000000000E+00  0.00000000000E+00  0.38872966743E+03  0.38872966743E+03  0.00000000000E+00 0. -1.
         -1   -1    0    0    0  501 -0.00000000000E+00 -0.00000000000E+00 -0.41333464811E+03  0.41333464811E+03  0.00000000000E+00 0.  1.
         25    2    1    2    0    0 -0.27464949529E+03 -0.74652522317E+02 -0.27297699145E+03  0.41372573735E+03  0.12508878259E+03 0.  0.
          5    1    3    3  502    0 -0.10122471263E+03 -0.10591369419E+02 -0.17980598333E+03  0.20665498686E+03  0.41800000000E+01 0. -1.
         -5    1    3    3    0  502 -0.17342478267E+03 -0.64061152899E+02 -0.93171008122E+02  0.20707075049E+03  0.41800000000E+01 0. -1.
        -11    1    1    2    0    0  0.20776867462E+03  0.80863724932E+02  0.14813140853E+03  0.26767457548E+03  0.00000000000E+00 0.  1.
         11    1    1    2    0    0  0.66880820669E+02 -0.62112026146E+01  0.10024060224E+03  0.12066400271E+03  0.00000000000E+00 0. -1.
</event>
<event>
 7    1  0.2612321E-009  0.7216644E+02  0.7561462E-02  0.1352877E+00
          2   -1    0    0  501    0  0.00000000000E+00  0.00000000000E+00  0.28104134002E+02  0.28104134002E+02  0.00000000000E+00 0. -1.
         -2   -1    0    0    0  501 -0.00000000000E+00 -0.00000000000E+00 -0.46899304191E+03  0.46899304191E+03  0.00000000000E+00 0.  1.
         25    2    1    2    0    0  0.25635175955E+02  0.52636145281E+01 -0.32716097721E+03  0.35123592066E+03  0.12508996389E+03 0.  0.
          5    1    3    3  502    0  0.26294290650E+02  0.31363122457E+02 -0.32159543448E+03  0.32421617950E+03  0.41800000000E+01 0.  1.
         -5    1    3    3    0  502 -0.65911469461E+00 -0.26099507929E+02 -0.55655427313E+01  0.27019741157E+02  0.41800000000E+01 0.  1.
        -11    1    1    2    0    0 -0.24062306713E+02 -0.37457421738E+02 -0.10246316927E+03  0.11171729546E+03  0.00000000000E+00 0.  1.
         11    1    1    2    0    0 -0.15728692424E+01  0.32193807210E+02 -0.11264761420E+02  0.34143959791E+02  0.00000000000E+00 0. -1.
</event>
<event>
 7    1  0.2612321E-009  0.8588437E+02  0.7561462E-02  0.1313136E+00
         -2   -1    0    0    0  501 -0.00000000000E+00  0.00000000000E+00  0.15291682707E+03  0.15291682707E+03  0.00000000000E+00 0.  1.
          2   -1    0    0  501    0  0.00000000000E+00 -0.00000000000E+00 -0.85943105761E+02  0.85943105761E+02  0.00000000000E+00 0. -1.
         25    2    1    2    0    0 -0.19908369972E+02  0.17065512447E+02  0.66173705163E+02  0.14392361758E+03  0.12508986182E+03 0.  0.
          5    1    3    3  502    0 -0.19757097042E+02 -0.46276796790E+02  0.62486598421E+02  0.80336369018E+02  0.41800000000E+01 0.  1.
         -5    1    3    3    0  502 -0.15127292971E+00  0.63342309237E+02  0.36871067416E+01  0.63587248558E+02  0.41800000000E+01 0.  1.
        -11    1    1    2    0    0 -0.54419690476E+01  0.15557982938E+02 -0.36009326385E+02  0.39602240428E+02  0.00000000000E+00 0. -1.
         11    1    1    2    0    0  0.25350339019E+02 -0.32623495385E+02  0.36809342533E+02  0.55334074830E+02  0.00000000000E+00 0.  1.
</event>
<event>
 6    1  0.2612321E-009  0.6245505E+02  0.7561462E-02  0.1387809E+00
          2   -1    0    0  501    0  0.00000000000E+00  0.00000000000E+00  0.15092102097E+03  0.15092102097E+03  0.00000000000E+00 0. -1.
         -2   -1    0    0    0  501 -0.00000000000E+00 -0.00000000000E+00 -0.94258704289E+02  0.94258704289E+02  0.00000000000E+00 0.  1.
          5    1    1    2  502    0  0.12702916885E+00  0.17219672723E+02 -0.43690075285E+02  0.47146880527E+02  0.41800000000E+01 0.  1.
         -5    1    1    2    0  502  0.46140520521E+02  0.14103512703E+01  0.79606503525E+02  0.92117341083E+02  0.41800000000E+01 0.  1.
        -11    1    1    2    0    0 -0.42711094413E+02 -0.86335288339E+00  0.53512314119E+02  0.68472992680E+02  0.00000000000E+00 0. -1.
         11    1    1    2    0    0 -0.35564552770E+01 -0.17766671110E+02 -0.32766425674E+02  0.37442510973E+02  0.00000000000E+00 0.  1.
</event>
<event>
 7    1  0.2612321E-009  0.1023854E+03  0.7561462E-02  0.1275358E+00
          2   -1    0    0  501    0  0.00000000000E+00  0.00000000000E+00  0.69323394609E+03  0.69323394609E+03  0.00000000000E+00 0. -1.
         -2   -1    0    0    0  501 -0.00000000000E+00 -0.00000000000E+00 -0.25232004216E+02  0.25232004216E+02  0.00000000000E+00 0.  1.
         25    2    1    2    0    0  0.26139306709E+02  0.42035553562E+02  0.51544751830E+03  0.53271417177E+03  0.12509194046E+03 0.  0.
          5    1    3    3  502    0 -0.26266725580E+02 -0.17971180699E+02  0.32007814585E+03  0.32168368945E+03  0.41800000000E+01 0.  1.
         -5    1    3    3    0  502  0.52406032289E+02  0.60006734262E+02  0.19536937245E+03  0.21103048232E+03  0.41800000000E+01 0.  1.
        -11    1    1    2    0    0  0.37512843978E+01  0.21950650731E+02  0.59916118682E+01  0.23060845928E+02  0.00000000000E+00 0.  1.
         11    1    1    2    0    0 -0.29890591107E+02 -0.63986204293E+02  0.14656281171E+03  0.16269093261E+03  0.00000000000E+00 0. -1.
</event>
<event>
 7    1  0.2612321E-009  0.1268706E+03  0.7561462E-02  0.1232175E+00
         -2   -1    0    0    0  501 -0.00000000000E+00  0.00000000000E+00  0.39527253097E+02  0.39527253097E+02  0.00000000000E+00 0. -1.
          2   -1    0    0  501    0  0.00000000000E+00 -0.00000000000E+00 -0.52397407408E+03  0.52397407408E+03  0.00000000000E+00 0.  1.
         25    2    1    2    0    0  0.56943966844E+02  0.72190998046E+02 -0.23561166705E+03  0.28215204715E+03  0.12507103783E+03 0.  0.
          5    1    3    3  502    0  0.33253372216E+02 -0.17158328355E+02 -0.15475886662E+03  0.15927326892E+03  0.41800000000E+01 0. -1.
         -5    1    3    3    0  502  0.23690594627E+02  0.89349326401E+02 -0.80852800428E+02  0.12287877823E+03  0.41800000000E+01 0. -1.
        -11    1    1    2    0    0 -0.55730729788E+02 -0.89918701339E+02 -0.16760782673E+03  0.19820108646E+03  0.00000000000E+00 0. -1.
         11    1    1    2    0    0 -0.12132370561E+01  0.17727703293E+02 -0.81227327197E+02  0.83148193557E+02  0.00000000000E+00 0.  1.
</event>
<event>
 7    1  0.2612321E-009  0.1141501E+03  0.7561462E-02  0.1253072E+00
          1   -1    0    0  501    0  0.00000000000E+00  0.00000000000E+00  0.31492474584E+03  0.31492474584E+03  0.00000000000E+00 0.  1.
         -1   -1    0    0    0  501 -0.00000000000E+00 -0.00000000000E+00 -0.69653511944E+02  0.69653511944E+02  0.00000000000E+00 0. -1.
         25    2    1    2    0    0  0.28077487925E+02  0.76042492943E+02  0.21213059716E+03  0.25926447205E+03  0.12509144717E+03 0.  0.
          5    1    3    3  502    0  0.64142828198E+02  0.97289544589E+01  0.14186444392E+03  0.15605110641E+03  0.41800000000E+01 0. -1.
         -5    1    3    3    0  502 -0.36065340273E+02  0.66313538484E+02  0.70266153246E+02  0.10321336564E+03  0.41800000000E+01 0. -1.
        -11    1    1    2    0    0  0.39421229473E+01 -0.36929531799E+02  0.58087177362E+02  0.68945274138E+02  0.00000000000E+00 0.  1.
         11    1    1    2    0    0 -0.32019610872E+02 -0.39112961144E+02 -0.24946540628E+02  0.56368511593E+02  0.00000000000E+00 0. -1.
</event>
<event>
 7    1  0.2612321E-009  0.9194149E+02  0.7561462E-02  0.1298217E+00
          1   -1    0    0  501    0  0.00000000000E+00  0.00000000000E+00  0.48778292556E+03  0.48778292556E+03  0.00000000000E+00 0. -1.
         -1   -1    0    0    0  501 -0.00000000000E+00 -0.00000000000E+00 -0.25044288043E+02  0.25044288043E+02  0.00000000000E+00 0.  1.
         25    2    1    2    0    0  0.13065256170E+02  0.15594396181E+02  0.28828995093E+03  0.31491481110E+03  0.12508539618E+03 0.  0.
          5    1    3    3  502    0 -0.14930712894E+02  0.46450197575E+02  0.25954689884E+03  0.26412612923E+03  0.41800000000E+01 0. -1.
         -5    1    3    3    0  502  0.27995969064E+02 -0.30855801395E+02  0.28743052082E+02  0.50788681874E+02  0.41800000000E+01 0. -1.
        -11    1    1    2    0    0  0.13005706914E+01  0.37761875355E+02  0.80321265436E+02  0.88764612294E+02  0.00000000000E+00 0.  1.
         11    1    1    2    0    0 -0.14365826862E+02 -0.53356271535E+02  0.94127421153E+02  0.10914779020E+03  0.00000000000E+00 0. -1.
</event>
<event>
 7    1  0.2612321E-009  0.1315497E+03  0.7561462E-02  0.1225174E+00
         -1   -1    0    0    0  501 -0.00000000000E+00  0.00000000000E+00  0.39303334941E+02  0.39303334941E+02  0.00000000000E+00 0.  1.
          1   -1    0    0  501    0  0.00000000000E+00 -0.00000000000E+00 -0.12829868770E+04  0.12829868770E+04  0.00000000000E+00 0. -1.
         25    2    1    2    0    0  0.27478774623E+01 -0.10087026115E+03 -0.11438043882E+04  0.11550400825E+04  0.12508698302E+03 0.  0.
          5    1    3    3  502    0 -0.60571793654E+02 -0.42164993411E+02 -0.56518407356E+03  0.56999766513E+03  0.41800000000E+01 0.  1.
         -5    1    3    3    0  502  0.63319671116E+02 -0.58705267741E+02 -0.57862031464E+03  0.58504241738E+03  0.41800000000E+01 0.  1.
        -11    1    1    2    0    0 -0.10990006386E+02  0.65292642997E+02 -0.11084941457E+03  0.12911817138E+03  0.00000000000E+00 0. -1.
         11    1    1    2    0    0  0.82421289241E+01  0.35577618155E+02  0.10970260731E+02  0.38131958031E+02  0.00000000000E+00 0.  1.
</event>
<event>
 7    1  0.2612321E-009  0.1242433E+03  0.7561462E-02  0.1236257E+00
         -1   -1    0    0    0  501 -0.00000000000E+00  0.00000000000E+00  0.13020164211E+03  0.13020164211E+03  0.00000000000E+00 0.  1.
          1   -1    0    0  501    0  0.00000000000E+00 -0.00000000000E+00 -0.19969337257E+03  0.19969337257E+03  0.00000000000E+00 0. -1.
         25    2    1    2    0    0 -0.90690543584E+02  0.52142161557E+02 -0.95261855389E+02  0.18885157195E+03  0.12508603211E+03 0.  0.
          5    1    3    3  502    0 -0.38433571382E+02 -0.92912285430E+00 -0.10659945717E+03  0.11339717521E+03  0.41800000000E+01 0. -1.
         -5    1    3    3    0  502 -0.52256972202E+02  0.53071284411E+02  0.11337601777E+02  0.75454396736E+02  0.41800000000E+01 0. -1.
        -11    1    1    2    0    0  0.10768808227E+03 -0.46610875604E+02  0.11002447435E+02  0.11785733171E+03  0.00000000000E+00 0. -1.
         11    1    1    2    0    0 -0.16997538691E+02 -0.55312859536E+01  0.14767677494E+02  0.23186111024E+02  0.00000000000E+00 0.  1.
</event>
<event>
 7    1  0.2612321E-009  0.9677190E+02  0.7561462E-02  0.1287234E+00
         -3   -1    0    0    0  501 -0.00000000000E+00  0.00000000000E+00  0.31072543162E+03  0.31072543162E+03  0.00000000000E+00 0.  1.
          3   -1    0    0  501    0  0.00000000000E+00 -0.00000000000E+00 -0.39914938902E+02  0.39914938902E+02  0.00000000000E+00 0. -1.
         25    2    1    2    0    0 -0.12469859851E+02 -0.27225730933E+02  0.15359397384E+03  0.20033973647E+03  0.12509261920E+03 0.  0.
          5    1    3    3  502    0 -0.44447300000E+02 -0.64580865189E+02  0.10474444542E+03  0.13090119126E+03  0.41800000000E+01 0.  1.
         -5    1    3    3    0  502  0.31977440149E+02  0.37355134256E+02  0.48849528419E+02  0.69438545207E+02  0.41800000000E+01 0.  1.
        -11    1    1    2    0    0  0.13169039006E+02  0.45514913362E+02  0.12242270080E+03  0.13127204042E+03  0.00000000000E+00 0.  1.
         11    1    1    2    0    0 -0.69917915510E+00 -0.18289182429E+02 -0.52061819207E+01  0.19028593632E+02  0.00000000000E+00 0. -1.
</event>
<event>
 7    1  0.2612321E-009  0.7774357E+02  0.7561462E-02  0.1335580E+00
          1   -1    0    0  501    0  0.00000000000E+00  0.00000000000E+00  0.72957392173E+02  0.72957392173E+02  0.00000000000E+00 0. -1.
         -1   -1    0    0    0  501 -0.00000000000E+00 -0.00000000000E+00 -0.18486883314E+03  0.18486883314E+03  0.00000000000E+00 0.  1.
         25    2    1    2    0    0 -0.16486937157E+02 -0.43609009120E+02 -0.39102724727E+02  0.13910416027E+03  0.12508948617E+03 0.  0.
          5    1    3    3  502    0  0.65029974852E+01 -0.42704915039E+02 -0.80560199207E+02  0.91506375958E+02  0.41800000000E+01 0. -1.
         -5    1    3    3    0  502 -0.22989934643E+02 -0.90409408109E+00  0.41457474480E+02  0.47597784310E+02  0.41800000000E+01 0. -1.
        -11    1    1    2    0    0  0.36308815545E+02 -0.45807580859E+01 -0.49700450574E+02  0.61720727622E+02  0.00000000000E+00 0.  1.
         11    1    1    2    0    0 -0.19821878388E+02  0.48189767206E+02 -0.23108265671E+02  0.57001337427E+02  0.00000000000E+00 0. -1.
</event>
<event>
 7    1  0.2612321E-009  0.2205727E+03  0.7561462E-02  0.1133457E+00
          2   -1    0    0  501    0  0.00000000000E+00  0.00000000000E+00  0.12727240244E+04  0.12727240244E+04  0.00000000000E+00 0. -1.
         -2   -1    0    0    0  501 -0.00000000000E+00 -0.00000000000E+00 -0.43553488401E+02  0.43553488401E+02  0.00000000000E+00 0.  1.
         25    2    1    2    0    0 -0.58172079775E+02 -0.19499253631E+03  0.49917525946E+03  0.55338014677E+03  0.12509023584E+03 0.  0.
          5    1    3    3  502    0 -0.17650516612E+02 -0.18009463999E+03  0.46221753452E+03  0.49639514674E+03  0.41800000000E+01 0. -1.
         -5    1    3    3    0  502 -0.40521563162E+02 -0.14897896322E+02  0.36957724940E+02  0.56985000033E+02  0.41800000000E+01 0. -1.
        -11    1    1    2    0    0 -0.18248845908E+02  0.38972934803E+02  0.90289954842E+02  0.10002092766E+03  0.00000000000E+00 0.  1.
         11    1    1    2    0    0  0.76420925682E+02  0.15601960151E+03  0.63970532168E+03  0.66287643836E+03  0.00000000000E+00 0. -1.
</event>
<event>
 7    1  0.2612321E-009  0.1077896E+03  0.7561462E-02  0.1264719E+00
          1   -1    0    0  501    0  0.00000000000E+00  0.00000000000E+00  0.19069222262E+03  0.19069222262E+03  0.00000000000E+00 0.  1.
         -1   -1    0    0    0  501 -0.00000000000E+00 -0.00000000000E+00 -0.11644439192E+03  0.11644439192E+03  0.00000000000E+00 0. -1.
         25    2    1    2    0    0 -0.62064229163E+02  0.57340977188E+02  0.98470530518E+02  0.18023323368E+03  0.12509043502E+03 0.  0.
          5    1    3    3  502    0 -0.63507840408E+02  0.38007206986E+02 -0.55512420830E+01  0.74337623481E+02  0.41800000000E+01 0.  1.
         -5    1    3    3    0  502  0.14436112446E+01  0.19333770202E+02  0.10402177260E+03  0.10589561020E+03  0.41800000000E+01 0.  1.
        -11    1    1    2    0    0 -0.22448218773E+02 -0.15762330606E+02 -0.17372040016E+02  0.32467851277E+02  0.00000000000E+00 0.  1.
         11    1    1    2    0    0  0.84512447937E+02 -0.41578646581E+02 -0.68506598006E+01  0.94435529582E+02  0.00000000000E+00 0. -1.
</event>
<event>
 7    1  0.2612321E-009  0.1466288E+03  0.7561462E-02  0.1204678E+00
         -2   -1    0    0    0  501 -0.00000000000E+00  0.00000000000E+00  0.10548182343E+03  0.10548182343E+03  0.00000000000E+00 0.  1.
          2   -1    0    0  501    0  0.00000000000E+00 -0.00000000000E+00 -0.24904209823E+03  0.24904209823E+03  0.00000000000E+00 0. -1.
         25    2    1    2    0    0 -0.10431202577E+03 -0.60189836371E+02 -0.81063924485E+02  0.19163246851E+03  0.12509127871E+03 0.  0.
          5    1    3    3  502    0 -0.96130387984E+02 -0.95259573625E+02 -0.51534800956E+02  0.14487493217E+03  0.41800000000E+01 0.  1.
         -5    1    3    3    0  502 -0.81816377894E+01  0.35069737254E+02 -0.29529123530E+02  0.46757536338E+02  0.41800000000E+01 0.  1.
        -11    1    1    2    0    0  0.92645227505E+01  0.11637562523E+02 -0.53787518977E+02  0.55806464151E+02  0.00000000000E+00 0. -1.
         11    1    1    2    0    0  0.95047503022E+02  0.48552273848E+02 -0.87088313372E+01  0.10708498900E+03  0.00000000000E+00 0.  1.
</event>
<event>
 7    1  0.2612321E-009  0.1350965E+03  0.7561462E-02  0.1220084E+00
         -3   -1    0    0    0  501 -0.00000000000E+00  0.00000000000E+00  0.76444048389E+02  0.76444048389E+02  0.00000000000E+00 0.  1.
          3   -1    0    0  501    0  0.00000000000E+00 -0.00000000000E+00 -0.47175241888E+03  0.47175241888E+03  0.00000000000E+00 0. -1.
         25    2    1    2    0    0  0.69849193226E+02  0.51671551437E+02 -0.25498949204E+03  0.29701137809E+03  0.12508900289E+03 0.  0.
          5    1    3    3  502    0  0.27667654763E+02 -0.15017696195E+02 -0.18341274527E+01  0.31809852917E+02  0.41800000000E+01 0. -1.
         -5    1    3    3    0  502  0.42181538464E+02  0.66689247633E+02 -0.25315536459E+03  0.26520152518E+03  0.41800000000E+01 0. -1.
        -11    1    1    2    0    0 -0.10173524834E+03 -0.36859709631E+01 -0.16056483030E+03  0.19011762640E+03  0.00000000000E+00 0. -1.
         11    1    1    2    0    0  0.31886055109E+02 -0.47985580474E+02  0.20245951853E+02  0.61067462779E+02  0.00000000000E+00 0.  1.
</event>
<event>
 6    1  0.2612321E-009  0.1178378E+03  0.7561462E-02  0.1246707E+00
          1   -1    0    0  501    0  0.00000000000E+00  0.00000000000E+00  0.37664093860E+03  0.37664093860E+03  0.00000000000E+00 0. -1.
         -1   -1    0    0    0  501 -0.00000000000E+00 -0.00000000000E+00 -0.58655576229E+02  0.58655576229E+02  0.00000000000E+00 0.  1.
          5    1    1    2  502    0  0.61660736675E+02  0.71234836773E+02  0.39207447236E+02  0.10213297575E+03  0.41800000000E+01 0. -1.
         -5    1    1    2    0  502  0.10718576715E+02 -0.15778700223E+01  0.13224824332E+03  0.13275710084E+03  0.41800000000E+01 0. -1.
        -11    1    1    2    0    0 -0.40243547588E+02  0.12006679011E+02  0.20242202438E+02  0.46620276950E+02  0.00000000000E+00 0.  1.
         11    1    1    2    0    0 -0.32135765801E+02 -0.81663645762E+02  0.12628746937E+03  0.15378616129E+03  0.00000000000E+00 0. -1.
</event>
<event>
 7    1  0.2612321E-009  0.8677357E+02  0.7561462E-02  0.1310859E+00
         -1   -1    0    0    0  501 -0.00000000000E+00  0.00000000000E+00  0.25149829102E+02  0.25149829102E+02  0.00000000000E+00 0.  1.
          1   -1    0    0  501    0  0.00000000000E+00 -0.00000000000E+00 -0.58926837291E+03  0.58926837291E+03  0.00000000000E+00 0. -1.
         25    2    1    2    0    0 -0.15272028504E+02  0.38822989734E+02 -0.39389150391E+03  0.41536849816E+03  0.12506003768E+03 0.  0.
          5    1    3    3  502    0  0.29981503132E+02  0.33321581657E+02 -0.45589372107E+02  0.64070910586E+02  0.41800000000E+01 0. -1.
         -5    1    3    3    0  502 -0.45253531636E+02  0.55014080766E+01 -0.34830213180E+03  0.35129758757E+03  0.41800000000E+01 0. -1.
        -11    1    1    2    0    0 -0.11063627081E+02 -0.52096865182E+02 -0.15867777870E+03  0.16737719277E+03  0.00000000000E+00 0. -1.
         11    1    1    2    0    0  0.26335655585E+02  0.13273875448E+02 -0.11549261206E+02  0.31672511092E+02  0.00000000000E+00 0.  1.
</event>
<event>
 7    1  0.2612321E-009  0.1030756E+03  0.7561462E-02  0.1273958E+00
         -1   -1    0    0    0  501 -0.00000000000E+00  0.00000000000E+00  0.32321620137E+03  0.32321620137E+03  0.00000000000E+00 0.  1.
          1   -1    0    0  501    0  0.00000000000E+00 -0.00000000000E+00 -0.41407416788E+02  0.41407416788E+02  0.00000000000E+00 0. -1.
         25    2    1    2    0    0  0.35121158439E+02  0.39184709196E+00  0.16552934113E+03  0.21042951571E+03  0.12508784511E+03 0.  0.
          5    1    3    3  502    0  0.32698303365E+02  0.47721516430E+02  0.14928644110E+03  0.16015753517E+03  0.41800000000E+01 0.  1.
         -5    1    3    3    0  502  0.24228550741E+01 -0.47329669338E+02  0.16242900022E+02  0.50271980541E+02  0.41800000000E+01 0.  1.
        -11    1    1    2    0    0 -0.33672098253E+01  0.45029548764E+02  0.43342192928E+02  0.62590287199E+02  0.00000000000E+00 0.  1.
         11    1    1    2    0    0 -0.31753948614E+02 -0.45421395856E+02  0.72937250530E+02  0.91603815253E+02  0.00000000000E+00 0. -1.
</event>
<event>
 7    1  0.2612321E-009  0.8909934E+02  0.7561462E-02  0.1305048E+00
          1   -1    0    0  501    0  0.00000000000E+00  0.00000000000E+00  0.44849371697E+03  0.44849371697E+03  0.00000000000E+00 0. -1.
         -1   -1    0    0    0  501 -0.00000000000E+00 -0.00000000000E+00 -0.34553904793E+02  0.34553904793E+02  0.00000000000E+00 0.  1.
         25    2    1    2    0    0 -0.67419613470E+01 -0.83834580694E+01  0.34656946045E+03  0.36861020754E+03  0.12508939911E+03 0.  0.
          5    1    3    3  502    0 -0.60552203434E+02  0.20407363990E+02  0.16358201453E+03  0.17566894354E+03  0.41800000000E+01 0.  1.
         -5    1    3    3    0  502  0.53810242087E+02 -0.28790822060E+02  0.18298744592E+03  0.19294126400E+03  0.41800000000E+01 0.  1.
        -11    1    1    2    0    0 -0.21967688822E+02  0.10210200962E+02 -0.14105504932E+02  0.28031996455E+02  0.00000000000E+00 0.  1.
         11    1    1    2    0    0  0.28709650169E+02 -0.18267428923E+01  0.81475856654E+02  0.86405417770E+02  0.00000000000E+00 0. -1.
</event>
<event>
 7    1  0.2612321E-009  0.1236816E+03  0.7561462E-02  0.1237144E+00
          1   -1    0    0  501    0  0.00000000000E+00  0.00000000000E+00  0.87331547740E+03  0.87331547740E+03  0.00000000000E+00 0. -1.
         -1   -1    0    0    0  501 -0.00000000000E+00 -0.00000000000E+00 -0.17921229590E+02  0.17921229590E+02  0.00000000000E+00 0.  1.
         25    2    1    2    0    0 -0.34561211575E+02 -0.50024136455E+02  0.49200539242E+03  0.51128544398E+03  0.12508640004E+03 0.  0.
          5    1    3    3  502    0 -0.60028310527E+02 -0.78002598287E+02  0.39447778827E+03  0.40659316429E+03  0.41800000000E+01 0.  1.
         -5    1    3    3    0  502  0.25467098952E+02  0.27978461831E+02  0.97527604152E+02  0.10469227969E+03  0.41800000000E+01 0.  1.
        -11    1    1    2    0    0  0.66704083119E+02  0.33699358433E+02  0.25487745777E+03  0.26560798170E+03  0.00000000000E+00 0.  1.
         11    1    1    2    0    0 -0.32142871544E+02  0.16324778023E+02  0.10851139762E+03  0.11434328132E+03  0.00000000000E+00 0. -1.
</event>
<event>
 7    1  0.2612321E-009  0.1081714E+03  0.7561462E-02  0.1263994E+00
          2   -1    0    0  501    0  0.00000000000E+00  0.00000000000E+00  0.37863022744E+03  0.37863022744E+03  0.00000000000E+00 0. -1.
         -2   -1    0    0    0  501 -0.00000000000E+00 -0.00000000000E+00 -0.34077224352E+02  0.34077224352E+02  0.00000000000E+00 0.  1.
         25    2    1    2    0    0  0.20655343291E+02 -0.44044369666E+01  0.25099626119E+03  0.28123289919E+03  0.12508708240E+03 0.  0.
          5    1    3    3  502    0  0.72570411047E+02 -0.13385140354E+02  0.15162766204E+03  0.16868327373E+03  0.41800000000E+01 0.  1.
         -5    1    3    3    0  502 -0.51915067756E+02  0.89807033874E+01  0.99368599153E+02  0.11254962546E+03  0.41800000000E+01 0.  1.
        -11    1    1    2    0    0  0.28983251808E+02 -0.19044074581E+02  0.52506686559E+02  0.62925811838E+02  0.00000000000E+00 0.  1.
         11    1    1    2    0    0 -0.49638595099E+02  0.23448511547E+02  0.41050055341E+02  0.68548740766E+02  0.00000000000E+00 0. -1.
</event>
<event>
 7    1  0.2612321E-009  0.1723496E+03  0.7561462E-02  0.1175419E+00
          2   -1    0    0  501    0  0.00000000000E+00  0.00000000000E+00  0.14600136310E+04  0.14600136310E+04  0.00000000000E+00 0. -1.
         -2   -1    0    0    0  501 -0.00000000000E+00 -0.00000000000E+00 -0.26246996369E+02  0.26246996369E+02  0.00000000000E+00 0.  1.
         25    2    1    2    0    0  0.15728941399E+03 -0.92594965935E+01  0.89726772237E+03  0.91954512474E+03  0.12509265686E+03 0.  0.
          5    1    3    3  502    0  0.58978663164E+02 -0.21611503635E+02  0.11576034281E+03  0.13177051705E+03  0.41800000000E+01 0. -1.
         -5    1    3    3    0  502  0.98310750825E+02  0.12352007041E+02  0.78150737956E+03  0.78777460769E+03  0.41800000000E+01 0. -1.
        -11    1    1    2    0    0  0.11562434935E+02  0.73718953548E+01  0.41390864341E+02  0.43603192471E+02  0.00000000000E+00 0.  1.
         11    1    1    2    0    0 -0.16885184892E+03  0.18876012387E+01  0.49510804797E+03  0.52311231020E+03  0.00000000000E+00 0. -1.
</event>
<event>
 7    1  0.2612321E-009  0.8030693E+02  0.7561462E-02  0.1328183E+00
         -1   -1    0    0    0  501 -0.00000000000E+00  0.00000000000E+00  0.77283515115E+02  0.77283515115E+02  0.00000000000E+00 0.  1.
          1   -1    0    0  501    0  0.00000000000E+00 -0.00000000000E+00 -0.15910356161E+03  0.15910356161E+03  0.00000000000E+00 0. -1.
         25    2    1    2    0    0 -0.12273175282E+02  0.21215291761E+02 -0.56668970117E+02  0.13949684846E+03  0.12508908474E+03 0.  0.
          5    1    3    3  502    0  0.25570616973E+02 -0.15475556855E+02 -0.77111462242E+02  0.82807000438E+02  0.41800000000E+01 0.  1.
         -5    1    3    3    0  502 -0.37843792255E+02  0.36690848617E+02  0.20442492125E+02  0.56689848022E+02  0.41800000000E+01 0.  1.
        -11    1    1    2    0    0  0.22147789936E+02  0.23190702058E+02  0.15740281516E+02  0.35722398061E+02  0.00000000000E+00 0.  1.
         11    1    1    2    0    0 -0.98746146543E+01 -0.44405993819E+02 -0.40891357895E+02  0.61167830206E+02  0.00000000000E+00 0. -1.
</event>
<event>
 7    1  0.2612321E-009  0.1363076E+03  0.7561462E-02  0.1218386E+00
          2   -1    0    0  501    0  0.00000000000E+00  0.00000000000E+00  0.10228580813E+04  0.10228580813E+04  0.00000000000E+00 0. -1.
         -2   -1    0    0    0  501 -0.00000000000E+00 -0.00000000000E+00 -0.18867597730E+02  0.18867597730E+02  0.00000000000E+00 0.  1.
         25    2    1    2    0    0  0.73927289300E+02 -0.44052836456E+02  0.56419101409E+03  0.58426466082E+03  0.12509115476E+03 0.  0.
          5    1    3    3  502    0  0.85992764491E+01 -0.74603375356E+02  0.35711934545E+03  0.36495384703E+03  0.41800000000E+01 0. -1.
         -5    1    3    3    0  502  0.65328012850E+02  0.30550538900E+02  0.20707166864E+03  0.21931081379E+03  0.41800000000E+01 0. -1.
        -11    1    1    2    0    0 -0.68098933340E+02 -0.11707422562E+02  0.26688312689E+03  0.27568302792E+03  0.00000000000E+00 0.  1.
         11    1    1    2    0    0 -0.58283559597E+01  0.55760259018E+02  0.17291634257E+03  0.18177799027E+03  0.00000000000E+00 0. -1.
</event>
<event>
 7    1  0.2612321E-009  0.1656663E+03  0.7561462E-02  0.1182444E+00
         -1   -1    0    0    0  501 -0.00000000000E+00  0.00000000000E+00  0.21981913408E+03  0.21981913408E+03  0.00000000000E+00 0.  1.
          1   -1    0    0  501    0  0.00000000000E+00 -0.00000000000E+00 -0.16482495054E+03  0.16482495054E+03  0.00000000000E+00 0. -1.
         25    2    1    2    0    0 -0.13509928662E+03  0.25844588188E+02 -0.45012339544E+02  0.19128063697E+03  0.12506962615E+03 0.  0.
          5    1    3    3  502    0 -0.10860725189E+03 -0.22775671205E+02 -0.69059206363E+02  0.13077045823E+03  0.41800000000E+01 0.  1.
         -5    1    3    3    0  502 -0.26492034735E+02  0.48620259393E+02  0.24046866819E+02  0.60510178744E+02  0.41800000000E+01 0.  1.
        -11    1    1    2    0    0  0.58869794733E+02  0.33875237409E+02  0.32336029734E+02  0.75225017517E+02  0.00000000000E+00 0. -1.
         11    1    1    2    0    0  0.76229491888E+02 -0.59719825597E+02  0.67670493355E+02  0.11813843013E+03  0.00000000000E+00 0.  1.
</event>
<event>
 7    1  0.2612321E-009  0.1175424E+03  0.7561462E-02  0.1247207E+00
          3   -1    0    0  501    0  0.00000000000E+00  0.00000000000E+00  0.53807864799E+02  0.53807864799E+02  0.00000000000E+00 0. -1.
         -3   -1    0    0    0  501 -0.00000000000E+00 -0.00000000000E+00 -0.41865885813E+03  0.41865885813E+03  0.00000000000E+00 0.  1.
         25    2    1    2    0    0  0.91968861769E+02  0.83551416516E+00 -0.12266217658E+03  0.19786839626E+03  0.12508766149E+03 0.  0.
          5    1    3    3  502    0 -0.15337115100E+02 -0.17723647477E+02 -0.75422527792E+02  0.79090991130E+02  0.41800000000E+01 0.  1.
         -5    1    3    3    0  502  0.10730597687E+03  0.18559161642E+02 -0.47239648784E+02  0.11877740513E+03  0.41800000000E+01 0.  1.
        -11    1    1    2    0    0 -0.79972277381E+02  0.16067008204E+02 -0.24032113234E+03  0.25378723480E+03  0.00000000000E+00 0.  1.
         11    1    1    2    0    0 -0.11996584388E+02 -0.16902522369E+02 -0.18676844191E+01  0.20811091862E+02  0.00000000000E+00 0. -1.
</event>
<event>
 7    1  0.2612321E-009  0.6939829E+02  0.7561462E-02  0.1362151E+00
          1   -1    0    0  501    0  0.00000000000E+00  0.00000000000E+00  0.28628752722E+03  0.28628752722E+03  0.00000000000E+00 0. -1.
         -1   -1    0    0    0  501 -0.00000000000E+00 -0.00000000000E+00 -0.55547413292E+02  0.55547413292E+02  0.00000000000E+00 0.  1.
         25    2    1    2    0    0  0.17639641249E+02  0.37548860376E+02  0.19225764092E+03  0.23309078149E+03  0.12508892062E+03 0.  0.
          5    1    3    3  502    0  0.29315059029E+02  0.46182947531E+02  0.20568535803E+03  0.21287596444E+03  0.41800000000E+01 0.  1.
         -5    1    3    3    0  502 -0.11675417780E+02 -0.86340871550E+01 -0.13427717111E+02  0.20214817045E+02  0.41800000000E+01 0.  1.
        -11    1    1    2    0    0 -0.20276241776E+01 -0.49264366105E+02  0.61331343059E+02  0.78693218697E+02  0.00000000000E+00 0. -1.
         11    1    1    2    0    0 -0.15612017071E+02  0.11715505728E+02 -0.22848870057E+02  0.30050940324E+02  0.00000000000E+00 0.  1.
</event>
<event>
 7    1  0.2612321E-009  0.1000290E+03  0.7561462E-02  0.1280235E+00
          1   -1    0    0  501    0  0.00000000000E+00  0.00000000000E+00  0.76926985378E+03  0.76926985378E+03  0.00000000000E+00 0. -1.
         -1   -1    0    0    0  501 -0.00000000000E+00 -0.00000000000E+00 -0.22799069502E+02  0.22799069502E+02  0.00000000000E+00 0.  1.
         25    2    1    2    0    0  0.18714450349E+02 -0.53268171810E+02  0.60603808398E+03  0.62138309678E+03  0.12508822864E+03 0.  0.
          5    1    3    3  502    0  0.65777496736E+02 -0.26207573658E+02  0.46170024028E+03  0.46711679510E+03  0.41800000000E+01 0. -1.
         -5    1    3    3    0  502 -0.47063046387E+02 -0.27060598152E+02  0.14433784370E+03  0.15426630167E+03  0.41800000000E+01 0. -1.
        -11    1    1    2    0    0  0.10650469075E+02  0.41831799463E+02  0.13079145085E+03  0.13773066308E+03  0.00000000000E+00 0. -1.
         11    1    1    2    0    0 -0.29364919424E+02  0.11436372347E+02  0.96412494461E+01  0.32955163421E+02  0.00000000000E+00 0.  1.
</event>
<event>
 7    1  0.2612321E-009  0.1271815E+03  0.7561462E-02  0.1231699E+00
          1   -1    0    0  501    0  0.00000000000E+00  0.00000000000E+00  0.50503266466E+02  0.50503266466E+02  0.00000000000E+00 0. -1.
         -1   -1    0    0    0  501 -0.00000000000E+00 -0.00000000000E+00 -0.37146942567E+03  0.37146942567E+03  0.00000000000E+00 0.  1.
         25    2    1    2    0    0 -0.80222370472E+02 -0.19005384464E+02 -0.20724578057E+03  0.25572572522E+03  0.12509196462E+03 0.  0.
          5    1    3    3  502    0 -0.35369193070E+02  0.45417580746E+02 -0.14297763433E+03  0.15418758957E+03  0.41800000000E+01 0.  1.
         -5    1    3    3    0  502 -0.44853177402E+02 -0.64422965210E+02 -0.64268146240E+02  0.10153813565E+03  0.41800000000E+01 0.  1.
        -11    1    1    2    0    0  0.50933978328E+02 -0.31331034051E+02 -0.76631894222E+02  0.97202628848E+02  0.00000000000E+00 0.  1.
         11    1    1    2    0    0  0.29288392145E+02  0.50336418515E+02 -0.37088484407E+02  0.69044338066E+02  0.00000000000E+00 0. -1.
</event>
<event>
 7    1  0.2612321E-009  0.1066896E+03  0.7561462E-02  0.1266826E+00
         -1   -1    0    0    0  501 -0.00000000000E+00  0.00000000000E+00  0.91814994969E+02  0.91814994969E+02  0.00000000000E+00 0.  1.
          1   -1    0    0  501    0  0.00000000000E+00 -0.00000000000E+00 -0.12940874535E+03  0.12940874535E+03  0.00000000000E+00 0. -1.
         25    2    1    2    0    0 -0.86063438653E+01  0.75926473640E+01 -0.25886547574E+02  0.12825467733E+03  0.12508969368E+03 0.  0.
          5    1    3    3  502    0 -0.63995350569E+02 -0.57675038977E+01  0.25441638124E+01  0.64440780296E+02  0.41800000000E+01 0. -1.
         -5    1    3    3    0  502  0.55389006704E+02  0.13360151262E+02 -0.28430711386E+02  0.63813897039E+02  0.41800000000E+01 0. -1.
        -11    1    1    2    0    0  0.44031510026E+02 -0.26814734821E+02 -0.24312925752E+01  0.51611191250E+02  0.00000000000E+00 0. -1.
         11    1    1    2    0    0 -0.35425166161E+02  0.19222087457E+02 -0.92759102298E+01  0.41357871733E+02  0.00000000000E+00 0.  1.
</event>
<event>
 7    1  0.2612321E-009  0.1464327E+03  0.7561462E-02  0.1204926E+00
          2   -1    0    0  501    0  0.00000000000E+00  0.00000000000E+00  0.11980222123E+04  0.11980222123E+04  0.00000000000E+00 0. -1.
         -2   -1    0    0    0  501 -0.00000000000E+00 -0.00000000000E+00 -0.20059422285E+02  0.20059422285E+02  0.00000000000E+00 0.  1.
         25    2    1    2    0    0  0.14342619623E+02 -0.10474775295E+03  0.73405632989E+03  0.75210639162E+03  0.12509007306E+03 0.  0.
          5    1    3    3  502    0  0.22100597964E+02 -0.13198678661E+03  0.63683516433E+03  0.65075759480E+03  0.41800000000E+01 0. -1.
         -5    1    3    3    0  502 -0.77579783408E+01  0.27239033662E+02  0.97221165567E+02  0.10134879682E+03  0.41800000000E+01 0. -1.
        -11    1    1    2    0    0 -0.45582379479E+02  0.70876396080E+02  0.18896727875E+03  0.20690541143E+03  0.00000000000E+00 0.  1.
         11    1    1    2    0    0  0.31239759856E+02  0.33871356872E+02  0.25493918141E+03  0.25906983157E+03  0.00000000000E+00 0. -1.
</event>
<event>
 7    1  0.2612321E-009  0.1193652E+03  0.7561462E-02  0.1244148E+00
          1   -1    0    0  501    0  0.00000000000E+00  0.00000000000E+00  0.15507834637E+03  0.15507834637E+03  0.00000000000E+00 0. -1.
         -1   -1    0    0    0  501 -0.00000000000E+00 -0.00000000000E+00 -0.18114506342E+03  0.18114506342E+03  0.00000000000E+00 0.  1.
         25    2    1    2    0    0  0.57414168736E+01  0.82926813405E+02  0.82393567387E+02  0.17130397610E+03  0.12508609848E+03 0.  0.
          5    1    3    3  502    0 -0.56693187252E+02  0.59478029144E+02  0.35164303573E+02  0.89474879588E+02  0.41800000000E+01 0.  1.
         -5    1    3    3    0  502  0.62434604126E+02  0.23448784261E+02  0.47229263814E+02  0.81829096513E+02  0.41800000000E+01 0.  1.
        -11    1    1    2    0    0  0.11723084133E+02 -0.12776469408E+02  0.14286030506E+02  0.22466854247E+02  0.00000000000E+00 0. -1.
         11    1    1    2    0    0 -0.17464501007E+02 -0.70150343997E+02 -0.12274631494E+03  0.14245257944E+03  0.00000000000E+00 0.  1.
</event>
<event>
 7    1  0.2612321E-009  0.1056317E+03  0.7561462E-02  0.1268880E+00
         -2   -1    0    0    0  501 -0.00000000000E+00  0.00000000000E+00  0.37575485087E+03  0.37575485087E+03  0.00000000000E+00 0.  1.
          2   -1    0    0  501    0  0.00000000000E+00 -0.00000000000E+00 -0.47605293720E+02  0.47605293720E+02  0.00000000000E+00 0. -1.
         25    2    1    2    0    0 -0.74459127061E+02  0.80247235209E+01  0.22707736039E+03  0.26985516021E+03  0.12509645119E+03 0.  0.
          5    1    3    3  502    0 -0.10615338365E+02 -0.22209016546E+02  0.18673965124E+03  0.18840142136E+03  0.41800000000E+01 0.  1.
         -5    1    3    3    0  502 -0.63843788696E+02  0.30233740067E+02  0.40337709144E+02  0.81453738849E+02  0.41800000000E+01 0.  1.
        -11    1    1    2    0    0  0.90458022956E+02 -0.23300402952E+02  0.82173276040E+02  0.12441065063E+03  0.00000000000E+00 0.  1.
         11    1    1    2    0    0 -0.15998895894E+02  0.15275679431E+02  0.18898920722E+02  0.29094333751E+02  0.00000000000E+00 0. -1.
</event>
<event>
 7    1  0.2612321E-009  0.1182738E+03  0.7561462E-02  0.1245972E+00
          2   -1    0    0  501    0  0.00000000000E+00  0.00000000000E+00  0.19212264326E+02  0.19212264326E+02  0.00000000000E+00 0. -1.
         -2   -1    0    0    0  501 -0.00000000000E+00 -0.00000000000E+00 -0.81432817038E+03  0.81432817038E+03  0.00000000000E+00 0.  1.
         25    2    1    2    0    0 -0.45771788201E+02  0.12363537360E+02 -0.55567672252E+03  0.57155240013E+03  0.12509041724E+03 0.  0.
          5    1    3    3  502    0 -0.84167372995E+02  0.30414530885E+02 -0.41485525151E+03  0.42441906469E+03  0.41800000000E+01 0. -1.
         -5    1    3    3    0  502  0.38395584794E+02 -0.18050993525E+02 -0.14082147101E+03  0.14713333544E+03  0.41800000000E+01 0. -1.
        -11    1    1    2    0    0  0.18845638748E+02 -0.52619446711E+02 -0.15324351568E+03  0.16311817609E+03  0.00000000000E+00 0.  1.
         11    1    1    2    0    0  0.26926149453E+02  0.40255909351E+02 -0.86195667855E+02  0.98869858496E+02  0.00000000000E+00 0. -1.
</event>
<event>
 7    1  0.2612321E-009  0.1250395E+03  0.7561462E-02  0.1235008E+00
          1   -1    0    0  501    0  0.00000000000E+00  0.00000000000E+00  0.93891456181E+03  0.93891456181E+03  0.00000000000E+00 0. -1.
         -1   -1    0    0    0  501 -0.00000000000E+00 -0.00000000000E+00 -0.17987806049E+02  0.17987806049E+02  0.00000000000E+00 0.  1.
         25    2    1    2    0    0 -0.45128519689E+02 -0.52214320309E+02  0.44006779662E+03  0.46267765027E+03  0.12509206173E+03 0.  0.
          5    1    3    3  502    0  0.18665932927E+00  0.37185144598E+02  0.18181577664E+03  0.18562655752E+03  0.41800000000E+01 0. -1.
         -5    1    3    3    0  502 -0.45315179018E+02 -0.89399464907E+02  0.25825201998E+03  0.27705109276E+03  0.41800000000E+01 0. -1.
        -11    1    1    2    0    0  0.58993623236E+02  0.70181145740E+00  0.20827999367E+03  0.21647470034E+03  0.00000000000E+00 0.  1.
         11    1    1    2    0    0 -0.13865103548E+02  0.51512508852E+02  0.27257896547E+03  0.27775001724E+03  0.00000000000E+00 0. -1.
</event>
<event>
 7    1  0.4494092E-009  0.1185517E+03  0.7561462E-02  0.1245506E+00
          2   -1    0    0  501    0  0.00000000000E+00  0.00000000000E+00  0.10396322921E+04  0.10396322921E+04  0.00000000000E+00 0. -1.
         -2   -1    0    0    0  501 -0.00000000000E+00 -0.00000000000E+00 -0.24655310455E+02  0.24655310455E+02  0.00000000000E+00 0.  1.
         25    2    1    2    0    0 -0.11344971443E+03  0.83571968127E+01  0.64217204594E+03  0.66405892827E+03  0.12509453698E+03 0.  0.
          5    1    3    3  502    0 -0.30002064365E+02  0.22537963561E+02  0.36595681353E+02  0.52581365153E+02  0.41800000000E+01 0.  1.
         -5    1    3    3    0  502 -0.83447650065E+02 -0.14180766748E+02  0.60557636459E+03  0.61147756312E+03  0.41800000000E+01 0.  1.
        -11    1    1    2    0    0  0.51355709693E+02 -0.10712701180E+02  0.29981749177E+03  0.30437263224E+03  0.00000000000E+00 0. -1.
         11    1    1    2    0    0  0.62094004737E+02  0.23555043669E+01  0.72987443935E+02  0.95856042049E+02  0.00000000000E+00 0.  1.
</event>
<event>
 7    1  0.2612321E-009  0.1774650E+03  0.7561462E-02  0.1170279E+00
          1   -1    0    0  501    0  0.00000000000E+00  0.00000000000E+00  0.62569515368E+03  0.62569515368E+03  0.00000000000E+00 0. -1.
         -1   -1    0    0    0  501 -0.00000000000E+00 -0.00000000000E+00 -0.88857711183E+02  0.88857711183E+02  0.00000000000E+00 0.  1.
         25    2    1    2    0    0  0.15789638563E+03 -0.38819093708E+02  0.80110094074E+02  0.22023322785E+03  0.12508739683E+03 0.  0.
          5    1    3    3  502    0 -0.77093024407E+01 -0.97638069704E+01 -0.20432995948E+02  0.24284665822E+02  0.41800000000E+01 0. -1.
         -5    1    3    3    0  502  0.16560568807E+03 -0.29055286738E+02  0.10054309002E+03  0.19594856203E+03  0.41800000000E+01 0. -1.
        -11    1    1    2    0    0 -0.88038271667E+02 -0.96902872305E+01  0.33014448559E+03  0.34181869509E+03  0.00000000000E+00 0.  1.
         11    1    1    2    0    0 -0.69858113964E+02  0.48509380938E+02  0.12658286283E+03  0.15250094193E+03  0.00000000000E+00 0. -1.
</event>
<event>
 7    1  0.2612321E-009  0.9038247E+02  0.7561462E-02  0.1301928E+00
          2   -1    0    0  501    0  0.00000000000E+00  0.00000000000E+00  0.13116025422E+03  0.13116025422E+03  0.00000000000E+00 0.  1.
         -2   -1    0    0    0  501 -0.00000000000E+00 -0.00000000000E+00 -0.93395233712E+02  0.93395233712E+02  0.00000000000E+00 0. -1.
         25    2    1    2    0    0  0.82819353010E+01  0.83395669490E+01  0.25585706672E+02  0.12824982339E+03  0.12512094143E+03 0.  0.
          5    1    3    3  502    0  0.42504448326E+02  0.33332370486E+02  0.54446161974E+02  0.76808411020E+02  0.41800000000E+01 0. -1.
         -5    1    3    3    0  502 -0.34222513025E+02 -0.24992803537E+02 -0.28860455302E+02  0.51441412370E+02  0.41800000000E+01 0. -1.
        -11    1    1    2    0    0  0.66040020514E+01 -0.44454649810E+02 -0.16467712374E+02  0.47864540984E+02  0.00000000000E+00 0. -1.
         11    1    1    2    0    0 -0.14885937352E+02  0.36115082861E+02  0.28647026212E+02  0.48441123559E+02  0.00000000000E+00 0.  1.
</event>
<event>
 7    1  0.2612321E-009  0.1442673E+03  0.7561462E-02  0.1207700E+00
         -2   -1    0    0    0  501 -0.00000000000E+00  0.00000000000E+00  0.11887552638E+03  0.11887552638E+03  0.00000000000E+00 0.  1.
          2   -1    0    0  501    0  0.00000000000E+00 -0.00000000000E+00 -0.31427484445E+03  0.31427484445E+03  0.00000000000E+00 0. -1.
         25    2    1    2    0    0 -0.12211401866E+03  0.54862226626E+02 -0.19872160269E+03  0.27027136542E+03  0.12503854657E+03 0.  0.
          5    1    3    3  502    0 -0.10794695285E+03  0.14922307775E+02 -0.58556437436E+02  0.12378024343E+03  0.41800000000E+01 0. -1.
         -5    1    3    3    0  502 -0.14167065805E+02  0.39939918851E+02 -0.14016516525E+03  0.14649112199E+03  0.41800000000E+01 0. -1.
        -11    1    1    2    0    0  0.44026976289E+02 -0.51459240657E+01  0.43372303423E+02  0.62016222715E+02  0.00000000000E+00 0. -1.
         11    1    1    2    0    0  0.78087042366E+02 -0.49716302561E+02 -0.40050018802E+02  0.10086278269E+03  0.00000000000E+00 0.  1.
</event>
<event>
 7    1  0.2612321E-009  0.1282118E+03  0.7561462E-02  0.1230134E+00
          3   -1    0    0  501    0  0.00000000000E+00  0.00000000000E+00  0.79343769627E+02  0.79343769627E+02  0.00000000000E+00 0. -1.
         -3   -1    0    0    0  501 -0.00000000000E+00 -0.00000000000E+00 -0.28275779014E+03  0.28275779014E+03  0.00000000000E+00 0.  1.
         25    2    1    2    0    0  0.80645430023E+02  0.60632553023E+02 -0.10448203236E+03  0.19169328311E+03  0.12509927191E+03 0.  0.
          5    1    3    3  502    0  0.44204562842E+02  0.93956140667E+02 -0.42348123852E+02  0.11221691378E+03  0.41800000000E+01 0.  1.
         -5    1    3    3    0  502  0.36440867181E+02 -0.33323587644E+02 -0.62133908513E+02  0.79476369327E+02  0.41800000000E+01 0.  1.
        -11    1    1    2    0    0 -0.39382455245E+02 -0.42300245562E+02 -0.10969689746E+03  0.12399071687E+03  0.00000000000E+00 0.  1.
         11    1    1    2    0    0 -0.41262974777E+02 -0.18332307461E+02  0.10764909317E+02  0.46417559791E+02  0.00000000000E+00 0. -1.
</event>
<event>
 7    1  0.2612321E-009  0.1194871E+03  0.7561462E-02  0.1243946E+00
         -2   -1    0    0    0  501 -0.00000000000E+00  0.00000000000E+00  0.16004093324E+02  0.16004093324E+02  0.00000000000E+00 0.  1.
          2   -1    0    0  501    0  0.00000000000E+00 -0.00000000000E+00 -0.11312819554E+04  0.11312819554E+04  0.00000000000E+00 0. -1.
         25    2    1    2    0    0 -0.56699318236E+02 -0.57225126108E+02 -0.74833312996E+03  0.76298084596E+03  0.12509104749E+03 0.  0.
          5    1    3    3  502    0 -0.86982758670E+02 -0.61253383209E+02 -0.67624620283E+03  0.68457605604E+03  0.41800000000E+01 0. -1.
         -5    1    3    3    0  502  0.30283440434E+02  0.40282571009E+01 -0.72086927130E+02  0.78404789923E+02  0.41800000000E+01 0. -1.
        -11    1    1    2    0    0 -0.13334357777E+02  0.14189183376E+02 -0.20626015256E+02  0.28364952451E+02  0.00000000000E+00 0.  1.
         11    1    1    2    0    0  0.70033676013E+02  0.43035942732E+02 -0.34631871683E+03  0.35594025028E+03  0.00000000000E+00 0. -1.
</event>
<event>
 7    1  0.2612321E-009  0.1336267E+03  0.7561462E-02  0.1222171E+00
          1   -1    0    0  501    0  0.00000000000E+00  0.00000000000E+00  0.19723322849E+03  0.19723322849E+03  0.00000000000E+00 0. -1.
         -1   -1    0    0    0  501 -0.00000000000E+00 -0.00000000000E+00 -0.10797120826E+03  0.10797120826E+03  0.00000000000E+00 0.  1.
         25    2    1    2    0    0 -0.28084018734E+02 -0.92641747947E+02  0.68194214376E+02  0.17224490094E+03  0.12508656784E+03 0.  0.
          5    1    3    3  502    0 -0.13178076686E+02  0.29006222234E+02  0.42383374857E+00  0.32135255849E+02  0.41800000000E+01 0. -1.
         -5    1    3    3    0  502 -0.14905942048E+02 -0.12164797018E+03  0.67770380627E+02  0.14010964509E+03  0.41800000000E+01 0. -1.
        -11    1    1    2    0    0  0.28474438825E+02  0.10499252944E+02 -0.24517962205E+02  0.39014849089E+02  0.00000000000E+00 0. -1.
         11    1    1    2    0    0 -0.39042009049E+00  0.82142495002E+02  0.45585768064E+02  0.93944686721E+02  0.00000000000E+00 0.  1.
</event>
<event>
 7    1  0.2612321E-009  0.8174714E+02  0.7561462E-02  0.1324165E+00
          2   -1    0    0  501    0  0.00000000000E+00  0.00000000000E+00  0.16769359393E+03  0.16769359393E+03  0.00000000000E+00 0. -1.
         -2   -1    0    0    0  501 -0.00000000000E+00 -0.00000000000E+00 -0.11998244364E+03  0.11998244364E+03  0.00000000000E+00 0.  1.
         25    2    1    2    0    0 -0.64803448879E+02 -0.11486185537E+02  0.89030716924E+02  0.16705057719E+03  0.12509199551E+03 0.  0.
          5    1    3    3  502    0 -0.31693812776E+02  0.72994804061E+01 -0.28495340936E+02  0.43442341530E+02  0.41800000000E+01 0. -1.
         -5    1    3    3    0  502 -0.33109636102E+02 -0.18785665943E+02  0.11752605786E+03  0.12360823566E+03  0.41800000000E+01 0. -1.
        -11    1    1    2    0    0  0.39328535039E+02 -0.25954826495E+02 -0.55843489799E+02  0.73067653853E+02  0.00000000000E+00 0.  1.
         11    1    1    2    0    0  0.25474913839E+02  0.37441012032E+02  0.14523923167E+02  0.47557806523E+02  0.00000000000E+00 0. -1.
</event>
<event>
 7    1  0.2612321E-009  0.1291062E+03  0.7561462E-02  0.1228788E+00
          2   -1    0    0  501    0  0.00000000000E+00  0.00000000000E+00  0.59918956510E+03  0.59918956510E+03  0.00000000000E+00 0. -1.
         -2   -1    0    0    0  501 -0.00000000000E+00 -0.00000000000E+00 -0.45494746099E+02  0.45494746099E+02  0.00000000000E+00 0.  1.
         25    2    1    2    0    0  0.59946999280E+02 -0.42339642496E+02  0.10091610580E+03  0.17668742292E+03  0.12509235372E+03 0.  0.
          5    1    3    3  502    0 -0.73701042892E+01 -0.67730520929E+02  0.71490400473E+02  0.98843774019E+02  0.41800000000E+01 0. -1.
         -5    1    3    3    0  502  0.67317103569E+02  0.25390878433E+02  0.29425705325E+02  0.77843648902E+02  0.41800000000E+01 0. -1.
        -11    1    1    2    0    0 -0.49281693050E+02  0.71498879582E+02  0.31391750549E+03  0.32570688557E+03  0.00000000000E+00 0.  1.
         11    1    1    2    0    0 -0.10665306230E+02 -0.29159237086E+02  0.13886120771E+03  0.14229000271E+03  0.00000000000E+00 0. -1.
</event>
<event>
 7    1  0.2612321E-009  0.9971877E+02  0.7561462E-02  0.1280888E+00
         -1   -1    0    0    0  501 -0.00000000000E+00  0.00000000000E+00  0.23902508948E+02  0.23902508948E+02  0.00000000000E+00 0.  1.
          1   -1    0    0  501    0  0.00000000000E+00 -0.00000000000E+00 -0.62266931079E+03  0.62266931079E+03  0.00000000000E+00 0. -1.
         25    2    1    2    0    0 -0.42258513671E+02  0.37109181663E+02 -0.31420385697E+03  0.34283398482E+03  0.12509278186E+03 0.  0.
          5    1    3    3  502    0 -0.50655760635E+02  0.56019957735E+02 -0.89684398692E+02  0.11732436030E+03  0.41800000000E+01 0. -1.
         -5    1    3    3    0  502  0.83972469645E+01 -0.18910776073E+02 -0.22451945828E+03  0.22550962453E+03  0.41800000000E+01 0. -1.
        -11    1    1    2    0    0 -0.12800800649E+01  0.25991286152E+02 -0.11079514146E+03  0.11381014424E+03  0.00000000000E+00 0. -1.
         11    1    1    2    0    0  0.43538593736E+02 -0.63100467815E+02 -0.17376780341E+03  0.18992769068E+03  0.00000000000E+00 0.  1.
</event>
<event>
 7    1  0.2612321E-009  0.2010337E+03  0.7561462E-02  0.1148870E+00
         -2   -1    0    0    0  501 -0.00000000000E+00  0.00000000000E+00  0.52304099109E+02  0.52304099109E+02  0.00000000000E+00 0.  1.
          2   -1    0    0  501    0  0.00000000000E+00 -0.00000000000E+00 -0.89849367396E+03  0.89849367396E+03  0.00000000000E+00 0. -1.
         25    2    1    2    0    0  0.57972744534E+02  0.17275420737E+03 -0.33241065890E+03  0.39918644080E+03  0.12509241823E+03 0.  0.
          5    1    3    3  502    0  0.11037428837E+02  0.16633665859E+03 -0.29423471026E+03  0.33820296561E+03  0.41800000000E+01 0.  1.
         -5    1    3    3    0  502  0.46935315697E+02  0.64175487824E+01 -0.38175948634E+02  0.60983475188E+02  0.41800000000E+01 0.  1.
        -11    1    1    2    0    0  0.48713881921E+01 -0.46216325268E+02 -0.22951767412E+03  0.23417523754E+03  0.00000000000E+00 0. -1.
         11    1    1    2    0    0 -0.62844132726E+02 -0.12653788210E+03 -0.28426124183E+03  0.31743609473E+03  0.00000000000E+00 0.  1.
</event>
<event>
 7    1  0.2612321E-009  0.1092965E+03  0.7561462E-02  0.1261878E+00
          2   -1    0    0  501    0  0.00000000000E+00  0.00000000000E+00  0.16209369319E+03  0.16209369319E+03  0.00000000000E+00 0.  1.
         -2   -1    0    0    0  501 -0.00000000000E+00 -0.00000000000E+00 -0.10178166970E+03  0.10178166970E+03  0.00000000000E+00 0. -1.
         25    2    1    2    0    0 -0.21488918823E+02  0.61579149815E+01 -0.33446676768E+02  0.13139761143E+03  0.12508780338E+03 0.  0.
          5    1    3    3  502    0 -0.57515236507E+02  0.45045781936E+02 -0.12449080705E+02  0.74226524309E+02  0.41800000000E+01 0.  1.
         -5    1    3    3    0  502  0.36026317684E+02 -0.38887866954E+02 -0.20997596062E+02  0.57171087120E+02  0.41800000000E+01 0.  1.
        -11    1    1    2    0    0 -0.25866916635E+02  0.24663038352E+02  0.25697105662E+02  0.44019360245E+02  0.00000000000E+00 0.  1.
         11    1    1    2    0    0  0.47355835458E+02 -0.30820953334E+02  0.68061594596E+02  0.88458391209E+02  0.00000000000E+00 0. -1.
</event>
<event>
 7    1  0.2612321E-009  0.1017975E+03  0.7561462E-02  0.1276561E+00
          2   -1    0    0  501    0  0.00000000000E+00  0.00000000000E+00  0.15725234728E+03  0.15725234728E+03  0.00000000000E+00 0.  1.
         -2   -1    0    0    0  501 -0.00000000000E+00 -0.00000000000E+00 -0.97199283635E+02  0.97199283635E+02  0.00000000000E+00 0. -1.
         25    2    1    2    0    0 -0.35521921342E+02 -0.47074879274E+02  0.39965913196E+02  0.14395233302E+03  0.12508856386E+03 0.  0.
          5    1    3    3  502    0 -0.75430637499E+02 -0.57823968790E+02  0.17525006758E+02  0.96736708141E+02  0.41800000000E+01 0.  1.
         -5    1    3    3    0  502  0.39908716157E+02  0.10749089517E+02  0.22440906438E+02  0.47215624877E+02  0.41800000000E+01 0.  1.
        -11    1    1    2    0    0  0.35804002168E+02  0.22385368518E+02 -0.31916926321E+02  0.52931290186E+02  0.00000000000E+00 0. -1.
         11    1    1    2    0    0 -0.28208082615E+00  0.24689510756E+02  0.52004076769E+02  0.57568007709E+02  0.00000000000E+00 0.  1.
</event>
<event>
 7    1  0.2612321E-009  0.1763439E+03  0.7561462E-02  0.1171389E+00
          2   -1    0    0  501    0  0.00000000000E+00  0.00000000000E+00  0.14493620473E+03  0.14493620473E+03  0.00000000000E+00 0. -1.
         -2   -1    0    0    0  501 -0.00000000000E+00 -0.00000000000E+00 -0.27627512031E+03  0.27627512031E+03  0.00000000000E+00 0.  1.
         25    2    1    2    0    0 -0.15758391510E+03 -0.55619244750E+02 -0.85850981052E+02  0.22570738334E+03  0.12508893341E+03 0.  0.
          5    1    3    3  502    0 -0.59912593280E+02 -0.13521358054E+02  0.29915774821E+02  0.68445393858E+02  0.41800000000E+01 0.  1.
         -5    1    3    3    0  502 -0.97671321822E+02 -0.42097886696E+02 -0.11576675587E+03  0.15726198948E+03  0.41800000000E+01 0.  1.
        -11    1    1    2    0    0  0.24663091298E+02  0.45033806902E+02  0.77511479659E+01  0.51926795888E+02  0.00000000000E+00 0. -1.
         11    1    1    2    0    0  0.13292082380E+03  0.10585437848E+02 -0.53239082491E+02  0.14357714581E+03  0.00000000000E+00 0.  1.
</event>
<event>
 7    1  0.2612321E-009  0.1554774E+03  0.7561462E-02  0.1193899E+00
          2   -1    0    0  501    0  0.00000000000E+00  0.00000000000E+00  0.33303300818E+03  0.33303300818E+03  0.00000000000E+00 0. -1.
         -2   -1    0    0    0  501 -0.00000000000E+00 -0.00000000000E+00 -0.12617047076E+03  0.12617047076E+03  0.00000000000E+00 0.  1.
         25    2    1    2    0    0 -0.12647982424E+03 -0.42605645829E+02  0.23193691261E+03  0.29538959434E+03  0.12509154256E+03 0.  0.
          5    1    3    3  502    0 -0.97792197111E+02  0.54044665043E+01  0.21581218953E+03  0.23703353270E+03  0.41800000000E+01 0.  1.
         -5    1    3    3    0  502 -0.28687627127E+02 -0.48010112333E+02  0.16124723080E+02  0.58356061646E+02  0.41800000000E+01 0.  1.
        -11    1    1    2    0    0  0.93785866720E+02  0.67664648712E+02 -0.11103940132E+00  0.11564733378E+03  0.00000000000E+00 0. -1.
         11    1    1    2    0    0  0.32693957519E+02 -0.25059002883E+02 -0.24963335782E+02  0.48166550812E+02  0.00000000000E+00 0.  1.
</event>
<event>
 7    1  0.2612321E-009  0.1330736E+03  0.7561462E-02  0.1222965E+00
          4   -1    0    0  501    0  0.00000000000E+00  0.00000000000E+00  0.48842572766E+02  0.48842572766E+02  0.00000000000E+00 0.  1.
         -4   -1    0    0    0  501 -0.00000000000E+00 -0.00000000000E+00 -0.37444178177E+03  0.37444178177E+03  0.00000000000E+00 0. -1.
         25    2    1    2    0    0 -0.62329916587E+02  0.49470501232E+02 -0.19077822524E+03  0.24161390631E+03  0.12509436238E+03 0.  0.
          5    1    3    3  502    0 -0.94557713804E+02  0.11913763539E+02 -0.10043931401E+03  0.13852302047E+03  0.41800000000E+01 0.  1.
         -5    1    3    3    0  502  0.32227797217E+02  0.37556737694E+02 -0.90338911229E+02  0.10309088583E+03  0.41800000000E+01 0.  1.
        -11    1    1    2    0    0  0.80436646875E+02 -0.59808346626E+02 -0.10382759059E+03  0.14431653077E+03  0.00000000000E+00 0.  1.
         11    1    1    2    0    0 -0.18106730289E+02  0.10337845394E+02 -0.30993393179E+02  0.37353917464E+02  0.00000000000E+00 0. -1.
</event>
<event>
 7    1  0.2612321E-009  0.1089963E+03  0.7561462E-02  0.1262440E+00
         -3   -1    0    0    0  501 -0.00000000000E+00  0.00000000000E+00  0.90950024590E+02  0.90950024590E+02  0.00000000000E+00 0.  1.
          3   -1    0    0  501    0  0.00000000000E+00 -0.00000000000E+00 -0.16854013361E+03  0.16854013361E+03  0.00000000000E+00 0. -1.
         25    2    1    2    0    0 -0.42936351879E+02  0.27632008176E+02 -0.77322655371E+02  0.15566908164E+03  0.12508801604E+03 0.  0.
          5    1    3    3  502    0 -0.72628652271E+02 -0.86602251950E+01 -0.80048472068E+02  0.10851336743E+03  0.41800000000E+01 0. -1.
         -5    1    3    3    0  502  0.29692300392E+02  0.36292233371E+02  0.27258166973E+01  0.47155714206E+02  0.41800000000E+01 0. -1.
        -11    1    1    2    0    0  0.49255511589E+02  0.17355803586E+02  0.17445436835E+02  0.55060626643E+02  0.00000000000E+00 0.  1.
         11    1    1    2    0    0 -0.63191597101E+01 -0.44987811762E+02 -0.17712890482E+02  0.48760449914E+02  0.00000000000E+00 0. -1.
</event>
<event>
 7    1  0.2612321E-009  0.1535031E+03  0.7561462E-02  0.1196233E+00
         -2   -1    0    0    0  501 -0.00000000000E+00  0.00000000000E+00  0.75267725108E+03  0.75267725108E+03  0.00000000000E+00 0.  1.
          2   -1    0    0  501    0  0.00000000000E+00 -0.00000000000E+00 -0.42501602407E+02  0.42501602407E+02  0.00000000000E+00 0. -1.
         25    2    1    2    0    0  0.13645943318E+03  0.36976647613E+02  0.33826458077E+03  0.38737525029E+03  0.12509279980E+03 0.  0.
          5    1    3    3  502    0  0.13459113373E+03  0.56163467386E+02  0.19918230266E+03  0.24690113495E+03  0.41800000000E+01 0.  1.
         -5    1    3    3    0  502  0.18682994505E+01 -0.19186819773E+02  0.13908227812E+03  0.14047411534E+03  0.41800000000E+01 0.  1.
        -11    1    1    2    0    0 -0.61203227571E+02 -0.16846784387E+02  0.63814025257E+02  0.90010438443E+02  0.00000000000E+00 0. -1.
         11    1    1    2    0    0 -0.75256205610E+02 -0.20129863226E+02  0.30809704264E+03  0.31779316475E+03  0.00000000000E+00 0.  1.
</event>
<event>
 7    1  0.2612321E-009  0.1162075E+03  0.7561462E-02  0.1249488E+00
          2   -1    0    0  501    0  0.00000000000E+00  0.00000000000E+00  0.28560679191E+03  0.28560679191E+03  0.00000000000E+00 0.  1.
         -2   -1    0    0    0  501 -0.00000000000E+00 -0.00000000000E+00 -0.80608610958E+02  0.80608610958E+02  0.00000000000E+00 0. -1.
         25    2    1    2    0    0 -0.26373609635E+02  0.47457107693E+02 -0.50010631102E+00  0.13636370519E+03  0.12508823138E+03 0.  0.
          5    1    3    3  502    0 -0.73532278144E+02  0.83784720259E+01 -0.78331240419E+01  0.74538748009E+02  0.41800000000E+01 0.  1.
         -5    1    3    3    0  502  0.47158668508E+02  0.39078635667E+02  0.73330177309E+01  0.61824957179E+02  0.41800000000E+01 0.  1.
        -11    1    1    2    0    0  0.54404404265E+02 -0.41031044905E+02  0.10382364752E+03  0.12418830715E+03  0.00000000000E+00 0.  1.
         11    1    1    2    0    0 -0.28030794630E+02 -0.64260627884E+01  0.10167463975E+03  0.10566339053E+03  0.00000000000E+00 0. -1.
</event>
<event>
 7    1  0.2612321E-009  0.1088414E+03  0.7561462E-02  0.1262730E+00
          1   -1    0    0  501    0  0.00000000000E+00  0.00000000000E+00  0.10187204056E+04  0.10187204056E+04  0.00000000000E+00 0. -1.
         -1   -1    0    0    0  501 -0.00000000000E+00 -0.00000000000E+00 -0.16876876362E+02  0.16876876362E+02  0.00000000000E+00 0.  1.
         25    2    1    2    0    0  0.30981540703E+02 -0.58028358602E+02  0.69376177821E+03  0.70801158451E+03  0.12509137714E+03 0.  0.
          5    1    3    3  502    0 -0.33393788657E+02 -0.37892691544E+01  0.42493217899E+03  0.42627964158E+03  0.41800000000E+01 0. -1.
         -5    1    3    3    0  502  0.64375329360E+02 -0.54239089448E+02  0.26882959921E+03  0.28173194293E+03  0.41800000000E+01 0. -1.
        -11    1    1    2    0    0 -0.83725680355E+01  0.72308923529E+02  0.27783706286E+03  0.28721440392E+03  0.00000000000E+00 0. -1.
         11    1    1    2    0    0 -0.22608972668E+02 -0.14280564927E+02  0.30244688194E+02  0.40371293559E+02  0.00000000000E+00 0.  1.
</event>
<event>
 7    1  0.2612321E-009  0.1145288E+03  0.7561462E-02  0.1252406E+00
          2   -1    0    0  501    0  0.00000000000E+00  0.00000000000E+00  0.68252617917E+02  0.68252617917E+02  0.00000000000E+00 0.  1.
         -2   -1    0    0    0  501 -0.00000000000E+00 -0.00000000000E+00 -0.40896729982E+03  0.40896729982E+03  0.00000000000E+00 0. -1.
         25    2    1    2    0    0  0.14062877485E+02 -0.56721243939E+02 -0.20894607714E+02  0.13963805485E+03  0.12508851943E+03 0.  0.
          5    1    3    3  502    0  0.59160237510E+02 -0.53399222054E+02 -0.41292273498E+02  0.89855077034E+02  0.41800000000E+01 0.  1.
         -5    1    3    3    0  502 -0.45097360025E+02 -0.33220218845E+01  0.20397665783E+02  0.49782977814E+02  0.41800000000E+01 0.  1.
        -11    1    1    2    0    0 -0.39741393645E+02  0.65575245245E+02 -0.18881487654E+03  0.20379045306E+03  0.00000000000E+00 0.  1.
         11    1    1    2    0    0  0.25678516160E+02 -0.88540013065E+01 -0.13100519765E+03  0.13379140982E+03  0.00000000000E+00 0. -1.
</event>
<event>
 7    1  0.2612321E-009  0.1392002E+03  0.7561462E-02  0.1214409E+00
         -1   -1    0    0    0  501 -0.00000000000E+00  0.00000000000E+00  0.10659708276E+04  0.10659708276E+04  0.00000000000E+00 0.  1.
          1   -1    0    0  501    0  0.00000000000E+00 -0.00000000000E+00 -0.21881300834E+02  0.21881300834E+02  0.00000000000E+00 0. -1.
         25    2    1    2    0    0  0.89825648994E+02  0.22890307651E+02  0.75763950156E+03  0.77347018784E+03  0.12508358705E+03 0.  0.
          5    1    3    3  502    0 -0.25156988568E+02 -0.12617498384E+02  0.25622679653E+03  0.25780170480E+03  0.41800000000E+01 0. -1.
         -5    1    3    3    0  502  0.11498263756E+03  0.35507806035E+02  0.50141270504E+03  0.51566848304E+03  0.41800000000E+01 0. -1.
        -11    1    1    2    0    0  0.11766104959E+02 -0.25313194950E+02  0.59978840188E+02  0.66156332537E+02  0.00000000000E+00 0.  1.
         11    1    1    2    0    0 -0.10159175395E+03  0.24228872997E+01  0.22647118505E+03  0.24822560809E+03  0.00000000000E+00 0. -1.
</event>
<event>
 7    1  0.2612321E-009  0.1008360E+03  0.7561462E-02  0.1278548E+00
         -2   -1    0    0    0  501 -0.00000000000E+00  0.00000000000E+00  0.27814067442E+02  0.27814067442E+02  0.00000000000E+00 0.  1.
          2   -1    0    0  501    0  0.00000000000E+00 -0.00000000000E+00 -0.57267223656E+03  0.57267223656E+03  0.00000000000E+00 0. -1.
         25    2    1    2    0    0  0.75230960324E+01  0.63196933488E+02 -0.34250007983E+03  0.37014066702E+03  0.12508940530E+03 0.  0.
          5    1    3    3  502    0  0.54279431184E+02  0.58457016798E+02 -0.28380886628E+03  0.29483626718E+03  0.41800000000E+01 0.  1.
         -5    1    3    3    0  502 -0.46756335151E+02  0.47399166902E+01 -0.58691213549E+02  0.75304399837E+02  0.41800000000E+01 0.  1.
        -11    1    1    2    0    0 -0.22536097119E+02 -0.49058767436E+02 -0.20265331675E+03  0.20972125578E+03  0.00000000000E+00 0. -1.
         11    1    1    2    0    0  0.15013001087E+02 -0.14138166052E+02  0.29522746324E+00  0.20624381208E+02  0.00000000000E+00 0.  1.
</event>
<event>
 7    1  0.2612321E-009  0.9636958E+02  0.7561462E-02  0.1288121E+00
         -2   -1    0    0    0  501 -0.00000000000E+00  0.00000000000E+00  0.17563915208E+03  0.17563915208E+03  0.00000000000E+00 0.  1.
          2   -1    0    0  501    0  0.00000000000E+00 -0.00000000000E+00 -0.72491010049E+02  0.72491010049E+02  0.00000000000E+00 0. -1.
         25    2    1    2    0    0 -0.13548121918E+02  0.17952420749E+02  0.62423855820E+02  0.14160018437E+03  0.12509209976E+03 0.  0.
          5    1    3    3  502    0 -0.62439053961E+02  0.60144246928E+01  0.20645953022E+01  0.62901062930E+02  0.41800000000E+01 0.  1.
         -5    1    3    3    0  502  0.48890932043E+02  0.11937996057E+02  0.60359260518E+02  0.78699121445E+02  0.41800000000E+01 0.  1.
        -11    1    1    2    0    0 -0.13776766591E+02 -0.41233097087E+02  0.53038662830E+02  0.68578913289E+02  0.00000000000E+00 0.  1.
         11    1    1    2    0    0  0.27324888509E+02  0.23280676338E+02 -0.12314376617E+02  0.37951064468E+02  0.00000000000E+00 0. -1.
</event>
<event>
 7    1  0.2612321E-009  0.1939260E+03  0.7561462E-02  0.1154967E+00
          2   -1    0    0  501    0  0.00000000000E+00  0.00000000000E+00  0.11874058294E+04  0.11874058294E+04  0.00000000000E+00 0. -1.
         -2   -1    0    0    0  501 -0.00000000000E+00 -0.00000000000E+00 -0.33117650080E+02  0.33117650080E+02  0.00000000000E+00 0.  1.
         25    2    1    2    0    0 -0.52891200342E+02  0.15327938959E+03  0.71380179660E+03  0.74259822703E+03  0.12508825532E+03 0.  0.
          5    1    3    3  502    0  0.40468433644E+02  0.40497530261E+02  0.23398493498E+03  0.24092356937E+03  0.41800000000E+01 0.  1.
         -5    1    3    3    0  502 -0.93359633986E+02  0.11278185933E+03  0.47981686162E+03  0.50167465767E+03  0.41800000000E+01 0.  1.
        -11    1    1    2    0    0  0.77176405838E+02 -0.12230313015E+03  0.36884782711E+03  0.39618552829E+03  0.00000000000E+00 0.  1.
         11    1    1    2    0    0 -0.24285205496E+02 -0.30976259432E+02  0.71638555587E+02  0.81739724131E+02  0.00000000000E+00 0. -1.
</event>
<event>
 7    1  0.2612321E-009  0.7534248E+02  0.7561462E-02  0.1342814E+00
         -1   -1    0    0    0  501 -0.00000000000E+00  0.00000000000E+00  0.31187532983E+02  0.31187532983E+02  0.00000000000E+00 0.  1.
          1   -1    0    0  501    0  0.00000000000E+00 -0.00000000000E+00 -0.38738309694E+03  0.38738309694E+03  0.00000000000E+00 0. -1.
         25    2    1    2    0    0  0.96427259045E+01 -0.64793770771E+01 -0.24468122014E+03  0.27504728563E+03  0.12508855004E+03 0.  0.
          5    1    3    3  502    0 -0.92282905253E+01  0.22974714301E+02  0.26234836355E+01  0.25245869159E+02  0.41800000000E+01 0. -1.
         -5    1    3    3    0  502  0.18871016430E+02 -0.29454091378E+02 -0.24730470378E+03  0.24980141647E+03  0.41800000000E+01 0. -1.
        -11    1    1    2    0    0  0.39160098596E+02 -0.68522843546E+01 -0.49892526269E+02  0.63794445686E+02  0.00000000000E+00 0.  1.
         11    1    1    2    0    0 -0.48802824500E+02  0.13331661432E+02 -0.61621817550E+02  0.79728898612E+02  0.00000000000E+00 0. -1.
</event>
<event>
 7    1  0.2612321E-009  0.9472861E+02  0.7561462E-02  0.1291789E+00
          1   -1    0    0  501    0  0.00000000000E+00  0.00000000000E+00  0.32009790499E+03  0.32009790499E+03  0.00000000000E+00 0. -1.
         -1   -1    0    0    0  501 -0.00000000000E+00 -0.00000000000E+00 -0.39877916465E+02  0.39877916465E+02  0.00000000000E+00 0.  1.
         25    2    1    2    0    0  0.96992445706E+01 -0.12519275769E+02  0.20564297794E+03  0.24122037445E+03  0.12508967608E+03 0.  0.
          5    1    3    3  502    0 -0.46302007387E+02  0.15512653617E+02  0.37397168309E+02  0.61648510994E+02  0.41800000000E+01 0. -1.
         -5    1    3    3    0  502  0.56001251958E+02 -0.28031929386E+02  0.16824580963E+03  0.17957186346E+03  0.41800000000E+01 0. -1.
        -11    1    1    2    0    0  0.13757851970E+02 -0.27810275390E+02  0.63691765672E+02  0.70847236520E+02  0.00000000000E+00 0. -1.
         11    1    1    2    0    0 -0.23457096541E+02  0.40329551159E+02  0.10885244908E+02  0.47908210481E+02  0.00000000000E+00 0.  1.
</event>
<event>
 7    1  0.2612321E-009  0.1173397E+03  0.7561462E-02  0.1247551E+00
          2   -1    0    0  501    0  0.00000000000E+00  0.00000000000E+00  0.16825662299E+03  0.16825662299E+03  0.00000000000E+00 0. -1.
         -2   -1    0    0    0  501 -0.00000000000E+00 -0.00000000000E+00 -0.86988865057E+02  0.86988865057E+02  0.00000000000E+00 0.  1.
         25    2    1    2    0    0 -0.53136162277E+02 -0.78283891025E+01  0.56438739839E+02  0.14737404350E+03  0.12509613074E+03 0.  0.
          5    1    3    3  502    0 -0.55962333927E+02 -0.60748488863E+02  0.38913734780E+02  0.91399742189E+02  0.41800000000E+01 0.  1.
         -5    1    3    3    0  502  0.28261716505E+01  0.52920099760E+02  0.17525005059E+02  0.55974301310E+02  0.41800000000E+01 0.  1.
        -11    1    1    2    0    0  0.33716629901E+01 -0.33781288772E+02 -0.84212706844E+01  0.34978012842E+02  0.00000000000E+00 0.  1.
         11    1    1    2    0    0  0.49764499287E+02  0.41609677874E+02  0.33250288779E+02  0.72893431706E+02  0.00000000000E+00 0. -1.
</event>
<event>
 7    1  0.2612321E-009  0.1268997E+03  0.7561462E-02  0.1232130E+00
          1   -1    0    0  501    0  0.00000000000E+00  0.00000000000E+00  0.37165558277E+03  0.37165558277E+03  0.00000000000E+00 0. -1.
         -1   -1    0    0    0  501 -0.00000000000E+00 -0.00000000000E+00 -0.55687385594E+02  0.55687385594E+02  0.00000000000E+00 0.  1.
         25    2    1    2    0    0  0.47413864340E+02 -0.79301623018E+02  0.14745509581E+03  0.21430718418E+03  0.12509093478E+03 0.  0.
          5    1    3    3  502    0  0.72366531108E+01 -0.82692714679E+02  0.15227965617E+03  0.17348492815E+03  0.41800000000E+01 0.  1.
         -5    1    3    3    0  502  0.40177211230E+02  0.33910916609E+01 -0.48245603616E+01  0.40822256032E+02  0.41800000000E+01 0.  1.
        -11    1    1    2    0    0  0.27746538240E+02  0.25833783097E+02  0.54371847554E+02  0.66283878431E+02  0.00000000000E+00 0.  1.
         11    1    1    2    0    0 -0.75160402580E+02  0.53467839921E+02  0.11414125381E+03  0.14675190576E+03  0.00000000000E+00 0. -1.
</event>
<event>
 7    1  0.2612321E-009  0.3008682E+03  0.7561462E-02  0.1084807E+00
         -2   -1    0    0    0  501 -0.00000000000E+00  0.00000000000E+00  0.12158344674E+03  0.12158344674E+03  0.00000000000E+00 0.  1.
          2   -1    0    0  501    0  0.00000000000E+00 -0.00000000000E+00 -0.85426502445E+03  0.85426502445E+03  0.00000000000E+00 0. -1.
         25    2    1    2    0    0  0.27670499961E+03  0.46995340504E+02 -0.19907112799E+03  0.36613107134E+03  0.12509367914E+03 0.  0.
          5    1    3    3  502    0  0.16620753325E+03  0.89468929275E+02 -0.12004707342E+03  0.22373735864E+03  0.41800000000E+01 0.  1.
         -5    1    3    3    0  502  0.11049746636E+03 -0.42473588771E+02 -0.79024054569E+02  0.14239371270E+03  0.41800000000E+01 0.  1.
        -11    1    1    2    0    0 -0.12036981882E+03  0.24064326122E+02 -0.24016151721E+03  0.26971381022E+03  0.00000000000E+00 0.  1.
         11    1    1    2    0    0 -0.15633518079E+03 -0.71059666626E+02 -0.29344893251E+03  0.34000358964E+03  0.00000000000E+00 0. -1.
</event>
<event>
 7    1  0.2612321E-009  0.9523925E+02  0.7561462E-02  0.1290638E+00
          1   -1    0    0  501    0  0.00000000000E+00  0.00000000000E+00  0.25458581342E+03  0.25458581342E+03  0.00000000000E+00 0. -1.
         -1   -1    0    0    0  501 -0.00000000000E+00 -0.00000000000E+00 -0.50888523291E+02  0.50888523291E+02  0.00000000000E+00 0.  1.
         25    2    1    2    0    0 -0.19833450680E+02 -0.82089806745E+01  0.85690624027E+02  0.15313749892E+03  0.12508979734E+03 0.  0.
          5    1    3    3  502    0 -0.63384941014E+02 -0.36225567483E+02  0.37084372510E+02  0.81991862836E+02  0.41800000000E+01 0.  1.
         -5    1    3    3    0  502  0.43551490334E+02  0.28016586808E+02  0.48606251516E+02  0.71145636080E+02  0.41800000000E+01 0.  1.
        -11    1    1    2    0    0  0.25977413019E+02  0.31776811643E+02  0.10859055594E+02  0.42455987019E+02  0.00000000000E+00 0.  1.
         11    1    1    2    0    0 -0.61439623396E+01 -0.23567830969E+02  0.10714761051E+03  0.10988085078E+03  0.00000000000E+00 0. -1.
</event>
<event>
 7    1  0.2612321E-009  0.2021373E+03  0.7561462E-02  0.1147948E+00
          2   -1    0    0  501    0  0.00000000000E+00  0.00000000000E+00  0.22297333388E+03  0.22297333388E+03  0.00000000000E+00 0. -1.
         -2   -1    0    0    0  501 -0.00000000000E+00 -0.00000000000E+00 -0.21003176257E+03  0.21003176257E+03  0.00000000000E+00 0.  1.
         25    2    1    2    0    0  0.16472132378E+03 -0.82323772408E+02  0.38513825490E+02  0.22593759153E+03  0.12511659563E+03 0.  0.
          5    1    3    3  502    0  0.15419909296E+03 -0.39795077188E+02 -0.11007691521E+02  0.15968609868E+03  0.41800000000E+01 0. -1.
         -5    1    3    3    0  502  0.10522230819E+02 -0.42528695219E+02  0.49521517011E+02  0.66251492855E+02  0.41800000000E+01 0. -1.
        -11    1    1    2    0    0 -0.84062069032E+02  0.85941464925E+02  0.60147277232E+01  0.12036836708E+03  0.00000000000E+00 0. -1.
         11    1    1    2    0    0 -0.80659254748E+02 -0.36176925176E+01 -0.31586981900E+02  0.86699137835E+02  0.00000000000E+00 0.  1.
</event>
<event>
 7    1  0.2612321E-009  0.1121932E+03  0.7561462E-02  0.1256562E+00
          1   -1    0    0  501    0  0.00000000000E+00  0.00000000000E+00  0.32405046427E+03  0.32405046427E+03  0.00000000000E+00 0. -1.
         -1   -1    0    0    0  501 -0.00000000000E+00 -0.00000000000E+00 -0.70666343807E+02  0.70666343807E+02  0.00000000000E+00 0.  1.
         25    2    1    2    0    0  0.10658231993E+03  0.19881680901E+00  0.15236064907E+03  0.22410067898E+03  0.12509003352E+03 0.  0.
          5    1    3    3  502    0  0.89239855978E+02  0.14906013488E+02  0.17159123382E+03  0.19402825840E+03  0.41800000000E+01 0. -1.
         -5    1    3    3    0  502  0.17342463955E+02 -0.14707196679E+02 -0.19230584749E+02  0.30072420588E+02  0.41800000000E+01 0. -1.
        -11    1    1    2    0    0 -0.30252307084E+02 -0.13647017949E+02  0.85303818129E+02  0.91532423601E+02  0.00000000000E+00 0. -1.
         11    1    1    2    0    0 -0.76330012850E+02  0.13448201140E+02  0.15719653264E+02  0.79083705492E+02  0.00000000000E+00 0.  1.
</event>
<event>
 7    1  0.2612321E-009  0.1338139E+03  0.7561462E-02  0.1221904E+00
          2   -1    0    0  501    0  0.00000000000E+00  0.00000000000E+00  0.10707669750E+03  0.10707669750E+03  0.00000000000E+00 0. -1.
         -2   -1    0    0    0  501 -0.00000000000E+00 -0.00000000000E+00 -0.22213124961E+03  0.22213124961E+03  0.00000000000E+00 0.  1.
         25    2    1    2    0    0  0.32835962394E+02  0.70620791510E+02 -0.14188107073E+03  0.20455484130E+03  0.12508776218E+03 0.  0.
          5    1    3    3  502    0 -0.47074775765E+02  0.31844026152E+02 -0.69660318852E+02  0.90000605206E+02  0.41800000000E+01 0. -1.
         -5    1    3    3    0  502  0.79910738159E+02  0.38776765357E+02 -0.72220751876E+02  0.11455423609E+03  0.41800000000E+01 0. -1.
        -11    1    1    2    0    0  0.32812388499E+02 -0.16990450780E+02  0.73374651013E+01  0.37671828345E+02  0.00000000000E+00 0.  1.
         11    1    1    2    0    0 -0.65648350893E+02 -0.53630340729E+02  0.19489053519E+02  0.86981277461E+02  0.00000000000E+00 0. -1.
</event>
<event>
 7    1  0.2612321E-009  0.1565975E+03  0.7561462E-02  0.1192593E+00
         -3   -1    0    0    0  501 -0.00000000000E+00  0.00000000000E+00  0.19119871688E+03  0.19119871688E+03  0.00000000000E+00 0.  1.
          3   -1    0    0  501    0  0.00000000000E+00 -0.00000000000E+00 -0.14513351324E+03  0.14513351324E+03  0.00000000000E+00 0. -1.
         25    2    1    2    0    0 -0.10040426004E+03 -0.61141772293E+02 -0.20205788338E+02  0.17284161379E+03  0.12508644140E+03 0.  0.
          5    1    3    3  502    0  0.99671644672E+01  0.27611914187E+02 -0.74721655080E+01  0.30578878821E+02  0.41800000000E+01 0.  1.
         -5    1    3    3    0  502 -0.11037142450E+03 -0.88753686480E+02 -0.12733622830E+02  0.14226273497E+03  0.41800000000E+01 0.  1.
        -11    1    1    2    0    0  0.17339721030E+02  0.56005305152E+02  0.25664938021E+01  0.58684299613E+02  0.00000000000E+00 0. -1.
         11    1    1    2    0    0  0.83064539006E+02  0.51364671411E+01  0.63704498183E+02  0.10480631672E+03  0.00000000000E+00 0.  1.
</event>
<event>
 7    1  0.2612321E-009  0.5748406E+02  0.7561462E-02  0.1408704E+00
          2   -1    0    0  501    0  0.00000000000E+00  0.00000000000E+00  0.30368399699E+03  0.30368399699E+03  0.00000000000E+00 0. -1.
         -2   -1    0    0    0  501 -0.00000000000E+00 -0.00000000000E+00 -0.39206144123E+02  0.39206144123E+02  0.00000000000E+00 0.  1.
         25    2    1    2    0    0  0.65416106828E+01 -0.38163007406E+01  0.17381632727E+03  0.21428213066E+03  0.12508940432E+03 0.  0.
          5    1    3    3  502    0 -0.60409621099E+01  0.88265811742E+01 -0.18131396377E+02  0.21462098989E+02  0.41800000000E+01 0.  1.
         -5    1    3    3    0  502  0.12582572793E+02 -0.12642881915E+02  0.19194772365E+03  0.19282003167E+03  0.41800000000E+01 0.  1.
        -11    1    1    2    0    0  0.20530252974E+02 -0.33362533131E+02  0.65136889359E+02  0.76008974861E+02  0.00000000000E+00 0. -1.
         11    1    1    2    0    0 -0.27071863657E+02  0.37178833871E+02  0.25524636238E+02  0.52599035590E+02  0.00000000000E+00 0.  1.
</event>
<event>
 7    1  0.2612321E-009  0.8596350E+02  0.7561462E-02  0.1312932E+00
         -1   -1    0    0    0  501 -0.00000000000E+00  0.00000000000E+00  0.91277609102E+02  0.91277609102E+02  0.00000000000E+00 0.  1.
          1   -1    0    0  501    0  0.00000000000E+00 -0.00000000000E+00 -0.16624350828E+03  0.16624350828E+03  0.00000000000E+00 0. -1.
         25    2    1    2    0    0 -0.19343387791E+02 -0.45063910283E+02 -0.74801944042E+02  0.15377604685E+03  0.12508724592E+03 0.  0.
          5    1    3    3  502    0  0.10060394021E+02 -0.77758624565E+02 -0.76431575088E+02  0.10957587915E+03  0.41800000000E+01 0. -1.
         -5    1    3    3    0  502 -0.29403781811E+02  0.32694714282E+02  0.16296310466E+01  0.44200167694E+02  0.41800000000E+01 0. -1.
        -11    1    1    2    0    0  0.51765119919E+01  0.17468429115E+02  0.45231857775E+02  0.48763339200E+02  0.00000000000E+00 0.  1.
         11    1    1    2    0    0  0.14166875799E+02  0.27595481167E+02 -0.45395812913E+02  0.54981731337E+02  0.00000000000E+00 0. -1.
</event>
<event>
 7    1  0.2612321E-009  0.1052224E+03  0.7561462E-02  0.1269682E+00
         -1   -1    0    0    0  501 -0.00000000000E+00  0.00000000000E+00  0.32595766298E+02  0.32595766298E+02  0.00000000000E+00 0.  1.
          1   -1    0    0  501    0  0.00000000000E+00 -0.00000000000E+00 -0.43003261476E+03  0.43003261476E+03  0.00000000000E+00 0. -1.
         25    2    1    2    0    0  0.60315099563E+01  0.38152036474E+02 -0.17388544141E+03  0.21765913291E+03  0.12508954555E+03 0.  0.
          5    1    3    3  502    0 -0.49661481215E+02  0.17616835232E+02 -0.27378074534E+02  0.59528539082E+02  0.41800000000E+01 0. -1.
         -5    1    3    3    0  502  0.55692991171E+02  0.20535201241E+02 -0.14650736687E+03  0.15813059383E+03  0.41800000000E+01 0. -1.
        -11    1    1    2    0    0  0.39779069903E+02 -0.33552010086E+02 -0.93467424505E+02  0.10697790065E+03  0.00000000000E+00 0. -1.
         11    1    1    2    0    0 -0.45810579860E+02 -0.46000263875E+01 -0.13008398255E+03  0.13799134750E+03  0.00000000000E+00 0.  1.
</event>
<event>
 7    1  0.2612321E-009  0.1181897E+03  0.7561462E-02  0.1246114E+00
          2   -1    0    0  501    0  0.00000000000E+00  0.00000000000E+00  0.24174245162E+02  0.24174245162E+02  0.00000000000E+00 0. -1.
         -2   -1    0    0    0  501 -0.00000000000E+00 -0.00000000000E+00 -0.69456200298E+03  0.69456200298E+03  0.00000000000E+00 0.  1.
         25    2    1    2    0    0 -0.43867834224E+02  0.54181066123E+02 -0.39864528425E+03  0.42358430697E+03  0.12508248341E+03 0.  0.
          5    1    3    3  502    0 -0.55408906338E+02  0.79952439622E+02 -0.19508689881E+03  0.21803419454E+03  0.41800000000E+01 0. -1.
         -5    1    3    3    0  502  0.11541072115E+02 -0.25771373499E+02 -0.20355838544E+03  0.20555011243E+03  0.41800000000E+01 0. -1.
        -11    1    1    2    0    0 -0.11295488864E+02 -0.54139571255E+02 -0.17788471529E+03  0.18628379741E+03  0.00000000000E+00 0. -1.
         11    1    1    2    0    0  0.55163323087E+02 -0.41494868130E-01 -0.93857758285E+02  0.10886814376E+03  0.00000000000E+00 0.  1.
</event>
<event>
 7    1  0.2612321E-009  0.1066044E+03  0.7561462E-02  0.1266990E+00
         -4   -1    0    0    0  501 -0.00000000000E+00  0.00000000000E+00  0.60868088161E+02  0.60868088161E+02  0.00000000000E+00 0.  1.
          4   -1    0    0  501    0  0.00000000000E+00 -0.00000000000E+00 -0.19548938679E+03  0.19548938679E+03  0.00000000000E+00 0. -1.
         25    2    1    2    0    0  0.42009120026E+01 -0.67207285552E+01 -0.81434226062E+02  0.14947138106E+03  0.12508934698E+03 0.  0.
          5    1    3    3  502    0  0.59923222673E+02  0.19532735898E+02 -0.47409829572E+02  0.78977748304E+02  0.41800000000E+01 0.  1.
         -5    1    3    3    0  502 -0.55722310670E+02 -0.26253464453E+02 -0.34024396490E+02  0.70493632753E+02  0.41800000000E+01 0.  1.
        -11    1    1    2    0    0  0.41856211547E+02  0.56473990456E+01 -0.92765911385E+01  0.43242232877E+02  0.00000000000E+00 0.  1.
         11    1    1    2    0    0 -0.46057123550E+02  0.10733295096E+01 -0.43910481429E+02  0.63643861017E+02  0.00000000000E+00 0. -1.
</event>
<event>
 7    1  0.2612321E-009  0.1170417E+03  0.7561462E-02  0.1248059E+00
         -2   -1    0    0    0  501 -0.00000000000E+00  0.00000000000E+00  0.60765187263E+02  0.60765187263E+02  0.00000000000E+00 0.  1.
          2   -1    0    0  501    0  0.00000000000E+00 -0.00000000000E+00 -0.25118042887E+03  0.25118042887E+03  0.00000000000E+00 0. -1.
         25    2    1    2    0    0  0.17383642477E+02 -0.47503415346E+02 -0.12999670460E+03  0.18738623948E+03  0.12512271594E+03 0.  0.
          5    1    3    3  502    0  0.66778646384E+02 -0.40012239026E+02 -0.10658773732E+03  0.13205599203E+03  0.41800000000E+01 0. -1.
         -5    1    3    3    0  502 -0.49395003907E+02 -0.74911763201E+01 -0.23408967279E+02  0.55330247448E+02  0.41800000000E+01 0. -1.
        -11    1    1    2    0    0  0.25444459118E+02  0.56732657248E+02 -0.21007823075E+02  0.65630355237E+02  0.00000000000E+00 0.  1.
         11    1    1    2    0    0 -0.42828101595E+02 -0.92292419018E+01 -0.39410713936E+02  0.58929021418E+02  0.00000000000E+00 0. -1.
</event>
<event>
 7    1  0.2612321E-009  0.1132621E+03  0.7561462E-02  0.1254645E+00
         -1   -1    0    0    0  501 -0.00000000000E+00  0.00000000000E+00  0.10662504871E+03  0.10662504871E+03  0.00000000000E+00 0.  1.
          1   -1    0    0  501    0  0.00000000000E+00 -0.00000000000E+00 -0.15595262517E+03  0.15595262517E+03  0.00000000000E+00 0. -1.
         25    2    1    2    0    0 -0.51660199355E+02  0.12271661062E+02  0.52466608884E+01  0.13598216002E+03  0.12507697842E+03 0.  0.
          5    1    3    3  502    0 -0.78001533578E+02  0.25974793720E+02 -0.31864629132E+02  0.88270924653E+02  0.41800000000E+01 0.  1.
         -5    1    3    3    0  502  0.26341334223E+02 -0.13703132659E+02  0.37111290020E+02  0.47711235367E+02  0.41800000000E+01 0.  1.
        -11    1    1    2    0    0 -0.30890335708E+02 -0.10280691822E+01 -0.15435775923E+02  0.34547546146E+02  0.00000000000E+00 0. -1.
         11    1    1    2    0    0  0.82550535063E+02 -0.11243591880E+02 -0.39138461424E+02  0.92047967713E+02  0.00000000000E+00 0.  1.
</event>
<event>
 7    1  0.2612321E-009  0.1244226E+03  0.7561462E-02  0.1235974E+00
          1   -1    0    0  501    0  0.00000000000E+00  0.00000000000E+00  0.27274364348E+02  0.27274364348E+02  0.00000000000E+00 0. -1.
         -1   -1    0    0    0  501 -0.00000000000E+00 -0.00000000000E+00 -0.75296909925E+03  0.75296909925E+03  0.00000000000E+00 0.  1.
         25    2    1    2    0    0  0.17754500690E+02 -0.65040732886E+02 -0.21335090398E+03  0.25634129960E+03  0.12508690749E+03 0.  0.
          5    1    3    3  502    0  0.29342857044E+02  0.31466451825E+02 -0.84177942095E+02  0.94628426941E+02  0.41800000000E+01 0. -1.
         -5    1    3    3    0  502 -0.11588356355E+02 -0.96507184711E+02 -0.12917296188E+03  0.16171287266E+03  0.41800000000E+01 0. -1.
        -11    1    1    2    0    0  0.31597993052E+02  0.74145713668E+01 -0.12137259959E+03  0.12563724355E+03  0.00000000000E+00 0. -1.
         11    1    1    2    0    0 -0.49352493741E+02  0.57626161519E+02 -0.39097123133E+03  0.39826492044E+03  0.00000000000E+00 0.  1.
</event>
<event>
 7    1  0.2705615E-009  0.1206730E+03  0.7561462E-02  0.1241991E+00
          2   -1    0    0  501    0  0.00000000000E+00  0.00000000000E+00  0.53088567141E+03  0.53088567141E+03  0.00000000000E+00 0. -1.
         -2   -1    0    0    0  501 -0.00000000000E+00 -0.00000000000E+00 -0.37943027837E+02  0.37943027837E+02  0.00000000000E+00 0.  1.
         25    2    1    2    0    0  0.43706531528E+02  0.32561180787E+02  0.41609165180E+03  0.43789284360E+03  0.12508952151E+03 0.  0.
          5    1    3    3  502    0 -0.42718800365E+02 -0.46953584812E+00  0.15623350906E+03  0.16202314070E+03  0.41800000000E+01 0. -1.
         -5    1    3    3    0  502  0.86425331892E+02  0.33030716635E+02  0.25985814273E+03  0.27586970290E+03  0.41800000000E+01 0. -1.
        -11    1    1    2    0    0 -0.37367012376E+02 -0.63795166009E+02  0.49897990374E+02  0.89195999145E+02  0.00000000000E+00 0. -1.
         11    1    1    2    0    0 -0.63395191523E+01  0.31233985222E+02  0.26953001401E+02  0.41739856498E+02  0.00000000000E+00 0.  1.
</event>
<event>
 7    1  0.2612321E-009  0.1185247E+03  0.7561462E-02  0.1245551E+00
          1   -1    0    0  501    0  0.00000000000E+00  0.00000000000E+00  0.27787428396E+03  0.27787428396E+03  0.00000000000E+00 0. -1.
         -1   -1    0    0    0  501 -0.00000000000E+00 -0.00000000000E+00 -0.57791915480E+02  0.57791915480E+02  0.00000000000E+00 0.  1.
         25    2    1    2    0    0 -0.11107315681E+02  0.66613148527E+02  0.13561617156E+03  0.19646809461E+03  0.12508909702E+03 0.  0.
          5    1    3    3  502    0  0.56956015406E+02  0.29616573538E+02  0.67198878479E+02  0.93028440747E+02  0.41800000000E+01 0.  1.
         -5    1    3    3    0  502 -0.68063331086E+02  0.36996574990E+02  0.68417293080E+02  0.10343965387E+03  0.41800000000E+01 0.  1.
        -11    1    1    2    0    0 -0.26111175355E+02 -0.11263248303E+02 -0.36653585891E+01  0.28672096093E+02  0.00000000000E+00 0.  1.
         11    1    1    2    0    0  0.37218491036E+02 -0.55349900225E+02  0.88131555507E+02  0.11052600873E+03  0.00000000000E+00 0. -1.
</event>
<event>
 7    1  0.2612321E-009  0.1449714E+03  0.7561462E-02  0.1206792E+00
          2   -1    0    0  501    0  0.00000000000E+00  0.00000000000E+00  0.43645919871E+03  0.43645919871E+03  0.00000000000E+00 0. -1.
         -2   -1    0    0    0  501 -0.00000000000E+00 -0.00000000000E+00 -0.56734133933E+02  0.56734133933E+02  0.00000000000E+00 0.  1.
         25    2    1    2    0    0  0.33331844086E+02  0.87692431869E+02  0.10722046755E+03  0.18959197717E+03  0.12509162524E+03 0.  0.
          5    1    3    3  502    0  0.24437869113E+02  0.11989295579E+03  0.79449568052E+02  0.14594943151E+03  0.41800000000E+01 0.  1.
         -5    1    3    3    0  502  0.88939749730E+01 -0.32200523925E+02  0.27770899501E+02  0.43642545651E+02  0.41800000000E+01 0.  1.
        -11    1    1    2    0    0 -0.58878485485E+02 -0.21138876584E+02  0.12689769506E+03  0.14147986842E+03  0.00000000000E+00 0.  1.
         11    1    1    2    0    0  0.25546641399E+02 -0.66553555284E+02  0.14560690216E+03  0.16212148706E+03  0.00000000000E+00 0. -1.
</event>
<event>
 7    1  0.2612321E-009  0.1109501E+03  0.7561462E-02  0.1258821E+00
         -1   -1    0    0    0  501 -0.00000000000E+00  0.00000000000E+00  0.46378932698E+03  0.46378932698E+03  0.00000000000E+00 0.  1.
          1   -1    0    0  501    0  0.00000000000E+00 -0.00000000000E+00 -0.32006356102E+02  0.32006356102E+02  0.00000000000E+00 0. -1.
         25    2    1    2    0    0  0.52750435066E+02  0.12577777625E+02  0.23127928813E+03  0.26847233663E+03  0.12508588061E+03 0.  0.
          5    1    3    3  502    0  0.72452023233E+02 -0.36910299900E+02  0.15846853287E+03  0.17816120290E+03  0.41800000000E+01 0. -1.
         -5    1    3    3    0  502 -0.19701588168E+02  0.49488077525E+02  0.72810755259E+02  0.90311133726E+02  0.41800000000E+01 0. -1.
        -11    1    1    2    0    0 -0.24008512407E+02 -0.40434528019E+02  0.17166688030E+03  0.17799122876E+03  0.00000000000E+00 0.  1.
         11    1    1    2    0    0 -0.28741922659E+02  0.27856750394E+02  0.28836802450E+02  0.49332117694E+02  0.00000000000E+00 0. -1.
</event>
<event>
 6    1  0.2612321E-009  0.1193427E+03  0.7561462E-02  0.1244185E+00
         -1   -1    0    0    0  501 -0.00000000000E+00  0.00000000000E+00  0.24356242722E+02  0.24356242722E+02  0.00000000000E+00 0. -1.
          1   -1    0    0  501    0  0.00000000000E+00 -0.00000000000E+00 -0.10486943842E+04  0.10486943842E+04  0.00000000000E+00 0.  1.
          5    1    1    2  502    0 -0.80985810623E+02 -0.55757516097E+02 -0.66386321284E+03  0.67111805213E+03  0.41800000000E+01 0.  1.
         -5    1    1    2    0  502  0.36104365744E+02  0.21887505098E+02 -0.21228315579E+03  0.21648140506E+03  0.41800000000E+01 0.  1.
        -11    1    1    2    0    0 -0.14160168238E+01 -0.23827457875E+02 -0.51589936330E+01  0.24420648389E+02  0.00000000000E+00 0. -1.
         11    1    1    2    0    0  0.46297461703E+02  0.57697468874E+02 -0.14303277917E+03  0.16103052131E+03  0.00000000000E+00 0.  1.
</event>
<event>
 7    1  0.2612321E-009  0.8840797E+02  0.7561462E-02  0.1306753E+00
         -2   -1    0    0    0  501 -0.00000000000E+00  0.00000000000E+00  0.22049756986E+02  0.22049756986E+02  0.00000000000E+00 0.  1.
          2   -1    0    0  501    0  0.00000000000E+00 -0.00000000000E+00 -0.58694396535E+03  0.58694396535E+03  0.00000000000E+00 0. -1.
         25    2    1    2    0    0  0.11807923534E+02 -0.42407827541E+02 -0.34071661067E+03  0.36561404074E+03  0.12509183468E+03 0.  0.
          5    1    3    3  502    0  0.49438018283E+02 -0.34297922954E+02 -0.71125520701E+02  0.93256513261E+02  0.41800000000E+01 0.  1.
         -5    1    3    3    0  502 -0.37630094749E+02 -0.81099045865E+01 -0.26959108997E+03  0.27235752748E+03  0.41800000000E+01 0.  1.
        -11    1    1    2    0    0 -0.19781234439E+02  0.57447462670E+02 -0.21621028037E+03  0.22458493614E+03  0.00000000000E+00 0. -1.
         11    1    1    2    0    0  0.79733109058E+01 -0.15039635129E+02 -0.79673173309E+01  0.18794745464E+02  0.00000000000E+00 0.  1.
</event>
<event>
 7    1  0.2612321E-009  0.8949138E+02  0.7561462E-02  0.1304088E+00
          1   -1    0    0  501    0  0.00000000000E+00  0.00000000000E+00  0.38624457224E+03  0.38624457224E+03  0.00000000000E+00 0. -1.
         -1   -1    0    0    0  501 -0.00000000000E+00 -0.00000000000E+00 -0.30660641172E+02  0.30660641172E+02  0.00000000000E+00 0.  1.
         25    2    1    2    0    0  0.14821655304E+02 -0.16398093587E+02  0.20543984173E+03  0.24153641222E+03  0.12508289618E+03 0.  0.
          5    1    3    3  502    0  0.47066779651E+02  0.15042817840E+02  0.18566379203E+03  0.19217201718E+03  0.41800000000E+01 0.  1.
         -5    1    3    3    0  502 -0.32245124347E+02 -0.31440911427E+02  0.19776049696E+02  0.49364395034E+02  0.41800000000E+01 0.  1.
        -11    1    1    2    0    0 -0.10994556264E+02  0.49568716966E+02  0.56560770879E+02  0.76006965283E+02  0.00000000000E+00 0.  1.
         11    1    1    2    0    0 -0.38270990401E+01 -0.33170623379E+02  0.93583318460E+02  0.99361835914E+02  0.00000000000E+00 0. -1.
</event>
<event>
 7    1  0.2612321E-009  0.1399354E+03  0.7561462E-02  0.1213416E+00
         -2   -1    0    0    0  501 -0.00000000000E+00  0.00000000000E+00  0.56414658284E+02  0.56414658284E+02  0.00000000000E+00 0. -1.
          2   -1    0    0  501    0  0.00000000000E+00 -0.00000000000E+00 -0.43867125974E+03  0.43867125974E+03  0.00000000000E+00 0.  1.
         25    2    1    2    0    0  0.50758288400E+02  0.97126409792E+02 -0.25683194104E+03  0.30597305675E+03  0.12508765804E+03 0.  0.
          5    1    3    3  502    0 -0.14466079274E+02  0.69426967815E+02 -0.48863125794E+02  0.86223249603E+02  0.41800000000E+01 0. -1.
         -5    1    3    3    0  502  0.65224367674E+02  0.27699441977E+02 -0.20796881525E+03  0.21974980715E+03  0.41800000000E+01 0. -1.
        -11    1    1    2    0    0  0.57962969438E+01 -0.77893247244E+02 -0.91913949915E+02  0.12061977124E+03  0.00000000000E+00 0.  1.
         11    1    1    2    0    0 -0.56554585344E+02 -0.19233162548E+02 -0.33510710499E+02  0.68493090040E+02  0.00000000000E+00 0. -1.
</event>
<event>
 7    1  0.2612321E-009  0.1349714E+03  0.7561462E-02  0.1220260E+00
         -2   -1    0    0    0  501 -0.00000000000E+00  0.00000000000E+00  0.20313589367E+02  0.20313589367E+02  0.00000000000E+00 0.  1.
          2   -1    0    0  501    0  0.00000000000E+00 -0.00000000000E+00 -0.97734160347E+03  0.97734160347E+03  0.00000000000E+00 0. -1.
         25    2    1    2    0    0  0.85835114749E+02  0.84368952360E+00 -0.44059977154E+03  0.46598726077E+03  0.12509032647E+03 0.  0.
          5    1    3    3  502    0 -0.28017930855E+02 -0.15580656647E+02 -0.57470889681E+02  0.65940403939E+02  0.41800000000E+01 0. -1.
         -5    1    3    3    0  502  0.11385304560E+03  0.16424346170E+02 -0.38312888186E+03  0.40004685683E+03  0.41800000000E+01 0. -1.
        -11    1    1    2    0    0  0.17802394407E+01  0.29673702693E+02 -0.76713182056E+02  0.82271563648E+02  0.00000000000E+00 0. -1.
         11    1    1    2    0    0 -0.87615354190E+02 -0.30517392217E+02 -0.43971506050E+03  0.44939636842E+03  0.00000000000E+00 0.  1.
</event>
<event>
 7    1  0.2612321E-009  0.2049820E+03  0.7561462E-02  0.1145602E+00
          1   -1    0    0  501    0  0.00000000000E+00  0.00000000000E+00  0.48689856820E+03  0.48689856820E+03  0.00000000000E+00 0. -1.
         -1   -1    0    0    0  501 -0.00000000000E+00 -0.00000000000E+00 -0.10750917666E+03  0.10750917666E+03  0.00000000000E+00 0.  1.
         25    2    1    2    0    0  0.21840675375E+02 -0.19739033999E+03  0.12931388524E+03  0.26797345464E+03  0.12509088718E+03 0.  0.
          5    1    3    3  502    0  0.23019185763E+02 -0.96871538392E+02  0.13430143322E+03  0.16723733204E+03  0.41800000000E+01 0. -1.
         -5    1    3    3    0  502 -0.11785103881E+01 -0.10051880160E+03 -0.49875479813E+01  0.10073612260E+03  0.41800000000E+01 0. -1.
        -11    1    1    2    0    0 -0.44810391361E+02  0.99164982830E+02  0.13525005813E+03  0.17359217499E+03  0.00000000000E+00 0.  1.
         11    1    1    2    0    0  0.22969715986E+02  0.98225357161E+02  0.11482544816E+03  0.15284211523E+03  0.00000000000E+00 0. -1.
</event>
<event>
 7    1  0.2612321E-009  0.6912707E+02  0.7561462E-02  0.1363087E+00
         -3   -1    0    0    0  501 -0.00000000000E+00  0.00000000000E+00  0.36965018734E+02  0.36965018734E+02  0.00000000000E+00 0.  1.
          3   -1    0    0  501    0  0.00000000000E+00 -0.00000000000E+00 -0.35848000357E+03  0.35848000357E+03  0.00000000000E+00 0. -1.
         25    2    1    2    0    0 -0.38950581755E+02  0.37964652947E+01 -0.20171331785E+03  0.24055460224E+03  0.12508674227E+03 0.  0.
          5    1    3    3  502    0 -0.20818873655E+02  0.34421770784E+01 -0.21601499803E+03  0.21708345367E+03  0.41800000000E+01 0.  1.
         -5    1    3    3    0  502 -0.18131708100E+02  0.35428821633E+00  0.14301680185E+02  0.23471148563E+02  0.41800000000E+01 0.  1.
        -11    1    1    2    0    0 -0.15684630773E+02  0.30025383942E+02 -0.39156588664E+02  0.51776150486E+02  0.00000000000E+00 0.  1.
         11    1    1    2    0    0  0.54635212528E+02 -0.33821849237E+02 -0.80645078321E+02  0.10311426958E+03  0.00000000000E+00 0. -1.
</event>
<event>
 7    1  0.2612321E-009  0.1088945E+03  0.7561462E-02  0.1262631E+00
          2   -1    0    0  501    0  0.00000000000E+00  0.00000000000E+00  0.57914151579E+02  0.57914151579E+02  0.00000000000E+00 0. -1.
         -2   -1    0    0    0  501 -0.00000000000E+00 -0.00000000000E+00 -0.29239441292E+03  0.29239441292E+03  0.00000000000E+00 0.  1.
         25    2    1    2    0    0  0.30404246781E+02  0.49480820718E+02 -0.72655372391E+02  0.15587951895E+03  0.12508737526E+03 0.  0.
          5    1    3    3  502    0  0.63718434475E+02 -0.10608575442E+02 -0.15874168002E+02  0.66648648708E+02  0.41800000000E+01 0.  1.
         -5    1    3    3    0  502 -0.33314187694E+02  0.60089396160E+02 -0.56781204389E+02  0.89230870243E+02  0.41800000000E+01 0.  1.
        -11    1    1    2    0    0 -0.15697947498E+02  0.12785293480E+02 -0.11068899235E+03  0.11252529632E+03  0.00000000000E+00 0.  1.
         11    1    1    2    0    0 -0.14706299283E+02 -0.62266114198E+02 -0.51135896595E+02  0.81903749221E+02  0.00000000000E+00 0. -1.
</event>
<event>
 7    1  0.2612321E-009  0.1105152E+03  0.7561462E-02  0.1259619E+00
          1   -1    0    0  501    0  0.00000000000E+00  0.00000000000E+00  0.91644427688E+01  0.91644427688E+01  0.00000000000E+00 0. -1.
         -1   -1    0    0    0  501 -0.00000000000E+00 -0.00000000000E+00 -0.13788384943E+04  0.13788384943E+04  0.00000000000E+00 0.  1.
         25    2    1    2    0    0 -0.18149561933E+02  0.15573240433E+02 -0.89002558588E+03  0.89909140906E+03  0.12509151016E+03 0.  0.
          5    1    3    3  502    0 -0.58498287218E+02  0.47552945762E+02 -0.55288173666E+03  0.55801345808E+03  0.41800000000E+01 0.  1.
         -5    1    3    3    0  502  0.40348725284E+02 -0.31979705329E+02 -0.33714384921E+03  0.34107795098E+03  0.41800000000E+01 0.  1.
        -11    1    1    2    0    0  0.15462961468E+02  0.37587314918E+02 -0.24058765498E+03  0.24399657611E+03  0.00000000000E+00 0.  1.
         11    1    1    2    0    0  0.26866004654E+01 -0.53160555351E+02 -0.23906081062E+03  0.24491495186E+03  0.00000000000E+00 0. -1.
</event>
<event>
 7    1  0.2612321E-009  0.1056752E+03  0.7561462E-02  0.1268795E+00
          1   -1    0    0  501    0  0.00000000000E+00  0.00000000000E+00  0.79780434086E+03  0.79780434086E+03  0.00000000000E+00 0.  1.
         -1   -1    0    0    0  501 -0.00000000000E+00 -0.00000000000E+00 -0.22907999331E+02  0.22907999331E+02  0.00000000000E+00 0. -1.
         25    2    1    2    0    0 -0.57622819500E+02  0.40190599765E+02  0.54649469644E+03  0.56501310731E+03  0.12509070533E+03 0.  0.
          5    1    3    3  502    0 -0.81150876750E+02  0.40537944699E+02  0.52523289249E+03  0.53302519031E+03  0.41800000000E+01 0. -1.
         -5    1    3    3    0  502  0.23528057249E+02 -0.34734493379E+00  0.21261803949E+02  0.31987916993E+02  0.41800000000E+01 0. -1.
        -11    1    1    2    0    0  0.33140184318E+02  0.14915863254E+02  0.26479973836E+02  0.44966029485E+02  0.00000000000E+00 0. -1.
         11    1    1    2    0    0  0.24482635182E+02 -0.55106463020E+02  0.20192167126E+03  0.21073320340E+03  0.00000000000E+00 0.  1.
</event>
<event>
 7    1  0.2612321E-009  0.1112562E+03  0.7561462E-02  0.1258261E+00
         -1   -1    0    0    0  501 -0.00000000000E+00  0.00000000000E+00  0.13545859229E+03  0.13545859229E+03  0.00000000000E+00 0. -1.
          1   -1    0    0  501    0  0.00000000000E+00 -0.00000000000E+00 -0.20141695238E+03  0.20141695238E+03  0.00000000000E+00 0.  1.
         25    2    1    2    0    0  0.74690494768E+02  0.25620457134E+02 -0.13344864738E+03  0.19922294899E+03  0.12508462769E+03 0.  0.
          5    1    3    3  502    0 -0.18748017173E+02 -0.99496988629E+01 -0.85624452138E+02  0.88314799775E+02  0.41800000000E+01 0.  1.
         -5    1    3    3    0  502  0.93438511941E+02  0.35570155997E+02 -0.47824195243E+02  0.11090814921E+03  0.41800000000E+01 0.  1.
        -11    1    1    2    0    0 -0.84583934295E+02 -0.30327536806E+02  0.24285852291E+02  0.93080631987E+02  0.00000000000E+00 0.  1.
         11    1    1    2    0    0  0.98934395264E+01  0.47070796728E+01  0.43204434994E+02  0.44571963697E+02  0.00000000000E+00 0. -1.
</event>
<event>
 7    1  0.2612321E-009  0.1557040E+03  0.7561462E-02  0.1193634E+00
          1   -1    0    0  501    0  0.00000000000E+00  0.00000000000E+00  0.26134422657E+03  0.26134422657E+03  0.00000000000E+00 0. -1.
         -1   -1    0    0    0  501 -0.00000000000E+00 -0.00000000000E+00 -0.10255536034E+03  0.10255536034E+03  0.00000000000E+00 0.  1.
         25    2    1    2    0    0  0.95253152247E+02 -0.77017928294E+02  0.67711743051E+02  0.18772472596E+03  0.12510303073E+03 0.  0.
          5    1    3    3  502    0 -0.64214870173E+01 -0.72287094929E+02  0.21067629794E+02  0.75683399858E+02  0.41800000000E+01 0.  1.
         -5    1    3    3    0  502  0.10167463926E+03 -0.47308333645E+01  0.46644113256E+02  0.11204132611E+03  0.41800000000E+01 0.  1.
        -11    1    1    2    0    0 -0.87390728370E+02  0.35066476243E+02  0.94436996918E+02  0.13336095211E+03  0.00000000000E+00 0. -1.
         11    1    1    2    0    0 -0.78624238771E+01  0.41951452051E+02 -0.33598737390E+01  0.42813908837E+02  0.00000000000E+00 0.  1.
</event>
<event>
 7    1  0.2612321E-009  0.9532457E+02  0.7561462E-02  0.1290447E+00
         -4   -1    0    0    0  501 -0.00000000000E+00  0.00000000000E+00  0.12831948670E+03  0.12831948670E+03  0.00000000000E+00 0.  1.
          4   -1    0    0  501    0  0.00000000000E+00 -0.00000000000E+00 -0.93850925339E+02  0.93850925339E+02  0.00000000000E+00 0. -1.
         25    2    1    2    0    0  0.15337712478E+02 -0.69916654445E+01  0.14894512019E+02  0.12708919144E+03  0.12508272176E+03 0.  0.
          5    1    3    3  502    0  0.54893186514E+02 -0.14942909111E+02  0.48140564041E+02  0.74642740870E+02  0.41800000000E+01 0.  1.
         -5    1    3    3    0  502 -0.39555474036E+02  0.79512436666E+01 -0.33246052022E+02  0.52446450567E+02  0.41800000000E+01 0.  1.
        -11    1    1    2    0    0  0.26811959672E+02  0.33759514737E+02  0.87446371619E+01  0.43989256596E+02  0.00000000000E+00 0. -1.
         11    1    1    2    0    0 -0.42149672150E+02 -0.26767849293E+02  0.10829412183E+02  0.51091964009E+02  0.00000000000E+00 0.  1.
</event>
<event>
 6    1  0.2612321E-009  0.4327123E+03  0.7561462E-02  0.1033007E+00
         -3   -1    0    0    0  501 -0.00000000000E+00  0.00000000000E+00  0.39103535839E+03  0.39103535839E+03  0.00000000000E+00 0.  1.
          3   -1    0    0  501    0  0.00000000000E+00 -0.00000000000E+00 -0.54454024101E+03  0.54454024101E+03  0.00000000000E+00 0. -1.
          5    1    1    2  502    0 -0.19460154447E+02  0.47941213296E+01 -0.38920377238E+01  0.20839903265E+02  0.41800000000E+01 0. -1.
         -5    1    1    2    0  502  0.25705777327E+02  0.41935266004E+03 -0.22113921059E+03  0.47480255194E+03  0.41800000000E+01 0. -1.
        -11    1    1    2    0    0  0.84889624529E+01 -0.17950238152E+03  0.75237134117E+02  0.19481733445E+03  0.00000000000E+00 0.  1.
         11    1    1    2    0    0 -0.14734585332E+02 -0.24464439985E+03 -0.37107684302E+01  0.24511580974E+03  0.00000000000E+00 0. -1.
</event>
<event>
 7    1  0.2612321E-009  0.1461294E+03  0.7561462E-02  0.1205311E+00
         -2   -1    0    0    0  501 -0.00000000000E+00  0.00000000000E+00  0.97346127507E+02  0.97346127507E+02  0.00000000000E+00 0.  1.
          2   -1    0    0  501    0  0.00000000000E+00 -0.00000000000E+00 -0.34625838589E+03  0.34625838589E+03  0.00000000000E+00 0. -1.
         25    2    1    2    0    0 -0.56156559181E+02  0.10239549663E+03 -0.23787833072E+02  0.17277551801E+03  0.12508845571E+03 0.  0.
          5    1    3    3  502    0  0.34624366102E+02  0.32578638184E+02 -0.32664119134E+02  0.57832788907E+02  0.41800000000E+01 0.  1.
         -5    1    3    3    0  502 -0.90780925283E+02  0.69816858450E+02  0.88762860628E+01  0.11494272910E+03  0.41800000000E+01 0.  1.
        -11    1    1    2    0    0  0.38006270218E+02 -0.10493630643E+03 -0.22644435961E+03  0.25245425919E+03  0.00000000000E+00 0. -1.
         11    1    1    2    0    0  0.18150288963E+02  0.25408098004E+01  0.13199342964E+01  0.18374736201E+02  0.00000000000E+00 0.  1.
</event>
<event>
 7    1  0.2612321E-009  0.1632558E+03  0.7561462E-02  0.1185069E+00
          2   -1    0    0  501    0  0.00000000000E+00  0.00000000000E+00  0.96993242844E+03  0.96993242844E+03  0.00000000000E+00 0. -1.
         -2   -1    0    0    0  501 -0.00000000000E+00 -0.00000000000E+00 -0.63392432638E+02  0.63392432638E+02  0.00000000000E+00 0.  1.
         25    2    1    2    0    0 -0.79006294462E+02  0.11676492821E+03  0.82544134228E+03  0.84668552104E+03  0.12508764511E+03 0.  0.
          5    1    3    3  502    0 -0.58641773132E+00 -0.91210884983E+01  0.23413071134E+01  0.10319508716E+02  0.41800000000E+01 0. -1.
         -5    1    3    3    0  502 -0.78419876730E+02  0.12588601671E+03  0.82310003517E+03  0.83636601232E+03  0.41800000000E+01 0. -1.
        -11    1    1    2    0    0 -0.18166884365E+02 -0.41082701460E+02  0.22596365954E+02  0.50283394884E+02  0.00000000000E+00 0. -1.
         11    1    1    2    0    0  0.97173178827E+02 -0.75682226753E+02  0.58502287567E+02  0.13635594516E+03  0.00000000000E+00 0.  1.
</event>
<event>
 7    1  0.2612321E-009  0.4867440E+03  0.7561462E-02  0.1017298E+00
          2   -1    0    0  501    0  0.00000000000E+00  0.00000000000E+00  0.12083899761E+04  0.12083899761E+04  0.00000000000E+00 0. -1.
         -2   -1    0    0    0  501 -0.00000000000E+00 -0.00000000000E+00 -0.22214772192E+03  0.22214772192E+03  0.00000000000E+00 0.  1.
         25    2    1    2    0    0  0.30557790030E+03  0.36274484187E+03  0.74107154036E+03  0.88870502308E+03  0.12509163303E+03 0.  0.
          5    1    3    3  502    0  0.10286316590E+03  0.21827584152E+03  0.37816326838E+03  0.44860907686E+03  0.41800000000E+01 0.  1.
         -5    1    3    3    0  502  0.20271473439E+03  0.14446900035E+03  0.36290827198E+03  0.44009594622E+03  0.41800000000E+01 0.  1.
        -11    1    1    2    0    0 -0.25263176178E+03 -0.34447010127E+03  0.21649122200E+03  0.47890594790E+03  0.00000000000E+00 0.  1.
         11    1    1    2    0    0 -0.52946138515E+02 -0.18274740599E+02  0.28679491866E+02  0.62926727083E+02  0.00000000000E+00 0. -1.
</event>
<event>
 7    1  0.2612321E-009  0.2484454E+03  0.7561462E-02  0.1114291E+00
          1   -1    0    0  501    0  0.00000000000E+00  0.00000000000E+00  0.10813120426E+04  0.10813120426E+04  0.00000000000E+00 0.  1.
         -1   -1    0    0    0  501 -0.00000000000E+00 -0.00000000000E+00 -0.58939387068E+02  0.58939387068E+02  0.00000000000E+00 0. -1.
         25    2    1    2    0    0  0.46479000682E+02  0.21940923467E+03  0.48616494277E+03  0.54982167818E+03  0.12508723536E+03 0.  0.
          5    1    3    3  502    0  0.56150529673E+02  0.23278953038E+03  0.44715635894E+03  0.50725745848E+03  0.41800000000E+01 0.  1.
         -5    1    3    3    0  502 -0.96715289908E+01 -0.13380295711E+02  0.39008583830E+02  0.42564219701E+02  0.41800000000E+01 0.  1.
        -11    1    1    2    0    0 -0.51059480758E+02 -0.51968954049E+02  0.23180606990E+03  0.24298538393E+03  0.00000000000E+00 0.  1.
         11    1    1    2    0    0  0.45804800755E+01 -0.16744028062E+03  0.30440164284E+03  0.34744436754E+03  0.00000000000E+00 0. -1.
</event>
<event>
 7    1  0.2612321E-009  0.1067919E+03  0.7561462E-02  0.1266629E+00
          1   -1    0    0  501    0  0.00000000000E+00  0.00000000000E+00  0.51133197136E+03  0.51133197136E+03  0.00000000000E+00 0. -1.
         -1   -1    0    0    0  501 -0.00000000000E+00 -0.00000000000E+00 -0.47504180825E+02  0.47504180825E+02  0.00000000000E+00 0.  1.
         25    2    1    2    0    0  0.24197347814E+02  0.72964784240E+02  0.41203375200E+03  0.43741111163E+03  0.12508915384E+03 0.  0.
          5    1    3    3  502    0 -0.29508259346E+02  0.36385852981E+02  0.46556763539E+02  0.66179092605E+02  0.41800000000E+01 0.  1.
         -5    1    3    3    0  502  0.53705607161E+02  0.36578931259E+02  0.36547698846E+03  0.37123201902E+03  0.41800000000E+01 0.  1.
        -11    1    1    2    0    0 -0.43562918614E+02 -0.69105632490E+02  0.58604118103E+02  0.10053735116E+03  0.00000000000E+00 0. -1.
         11    1    1    2    0    0  0.19365570799E+02 -0.38591517497E+01 -0.68100795674E+01  0.20887689397E+02  0.00000000000E+00 0.  1.
</event>
<event>
 7    1  0.2612321E-009  0.1105067E+03  0.7561462E-02  0.1259634E+00
          2   -1    0    0  501    0  0.00000000000E+00  0.00000000000E+00  0.25301464081E+03  0.25301464081E+03  0.00000000000E+00 0. -1.
         -2   -1    0    0    0  501 -0.00000000000E+00 -0.00000000000E+00 -0.57522798062E+02  0.57522798062E+02  0.00000000000E+00 0.  1.
         25    2    1    2    0    0 -0.48283141754E+02 -0.19089314685E+02  0.89164840094E+02  0.16215134479E+03  0.12508807376E+03 0.  0.
          5    1    3    3  502    0 -0.79410509885E+02  0.22963451803E+02  0.58600622916E+02  0.10141427220E+03  0.41800000000E+01 0. -1.
         -5    1    3    3    0  502  0.31127368130E+02 -0.42052766488E+02  0.30564217179E+02  0.60737072598E+02  0.41800000000E+01 0. -1.
        -11    1    1    2    0    0  0.60034715847E+02 -0.36661625855E+01  0.28699288876E+02  0.66642756822E+02  0.00000000000E+00 0.  1.
         11    1    1    2    0    0 -0.11751574093E+02  0.22755477270E+02  0.77627713779E+02  0.81743337257E+02  0.00000000000E+00 0. -1.
</event>
<event>
 7    1  0.2612321E-009  0.1155928E+03  0.7561462E-02  0.1250550E+00
          1   -1    0    0  501    0  0.00000000000E+00  0.00000000000E+00  0.30323690398E+03  0.30323690398E+03  0.00000000000E+00 0. -1.
         -1   -1    0    0    0  501 -0.00000000000E+00 -0.00000000000E+00 -0.12123633527E+03  0.12123633527E+03  0.00000000000E+00 0.  1.
         25    2    1    2    0    0  0.23334518519E+02  0.55061941823E+02 -0.66450906418E+02  0.15375422251E+03  0.12509324836E+03 0.  0.
          5    1    3    3  502    0 -0.42965354222E+02  0.57317363086E+02 -0.40520806781E+02  0.82405764099E+02  0.41800000000E+01 0.  1.
         -5    1    3    3    0  502  0.66299872740E+02 -0.22554212633E+01 -0.25930099636E+02  0.71348458411E+02  0.41800000000E+01 0.  1.
        -11    1    1    2    0    0 -0.41402997428E+02 -0.74924201964E+01  0.47638373263E+02  0.63559099770E+02  0.00000000000E+00 0.  1.
         11    1    1    2    0    0  0.18068478909E+02 -0.47569521627E+02  0.20081310186E+03  0.20715991697E+03  0.00000000000E+00 0. -1.
</event>
<event>
 7    1  0.2612321E-009  0.1305125E+03  0.7561462E-02  0.1226697E+00
         -4   -1    0    0    0  501 -0.00000000000E+00  0.00000000000E+00  0.13185460732E+03  0.13185460732E+03  0.00000000000E+00 0.  1.
          4   -1    0    0  501    0  0.00000000000E+00 -0.00000000000E+00 -0.18007683217E+03  0.18007683217E+03  0.00000000000E+00 0. -1.
         25    2    1    2    0    0 -0.32654101805E+02  0.71101488471E+02  0.49461161212E+02  0.15561344400E+03  0.12508966967E+03 0.  0.
          5    1    3    3  502    0  0.36576574711E+02  0.63836809797E+02  0.71320714598E+01  0.74035957115E+02  0.41800000000E+01 0.  1.
         -5    1    3    3    0  502 -0.69230676516E+02  0.72646786742E+01  0.42329089752E+02  0.81577486884E+02  0.41800000000E+01 0.  1.
        -11    1    1    2    0    0  0.14886988678E+02  0.19914227913E+02 -0.53039568242E+01  0.25423038041E+02  0.00000000000E+00 0.  1.
         11    1    1    2    0    0  0.17767113127E+02 -0.91015716384E+02 -0.92379429236E+02  0.13089495744E+03  0.00000000000E+00 0. -1.
</event>
<event>
 7    1  0.2612321E-009  0.8710374E+02  0.7561462E-02  0.1310021E+00
         -4   -1    0    0    0  501 -0.00000000000E+00  0.00000000000E+00  0.15354573722E+03  0.15354573722E+03  0.00000000000E+00 0.  1.
          4   -1    0    0  501    0  0.00000000000E+00 -0.00000000000E+00 -0.81135310818E+02  0.81135310818E+02  0.00000000000E+00 0. -1.
         25    2    1    2    0    0  0.89127310331E+01 -0.24019434311E+01  0.65113318262E+02  0.14132302111E+03  0.12508895225E+03 0.  0.
          5    1    3    3  502    0  0.21573241240E+00  0.59952388641E+02  0.45066081424E+02  0.75118303623E+02  0.41800000000E+01 0.  1.
         -5    1    3    3    0  502  0.86969986207E+01 -0.62354332072E+02  0.20047236838E+02  0.66204717491E+02  0.41800000000E+01 0.  1.
        -11    1    1    2    0    0 -0.15195944079E+02 -0.21483504595E+02  0.42720438463E+02  0.50174630528E+02  0.00000000000E+00 0.  1.
         11    1    1    2    0    0  0.62832130461E+01  0.23885448026E+02 -0.35423330321E+02  0.43183396399E+02  0.00000000000E+00 0. -1.
</event>
<event>
 7    1  0.2612321E-009  0.7896274E+02  0.7561462E-02  0.1332021E+00
         -2   -1    0    0    0  501 -0.00000000000E+00  0.00000000000E+00  0.25738181879E+03  0.25738181879E+03  0.00000000000E+00 0.  1.
          2   -1    0    0  501    0  0.00000000000E+00 -0.00000000000E+00 -0.60489026818E+02  0.60489026818E+02  0.00000000000E+00 0. -1.
         25    2    1    2    0    0  0.33300688168E+02 -0.12239459717E+02  0.43165590133E+02  0.13699944047E+03  0.12508732275E+03 0.  0.
          5    1    3    3  502    0  0.44822265859E+00 -0.42086846817E+02 -0.29626073086E+02  0.51639908840E+02  0.41800000000E+01 0.  1.
         -5    1    3    3    0  502  0.32852465509E+02  0.29847387100E+02  0.72791663218E+02  0.85359531634E+02  0.41800000000E+01 0.  1.
        -11    1    1    2    0    0 -0.47704776835E+02  0.23103294200E+02  0.15395953452E+03  0.16282827213E+03  0.00000000000E+00 0.  1.
         11    1    1    2    0    0  0.14404088667E+02 -0.10863834483E+02 -0.23233268235E+00  0.18043133001E+02  0.00000000000E+00 0. -1.
</event>
<event>
 7    1  0.2612321E-009  0.1081468E+03  0.7561462E-02  0.1264041E+00
         -2   -1    0    0    0  501 -0.00000000000E+00  0.00000000000E+00  0.36704539482E+02  0.36704539482E+02  0.00000000000E+00 0. -1.
          2   -1    0    0  501    0  0.00000000000E+00 -0.00000000000E+00 -0.44303437566E+03  0.44303437566E+03  0.00000000000E+00 0.  1.
         25    2    1    2    0    0  0.25852845843E+02 -0.91934888576E+01 -0.11344008288E+03  0.17108327965E+03  0.12509175152E+03 0.  0.
          5    1    3    3  502    0 -0.42725503280E+02 -0.25254975661E+02 -0.19253055520E+02  0.53398829322E+02  0.41800000000E+01 0. -1.
         -5    1    3    3    0  502  0.68578349123E+02  0.16061486804E+02 -0.94187027359E+02  0.11768445033E+03  0.41800000000E+01 0. -1.
        -11    1    1    2    0    0 -0.53073098659E+01  0.49979184041E+02 -0.17981121946E+03  0.18670340387E+03  0.00000000000E+00 0.  1.
         11    1    1    2    0    0 -0.20545535978E+02 -0.40785695183E+02 -0.11307853385E+03  0.12195223162E+03  0.00000000000E+00 0. -1.
</event>
<event>
 7    1  0.2612321E-009  0.1187368E+03  0.7561462E-02  0.1245196E+00
         -2   -1    0    0    0  501 -0.00000000000E+00  0.00000000000E+00  0.20232984353E+02  0.20232984353E+02  0.00000000000E+00 0.  1.
          2   -1    0    0  501    0  0.00000000000E+00 -0.00000000000E+00 -0.71690635779E+03  0.71690635779E+03  0.00000000000E+00 0. -1.
         25    2    1    2    0    0 -0.45651602845E+02 -0.20866130011E+02 -0.40678529237E+03  0.42853399779E+03  0.12509056297E+03 0.  0.
          5    1    3    3  502    0  0.43326000141E+02 -0.12338803965E+02 -0.13061325304E+03  0.13822692444E+03  0.41800000000E+01 0.  1.
         -5    1    3    3    0  502 -0.88977602986E+02 -0.85273260466E+01 -0.27617203934E+03  0.29030707334E+03  0.41800000000E+01 0.  1.
        -11    1    1    2    0    0 -0.17391846769E+02  0.34147262167E+02 -0.74357509456E+02  0.83651366158E+02  0.00000000000E+00 0. -1.
         11    1    1    2    0    0  0.63043449614E+02 -0.13281132155E+02 -0.21553057161E+03  0.22495397820E+03  0.00000000000E+00 0.  1.
</event>
<event>
 7    1  0.2612321E-009  0.1492381E+03  0.7561462E-02  0.1201412E+00
         -1   -1    0    0    0  501 -0.00000000000E+00  0.00000000000E+00  0.15867540757E+03  0.15867540757E+03  0.00000000000E+00 0.  1.
          1   -1    0    0  501    0  0.00000000000E+00 -0.00000000000E+00 -0.16007116922E+03  0.16007116922E+03  0.00000000000E+00 0. -1.
         25    2    1    2    0    0  0.46411253646E+02  0.10511504427E+03  0.20332823073E+02  0.17107298410E+03  0.12509742282E+03 0.  0.
          5    1    3    3  502    0  0.81096901300E+02  0.95818115395E+02 -0.69336731945E+01  0.12579096495E+03  0.41800000000E+01 0.  1.
         -5    1    3    3    0  502 -0.34685647654E+02  0.92969288775E+01  0.27266496267E+02  0.45282019152E+02  0.41800000000E+01 0.  1.
        -11    1    1    2    0    0 -0.25196642254E+02  0.40471251217E+01 -0.25940982980E+02  0.36389347350E+02  0.00000000000E+00 0.  1.
         11    1    1    2    0    0 -0.21214611392E+02 -0.10916216939E+03  0.42123982581E+01  0.11128424535E+03  0.00000000000E+00 0. -1.
</event>
<event>
 7    1  0.2612321E-009  0.1787325E+03  0.7561462E-02  0.1169035E+00
          1   -1    0    0  501    0  0.00000000000E+00  0.00000000000E+00  0.27174363847E+03  0.27174363847E+03  0.00000000000E+00 0. -1.
         -1   -1    0    0    0  501 -0.00000000000E+00 -0.00000000000E+00 -0.12452797526E+03  0.12452797526E+03  0.00000000000E+00 0.  1.
         25    2    1    2    0    0 -0.54918791235E+02  0.13425688962E+03  0.42705778158E+02  0.19624672273E+03  0.12509199275E+03 0.  0.
          5    1    3    3  502    0 -0.63159926311E+02  0.10548869949E+02 -0.24850378628E+01  0.64219177525E+02  0.41800000000E+01 0. -1.
         -5    1    3    3    0  502  0.82411350756E+01  0.12370801968E+03  0.45190816021E+02  0.13202754520E+03  0.41800000000E+01 0. -1.
        -11    1    1    2    0    0  0.57494332059E+02 -0.29810492203E+02  0.28149527056E+02  0.70616283801E+02  0.00000000000E+00 0.  1.
         11    1    1    2    0    0 -0.25755408242E+01 -0.10444639742E+03  0.76360357991E+02  0.12940860720E+03  0.00000000000E+00 0. -1.
</event>
<event>
 7    1  0.2612321E-009  0.8746129E+02  0.7561462E-02  0.1309119E+00
          2   -1    0    0  501    0  0.00000000000E+00  0.00000000000E+00  0.32775578473E+03  0.32775578473E+03  0.00000000000E+00 0. -1.
         -2   -1    0    0    0  501 -0.00000000000E+00 -0.00000000000E+00 -0.44267146843E+02  0.44267146843E+02  0.00000000000E+00 0.  1.
         25    2    1    2    0    0  0.35056116883E+02 -0.11774605738E+02  0.22527554717E+03  0.26031914312E+03  0.12509760769E+03 0.  0.
          5    1    3    3  502    0  0.16670209276E+02 -0.44179546690E+02  0.21674661375E+03  0.22186999616E+03  0.41800000000E+01 0.  1.
         -5    1    3    3    0  502  0.18385907607E+02  0.32404940952E+02  0.85289334175E+01  0.38449146959E+02  0.41800000000E+01 0.  1.
        -11    1    1    2    0    0  0.19763762735E+02  0.26692868390E+02  0.44958422833E+01  0.33516087752E+02  0.00000000000E+00 0.  1.
         11    1    1    2    0    0 -0.54819879618E+02 -0.14918262653E+02  0.53717248437E+02  0.78187700705E+02  0.00000000000E+00 0. -1.
</event>
<event>
 7    1  0.2612321E-009  0.1031769E+03  0.7561462E-02  0.1273754E+00
          4   -1    0    0  501    0  0.00000000000E+00  0.00000000000E+00  0.29779985565E+03  0.29779985565E+03  0.00000000000E+00 0. -1.
         -4   -1    0    0    0  501 -0.00000000000E+00 -0.00000000000E+00 -0.45725294141E+02  0.45725294141E+02  0.00000000000E+00 0.  1.
         25    2    1    2    0    0 -0.57669345277E+01 -0.30184509695E+02  0.16826621155E+03  0.21190877524E+03  0.12508976343E+03 0.  0.
          5    1    3    3  502    0  0.48111078771E+02 -0.51563545707E+02  0.95174768861E+02  0.11852925451E+03  0.41800000000E+01 0. -1.
         -5    1    3    3    0  502 -0.53878013299E+02  0.21379036013E+02  0.73091442693E+02  0.93379520736E+02  0.41800000000E+01 0. -1.
        -11    1    1    2    0    0  0.16727530974E+02  0.51214499660E+02  0.10927210523E+02  0.54973986555E+02  0.00000000000E+00 0. -1.
         11    1    1    2    0    0 -0.10960596446E+02 -0.21029989965E+02  0.72881139433E+02  0.76642387994E+02  0.00000000000E+00 0.  1.
</event>
<event>
 7    1  0.2612321E-009  0.1195091E+03  0.7561462E-02  0.1243909E+00
         -2   -1    0    0    0  501 -0.00000000000E+00  0.00000000000E+00  0.22692449430E+02  0.22692449430E+02  0.00000000000E+00 0. -1.
          2   -1    0    0  501    0  0.00000000000E+00 -0.00000000000E+00 -0.84025886931E+03  0.84025886931E+03  0.00000000000E+00 0.  1.
         25    2    1    2    0    0  0.34154941268E+02 -0.70940421067E+02 -0.34698004604E+03  0.37714706868E+03  0.12508259556E+03 0.  0.
          5    1    3    3  502    0 -0.37242258896E+02 -0.55057113775E+02 -0.22699187536E+03  0.23656089175E+03  0.41800000000E+01 0.  1.
         -5    1    3    3    0  502  0.71397200164E+02 -0.15883307291E+02 -0.11998817068E+03  0.14058617693E+03  0.41800000000E+01 0.  1.
        -11    1    1    2    0    0 -0.51079971763E+02  0.60861017524E+02 -0.45128163347E+03  0.45822302395E+03  0.00000000000E+00 0.  1.
         11    1    1    2    0    0  0.16925030495E+02  0.10079403543E+02 -0.19304740372E+02  0.27581226112E+02  0.00000000000E+00 0. -1.
</event>
<event>
 7    1  0.3669656E-009  0.1156417E+03  0.7561462E-02  0.1250465E+00
          1   -1    0    0  501    0  0.00000000000E+00  0.00000000000E+00  0.26390581638E+03  0.26390581638E+03  0.00000000000E+00 0. -1.
         -1   -1    0    0    0  501 -0.00000000000E+00 -0.00000000000E+00 -0.14521839294E+03  0.14521839294E+03  0.00000000000E+00 0.  1.
         25    2    1    2    0    0 -0.61254650910E+02 -0.37855618576E+01  0.21934831981E+03  0.25986220718E+03  0.12509283985E+03 0.  0.
          5    1    3    3  502    0 -0.67519335186E+02 -0.55229124042E+02  0.13568491925E+03  0.16135980441E+03  0.41800000000E+01 0.  1.
         -5    1    3    3    0  502  0.62646842757E+01  0.51443562185E+02  0.83663400556E+02  0.98502402773E+02  0.41800000000E+01 0.  1.
        -11    1    1    2    0    0 -0.10357739450E+02 -0.14717554205E+02 -0.64438496392E+02  0.66904476574E+02  0.00000000000E+00 0.  1.
         11    1    1    2    0    0  0.71612390360E+02  0.18503116063E+02 -0.36222399974E+02  0.82357525564E+02  0.00000000000E+00 0. -1.
</event>
<event>
 7    1  0.2849847E-009  0.1141702E+03  0.7561462E-02  0.1253037E+00
         -2   -1    0    0    0  501 -0.00000000000E+00  0.00000000000E+00  0.21190131834E+02  0.21190131834E+02  0.00000000000E+00 0.  1.
          2   -1    0    0  501    0  0.00000000000E+00 -0.00000000000E+00 -0.88920356493E+03  0.88920356493E+03  0.00000000000E+00 0. -1.
         25    2    1    2    0    0 -0.61775727349E+02 -0.51834172960E+02 -0.40123945721E+03  0.42795311786E+03  0.12509095527E+03 0.  0.
          5    1    3    3  502    0 -0.44317162217E+02  0.78500607058E+01 -0.33090340660E+03  0.33397630338E+03  0.41800000000E+01 0. -1.
         -5    1    3    3    0  502 -0.17458565132E+02 -0.59684233666E+02 -0.70336050606E+02  0.93976814479E+02  0.41800000000E+01 0. -1.
        -11    1    1    2    0    0  0.12541969614E+02  0.67881955328E+02 -0.29855946135E+03  0.30643598487E+03  0.00000000000E+00 0. -1.
         11    1    1    2    0    0  0.49233757735E+02 -0.16047782368E+02 -0.16821451453E+03  0.17600459403E+03  0.00000000000E+00 0.  1.
</event>
<event>
 7    1  0.2612321E-009  0.9028763E+02  0.7561462E-02  0.1302157E+00
         -1   -1    0    0    0  501 -0.00000000000E+00  0.00000000000E+00  0.16057412488E+03  0.16057412488E+03  0.00000000000E+00 0.  1.
          1   -1    0    0  501    0  0.00000000000E+00 -0.00000000000E+00 -0.14484641068E+03  0.14484641068E+03  0.00000000000E+00 0. -1.
         25    2    1    2    0    0  0.39412180868E+02 -0.26567133208E+02 -0.89311518227E+02  0.16088081661E+03  0.12508779836E+03 0.  0.
          5    1    3    3  502    0  0.82261560929E+02 -0.33739588059E+02 -0.69595335918E+02  0.11298808517E+03  0.41800000000E+01 0. -1.
         -5    1    3    3    0  502 -0.42849380061E+02  0.71724548510E+01 -0.19716182309E+02  0.47892731443E+02  0.41800000000E+01 0. -1.
        -11    1    1    2    0    0 -0.24252231149E+02  0.12713532446E+02 -0.88782762083E+01  0.28785906472E+02  0.00000000000E+00 0. -1.
         11    1    1    2    0    0 -0.15159949719E+02  0.13853600761E+02  0.11391750863E+03  0.11575381248E+03  0.00000000000E+00 0.  1.
</event>
<event>
 7    1  0.3009636E-009  0.1742370E+03  0.7561462E-02  0.1173500E+00
          2   -1    0    0  501    0  0.00000000000E+00  0.00000000000E+00  0.11104539040E+04  0.11104539040E+04  0.00000000000E+00 0. -1.
         -2   -1    0    0    0  501 -0.00000000000E+00 -0.00000000000E+00 -0.31467607928E+02  0.31467607928E+02  0.00000000000E+00 0.  1.
         25    2    1    2    0    0  0.62669496558E+02 -0.12083155709E+03  0.77339950943E+03  0.79518672254E+03  0.12508953400E+03 0.  0.
          5    1    3    3  502    0  0.15508248414E+02 -0.13450858713E+03  0.55424151639E+03  0.57055604165E+03  0.41800000000E+01 0.  1.
         -5    1    3    3    0  502  0.47161248145E+02  0.13677030041E+02  0.21915799305E+03  0.22463068088E+03  0.41800000000E+01 0.  1.
        -11    1    1    2    0    0  0.95499219713E+01  0.80391780225E+02  0.14485174831E+03  0.16593995398E+03  0.00000000000E+00 0.  1.
         11    1    1    2    0    0 -0.72219418530E+02  0.40439776861E+02  0.16073503830E+03  0.18079483538E+03  0.00000000000E+00 0. -1.
</event>
<event>
 7    1  0.2612321E-009  0.6038400E+02  0.7561462E-02  0.1396227E+00
         -2   -1    0    0    0  501 -0.00000000000E+00  0.00000000000E+00  0.61615708792E+02  0.61615708792E+02  0.00000000000E+00 0.  1.
          2   -1    0    0  501    0  0.00000000000E+00 -0.00000000000E+00 -0.19136116138E+03  0.19136116138E+03  0.00000000000E+00 0. -1.
         25    2    1    2    0    0  0.86594529209E+01  0.25361529644E+01 -0.75997018767E+02  0.14664517055E+03  0.12509133059E+03 0.  0.
          5    1    3    3  502    0 -0.11387714969E+01 -0.24230160914E+02 -0.10375811199E+03  0.10663777802E+03  0.41800000000E+01 0. -1.
         -5    1    3    3    0  502  0.97982244179E+01  0.26766313878E+02  0.27761093220E+02  0.40007392531E+02  0.41800000000E+01 0. -1.
        -11    1    1    2    0    0  0.29077075293E+02 -0.51037176821E+01 -0.61046735183E+02  0.67810236087E+02  0.00000000000E+00 0. -1.
         11    1    1    2    0    0 -0.37736528213E+02  0.25675647178E+01  0.72983013590E+01  0.38521463535E+02  0.00000000000E+00 0.  1.
</event>
<event>
 7    1  0.2612321E-009  0.1028024E+03  0.7561462E-02  0.1274511E+00
          2   -1    0    0  501    0  0.00000000000E+00  0.00000000000E+00  0.35184128360E+03  0.35184128360E+03  0.00000000000E+00 0. -1.
         -2   -1    0    0    0  501 -0.00000000000E+00 -0.00000000000E+00 -0.91202542125E+02  0.91202542125E+02  0.00000000000E+00 0.  1.
         25    2    1    2    0    0  0.77886947600E+02 -0.35607624414E+02  0.27945391634E+03  0.31793113280E+03  0.12510569261E+03 0.  0.
          5    1    3    3  502    0  0.23785855672E+02 -0.25303689792E+02  0.20029636722E+01  0.35036094397E+02  0.41800000000E+01 0.  1.
         -5    1    3    3    0  502  0.54101091928E+02 -0.10303934622E+02  0.27745095267E+03  0.28289503841E+03  0.41800000000E+01 0.  1.
        -11    1    1    2    0    0 -0.84024211738E+02  0.49952669752E+01  0.71906445373E+01  0.84479146653E+02  0.00000000000E+00 0.  1.
         11    1    1    2    0    0  0.61372641371E+01  0.30612357438E+02 -0.26005819408E+02  0.40633546266E+02  0.00000000000E+00 0. -1.
</event>
<event>
 7    1  0.2612321E-009  0.1934556E+03  0.7561462E-02  0.1155381E+00
          1   -1    0    0  501    0  0.00000000000E+00  0.00000000000E+00  0.12713532285E+03  0.12713532285E+03  0.00000000000E+00 0. -1.
         -1   -1    0    0    0  501 -0.00000000000E+00 -0.00000000000E+00 -0.34625515293E+03  0.34625515293E+03  0.00000000000E+00 0.  1.
         25    2    1    2    0    0 -0.98317725287E+02 -0.14901856709E+03 -0.13030784592E+03  0.25396967051E+03  0.12509016904E+03 0.  0.
          5    1    3    3  502    0 -0.31099635371E+02  0.10945019480E+02 -0.56107295276E+02  0.65211055464E+02  0.41800000000E+01 0.  1.
         -5    1    3    3    0  502 -0.67218089915E+02 -0.15996358657E+03 -0.74200550642E+02  0.18875861505E+03  0.41800000000E+01 0.  1.
        -11    1    1    2    0    0  0.28484425964E+02  0.64285253557E+02 -0.83957597919E+02  0.10951180117E+03  0.00000000000E+00 0.  1.
         11    1    1    2    0    0  0.69833299322E+02  0.84733313529E+02 -0.48543862447E+01  0.10990900410E+03  0.00000000000E+00 0. -1.
</event>
<event>
 7    1  0.2612321E-009  0.8539599E+02  0.7561462E-02  0.1314400E+00
         -1   -1    0    0    0  501 -0.00000000000E+00  0.00000000000E+00  0.10980001534E+03  0.10980001534E+03  0.00000000000E+00 0.  1.
          1   -1    0    0  501    0  0.00000000000E+00 -0.00000000000E+00 -0.10875676822E+03  0.10875676822E+03  0.00000000000E+00 0. -1.
         25    2    1    2    0    0  0.46280240096E+00  0.14292119202E+02  0.76728602640E+01  0.12615524488E+03  0.12510713077E+03 0.  0.
          5    1    3    3  502    0  0.27117349259E+02  0.50289040268E+02  0.40763524946E+02  0.70309853989E+02  0.41800000000E+01 0.  1.
         -5    1    3    3    0  502 -0.26654546858E+02 -0.35996921067E+02 -0.33090664682E+02  0.55845390889E+02  0.41800000000E+01 0.  1.
        -11    1    1    2    0    0 -0.29303123672E+02 -0.24221092874E+02  0.27279826632E+02  0.46792342729E+02  0.00000000000E+00 0. -1.
         11    1    1    2    0    0  0.28840321271E+02  0.99289736722E+01 -0.33909439774E+02  0.45609195947E+02  0.00000000000E+00 0.  1.
</event>
<event>
 7    1  0.2612321E-009  0.8361007E+02  0.7561462E-02  0.1319108E+00
         -1   -1    0    0    0  501 -0.00000000000E+00  0.00000000000E+00  0.32628517233E+02  0.32628517233E+02  0.00000000000E+00 0.  1.
          1   -1    0    0  501    0  0.00000000000E+00 -0.00000000000E+00 -0.45501832132E+03  0.45501832132E+03  0.00000000000E+00 0. -1.
         25    2    1    2    0    0 -0.35620054155E+01 -0.48034185197E+01 -0.34961696993E+03  0.37136897963E+03  0.12508849930E+03 0.  0.
          5    1    3    3  502    0 -0.57126424668E+01 -0.40202245769E+02 -0.32602359911E+03  0.32856919275E+03  0.41800000000E+01 0.  1.
         -5    1    3    3    0  502  0.21506370514E+01  0.35398827250E+02 -0.23593370820E+02  0.42799786881E+02  0.41800000000E+01 0.  1.
        -11    1    1    2    0    0  0.26229501280E+02 -0.35685182849E+02 -0.35510580431E+02  0.56766366230E+02  0.00000000000E+00 0. -1.
         11    1    1    2    0    0 -0.22667495865E+02  0.40488601368E+02 -0.37262253726E+02  0.59511492691E+02  0.00000000000E+00 0.  1.
</event>
<event>
 7    1  0.2612321E-009  0.8730095E+02  0.7561462E-02  0.1309523E+00
          2   -1    0    0  501    0  0.00000000000E+00  0.00000000000E+00  0.77227043884E+02  0.77227043884E+02  0.00000000000E+00 0.  1.
         -2   -1    0    0    0  501 -0.00000000000E+00 -0.00000000000E+00 -0.18687613990E+03  0.18687613990E+03  0.00000000000E+00 0. -1.
         25    2    1    2    0    0 -0.10422141324E+02  0.54887735845E+02 -0.43860100469E+02  0.14385320330E+03  0.12509496837E+03 0.  0.
          5    1    3    3  502    0  0.28843380327E+02 -0.31459419072E+00 -0.66254820826E+02  0.72382409747E+02  0.41800000000E+01 0. -1.
         -5    1    3    3    0  502 -0.39265521651E+02  0.55202330036E+02  0.22394720357E+02  0.71470793557E+02  0.41800000000E+01 0. -1.
        -11    1    1    2    0    0 -0.22073127198E+02 -0.25986076771E+02  0.76104890625E+01  0.34934491180E+02  0.00000000000E+00 0.  1.
         11    1    1    2    0    0  0.32495268521E+02 -0.28901659074E+02 -0.73399484614E+02  0.85315489303E+02  0.00000000000E+00 0. -1.
</event>
<event>
 7    1  0.2612321E-009  0.1268181E+03  0.7561462E-02  0.1232255E+00
          3   -1    0    0  501    0  0.00000000000E+00  0.00000000000E+00  0.91406545041E+02  0.91406545041E+02  0.00000000000E+00 0. -1.
         -3   -1    0    0    0  501 -0.00000000000E+00 -0.00000000000E+00 -0.21837568289E+03  0.21837568289E+03  0.00000000000E+00 0.  1.
         25    2    1    2    0    0 -0.82829171942E+02 -0.66410865486E+01 -0.26487527778E+02  0.15249071238E+03  0.12508817881E+03 0.  0.
          5    1    3    3  502    0 -0.67969306168E+02  0.47749141145E+02 -0.42948564762E+02  0.93604800498E+02  0.41800000000E+01 0.  1.
         -5    1    3    3    0  502 -0.14859865774E+02 -0.54390227694E+02  0.16461036984E+02  0.58885911881E+02  0.41800000000E+01 0.  1.
        -11    1    1    2    0    0  0.90658615730E+02  0.24938003844E+02 -0.58254542432E+02  0.11060958528E+03  0.00000000000E+00 0. -1.
         11    1    1    2    0    0 -0.78294437877E+01 -0.18296917296E+02 -0.42227067643E+02  0.46681930276E+02  0.00000000000E+00 0.  1.
</event>
<event>
 7    1  0.2612321E-009  0.9380805E+02  0.7561462E-02  0.1293883E+00
          1   -1    0    0  501    0  0.00000000000E+00  0.00000000000E+00  0.31644118859E+02  0.31644118859E+02  0.00000000000E+00 0. -1.
         -1   -1    0    0    0  501 -0.00000000000E+00 -0.00000000000E+00 -0.42982282093E+03  0.42982282093E+03  0.00000000000E+00 0.  1.
         25    2    1    2    0    0 -0.38620827751E+02 -0.21077707477E+02 -0.22109796180E+03  0.25778832273E+03  0.12503868416E+03 0.  0.
          5    1    3    3  502    0 -0.63641251335E+02 -0.44911788898E+02 -0.77227658167E+02  0.10976730497E+03  0.41800000000E+01 0.  1.
         -5    1    3    3    0  502  0.25020423584E+02  0.23834081421E+02 -0.14387030363E+03  0.14802101776E+03  0.41800000000E+01 0.  1.
        -11    1    1    2    0    0  0.38498509158E+02 -0.13069484801E+02 -0.16077863099E+03  0.16583942481E+03  0.00000000000E+00 0.  1.
         11    1    1    2    0    0  0.12231859377E+00  0.34147192278E+02 -0.16302109281E+02  0.37839192240E+02  0.00000000000E+00 0. -1.
</event>
<event>
 7    1  0.2612321E-009  0.1011242E+03  0.7561462E-02  0.1277950E+00
          1   -1    0    0  501    0  0.00000000000E+00  0.00000000000E+00  0.91065471484E+02  0.91065471484E+02  0.00000000000E+00 0. -1.
         -1   -1    0    0    0  501 -0.00000000000E+00 -0.00000000000E+00 -0.16893891244E+03  0.16893891244E+03  0.00000000000E+00 0.  1.
         25    2    1    2    0    0  0.22011813922E+02 -0.56192969510E+02 -0.36324862390E+02  0.14355932977E+03  0.12509043034E+03 0.  0.
          5    1    3    3  502    0  0.52358252524E+02 -0.22114918844E+02 -0.67346233695E+02  0.88223828050E+02  0.41800000000E+01 0.  1.
         -5    1    3    3    0  502 -0.30346438601E+02 -0.34078050666E+02  0.31021371305E+02  0.55335501720E+02  0.41800000000E+01 0.  1.
        -11    1    1    2    0    0 -0.49554093001E+02  0.51548489309E+02 -0.67480957858E+01  0.71821944279E+02  0.00000000000E+00 0. -1.
         11    1    1    2    0    0  0.27542279079E+02  0.46444802008E+01 -0.34800482781E+02  0.44623109876E+02  0.00000000000E+00 0.  1.
</event>
<event>
 7    1  0.2612321E-009  0.1018031E+03  0.7561462E-02  0.1276549E+00
         -4   -1    0    0    0  501 -0.00000000000E+00  0.00000000000E+00  0.27040200670E+02  0.27040200670E+02  0.00000000000E+00 0. -1.
          4   -1    0    0  501    0  0.00000000000E+00 -0.00000000000E+00 -0.42316536125E+03  0.42316536125E+03  0.00000000000E+00 0.  1.
         25    2    1    2    0    0 -0.37398779533E+02  0.36782788272E+02 -0.25487281007E+03  0.28871919804E+03  0.12508790421E+03 0.  0.
          5    1    3    3  502    0 -0.27011706607E+02 -0.44320432899E+02 -0.77574738213E+02  0.93430431204E+02  0.41800000000E+01 0.  1.
         -5    1    3    3    0  502 -0.10387072926E+02  0.81103221171E+02 -0.17729807185E+03  0.19528876683E+03  0.41800000000E+01 0.  1.
        -11    1    1    2    0    0  0.94324624459E+01  0.10880816188E+02 -0.64159870624E+01  0.15764783496E+02  0.00000000000E+00 0. -1.
         11    1    1    2    0    0  0.27966317087E+02 -0.47663604460E+02 -0.13483636345E+03  0.14572158039E+03  0.00000000000E+00 0.  1.
</event>
<event>
 7    1  0.2612321E-009  0.9831485E+02  0.7561462E-02  0.1283880E+00
          2   -1    0    0  501    0  0.00000000000E+00  0.00000000000E+00  0.76996753421E+02  0.76996753421E+02  0.00000000000E+00 0. -1.
         -2   -1    0    0    0  501 -0.00000000000E+00 -0.00000000000E+00 -0.15356619362E+03  0.15356619362E+03  0.00000000000E+00 0.  1.
         25    2    1    2    0    0 -0.44535815560E+01  0.26951306360E+01 -0.25273467122E+02  0.12772532927E+03  0.12509162034E+03 0.  0.
          5    1    3    3  502    0 -0.58298654819E+02 -0.13749736720E+02  0.10408219750E+02  0.60939247222E+02  0.41800000000E+01 0.  1.
         -5    1    3    3    0  502  0.53845073263E+02  0.16444867356E+02 -0.35681686872E+02  0.66786082046E+02  0.41800000000E+01 0.  1.
        -11    1    1    2    0    0 -0.71100279948E+01  0.37570544283E+02 -0.22047759222E+01  0.38300905115E+02  0.00000000000E+00 0. -1.
         11    1    1    2    0    0  0.11563609551E+02 -0.40265674919E+02 -0.49091197154E+02  0.64536712657E+02  0.00000000000E+00 0.  1.
</event>
<event>
 7    1  0.2612321E-009  0.1862122E+03  0.7561462E-02  0.1161923E+00
          2   -1    0    0  501    0  0.00000000000E+00  0.00000000000E+00  0.25289946741E+04  0.25289946741E+04  0.00000000000E+00 0.  1.
         -2   -1    0    0    0  501 -0.00000000000E+00 -0.00000000000E+00 -0.17726507371E+02  0.17726507371E+02  0.00000000000E+00 0. -1.
         25    2    1    2    0    0 -0.13727155852E+03  0.80648138237E+02  0.18200602267E+04  0.18312878644E+04  0.12509360694E+03 0.  0.
          5    1    3    3  502    0 -0.13200742780E+03  0.10380246486E+03  0.17271663276E+04  0.17353160831E+04  0.41800000000E+01 0. -1.
         -5    1    3    3    0  502 -0.52641307228E+01 -0.23154326619E+02  0.92893899051E+02  0.95971781240E+02  0.41800000000E+01 0. -1.
        -11    1    1    2    0    0  0.47154926049E+02 -0.76813358644E+02  0.42195362788E+03  0.43147276066E+03  0.00000000000E+00 0.  1.
         11    1    1    2    0    0  0.90116632474E+02 -0.38347795930E+01  0.26925431216E+03  0.28396055642E+03  0.00000000000E+00 0. -1.
</event>
<event>
 7    1  0.2612321E-009  0.1140320E+03  0.7561462E-02  0.1253280E+00
          1   -1    0    0  501    0  0.00000000000E+00  0.00000000000E+00  0.13001166196E+03  0.13001166196E+03  0.00000000000E+00 0. -1.
         -1   -1    0    0    0  501 -0.00000000000E+00 -0.00000000000E+00 -0.13614113962E+03  0.13614113962E+03  0.00000000000E+00 0.  1.
         25    2    1    2    0    0 -0.42004387876E+02  0.31921626806E+02  0.48097263621E+02  0.14402807757E+03  0.12508949397E+03 0.  0.
          5    1    3    3  502    0 -0.78181166030E+02 -0.20525999153E+01  0.55359505065E+01  0.78515138898E+02  0.41800000000E+01 0. -1.
         -5    1    3    3    0  502  0.36176778154E+02  0.33974226722E+02  0.42561313115E+02  0.65512938669E+02  0.41800000000E+01 0. -1.
        -11    1    1    2    0    0  0.17318276429E+02 -0.60060410938E+02 -0.56993858232E+02  0.84590043957E+02  0.00000000000E+00 0.  1.
         11    1    1    2    0    0  0.24686111447E+02  0.28138784131E+02  0.27671169409E+01  0.37534680056E+02  0.00000000000E+00 0. -1.
</event>
<event>
 7    1  0.2612321E-009  0.1707843E+03  0.7561462E-02  0.1177032E+00
          2   -1    0    0  501    0  0.00000000000E+00  0.00000000000E+00  0.37322475295E+03  0.37322475295E+03  0.00000000000E+00 0. -1.
         -2   -1    0    0    0  501 -0.00000000000E+00 -0.00000000000E+00 -0.90171201383E+02  0.90171201383E+02  0.00000000000E+00 0.  1.
         25    2    1    2    0    0 -0.13516489299E+03  0.39840504763E+02  0.92522960808E+02  0.20991646881E+03  0.12509041324E+03 0.  0.
          5    1    3    3  502    0  0.15200694864E+02  0.34106789697E+02  0.23463481504E+02  0.44298324935E+02  0.41800000000E+01 0. -1.
         -5    1    3    3    0  502 -0.15036558785E+03  0.57337150661E+01  0.69059479304E+02  0.16561814388E+03  0.41800000000E+01 0. -1.
        -11    1    1    2    0    0  0.24754689717E+01  0.11067983207E+02 -0.44646560253E+01  0.12188574663E+02  0.00000000000E+00 0.  1.
         11    1    1    2    0    0  0.13268942402E+03 -0.50908487969E+02  0.19499524678E+03  0.24129091086E+03  0.00000000000E+00 0. -1.
</event>
<event>
 7    1  0.2612321E-009  0.1207928E+03  0.7561462E-02  0.1241795E+00
         -1   -1    0    0    0  501 -0.00000000000E+00  0.00000000000E+00  0.53903494367E+02  0.53903494367E+02  0.00000000000E+00 0.  1.
          1   -1    0    0  501    0  0.00000000000E+00 -0.00000000000E+00 -0.29510186456E+03  0.29510186456E+03  0.00000000000E+00 0. -1.
         25    2    1    2    0    0  0.38885707966E+02  0.45945266465E+02 -0.16016766198E+03  0.21195193227E+03  0.12508747281E+03 0.  0.
          5    1    3    3  502    0  0.59129001243E+02  0.77224203366E+02 -0.13634104750E+03  0.16752960935E+03  0.41800000000E+01 0.  1.
         -5    1    3    3    0  502 -0.20243293277E+02 -0.31278936901E+02 -0.23826614479E+02  0.44422322923E+02  0.41800000000E+01 0.  1.
        -11    1    1    2    0    0  0.21131639262E+02 -0.41488164527E+02 -0.18035605374E+02  0.49930922633E+02  0.00000000000E+00 0. -1.
         11    1    1    2    0    0 -0.60017347228E+02 -0.44571019382E+01 -0.62995102834E+02  0.87122504022E+02  0.00000000000E+00 0.  1.
</event>
<event>
 7    1  0.2612321E-009  0.2342405E+03  0.7561462E-02  0.1123690E+00
         -1   -1    0    0    0  501 -0.00000000000E+00  0.00000000000E+00  0.59689485958E+02  0.59689485958E+02  0.00000000000E+00 0.  1.
          1   -1    0    0  501    0  0.00000000000E+00 -0.00000000000E+00 -0.95400420933E+03  0.95400420933E+03  0.00000000000E+00 0. -1.
         25    2    1    2    0    0 -0.20130236221E+03  0.64326389494E+02 -0.46152319876E+03  0.52279270982E+03  0.12509208220E+03 0.  0.
          5    1    3    3  502    0 -0.13082872287E+03  0.10061519624E+03 -0.28775876183E+03  0.33175616023E+03  0.41800000000E+01 0.  1.
         -5    1    3    3    0  502 -0.70473639343E+02 -0.36288806744E+02 -0.17376443693E+03  0.19103654959E+03  0.41800000000E+01 0.  1.
        -11    1    1    2    0    0  0.61655578898E+02 -0.57318733569E+02 -0.22696204983E+03  0.24207151772E+03  0.00000000000E+00 0. -1.
         11    1    1    2    0    0  0.13964678331E+03 -0.70076559242E+01 -0.20582947478E+03  0.24882946774E+03  0.00000000000E+00 0.  1.
</event>
<event>
 7    1  0.2612321E-009  0.9607450E+02  0.7561462E-02  0.1288774E+00
          2   -1    0    0  501    0  0.00000000000E+00  0.00000000000E+00  0.10498113506E+04  0.10498113506E+04  0.00000000000E+00 0. -1.
         -2   -1    0    0    0  501 -0.00000000000E+00 -0.00000000000E+00 -0.17941154540E+02  0.17941154540E+02  0.00000000000E+00 0.  1.
         25    2    1    2    0    0 -0.11901025839E+02  0.13423043509E+02  0.89858764379E+03  0.90742976630E+03  0.12508882715E+03 0.  0.
          5    1    3    3  502    0 -0.47309532251E+02  0.54242859742E+02  0.49761199097E+03  0.50280776210E+03  0.41800000000E+01 0. -1.
         -5    1    3    3    0  502  0.35408506413E+02 -0.40819816233E+02  0.40097565283E+03  0.40462200420E+03  0.41800000000E+01 0. -1.
        -11    1    1    2    0    0  0.18952678752E+02 -0.36822959677E+02  0.23015522311E+02  0.47379833880E+02  0.00000000000E+00 0.  1.
         11    1    1    2    0    0 -0.70516529132E+01  0.23399916168E+02  0.11026702995E+03  0.11294290495E+03  0.00000000000E+00 0. -1.
</event>
<event>
 7    1  0.2612321E-009  0.9015492E+02  0.7561462E-02  0.1302477E+00
         -4   -1    0    0    0  501 -0.00000000000E+00  0.00000000000E+00  0.30109149345E+03  0.30109149345E+03  0.00000000000E+00 0. -1.
          4   -1    0    0  501    0  0.00000000000E+00 -0.00000000000E+00 -0.53249342082E+02  0.53249342082E+02  0.00000000000E+00 0.  1.
         25    2    1    2    0    0 -0.53224039541E+02  0.27398680593E+02  0.17627759115E+03  0.22428783232E+03  0.12509099289E+03 0.  0.
          5    1    3    3  502    0  0.29051987549E+02 -0.21039149271E+01  0.11176031150E+03  0.11556939070E+03  0.41800000000E+01 0. -1.
         -5    1    3    3    0  502 -0.82276027090E+02  0.29502595520E+02  0.64517279645E+02  0.10871844162E+03  0.41800000000E+01 0. -1.
        -11    1    1    2    0    0  0.41237656383E+02 -0.30144868013E+02  0.92561138931E+02  0.10572048908E+03  0.00000000000E+00 0. -1.
         11    1    1    2    0    0  0.11986383158E+02  0.27461874201E+01 -0.20996578709E+02  0.24332514133E+02  0.00000000000E+00 0.  1.
</event>
<event>
 7    1  0.2612321E-009  0.1213399E+03  0.7561462E-02  0.1240903E+00
         -1   -1    0    0    0  501 -0.00000000000E+00  0.00000000000E+00  0.44677522655E+02  0.44677522655E+02  0.00000000000E+00 0.  1.
          1   -1    0    0  501    0  0.00000000000E+00 -0.00000000000E+00 -0.46897346996E+03  0.46897346996E+03  0.00000000000E+00 0. -1.
         25    2    1    2    0    0 -0.47196511612E+02 -0.68356511458E+02 -0.30996266856E+03  0.34441947685E+03  0.12509115383E+03 0.  0.
          5    1    3    3  502    0 -0.55838554803E+02 -0.86417510319E+02 -0.14304580072E+03  0.17625408873E+03  0.41800000000E+01 0.  1.
         -5    1    3    3    0  502  0.86420431919E+01  0.18060998862E+02 -0.16691686784E+03  0.16816538812E+03  0.41800000000E+01 0.  1.
        -11    1    1    2    0    0  0.25367798827E+02  0.86952508671E+02 -0.10587691526E+03  0.13933479525E+03  0.00000000000E+00 0. -1.
         11    1    1    2    0    0  0.21828712785E+02 -0.18595997214E+02 -0.84563634817E+01  0.29896720515E+02  0.00000000000E+00 0.  1.
</event>
<event>
 7    1  0.2612321E-009  0.1422463E+03  0.7561462E-02  0.1210338E+00
         -2   -1    0    0    0  501 -0.00000000000E+00  0.00000000000E+00  0.27337772159E+02  0.27337772159E+02  0.00000000000E+00 0.  1.
          2   -1    0    0  501    0  0.00000000000E+00 -0.00000000000E+00 -0.15631321954E+04  0.15631321954E+04  0.00000000000E+00 0. -1.
         25    2    1    2    0    0 -0.88585809194E+02 -0.29566724421E+02 -0.13768136547E+04  0.13856358633E+04  0.12509703899E+03 0.  0.
          5    1    3    3  502    0  0.22296717882E+00 -0.61465827584E+02 -0.52694999636E+03  0.53053922451E+03  0.41800000000E+01 0. -1.
         -5    1    3    3    0  502 -0.88808776373E+02  0.31899103164E+02 -0.84986365836E+03  0.85509663884E+03  0.41800000000E+01 0. -1.
        -11    1    1    2    0    0  0.10594367488E+03  0.32515871143E+02 -0.14406811866E+03  0.18176074092E+03  0.00000000000E+00 0. -1.
         11    1    1    2    0    0 -0.17357865686E+02 -0.29491467219E+01 -0.14912649806E+02  0.23073363253E+02  0.00000000000E+00 0.  1.
</event>
<event>
 7    1  0.2612321E-009  0.1526131E+03  0.7561462E-02  0.1197298E+00
         -1   -1    0    0    0  501 -0.00000000000E+00  0.00000000000E+00  0.15143275610E+03  0.15143275610E+03  0.00000000000E+00 0.  1.
          1   -1    0    0  501    0  0.00000000000E+00 -0.00000000000E+00 -0.18958832240E+03  0.18958832240E+03  0.00000000000E+00 0. -1.
         25    2    1    2    0    0  0.24903155660E+02 -0.12494788641E+03  0.56149625866E+01  0.17863186825E+03  0.12508267294E+03 0.  0.
          5    1    3    3  502    0 -0.16773170516E+02  0.18199805213E+02 -0.13098359152E+02  0.28312745742E+02  0.41800000000E+01 0.  1.
         -5    1    3    3    0  502  0.41676326176E+02 -0.14314769162E+03  0.18713321739E+02  0.15031912250E+03  0.41800000000E+01 0.  1.
        -11    1    1    2    0    0 -0.82974466728E+00  0.79854676183E+02 -0.68859676677E+02  0.10544720412E+03  0.00000000000E+00 0. -1.
         11    1    1    2    0    0 -0.24073410993E+02  0.45093210225E+02  0.25089147792E+02  0.56942006131E+02  0.00000000000E+00 0.  1.
</event>
<event>
 7    1  0.2612321E-009  0.1285498E+03  0.7561462E-02  0.1229624E+00
          1   -1    0    0  501    0  0.00000000000E+00  0.00000000000E+00  0.89331306192E+03  0.89331306192E+03  0.00000000000E+00 0. -1.
         -1   -1    0    0    0  501 -0.00000000000E+00 -0.00000000000E+00 -0.23081223389E+02  0.23081223389E+02  0.00000000000E+00 0.  1.
         25    2    1    2    0    0  0.85962469318E+02 -0.32911244329E+02  0.52358866175E+03  0.54613542141E+03  0.12508443420E+03 0.  0.
          5    1    3    3  502    0  0.10688712264E+03 -0.17065452048E+02  0.49652491861E+03  0.50820326036E+03  0.41800000000E+01 0. -1.
         -5    1    3    3    0  502 -0.20924653320E+02 -0.15845792281E+02  0.27063743132E+02  0.37932161050E+02  0.41800000000E+01 0. -1.
        -11    1    1    2    0    0 -0.85892982549E+02 -0.33309744774E+01  0.17675336269E+03  0.19654630769E+03  0.00000000000E+00 0.  1.
         11    1    1    2    0    0 -0.69486769002E-01  0.36242218806E+02  0.16988981409E+03  0.17371255621E+03  0.00000000000E+00 0. -1.
</event>
<event>
 7    1  0.2612321E-009  0.1253472E+03  0.7561462E-02  0.1234528E+00
         -2   -1    0    0    0  501 -0.00000000000E+00  0.00000000000E+00  0.41400101190E+02  0.41400101190E+02  0.00000000000E+00 0.  1.
          2   -1    0    0  501    0  0.00000000000E+00 -0.00000000000E+00 -0.67498848866E+03  0.67498848866E+03  0.00000000000E+00 0. -1.
         25    2    1    2    0    0 -0.35047815163E+02 -0.75246907438E+02 -0.54189574085E+03  0.56230590902E+03  0.12508595020E+03 0.  0.
          5    1    3    3  502    0 -0.66875029876E+02 -0.14388196230E+01 -0.19502486582E+03  0.20621956869E+03  0.41800000000E+01 0. -1.
         -5    1    3    3    0  502  0.31827214713E+02 -0.73808087815E+02 -0.34687087503E+03  0.35608634033E+03  0.41800000000E+01 0. -1.
        -11    1    1    2    0    0  0.52390439584E+02  0.49039438555E+02 -0.98558286703E+02  0.12191538283E+03  0.00000000000E+00 0.  1.
         11    1    1    2    0    0 -0.17342624421E+02  0.26207468882E+02  0.68656400797E+01  0.32167298002E+02  0.00000000000E+00 0. -1.
</event>
<event>
 7    1  0.2612321E-009  0.1469051E+03  0.7561462E-02  0.1204328E+00
         -1   -1    0    0    0  501 -0.00000000000E+00  0.00000000000E+00  0.85886337543E+02  0.85886337543E+02  0.00000000000E+00 0.  1.
          1   -1    0    0  501    0  0.00000000000E+00 -0.00000000000E+00 -0.29546642761E+03  0.29546642761E+03  0.00000000000E+00 0. -1.
         25    2    1    2    0    0 -0.10215336587E+03 -0.56767482171E+02 -0.96615266900E+02  0.19657053427E+03  0.12509039913E+03 0.  0.
          5    1    3    3  502    0 -0.57767442924E+02 -0.95611820080E+02 -0.68405035807E+02  0.13105502251E+03  0.41800000000E+01 0.  1.
         -5    1    3    3    0  502 -0.44385922948E+02  0.38844337909E+02 -0.28210231093E+02  0.65515511765E+02  0.41800000000E+01 0.  1.
        -11    1    1    2    0    0  0.26764732485E+02  0.35694658705E+02  0.31725712101E+01  0.44727226308E+02  0.00000000000E+00 0.  1.
         11    1    1    2    0    0  0.75388633386E+02  0.21072823466E+02 -0.11613739438E+03  0.14005500457E+03  0.00000000000E+00 0. -1.
</event>
<event>
 7    1  0.2612321E-009  0.1750738E+03  0.7561462E-02  0.1172658E+00
          2   -1    0    0  501    0  0.00000000000E+00  0.00000000000E+00  0.17890646803E+04  0.17890646803E+04  0.00000000000E+00 0. -1.
         -2   -1    0    0    0  501 -0.00000000000E+00 -0.00000000000E+00 -0.25372309103E+02  0.25372309103E+02  0.00000000000E+00 0.  1.
         25    2    1    2    0    0  0.70212097571E+02  0.13352953131E+03  0.13478690520E+04  0.13620427787E+04  0.12509866273E+03 0.  0.
          5    1    3    3  502    0  0.88169350700E+02  0.12180332622E+03  0.81752203478E+03  0.83124583273E+03  0.41800000000E+01 0.  1.
         -5    1    3    3    0  502 -0.17957253129E+02  0.11726205094E+02  0.53034701722E+03  0.53079694601E+03  0.41800000000E+01 0.  1.
        -11    1    1    2    0    0  0.19056545803E+02 -0.57632304764E+02  0.15491507171E+03  0.16638303379E+03  0.00000000000E+00 0. -1.
         11    1    1    2    0    0 -0.89268643375E+02 -0.75897226546E+02  0.26090824752E+03  0.28601117690E+03  0.00000000000E+00 0.  1.
</event>
<event>
 7    1  0.2612321E-009  0.1225203E+03  0.7561462E-02  0.1238996E+00
          1   -1    0    0  501    0  0.00000000000E+00  0.00000000000E+00  0.30446057878E+03  0.30446057878E+03  0.00000000000E+00 0. -1.
         -1   -1    0    0    0  501 -0.00000000000E+00 -0.00000000000E+00 -0.52085832853E+02  0.52085832853E+02  0.00000000000E+00 0.  1.
         25    2    1    2    0    0  0.96645523259E+01 -0.63338146197E+02  0.13431947649E+03  0.19440618821E+03  0.12508764893E+03 0.  0.
          5    1    3    3  502    0  0.50036461725E+02  0.98775940073E+01  0.25680311722E+02  0.57255263299E+02  0.41800000000E+01 0. -1.
         -5    1    3    3    0  502 -0.40371909399E+02 -0.73215740204E+02  0.10863916476E+03  0.13715092491E+03  0.41800000000E+01 0. -1.
        -11    1    1    2    0    0  0.38193080302E+02  0.12150788355E+02  0.53619056004E+02  0.66942932467E+02  0.00000000000E+00 0. -1.
         11    1    1    2    0    0 -0.47857632628E+02  0.51187357842E+02  0.64436213434E+02  0.95197290955E+02  0.00000000000E+00 0.  1.
</event>
<event>
 7    1  0.2612321E-009  0.1107287E+03  0.7561462E-02  0.1259226E+00
         -1   -1    0    0    0  501 -0.00000000000E+00  0.00000000000E+00  0.19502122423E+03  0.19502122423E+03  0.00000000000E+00 0.  1.
          1   -1    0    0  501    0  0.00000000000E+00 -0.00000000000E+00 -0.70162664036E+02  0.70162664036E+02  0.00000000000E+00 0. -1.
         25    2    1    2    0    0 -0.34163981761E+02 -0.24292829564E+02  0.91824821939E+02  0.16073426066E+03  0.12508551238E+03 0.  0.
          5    1    3    3  502    0 -0.56148683789E+02  0.29895847958E+02  0.17572229684E+02  0.66126334183E+02  0.41800000000E+01 0.  1.
         -5    1    3    3    0  502  0.21984702028E+02 -0.54188677523E+02  0.74252592255E+02  0.94607926473E+02  0.41800000000E+01 0.  1.
        -11    1    1    2    0    0  0.55253067454E+02 -0.12521241677E+02  0.18249854590E+02  0.59520921942E+02  0.00000000000E+00 0.  1.
         11    1    1    2    0    0 -0.21089085693E+02  0.36814071241E+02  0.14783883661E+02  0.44928705666E+02  0.00000000000E+00 0. -1.
</event>
<event>
 7    1  0.2612321E-009  0.1048687E+03  0.7561462E-02  0.1270378E+00
         -2   -1    0    0    0  501 -0.00000000000E+00  0.00000000000E+00  0.69465978998E+02  0.69465978998E+02  0.00000000000E+00 0.  1.
          2   -1    0    0  501    0  0.00000000000E+00 -0.00000000000E+00 -0.32465065943E+03  0.32465065943E+03  0.00000000000E+00 0. -1.
         25    2    1    2    0    0  0.60494704605E+02 -0.28055221492E+01 -0.25090541629E+03  0.28682540483E+03  0.12509118552E+03 0.  0.
          5    1    3    3  502    0 -0.10224576932E+01 -0.49105237323E+02 -0.44204460603E+02  0.66210848729E+02  0.41800000000E+01 0. -1.
         -5    1    3    3    0  502  0.61517162298E+02  0.46299715174E+02 -0.20670095569E+03  0.22061455610E+03  0.41800000000E+01 0. -1.
        -11    1    1    2    0    0 -0.12388370891E+02 -0.24908150809E+02  0.30890671505E+02  0.41570678321E+02  0.00000000000E+00 0.  1.
         11    1    1    2    0    0 -0.48106333714E+02  0.27713672958E+02 -0.35169935650E+02  0.65720555276E+02  0.00000000000E+00 0. -1.
</event>
<event>
 7    1  0.2612321E-009  0.1278078E+03  0.7561462E-02  0.1230745E+00
          1   -1    0    0  501    0  0.00000000000E+00  0.00000000000E+00  0.64414915459E+02  0.64414915459E+02  0.00000000000E+00 0. -1.
         -1   -1    0    0    0  501 -0.00000000000E+00 -0.00000000000E+00 -0.31441402074E+03  0.31441402074E+03  0.00000000000E+00 0.  1.
         25    2    1    2    0    0  0.82304602319E+02  0.20171941070E+02 -0.95750963119E+02  0.17888281506E+03  0.12509939975E+03 0.  0.
          5    1    3    3  502    0  0.44155773356E+01  0.48376719447E+02  0.42710557598E+01  0.48944035643E+02  0.41800000000E+01 0.  1.
         -5    1    3    3    0  502  0.77889024983E+02 -0.28204778377E+02 -0.10002201888E+03  0.12993877942E+03  0.41800000000E+01 0.  1.
        -11    1    1    2    0    0 -0.28752456665E+02 -0.53572112561E+02 -0.98408661366E+02  0.11567601152E+03  0.00000000000E+00 0.  1.
         11    1    1    2    0    0 -0.53552145653E+02  0.33400171491E+02 -0.55839480792E+02  0.84270109617E+02  0.00000000000E+00 0. -1.
</event>
<event>
 7    1  0.2612321E-009  0.1710689E+03  0.7561462E-02  0.1176738E+00
          1   -1    0    0  501    0  0.00000000000E+00  0.00000000000E+00  0.30743187745E+03  0.30743187745E+03  0.00000000000E+00 0. -1.
         -1   -1    0    0    0  501 -0.00000000000E+00 -0.00000000000E+00 -0.13775596083E+03  0.13775596083E+03  0.00000000000E+00 0.  1.
         25    2    1    2    0    0 -0.11464614091E+03 -0.90911881050E+02  0.19010121806E+03  0.27054539051E+03  0.12509047716E+03 0.  0.
          5    1    3    3  502    0 -0.47529150428E+02  0.28246526710E+02  0.60894937921E+02  0.82356252197E+02  0.41800000000E+01 0. -1.
         -5    1    3    3    0  502 -0.67116990484E+02 -0.11915840776E+03  0.12920628014E+03  0.18818913832E+03  0.41800000000E+01 0. -1.
        -11    1    1    2    0    0  0.95646279790E+01  0.22578394221E+02 -0.40849021718E+02  0.47643557479E+02  0.00000000000E+00 0.  1.
         11    1    1    2    0    0  0.10508151293E+03  0.68333486829E+02  0.20423720276E+02  0.12699889028E+03  0.00000000000E+00 0. -1.
</event>
<event>
 7    1  0.2612321E-009  0.3651002E+03  0.7561462E-02  0.1056582E+00
         -2   -1    0    0    0  501 -0.00000000000E+00  0.00000000000E+00  0.65366578129E+03  0.65366578129E+03  0.00000000000E+00 0. -1.
          2   -1    0    0  501    0  0.00000000000E+00 -0.00000000000E+00 -0.21191458832E+03  0.21191458832E+03  0.00000000000E+00 0.  1.
         25    2    1    2    0    0  0.50861470535E+02 -0.34920517893E+03  0.17385038533E+03  0.41279753421E+03  0.12508677624E+03 0.  0.
          5    1    3    3  502    0  0.28935320928E+02 -0.35078187704E+03  0.16465718428E+03  0.38860602001E+03  0.41800000000E+01 0.  1.
         -5    1    3    3    0  502  0.21926149607E+02  0.15766981063E+01  0.91932010572E+01  0.24191514198E+02  0.41800000000E+01 0.  1.
        -11    1    1    2    0    0 -0.58192461480E+02  0.26562444281E+03  0.24449372010E+03  0.36567729812E+03  0.00000000000E+00 0. -1.
         11    1    1    2    0    0  0.73309909447E+01  0.83580736118E+02  0.23407087537E+02  0.87105537282E+02  0.00000000000E+00 0.  1.
</event>
<event>
 7    1  0.2612321E-009  0.1623717E+03  0.7561462E-02  0.1186045E+00
         -1   -1    0    0    0  501 -0.00000000000E+00  0.00000000000E+00  0.70385066028E+02  0.70385066028E+02  0.00000000000E+00 0.  1.
          1   -1    0    0  501    0  0.00000000000E+00 -0.00000000000E+00 -0.45081221375E+03  0.45081221375E+03  0.00000000000E+00 0. -1.
         25    2    1    2    0    0  0.11521161103E+03  0.44127105643E+02 -0.10295466671E+03  0.20363489770E+03  0.12508633577E+03 0.  0.
          5    1    3    3  502    0 -0.18307407824E+02  0.37017760707E+02 -0.18593477717E+02  0.45482585707E+02  0.41800000000E+01 0. -1.
         -5    1    3    3    0  502  0.13351901885E+03  0.71093449361E+01 -0.84361188994E+02  0.15815231200E+03  0.41800000000E+01 0. -1.
        -11    1    1    2    0    0 -0.49320049095E+02 -0.63851180634E+02 -0.10917013407E+03  0.13574814431E+03  0.00000000000E+00 0.  1.
         11    1    1    2    0    0 -0.65891561934E+02  0.19724074991E+02 -0.16830234694E+03  0.18181423776E+03  0.00000000000E+00 0. -1.
</event>
<event>
 7    1  0.2612321E-009  0.1279584E+03  0.7561462E-02  0.1230517E+00
          2   -1    0    0  501    0  0.00000000000E+00  0.00000000000E+00  0.20505721675E+03  0.20505721675E+03  0.00000000000E+00 0. -1.
         -2   -1    0    0    0  501 -0.00000000000E+00 -0.00000000000E+00 -0.94272752363E+02  0.94272752363E+02  0.00000000000E+00 0.  1.
         25    2    1    2    0    0 -0.20748290658E+02 -0.35979139099E+02  0.30939331495E+02  0.13538666707E+03  0.12508923763E+03 0.  0.
          5    1    3    3  502    0  0.36867955421E+02 -0.42098279936E+02  0.49057345873E+02  0.74535943642E+02  0.41800000000E+01 0. -1.
         -5    1    3    3    0  502 -0.57616246079E+02  0.61191408365E+01 -0.18118014379E+02  0.60850723429E+02  0.41800000000E+01 0. -1.
        -11    1    1    2    0    0 -0.30013324137E+02 -0.40199833781E+02  0.17268557558E+02  0.53056850094E+02  0.00000000000E+00 0.  1.
         11    1    1    2    0    0  0.50761614795E+02  0.76178972880E+02  0.62576575339E+02  0.11088645195E+03  0.00000000000E+00 0. -1.
</event>
<event>
 7    1  0.2612321E-009  0.8192719E+02  0.7561462E-02  0.1323670E+00
          2   -1    0    0  501    0  0.00000000000E+00  0.00000000000E+00  0.68756588651E+03  0.68756588651E+03  0.00000000000E+00 0.  1.
         -2   -1    0    0    0  501 -0.00000000000E+00 -0.00000000000E+00 -0.19290740019E+02  0.19290740019E+02  0.00000000000E+00 0. -1.
         25    2    1    2    0    0 -0.17444860582E+02 -0.31684030677E+01  0.27551718019E+03  0.30310322492E+03  0.12508991341E+03 0.  0.
          5    1    3    3  502    0 -0.21692657166E+01  0.32461813387E+02  0.93681382266E+01  0.34113185954E+02  0.41800000000E+01 0.  1.
         -5    1    3    3    0  502 -0.15275594866E+02 -0.35630216455E+02  0.26614904196E+03  0.26899003896E+03  0.41800000000E+01 0.  1.
        -11    1    1    2    0    0  0.46475571301E+02 -0.23994901934E+02  0.25822206105E+03  0.26346606397E+03  0.00000000000E+00 0.  1.
         11    1    1    2    0    0 -0.29030710719E+02  0.27163305002E+02  0.13453590525E+03  0.14028733765E+03  0.00000000000E+00 0. -1.
</event>
<event>
 7    1  0.3275238E-009  0.9493081E+02  0.7561462E-02  0.1291332E+00
         -3   -1    0    0    0  501 -0.00000000000E+00  0.00000000000E+00  0.29510886651E+03  0.29510886651E+03  0.00000000000E+00 0.  1.
          3   -1    0    0  501    0  0.00000000000E+00 -0.00000000000E+00 -0.46831932644E+02  0.46831932644E+02  0.00000000000E+00 0. -1.
         25    2    1    2    0    0  0.29612134142E+02  0.13180204676E+02  0.18818253653E+03  0.22827920640E+03  0.12509249672E+03 0.  0.
          5    1    3    3  502    0  0.72909698265E+02 -0.17793219069E+02  0.98517224783E+02  0.12391746739E+03  0.41800000000E+01 0. -1.
         -5    1    3    3    0  502 -0.43297564123E+02  0.30973423745E+02  0.89665311751E+02  0.10436173901E+03  0.41800000000E+01 0. -1.
        -11    1    1    2    0    0 -0.23461336198E+02  0.17965043734E+02 -0.14262166165E+02  0.32811377238E+02  0.00000000000E+00 0. -1.
         11    1    1    2    0    0 -0.61507979441E+01 -0.31145248410E+02  0.74356563496E+02  0.80850215515E+02  0.00000000000E+00 0.  1.
</event>
<event>
 7    1  0.2612321E-009  0.1572076E+03  0.7561462E-02  0.1191886E+00
         -2   -1    0    0    0  501 -0.00000000000E+00  0.00000000000E+00  0.29171785297E+03  0.29171785297E+03  0.00000000000E+00 0.  1.
          2   -1    0    0  501    0  0.00000000000E+00 -0.00000000000E+00 -0.90809273893E+02  0.90809273893E+02  0.00000000000E+00 0. -1.
         25    2    1    2    0    0  0.11256669190E+03 -0.21222286661E+02  0.59742403199E+02  0.17982793754E+03  0.12508911544E+03 0.  0.
          5    1    3    3  502    0  0.14005757579E+03 -0.17910308333E+02  0.54077877916E+02  0.15125737324E+03  0.41800000000E+01 0. -1.
         -5    1    3    3    0  502 -0.27490883888E+02 -0.33119783289E+01  0.56645252828E+01  0.28570564294E+02  0.41800000000E+01 0. -1.
        -11    1    1    2    0    0 -0.72634802187E+02 -0.31368585568E+02  0.83502310881E+02  0.11503233707E+03  0.00000000000E+00 0. -1.
         11    1    1    2    0    0 -0.39931889717E+02  0.52590872230E+02  0.57663865000E+02  0.87666852259E+02  0.00000000000E+00 0.  1.
</event>
<event>
 7    1  0.2612321E-009  0.1250645E+03  0.7561462E-02  0.1234969E+00
         -1   -1    0    0    0  501 -0.00000000000E+00  0.00000000000E+00  0.14708498075E+02  0.14708498075E+02  0.00000000000E+00 0.  1.
          1   -1    0    0  501    0  0.00000000000E+00 -0.00000000000E+00 -0.17091942052E+04  0.17091942052E+04  0.00000000000E+00 0. -1.
         25    2    1    2    0    0 -0.17301916130E+02  0.94958677642E+02 -0.12527951657E+04  0.12627191311E+04  0.12508944852E+03 0.  0.
          5    1    3    3  502    0  0.47172051913E+02  0.17334124483E+02 -0.26351056067E+03  0.26829268036E+03  0.41800000000E+01 0. -1.
         -5    1    3    3    0  502 -0.64473968043E+02  0.77624553159E+02 -0.98928460500E+03  0.99442645072E+03  0.41800000000E+01 0. -1.
        -11    1    1    2    0    0  0.13114030177E+02 -0.21901215421E+02 -0.18037125331E+02  0.31256661924E+02  0.00000000000E+00 0.  1.
         11    1    1    2    0    0  0.41878859529E+01 -0.73057462221E+02 -0.42365341617E+03  0.42992691031E+03  0.00000000000E+00 0. -1.
</event>
<event>
 7    1  0.2612321E-009  0.1099194E+03  0.7561462E-02  0.1260719E+00
         -2   -1    0    0    0  501 -0.00000000000E+00  0.00000000000E+00  0.47692010782E+02  0.47692010782E+02  0.00000000000E+00 0.  1.
          2   -1    0    0  501    0  0.00000000000E+00 -0.00000000000E+00 -0.29773378930E+03  0.29773378930E+03  0.00000000000E+00 0. -1.
         25    2    1    2    0    0  0.18366312034E+01 -0.36261510269E+02 -0.10112142779E+03  0.16489839272E+03  0.12509063283E+03 0.  0.
          5    1    3    3  502    0 -0.55861631537E+02 -0.19939940476E+02 -0.83033128697E+02  0.10212784128E+03  0.41800000000E+01 0.  1.
         -5    1    3    3    0  502  0.57698262740E+02 -0.16321569792E+02 -0.18088299093E+02  0.62770551438E+02  0.41800000000E+01 0.  1.
        -11    1    1    2    0    0 -0.39510277564E+02  0.46705427700E+02 -0.10665039588E+03  0.12295025804E+03  0.00000000000E+00 0.  1.
         11    1    1    2    0    0  0.37673646361E+02 -0.10443917432E+02 -0.42269954850E+02  0.57577149326E+02  0.00000000000E+00 0. -1.
</event>
<event>
 7    1  0.2885537E-009  0.8923079E+02  0.7561462E-02  0.1304725E+00
         -2   -1    0    0    0  501 -0.00000000000E+00  0.00000000000E+00  0.80263402744E+02  0.80263402744E+02  0.00000000000E+00 0.  1.
          2   -1    0    0  501    0  0.00000000000E+00 -0.00000000000E+00 -0.16585765385E+03  0.16585765385E+03  0.00000000000E+00 0. -1.
         25    2    1    2    0    0 -0.39208032103E+02 -0.98592743843E+00 -0.41057894254E+02  0.13737114535E+03  0.12508732574E+03 0.  0.
          5    1    3    3  502    0 -0.21642454143E+02 -0.62614089064E+02 -0.14919212582E+02  0.68036573067E+02  0.41800000000E+01 0.  1.
         -5    1    3    3    0  502 -0.17565577960E+02  0.61628161625E+02 -0.26138681671E+02  0.69334572284E+02  0.41800000000E+01 0.  1.
        -11    1    1    2    0    0  0.29779518765E+02  0.13081365235E+02  0.22779275344E+02  0.39709409961E+02  0.00000000000E+00 0.  1.
         11    1    1    2    0    0  0.94285133374E+01 -0.12095437796E+02 -0.67315632200E+02  0.69040501285E+02  0.00000000000E+00 0. -1.
</event>
<event>
 7    1  0.2612321E-009  0.1179650E+03  0.7561462E-02  0.1246492E+00
         -2   -1    0    0    0  501 -0.00000000000E+00  0.00000000000E+00  0.19267887554E+02  0.19267887554E+02  0.00000000000E+00 0.  1.
          2   -1    0    0  501    0  0.00000000000E+00 -0.00000000000E+00 -0.80951126414E+03  0.80951126414E+03  0.00000000000E+00 0. -1.
         25    2    1    2    0    0  0.50350276294E+02  0.43306408065E+01 -0.56728647613E+03  0.58310702227E+03  0.12508376652E+03 0.  0.
          5    1    3    3  502    0  0.81817131990E+02 -0.29028310200E+02 -0.41532392992E+03  0.42432078083E+03  0.41800000000E+01 0. -1.
         -5    1    3    3    0  502 -0.31466855696E+02  0.33358951007E+02 -0.15196254621E+03  0.15878624144E+03  0.41800000000E+01 0. -1.
        -11    1    1    2    0    0 -0.21124357799E+02  0.42674545638E+02 -0.95370029237E+02  0.10659642496E+03  0.00000000000E+00 0.  1.
         11    1    1    2    0    0 -0.29225918495E+02 -0.47005186444E+02 -0.12758687121E+03  0.13907570446E+03  0.00000000000E+00 0. -1.
</event>
<event>
 7    1  0.2612321E-009  0.1382787E+03  0.7561462E-02  0.1215664E+00
         -2   -1    0    0    0  501 -0.00000000000E+00  0.00000000000E+00  0.26582558691E+02  0.26582558691E+02  0.00000000000E+00 0.  1.
          2   -1    0    0  501    0  0.00000000000E+00 -0.00000000000E+00 -0.83954891984E+03  0.83954891984E+03  0.00000000000E+00 0. -1.
         25    2    1    2    0    0  0.89720981849E+02  0.39637717044E+02 -0.36793875475E+03  0.40080939913E+03  0.12509294140E+03 0.  0.
          5    1    3    3  502    0  0.67229708271E+02 -0.36361380673E+02 -0.14171467025E+03  0.16106676827E+03  0.41800000000E+01 0. -1.
         -5    1    3    3    0  502  0.22491273578E+02  0.75999097717E+02 -0.22622408450E+03  0.23974263086E+03  0.41800000000E+01 0. -1.
        -11    1    1    2    0    0 -0.72693388183E+01 -0.37463813446E+02 -0.56800800041E+02  0.68430340421E+02  0.00000000000E+00 0.  1.
         11    1    1    2    0    0 -0.82451643031E+02 -0.21739035977E+01 -0.38822680636E+03  0.39689173898E+03  0.00000000000E+00 0. -1.
</event>
<event>
 7    1  0.2612321E-009  0.1223566E+03  0.7561462E-02  0.1239259E+00
          3   -1    0    0  501    0  0.00000000000E+00  0.00000000000E+00  0.34998727634E+03  0.34998727634E+03  0.00000000000E+00 0.  1.
         -3   -1    0    0    0  501 -0.00000000000E+00 -0.00000000000E+00 -0.47126139157E+02  0.47126139157E+02  0.00000000000E+00 0. -1.
         25    2    1    2    0    0  0.18383947290E+02  0.64003524800E+02  0.18469888574E+03  0.23279842098E+03  0.12508799188E+03 0.  0.
          5    1    3    3  502    0  0.66554552397E+02  0.20963451279E+02  0.59260172369E+02  0.91641776300E+02  0.41800000000E+01 0.  1.
         -5    1    3    3    0  502 -0.48170605107E+02  0.43040073521E+02  0.12543871337E+03  0.14115664468E+03  0.41800000000E+01 0.  1.
        -11    1    1    2    0    0 -0.43497423084E+02 -0.24138400563E+01  0.69013737947E+02  0.81613408606E+02  0.00000000000E+00 0.  1.
         11    1    1    2    0    0  0.25113475794E+02 -0.61589684744E+02  0.49148513496E+02  0.82701585911E+02  0.00000000000E+00 0. -1.
</event>
<event>
 7    1  0.2612321E-009  0.1526084E+03  0.7561462E-02  0.1197304E+00
         -1   -1    0    0    0  501 -0.00000000000E+00  0.00000000000E+00  0.20046606194E+03  0.20046606194E+03  0.00000000000E+00 0.  1.
          1   -1    0    0  501    0  0.00000000000E+00 -0.00000000000E+00 -0.12675832548E+03  0.12675832548E+03  0.00000000000E+00 0. -1.
         25    2    1    2    0    0  0.92059791270E+02 -0.67081734067E+02  0.61501391859E+02  0.18001401381E+03  0.12509060618E+03 0.  0.
          5    1    3    3  502    0  0.11486809189E+03 -0.76932184155E+02  0.67810835306E+02  0.15404227108E+03  0.41800000000E+01 0.  1.
         -5    1    3    3    0  502 -0.22808300620E+02  0.98504500880E+01 -0.63094434474E+01  0.25971742736E+02  0.41800000000E+01 0.  1.
        -11    1    1    2    0    0 -0.99925904652E+02  0.30771279316E+02  0.25724853601E+02  0.10767463092E+03  0.00000000000E+00 0. -1.
         11    1    1    2    0    0  0.78661133819E+01  0.36310454751E+02 -0.13518509005E+02  0.39535742686E+02  0.00000000000E+00 0.  1.
</event>
<event>
 7    1  0.2612321E-009  0.1027645E+03  0.7561462E-02  0.1274588E+00
         -2   -1    0    0    0  501 -0.00000000000E+00  0.00000000000E+00  0.37570963094E+02  0.37570963094E+02  0.00000000000E+00 0.  1.
          2   -1    0    0  501    0  0.00000000000E+00 -0.00000000000E+00 -0.37948519942E+03  0.37948519942E+03  0.00000000000E+00 0. -1.
         25    2    1    2    0    0 -0.23014366702E+01 -0.27129042613E+02 -0.26411500214E+03  0.29350443550E+03  0.12508732046E+03 0.  0.
          5    1    3    3  502    0  0.20099769199E+02 -0.65592254338E+02 -0.22082321037E+03  0.23127193342E+03  0.41800000000E+01 0. -1.
         -5    1    3    3    0  502 -0.22401205869E+02  0.38463211724E+02 -0.43291791769E+02  0.62232502080E+02  0.41800000000E+01 0. -1.
        -11    1    1    2    0    0 -0.13666704392E+02  0.56787110949E+02 -0.31695718108E+02  0.66454295010E+02  0.00000000000E+00 0.  1.
         11    1    1    2    0    0  0.15968141062E+02 -0.29658068335E+02 -0.46103516080E+02  0.57097432003E+02  0.00000000000E+00 0. -1.
</event>
<event>
 7    1  0.2612321E-009  0.1235144E+03  0.7561462E-02  0.1237409E+00
         -2   -1    0    0    0  501 -0.00000000000E+00  0.00000000000E+00  0.95395467753E+02  0.95395467753E+02  0.00000000000E+00 0.  1.
          2   -1    0    0  501    0  0.00000000000E+00 -0.00000000000E+00 -0.25010035352E+03  0.25010035352E+03  0.00000000000E+00 0. -1.
         25    2    1    2    0    0 -0.81313379455E+02  0.74064095917E+02 -0.41261377208E+02  0.17160054274E+03  0.12508752550E+03 0.  0.
          5    1    3    3  502    0 -0.35601256840E+02  0.55613890877E+02 -0.83509206105E+02  0.10654395455E+03  0.41800000000E+01 0. -1.
         -5    1    3    3    0  502 -0.45712122615E+02  0.18450205040E+02  0.42247828897E+02  0.65056588186E+02  0.41800000000E+01 0. -1.
        -11    1    1    2    0    0  0.21830899057E+02  0.13401637339E+02 -0.16927560659E+02  0.30703979333E+02  0.00000000000E+00 0.  1.
         11    1    1    2    0    0  0.59482480397E+02 -0.87465733256E+02 -0.96515947899E+02  0.14319129920E+03  0.00000000000E+00 0. -1.
</event>
<event>
 7    1  0.2612321E-009  0.9315118E+02  0.7561462E-02  0.1295395E+00
          2   -1    0    0  501    0  0.00000000000E+00  0.00000000000E+00  0.48698399919E+03  0.48698399919E+03  0.00000000000E+00 0. -1.
         -2   -1    0    0    0  501 -0.00000000000E+00 -0.00000000000E+00 -0.26802163043E+02  0.26802163043E+02  0.00000000000E+00 0.  1.
         25    2    1    2    0    0 -0.19240508132E+02  0.21823110440E+02  0.21086780255E+03  0.24689975723E+03  0.12509122538E+03 0.  0.
          5    1    3    3  502    0  0.40320915511E+02 -0.25070198138E+02  0.50343211764E+02  0.69326780056E+02  0.41800000000E+01 0. -1.
         -5    1    3    3    0  502 -0.59561423643E+02  0.46893308577E+02  0.16052459078E+03  0.17757297717E+03  0.41800000000E+01 0. -1.
        -11    1    1    2    0    0  0.30787617187E+02 -0.34046917479E+02  0.24535401122E+03  0.24961101895E+03  0.00000000000E+00 0. -1.
         11    1    1    2    0    0 -0.11547109055E+02  0.12223807039E+02  0.39600223868E+01  0.17275386055E+02  0.00000000000E+00 0.  1.
</event>
<event>
 7    1  0.2612321E-009  0.8729348E+02  0.7561462E-02  0.1309541E+00
          4   -1    0    0  501    0  0.00000000000E+00  0.00000000000E+00  0.19930620905E+03  0.19930620905E+03  0.00000000000E+00 0. -1.
         -4   -1    0    0    0  501 -0.00000000000E+00 -0.00000000000E+00 -0.73790814282E+02  0.73790814282E+02  0.00000000000E+00 0.  1.
         25    2    1    2    0    0 -0.22626923637E+02 -0.48238370544E+02  0.51936186307E+02  0.14554657630E+03  0.12509004900E+03 0.  0.
          5    1    3    3  502    0 -0.17264909928E+02 -0.82967655044E+02  0.65970366792E+02  0.10747683747E+03  0.41800000000E+01 0.  1.
         -5    1    3    3    0  502 -0.53620137088E+01  0.34729284500E+02 -0.14034180485E+02  0.38069738833E+02  0.41800000000E+01 0.  1.
        -11    1    1    2    0    0  0.22112184842E+02  0.37025727095E+02  0.94462772244E+02  0.10384155491E+03  0.00000000000E+00 0. -1.
         11    1    1    2    0    0  0.51473879478E+00  0.11212643449E+02 -0.20883563785E+02  0.23708892119E+02  0.00000000000E+00 0.  1.
</event>
<event>
 7    1  0.2612321E-009  0.1326684E+03  0.7561462E-02  0.1223549E+00
         -1   -1    0    0    0  501 -0.00000000000E+00  0.00000000000E+00  0.48610652074E+02  0.48610652074E+02  0.00000000000E+00 0.  1.
          1   -1    0    0  501    0  0.00000000000E+00 -0.00000000000E+00 -0.40212810331E+03  0.40212810331E+03  0.00000000000E+00 0. -1.
         25    2    1    2    0    0 -0.63931835984E+02  0.57467148054E+02 -0.23141835284E+03  0.27675289575E+03  0.12509180037E+03 0.  0.
          5    1    3    3  502    0 -0.35651818533E+02 -0.31892524840E+02 -0.36114087719E+02  0.60082318839E+02  0.41800000000E+01 0.  1.
         -5    1    3    3    0  502 -0.28280017451E+02  0.89359672894E+02 -0.19530426512E+03  0.21667057691E+03  0.41800000000E+01 0.  1.
        -11    1    1    2    0    0  0.49512648858E+02  0.13307694772E+02 -0.43476080532E+02  0.67221772630E+02  0.00000000000E+00 0.  1.
         11    1    1    2    0    0  0.14419187125E+02 -0.70774842826E+02 -0.78623017867E+02  0.10676408700E+03  0.00000000000E+00 0. -1.
</event>
<event>
 7    1  0.2640859E-009  0.3186833E+03  0.7561462E-02  0.1076257E+00
          1   -1    0    0  501    0  0.00000000000E+00  0.00000000000E+00  0.11344009613E+04  0.11344009613E+04  0.00000000000E+00 0. -1.
         -1   -1    0    0    0  501 -0.00000000000E+00 -0.00000000000E+00 -0.10047454263E+03  0.10047454263E+03  0.00000000000E+00 0.  1.
         25    2    1    2    0    0  0.14175913747E+03 -0.27445825379E+03  0.67318365690E+03  0.75116183861E+03  0.12507951769E+03 0.  0.
          5    1    3    3  502    0 -0.21317818948E+01 -0.10568005089E+03  0.28596308208E+03  0.30490190941E+03  0.41800000000E+01 0.  1.
         -5    1    3    3    0  502  0.14389091936E+03 -0.16877820289E+03  0.38722057481E+03  0.44625992920E+03  0.41800000000E+01 0.  1.
        -11    1    1    2    0    0 -0.69156757316E+02  0.10929369893E+03  0.87037630093E+02  0.15589521725E+03  0.00000000000E+00 0.  1.
         11    1    1    2    0    0 -0.72602380153E+02  0.16516455485E+03  0.27370513171E+03  0.32781844809E+03  0.00000000000E+00 0. -1.
</event>
<event>
 7    1  0.2612321E-009  0.9368988E+02  0.7561462E-02  0.1294154E+00
         -1   -1    0    0    0  501 -0.00000000000E+00  0.00000000000E+00  0.20972950742E+03  0.20972950742E+03  0.00000000000E+00 0.  1.
          1   -1    0    0  501    0  0.00000000000E+00 -0.00000000000E+00 -0.68572834613E+02  0.68572834613E+02  0.00000000000E+00 0. -1.
         25    2    1    2    0    0  0.18565283140E+02 -0.48770863397E+02  0.79074714484E+02  0.15691633008E+03  0.12508659929E+03 0.  0.
          5    1    3    3  502    0 -0.38714983269E+01 -0.87297875370E+02  0.35429915367E+02  0.94385691958E+02  0.41800000000E+01 0. -1.
         -5    1    3    3    0  502  0.22436781467E+02  0.38527011973E+02  0.43644799117E+02  0.62530638124E+02  0.41800000000E+01 0. -1.
        -11    1    1    2    0    0  0.31594297164E+01  0.11986888925E+02 -0.23030017656E+02  0.26154334544E+02  0.00000000000E+00 0. -1.
         11    1    1    2    0    0 -0.21724712857E+02  0.36783974472E+02  0.85111975976E+02  0.95231677404E+02  0.00000000000E+00 0.  1.
</event>
<event>
 7    1  0.2612321E-009  0.9766926E+02  0.7561462E-02  0.1285275E+00
          2   -1    0    0  501    0  0.00000000000E+00  0.00000000000E+00  0.18368072398E+03  0.18368072398E+03  0.00000000000E+00 0. -1.
         -2   -1    0    0    0  501 -0.00000000000E+00 -0.00000000000E+00 -0.84482171524E+02  0.84482171524E+02  0.00000000000E+00 0.  1.
         25    2    1    2    0    0 -0.41751614879E+02  0.26953184810E+02  0.90520918960E+02  0.16220498401E+03  0.12508696396E+03 0.  0.
          5    1    3    3  502    0 -0.53268178540E+02  0.66502991466E+02  0.85013423114E+02  0.12043629531E+03  0.41800000000E+01 0.  1.
         -5    1    3    3    0  502  0.11516563661E+02 -0.39549806656E+02  0.55074958461E+01  0.41768688698E+02  0.41800000000E+01 0.  1.
        -11    1    1    2    0    0  0.26091616159E+02  0.10426740780E+02 -0.35980420055E+02  0.45651724879E+02  0.00000000000E+00 0.  1.
         11    1    1    2    0    0  0.15659998720E+02 -0.37379925590E+02  0.44658053554E+02  0.60306186617E+02  0.00000000000E+00 0. -1.
</event>
<event>
 7    1  0.2612321E-009  0.1139831E+03  0.7561462E-02  0.1253367E+00
         -1   -1    0    0    0  501 -0.00000000000E+00  0.00000000000E+00  0.29890192808E+02  0.29890192808E+02  0.00000000000E+00 0.  1.
          1   -1    0    0  501    0  0.00000000000E+00 -0.00000000000E+00 -0.71273935290E+03  0.71273935290E+03  0.00000000000E+00 0. -1.
         25    2    1    2    0    0  0.11255437942E+02 -0.88218014084E+02 -0.28030732357E+03  0.31958083137E+03  0.12510239503E+03 0.  0.
          5    1    3    3  502    0 -0.15124541319E+02 -0.75525903635E+02 -0.61146956599E+02  0.98434427774E+02  0.41800000000E+01 0.  1.
         -5    1    3    3    0  502  0.26379979260E+02 -0.12692110450E+02 -0.21916036697E+03  0.22114640360E+03  0.41800000000E+01 0.  1.
        -11    1    1    2    0    0  0.17625867883E+02 -0.90339389866E+01 -0.23841716008E+02  0.30995333430E+02  0.00000000000E+00 0.  1.
         11    1    1    2    0    0 -0.28881305824E+02  0.97251953071E+02 -0.37870012051E+03  0.39205338090E+03  0.00000000000E+00 0. -1.
</event>
<event>
 7    1  0.2612321E-009  0.1630807E+03  0.7561462E-02  0.1185262E+00
          2   -1    0    0  501    0  0.00000000000E+00  0.00000000000E+00  0.47919597120E+03  0.47919597120E+03  0.00000000000E+00 0. -1.
         -2   -1    0    0    0  501 -0.00000000000E+00 -0.00000000000E+00 -0.80460635784E+02  0.80460635784E+02  0.00000000000E+00 0.  1.
         25    2    1    2    0    0 -0.12457494368E+03 -0.87918745408E+02  0.29424179718E+03  0.35422319772E+03  0.12508883327E+03 0.  0.
          5    1    3    3  502    0 -0.19946024482E+02 -0.40758334932E+02  0.86190342715E+01  0.46377213271E+02  0.41800000000E+01 0.  1.
         -5    1    3    3    0  502 -0.10462891920E+03 -0.47160410476E+02  0.28562276291E+03  0.30784598445E+03  0.41800000000E+01 0.  1.
        -11    1    1    2    0    0  0.58118442589E+02  0.33795572192E+01  0.41659037002E+01  0.58365482347E+02  0.00000000000E+00 0.  1.
         11    1    1    2    0    0  0.66456501088E+02  0.84539188189E+02  0.10032763453E+03  0.14706792692E+03  0.00000000000E+00 0. -1.
</event>
<event>
 7    1  0.2612321E-009  0.1044498E+03  0.7561462E-02  0.1271207E+00
         -1   -1    0    0    0  501 -0.00000000000E+00  0.00000000000E+00  0.20800610637E+03  0.20800610637E+03  0.00000000000E+00 0.  1.
          1   -1    0    0  501    0  0.00000000000E+00 -0.00000000000E+00 -0.73148949380E+02  0.73148949380E+02  0.00000000000E+00 0. -1.
         25    2    1    2    0    0  0.57763719078E+02  0.30110974708E+01  0.72135328058E+02  0.15555367323E+03  0.12509086998E+03 0.  0.
          5    1    3    3  502    0 -0.34214803671E+02  0.21428419056E+02  0.67767031500E+01  0.41148827918E+02  0.41800000000E+01 0. -1.
         -5    1    3    3    0  502  0.91978522749E+02 -0.18417321585E+02  0.65358624908E+02  0.11440484531E+03  0.41800000000E+01 0. -1.
        -11    1    1    2    0    0 -0.13006268730E+01 -0.16346986451E+02  0.65496760213E+02  0.67518450773E+02  0.00000000000E+00 0.  1.
         11    1    1    2    0    0 -0.56463092205E+02  0.13335888981E+02 -0.27749312824E+01  0.58082931743E+02  0.00000000000E+00 0. -1.
</event>
<event>
 7    1  0.2612321E-009  0.9292531E+02  0.7561462E-02  0.1295918E+00
          2   -1    0    0  501    0  0.00000000000E+00  0.00000000000E+00  0.33902305885E+02  0.33902305885E+02  0.00000000000E+00 0. -1.
         -2   -1    0    0    0  501 -0.00000000000E+00 -0.00000000000E+00 -0.41803477700E+03  0.41803477700E+03  0.00000000000E+00 0.  1.
         25    2    1    2    0    0 -0.37050078200E+02  0.76021669558E+01 -0.14698815241E+03  0.19668117354E+03  0.12508983108E+03 0.  0.
          5    1    3    3  502    0 -0.68666205256E+02 -0.33006990102E+02 -0.10676810715E+03  0.13123037089E+03  0.41800000000E+01 0.  1.
         -5    1    3    3    0  502  0.31616127056E+02  0.40609157057E+02 -0.40220045260E+02  0.65450802650E+02  0.41800000000E+01 0.  1.
        -11    1    1    2    0    0  0.19605841503E+01  0.15680542581E+02 -0.14947062638E+01  0.15873167694E+02  0.00000000000E+00 0. -1.
         11    1    1    2    0    0  0.35089494050E+02 -0.23282709536E+02 -0.23564961244E+03  0.23938274165E+03  0.00000000000E+00 0.  1.
</event>
<event>
 7    1  0.2804069E-009  0.1284948E+03  0.7561462E-02  0.1229706E+00
         -2   -1    0    0    0  501 -0.00000000000E+00  0.00000000000E+00  0.29610241663E+02  0.29610241663E+02  0.00000000000E+00 0.  1.
          2   -1    0    0  501    0  0.00000000000E+00 -0.00000000000E+00 -0.81755029365E+03  0.81755029365E+03  0.00000000000E+00 0. -1.
         25    2    1    2    0    0  0.69822219970E+02 -0.85710375910E+02 -0.45759335876E+03  0.48709363519E+03  0.12508843480E+03 0.  0.
          5    1    3    3  502    0  0.36043046650E+02 -0.23770829068E+02 -0.37868714523E+03  0.38116345560E+03  0.41800000000E+01 0.  1.
         -5    1    3    3    0  502  0.33779173320E+02 -0.61939546842E+02 -0.78906213529E+02  0.10593017958E+03  0.41800000000E+01 0.  1.
        -11    1    1    2    0    0 -0.48068662035E+02 -0.62182102543E+01 -0.10105861186E+03  0.11208079871E+03  0.00000000000E+00 0.  1.
         11    1    1    2    0    0 -0.21753557935E+02  0.91928586164E+02 -0.22928808138E+03  0.24798610142E+03  0.00000000000E+00 0. -1.
</event>
<event>
 7    1  0.2612321E-009  0.1065856E+03  0.7561462E-02  0.1267027E+00
          2   -1    0    0  501    0  0.00000000000E+00  0.00000000000E+00  0.98139909901E+02  0.98139909901E+02  0.00000000000E+00 0. -1.
         -2   -1    0    0    0  501 -0.00000000000E+00 -0.00000000000E+00 -0.14533335589E+03  0.14533335589E+03  0.00000000000E+00 0.  1.
         25    2    1    2    0    0 -0.22951488138E+02 -0.42206933200E+02 -0.40292600636E+02  0.13992087660E+03  0.12508461946E+03 0.  0.
          5    1    3    3  502    0 -0.25711315124E+02 -0.84071008683E+02 -0.42422639494E+02  0.97704447023E+02  0.41800000000E+01 0. -1.
         -5    1    3    3    0  502  0.27598269862E+01  0.41864075483E+02  0.21300388578E+01  0.42216429581E+02  0.41800000000E+01 0. -1.
        -11    1    1    2    0    0 -0.11680006218E+02  0.46640178550E+02 -0.34391602168E+02  0.59114389958E+02  0.00000000000E+00 0. -1.
         11    1    1    2    0    0  0.34631494356E+02 -0.44332453499E+01  0.27490756812E+02  0.44437999232E+02  0.00000000000E+00 0.  1.
</event>
<event>
 7    1  0.2612321E-009  0.9924608E+02  0.7561462E-02  0.1281889E+00
         -2   -1    0    0    0  501 -0.00000000000E+00  0.00000000000E+00  0.43831576045E+03  0.43831576045E+03  0.00000000000E+00 0.  1.
          2   -1    0    0  501    0  0.00000000000E+00 -0.00000000000E+00 -0.53543435077E+02  0.53543435077E+02  0.00000000000E+00 0. -1.
         25    2    1    2    0    0  0.70056304544E+02  0.25255522349E+02  0.79039845474E+02  0.16564926212E+03  0.12508658462E+03 0.  0.
          5    1    3    3  502    0 -0.49760708125E+01  0.97250329782E+01 -0.30065588892E+02  0.32260650684E+02  0.41800000000E+01 0. -1.
         -5    1    3    3    0  502  0.75032375356E+02  0.15530489371E+02  0.10910543437E+03  0.13338861143E+03  0.41800000000E+01 0. -1.
        -11    1    1    2    0    0 -0.88030854821E+02 -0.26794977984E+02  0.28038137432E+03  0.29509509876E+03  0.00000000000E+00 0.  1.
         11    1    1    2    0    0  0.17974550277E+02  0.15394556356E+01  0.25351105571E+02  0.31114834645E+02  0.00000000000E+00 0. -1.
</event>
<event>
 7    1  0.2612321E-009  0.1047740E+03  0.7561462E-02  0.1270566E+00
          3   -1    0    0  501    0  0.00000000000E+00  0.00000000000E+00  0.39635063929E+02  0.39635063929E+02  0.00000000000E+00 0. -1.
         -3   -1    0    0    0  501 -0.00000000000E+00 -0.00000000000E+00 -0.31566998364E+03  0.31566998364E+03  0.00000000000E+00 0.  1.
         25    2    1    2    0    0  0.25576181032E+02  0.14827292849E+02 -0.14828838588E+03  0.19624215032E+03  0.12509015359E+03 0.  0.
          5    1    3    3  502    0 -0.22492490452E+02 -0.40070494103E+02 -0.95568567664E+02  0.10612436172E+03  0.41800000000E+01 0. -1.
         -5    1    3    3    0  502  0.48068671484E+02  0.54897786951E+02 -0.52719818220E+02  0.90117788608E+02  0.41800000000E+01 0. -1.
        -11    1    1    2    0    0 -0.54816878328E+02  0.49159113951E+01 -0.52996793656E+02  0.76404950574E+02  0.00000000000E+00 0. -1.
         11    1    1    2    0    0  0.29240697295E+02 -0.19743204244E+02 -0.74749740170E+02  0.82657946669E+02  0.00000000000E+00 0.  1.
</event>
<event>
 7    1  0.2612321E-009  0.1111183E+03  0.7561462E-02  0.1258513E+00
          1   -1    0    0  501    0  0.00000000000E+00  0.00000000000E+00  0.74957461821E+03  0.74957461821E+03  0.00000000000E+00 0. -1.
         -1   -1    0    0    0  501 -0.00000000000E+00 -0.00000000000E+00 -0.26053156981E+02  0.26053156981E+02  0.00000000000E+00 0.  1.
         25    2    1    2    0    0  0.71688334704E+02  0.22937966000E+02  0.52084547966E+03  0.54091883820E+03  0.12509119964E+03 0.  0.
          5    1    3    3  502    0  0.19581449385E+02  0.45742121582E+02  0.67294387853E+02  0.83796073198E+02  0.41800000000E+01 0.  1.
         -5    1    3    3    0  502  0.52106885319E+02 -0.22804155582E+02  0.45355109180E+03  0.45712276501E+03  0.41800000000E+01 0.  1.
        -11    1    1    2    0    0 -0.26259808240E+02 -0.54131886825E+02  0.78920415225E+02  0.99238453431E+02  0.00000000000E+00 0. -1.
         11    1    1    2    0    0 -0.45428526464E+02  0.31193920825E+02  0.12375556634E+03  0.13547048355E+03  0.00000000000E+00 0.  1.
</event>
<event>
 7    1  0.2612321E-009  0.8706085E+02  0.7561462E-02  0.1310130E+00
         -2   -1    0    0    0  501 -0.00000000000E+00  0.00000000000E+00  0.93259317531E+01  0.93259317531E+01  0.00000000000E+00 0.  1.
          2   -1    0    0  501    0  0.00000000000E+00 -0.00000000000E+00 -0.17364744299E+04  0.17364744299E+04  0.00000000000E+00 0. -1.
         25    2    1    2    0    0 -0.41737827756E+02  0.45884904517E+02 -0.11108769372E+04  0.11196172570E+04  0.12509101489E+03 0.  0.
          5    1    3    3  502    0 -0.83111309086E+01  0.14258349808E+02 -0.14775952747E+02  0.22542773029E+02  0.41800000000E+01 0.  1.
         -5    1    3    3    0  502 -0.33426696847E+02  0.31626554709E+02 -0.10961009844E+04  0.10970744840E+04  0.41800000000E+01 0.  1.
        -11    1    1    2    0    0  0.56913663820E+02  0.56252036164E+01 -0.32979731823E+03  0.33471940361E+03  0.00000000000E+00 0.  1.
         11    1    1    2    0    0 -0.15175836064E+02 -0.51510108134E+02 -0.28647424281E+03  0.29146370106E+03  0.00000000000E+00 0. -1.
</event>
<event>
 7    1  0.2612321E-009  0.1378569E+03  0.7561462E-02  0.1216242E+00
          1   -1    0    0  501    0  0.00000000000E+00  0.00000000000E+00  0.93838760467E+02  0.93838760467E+02  0.00000000000E+00 0. -1.
         -1   -1    0    0    0  501 -0.00000000000E+00 -0.00000000000E+00 -0.27166442493E+03  0.27166442493E+03  0.00000000000E+00 0.  1.
         25    2    1    2    0    0 -0.11615294487E+03  0.16831442052E+02 -0.78338621406E+02  0.18857095518E+03  0.12508901427E+03 0.  0.
          5    1    3    3  502    0 -0.88059185989E+01  0.19719350626E+02  0.29187104617E+02  0.36548002235E+02  0.41800000000E+01 0.  1.
         -5    1    3    3    0  502 -0.10734702627E+03 -0.28879085746E+01 -0.10752572602E+03  0.15202295295E+03  0.41800000000E+01 0.  1.
        -11    1    1    2    0    0 -0.67595567055E+01 -0.22213561070E+02 -0.13927057870E+02  0.27075761174E+02  0.00000000000E+00 0. -1.
         11    1    1    2    0    0  0.12291250158E+03  0.53821190179E+01 -0.85559985191E+02  0.14985646905E+03  0.00000000000E+00 0.  1.
</event>
<event>
 7    1  0.2612321E-009  0.1086793E+03  0.7561462E-02  0.1263035E+00
          2   -1    0    0  501    0  0.00000000000E+00  0.00000000000E+00  0.48101883439E+03  0.48101883439E+03  0.00000000000E+00 0. -1.
         -2   -1    0    0    0  501 -0.00000000000E+00 -0.00000000000E+00 -0.30027644367E+02  0.30027644367E+02  0.00000000000E+00 0.  1.
         25    2    1    2    0    0  0.38699354045E+02  0.33169653312E+02  0.21350202178E+03  0.25263689520E+03  0.12507766230E+03 0.  0.
          5    1    3    3  502    0  0.50826692985E+02 -0.28195496860E+02  0.15978433820E+03  0.17007894019E+03  0.41800000000E+01 0.  1.
         -5    1    3    3    0  502 -0.12127338940E+02  0.61365150172E+02  0.53717683586E+02  0.82557955009E+02  0.41800000000E+01 0.  1.
        -11    1    1    2    0    0  0.59272072745E+01 -0.48762420188E+02  0.16251745989E+03  0.16977876834E+03  0.00000000000E+00 0. -1.
         11    1    1    2    0    0 -0.44626561320E+02  0.15592766876E+02  0.74971708351E+02  0.88630815223E+02  0.00000000000E+00 0.  1.
</event>
<event>
 7    1  0.2612321E-009  0.1146770E+03  0.7561462E-02  0.1252146E+00
          2   -1    0    0  501    0  0.00000000000E+00  0.00000000000E+00  0.38875295484E+02  0.38875295484E+02  0.00000000000E+00 0.  1.
         -2   -1    0    0    0  501 -0.00000000000E+00 -0.00000000000E+00 -0.39494468612E+03  0.39494468612E+03  0.00000000000E+00 0. -1.
         25    2    1    2    0    0 -0.43901014170E+02  0.12087870812E+02 -0.26756113687E+03  0.29884603164E+03  0.12508626221E+03 0.  0.
          5    1    3    3  502    0 -0.83282481780E+02  0.22793008116E+02 -0.21796535852E+03  0.23448211639E+03  0.41800000000E+01 0. -1.
         -5    1    3    3    0  502  0.39381467610E+02 -0.10705137304E+02 -0.49595778355E+02  0.64363915251E+02  0.41800000000E+01 0. -1.
        -11    1    1    2    0    0  0.70855535997E+02 -0.20299464976E+02 -0.65205639739E+02  0.98409098733E+02  0.00000000000E+00 0. -1.
         11    1    1    2    0    0 -0.26954521826E+02  0.82115941643E+01 -0.23302614027E+02  0.36564851239E+02  0.00000000000E+00 0.  1.
</event>
<event>
 7    1  0.2612321E-009  0.9188296E+02  0.7561462E-02  0.1298355E+00
         -4   -1    0    0    0  501 -0.00000000000E+00  0.00000000000E+00  0.13957406424E+02  0.13957406424E+02  0.00000000000E+00 0.  1.
          4   -1    0    0  501    0  0.00000000000E+00 -0.00000000000E+00 -0.97563115274E+03  0.97563115274E+03  0.00000000000E+00 0. -1.
         25    2    1    2    0    0 -0.16887534459E+02  0.50737756505E+01 -0.71391175806E+03  0.72500383683E+03  0.12509849355E+03 0.  0.
          5    1    3    3  502    0  0.24033739545E+02 -0.36038975693E+02 -0.53737368639E+03  0.53913298881E+03  0.41800000000E+01 0.  1.
         -5    1    3    3    0  502 -0.40921274004E+02  0.41112751344E+02 -0.17653807168E+03  0.18587084801E+03  0.41800000000E+01 0.  1.
        -11    1    1    2    0    0  0.36027980090E+02 -0.32583175129E+02 -0.20262630781E+03  0.20836770208E+03  0.00000000000E+00 0.  1.
         11    1    1    2    0    0 -0.19140445631E+02  0.27509399478E+02 -0.45135680440E+02  0.56217020264E+02  0.00000000000E+00 0. -1.
</event>
<event>
 7    1  0.2612321E-009  0.3225669E+03  0.7561462E-02  0.1074474E+00
          1   -1    0    0  501    0  0.00000000000E+00  0.00000000000E+00  0.80767702852E+03  0.80767702852E+03  0.00000000000E+00 0. -1.
         -1   -1    0    0    0  501 -0.00000000000E+00 -0.00000000000E+00 -0.13541436306E+03  0.13541436306E+03  0.00000000000E+00 0.  1.
         25    2    1    2    0    0  0.31011322935E+03  0.56424157265E+02  0.32824114941E+03  0.47195591451E+03  0.12508490129E+03 0.  0.
          5    1    3    3  502    0  0.27170892632E+03  0.76432563350E+02  0.22862966282E+03  0.36325841009E+03  0.41800000000E+01 0. -1.
         -5    1    3    3    0  502  0.38404303030E+02 -0.20008406085E+02  0.99611486593E+02  0.10869750442E+03  0.41800000000E+01 0. -1.
        -11    1    1    2    0    0 -0.14441855655E+03 -0.35560891900E+00  0.18532293369E+03  0.23494985781E+03  0.00000000000E+00 0. -1.
         11    1    1    2    0    0 -0.16569467279E+03 -0.56068548346E+02  0.15869858235E+03  0.23618561926E+03  0.00000000000E+00 0.  1.
</event>
<event>
 7    1  0.2612321E-009  0.1116594E+03  0.7561462E-02  0.1257527E+00
         -1   -1    0    0    0  501 -0.00000000000E+00  0.00000000000E+00  0.30830647228E+03  0.30830647228E+03  0.00000000000E+00 0.  1.
          1   -1    0    0  501    0  0.00000000000E+00 -0.00000000000E+00 -0.54860938858E+02  0.54860938858E+02  0.00000000000E+00 0. -1.
         25    2    1    2    0    0  0.16137484383E+02  0.63620668913E+02  0.18058332771E+03  0.22927154704E+03  0.12508835326E+03 0.  0.
          5    1    3    3  502    0 -0.32812862109E+02  0.80058324722E+02  0.13424330200E+03  0.15976468887E+03  0.41800000000E+01 0.  1.
         -5    1    3    3    0  502  0.48950346492E+02 -0.16437655810E+02  0.46340025702E+02  0.69506858167E+02  0.41800000000E+01 0.  1.
        -11    1    1    2    0    0 -0.33155591037E+02 -0.58285510474E+02  0.87907086090E+02  0.11056287683E+03  0.00000000000E+00 0.  1.
         11    1    1    2    0    0  0.17018106654E+02 -0.53351584393E+01 -0.15044880370E+02  0.23332987272E+02  0.00000000000E+00 0. -1.
</event>
<event>
 7    1  0.2612321E-009  0.8200692E+02  0.7561462E-02  0.1323451E+00
         -2   -1    0    0    0  501 -0.00000000000E+00  0.00000000000E+00  0.80516807655E+02  0.80516807655E+02  0.00000000000E+00 0.  1.
          2   -1    0    0  501    0  0.00000000000E+00 -0.00000000000E+00 -0.21844028760E+03  0.21844028760E+03  0.00000000000E+00 0. -1.
         25    2    1    2    0    0  0.45134134814E+02  0.10570911108E+02 -0.78530825447E+01  0.13363490185E+03  0.12509109401E+03 0.  0.
          5    1    3    3  502    0  0.57584703266E+02  0.20459300270E+02  0.46465085490E+02  0.76883402548E+02  0.41800000000E+01 0.  1.
         -5    1    3    3    0  502 -0.12450568452E+02 -0.98883891617E+01 -0.54318168034E+02  0.56751499307E+02  0.41800000000E+01 0.  1.
        -11    1    1    2    0    0 -0.42349732958E+02  0.25966538618E+02 -0.28336444151E+02  0.57190165908E+02  0.00000000000E+00 0.  1.
         11    1    1    2    0    0 -0.27844018554E+01 -0.36537449726E+02 -0.10173395325E+03  0.10813202750E+03  0.00000000000E+00 0. -1.
</event>
<event>
 7    1  0.2612321E-009  0.2059954E+03  0.7561462E-02  0.1144777E+00
          2   -1    0    0  501    0  0.00000000000E+00  0.00000000000E+00  0.11755872846E+04  0.11755872846E+04  0.00000000000E+00 0.  1.
         -2   -1    0    0    0  501 -0.00000000000E+00 -0.00000000000E+00 -0.46633969304E+02  0.46633969304E+02  0.00000000000E+00 0. -1.
         25    2    1    2    0    0 -0.57234913757E+02 -0.18485443694E+03  0.77893035926E+03  0.81229729522E+03  0.12508954007E+03 0.  0.
          5    1    3    3  502    0 -0.16967119890E+02 -0.12759297039E+03  0.67331231161E+03  0.68551789956E+03  0.41800000000E+01 0.  1.
         -5    1    3    3    0  502 -0.40267793867E+02 -0.57261466556E+02  0.10561804765E+03  0.12677939566E+03  0.41800000000E+01 0.  1.
        -11    1    1    2    0    0 -0.13267318092E+02  0.10789821532E+03  0.18903234674E+03  0.21806254771E+03  0.00000000000E+00 0.  1.
         11    1    1    2    0    0  0.70502231849E+02  0.76956221623E+02  0.16099060933E+03  0.19186141101E+03  0.00000000000E+00 0. -1.
</event>
<event>
 7    1  0.2612321E-009  0.9397523E+02  0.7561462E-02  0.1293501E+00
          1   -1    0    0  501    0  0.00000000000E+00  0.00000000000E+00  0.30591587411E+03  0.30591587411E+03  0.00000000000E+00 0. -1.
         -1   -1    0    0    0  501 -0.00000000000E+00 -0.00000000000E+00 -0.54289594634E+02  0.54289594634E+02  0.00000000000E+00 0.  1.
         25    2    1    2    0    0  0.33591963228E+02  0.43036602472E+02  0.78300590629E+02  0.15733712343E+03  0.12507365339E+03 0.  0.
          5    1    3    3  502    0  0.15197869237E+02  0.67851562884E+02  0.98169642521E+02  0.12037259210E+03  0.41800000000E+01 0.  1.
         -5    1    3    3    0  502  0.18394093991E+02 -0.24814960412E+02 -0.19869051892E+02  0.36964531339E+02  0.41800000000E+01 0.  1.
        -11    1    1    2    0    0 -0.53431125822E+02 -0.40656151469E+02  0.67619160987E+02  0.95289867203E+02  0.00000000000E+00 0.  1.
         11    1    1    2    0    0  0.19839162594E+02 -0.23804510025E+01  0.10570652786E+03  0.10757847810E+03  0.00000000000E+00 0. -1.
</event>
<event>
 7    1  0.2612321E-009  0.1103900E+03  0.7561462E-02  0.1259849E+00
          1   -1    0    0  501    0  0.00000000000E+00  0.00000000000E+00  0.47764859426E+02  0.47764859426E+02  0.00000000000E+00 0. -1.
         -1   -1    0    0    0  501 -0.00000000000E+00 -0.00000000000E+00 -0.30535518848E+03  0.30535518848E+03  0.00000000000E+00 0.  1.
         25    2    1    2    0    0  0.39258211627E+02 -0.32689274408E+02 -0.13502051773E+03  0.19101752159E+03  0.12508939806E+03 0.  0.
          5    1    3    3  502    0  0.62783565974E+02 -0.60409754117E+02 -0.12613409390E+03  0.15335708850E+03  0.41800000000E+01 0. -1.
         -5    1    3    3    0  502 -0.23525354347E+02  0.27720479710E+02 -0.88864238343E+01  0.37660433097E+02  0.41800000000E+01 0. -1.
        -11    1    1    2    0    0  0.52400753794E+01  0.49211061572E+02 -0.29466174049E+02  0.57597242852E+02  0.00000000000E+00 0.  1.
         11    1    1    2    0    0 -0.44498287007E+02 -0.16521787164E+02 -0.93103637273E+02  0.10450528346E+03  0.00000000000E+00 0. -1.
</event>
<event>
 7    1  0.2612321E-009  0.1017626E+03  0.7561462E-02  0.1276633E+00
          1   -1    0    0  501    0  0.00000000000E+00  0.00000000000E+00  0.12329599343E+03  0.12329599343E+03  0.00000000000E+00 0. -1.
         -1   -1    0    0    0  501 -0.00000000000E+00 -0.00000000000E+00 -0.17464433765E+03  0.17464433765E+03  0.00000000000E+00 0.  1.
         25    2    1    2    0    0 -0.55356706093E+02  0.43543675978E+02  0.43019801250E+02  0.14986133919E+03  0.12508917242E+03 0.  0.
          5    1    3    3  502    0 -0.49839711758E+02  0.71777240551E+00 -0.34683578052E+02  0.60868177661E+02  0.41800000000E+01 0.  1.
         -5    1    3    3    0  502 -0.55169943356E+01  0.42825903573E+02  0.77703379302E+02  0.88993161525E+02  0.41800000000E+01 0.  1.
        -11    1    1    2    0    0 -0.19197477673E+02  0.65716904601E+01 -0.40472267100E+01  0.20690826676E+02  0.00000000000E+00 0. -1.
         11    1    1    2    0    0  0.74554183766E+02 -0.50115366439E+02 -0.90320918759E+02  0.12738816521E+03  0.00000000000E+00 0.  1.
</event>
<event>
 7    1  0.2612321E-009  0.1913798E+03  0.7561462E-02  0.1157223E+00
         -1   -1    0    0    0  501 -0.00000000000E+00  0.00000000000E+00  0.94769950264E+02  0.94769950264E+02  0.00000000000E+00 0.  1.
          1   -1    0    0  501    0  0.00000000000E+00 -0.00000000000E+00 -0.52552406817E+03  0.52552406817E+03  0.00000000000E+00 0. -1.
         25    2    1    2    0    0 -0.14268487709E+03  0.86669826797E+02 -0.85832131581E+02  0.22557883469E+03  0.12509205739E+03 0.  0.
          5    1    3    3  502    0 -0.11943449558E+03  0.11832608904E+03 -0.60867171195E+02  0.17885174590E+03  0.41800000000E+01 0.  1.
         -5    1    3    3    0  502 -0.23250381518E+02 -0.31656262246E+02 -0.24964960385E+02  0.46727088794E+02  0.41800000000E+01 0.  1.
        -11    1    1    2    0    0  0.11777100072E+03 -0.44093368522E+02 -0.30924330779E+03  0.33383477526E+03  0.00000000000E+00 0.  1.
         11    1    1    2    0    0  0.24913876369E+02 -0.42576458275E+02 -0.35678678533E+02  0.60880408481E+02  0.00000000000E+00 0. -1.
</event>
<event>
 7    1  0.2612321E-009  0.2022522E+03  0.7561462E-02  0.1147853E+00
         -1   -1    0    0    0  501 -0.00000000000E+00  0.00000000000E+00  0.19841240239E+03  0.19841240239E+03  0.00000000000E+00 0.  1.
          1   -1    0    0  501    0  0.00000000000E+00 -0.00000000000E+00 -0.26949725667E+03  0.26949725667E+03  0.00000000000E+00 0. -1.
         25    2    1    2    0    0  0.17396253732E+02  0.19957622896E+03 -0.73231266723E+02  0.24725974524E+03  0.12506503260E+03 0.  0.
          5    1    3    3  502    0 -0.14929707191E+01  0.72695716757E+02  0.33657708207E+02  0.80232224936E+02  0.41800000000E+01 0.  1.
         -5    1    3    3    0  502  0.18889224451E+02  0.12688051220E+03 -0.10688897493E+03  0.16702752030E+03  0.41800000000E+01 0.  1.
        -11    1    1    2    0    0 -0.27615753261E+02 -0.16410013419E+03  0.36339650632E+02  0.17032925197E+03  0.00000000000E+00 0.  1.
         11    1    1    2    0    0  0.10219499529E+02 -0.35476094771E+02 -0.34193238194E+02  0.50320661850E+02  0.00000000000E+00 0. -1.
</event>
<event>
 7    1  0.2612321E-009  0.1528972E+03  0.7561462E-02  0.1196958E+00
          3   -1    0    0  501    0  0.00000000000E+00  0.00000000000E+00  0.45524401635E+03  0.45524401635E+03  0.00000000000E+00 0. -1.
         -3   -1    0    0    0  501 -0.00000000000E+00 -0.00000000000E+00 -0.69643585171E+02  0.69643585171E+02  0.00000000000E+00 0.  1.
         25    2    1    2    0    0 -0.32595620016E+01  0.13643974455E+03  0.26068916241E+03  0.31973748863E+03  0.12508714403E+03 0.  0.
          5    1    3    3  502    0 -0.47292327542E+01  0.14169534521E+03  0.14149514499E+03  0.20034541410E+03  0.41800000000E+01 0.  1.
         -5    1    3    3    0  502  0.14696707527E+01 -0.52556006652E+01  0.11919401742E+03  0.11939207453E+03  0.41800000000E+01 0.  1.
        -11    1    1    2    0    0  0.34785590549E+02 -0.11175617343E+03  0.67369603729E+02  0.13504866944E+03  0.00000000000E+00 0.  1.
         11    1    1    2    0    0 -0.31526028547E+02 -0.24683571113E+02  0.57541665036E+02  0.70101443451E+02  0.00000000000E+00 0. -1.
</event>
<event>
 7    1  0.2855244E-009  0.1173124E+03  0.7561462E-02  0.1247598E+00
          1   -1    0    0  501    0  0.00000000000E+00  0.00000000000E+00  0.17531721323E+03  0.17531721323E+03  0.00000000000E+00 0. -1.
         -1   -1    0    0    0  501 -0.00000000000E+00 -0.00000000000E+00 -0.15350067577E+03  0.15350067577E+03  0.00000000000E+00 0.  1.
         25    2    1    2    0    0  0.74897014688E+02  0.65608395677E+02 -0.60189644549E+02  0.17083633254E+03  0.12509290472E+03 0.  0.
          5    1    3    3  502    0  0.41030592089E+02  0.42006045620E+02  0.33951716817E+02  0.67957404531E+02  0.41800000000E+01 0.  1.
         -5    1    3    3    0  502  0.33866422599E+02  0.23602350057E+02 -0.94141361366E+02  0.10287892801E+03  0.41800000000E+01 0.  1.
        -11    1    1    2    0    0 -0.13212672645E+02 -0.71118733972E+02  0.35775953466E+02  0.80699243408E+02  0.00000000000E+00 0. -1.
         11    1    1    2    0    0 -0.61684342043E+02  0.55103382949E+01  0.46230228540E+02  0.77282313062E+02  0.00000000000E+00 0.  1.
</event>
<event>
 7    1  0.2647205E-009  0.1550537E+03  0.7561462E-02  0.1194397E+00
          2   -1    0    0  501    0  0.00000000000E+00  0.00000000000E+00  0.94159618795E+03  0.94159618795E+03  0.00000000000E+00 0. -1.
         -2   -1    0    0    0  501 -0.00000000000E+00 -0.00000000000E+00 -0.35454545573E+02  0.35454545573E+02  0.00000000000E+00 0.  1.
         25    2    1    2    0    0  0.14472381208E+02  0.11851435692E+03  0.25000325931E+03  0.30398083982E+03  0.12509044207E+03 0.  0.
          5    1    3    3  502    0 -0.31914669984E+02  0.11202450365E+03  0.12742702812E+03  0.17269382002E+03  0.41800000000E+01 0.  1.
         -5    1    3    3    0  502  0.46387051192E+02  0.64898532704E+01  0.12257623119E+03  0.13128701980E+03  0.41800000000E+01 0.  1.
        -11    1    1    2    0    0  0.33087038921E+02 -0.75368504733E+02  0.29505469891E+03  0.30632081059E+03  0.00000000000E+00 0.  1.
         11    1    1    2    0    0 -0.47559420130E+02 -0.43145852187E+02  0.36108368416E+03  0.36674908312E+03  0.00000000000E+00 0. -1.
</event>
<event>
 7    1  0.3209133E-009  0.1669565E+03  0.7561462E-02  0.1181059E+00
          3   -1    0    0  501    0  0.00000000000E+00  0.00000000000E+00  0.10986571397E+03  0.10986571397E+03  0.00000000000E+00 0. -1.
         -3   -1    0    0    0  501 -0.00000000000E+00 -0.00000000000E+00 -0.28329210643E+03  0.28329210643E+03  0.00000000000E+00 0.  1.
         25    2    1    2    0    0  0.51451370563E+02 -0.12846372667E+03 -0.99084272335E+02  0.21123803798E+03  0.12511451979E+03 0.  0.
          5    1    3    3  502    0 -0.30603643347E+02 -0.91081996444E+02 -0.47400163296E+02  0.10722294970E+03  0.41800000000E+01 0. -1.
         -5    1    3    3    0  502  0.82055013910E+02 -0.37381730230E+02 -0.51684109039E+02  0.10401508828E+03  0.41800000000E+01 0. -1.
        -11    1    1    2    0    0 -0.46270836530E+02  0.47395654977E+02  0.74353793645E+01  0.66653006610E+02  0.00000000000E+00 0. -1.
         11    1    1    2    0    0 -0.51805340335E+01  0.81068071697E+02 -0.81777499489E+02  0.11526677580E+03  0.00000000000E+00 0.  1.
</event>
<event>
 7    1  0.2612321E-009  0.1435920E+03  0.7561462E-02  0.1208576E+00
         -2   -1    0    0    0  501 -0.00000000000E+00  0.00000000000E+00  0.63939339982E+03  0.63939339982E+03  0.00000000000E+00 0.  1.
          2   -1    0    0  501    0  0.00000000000E+00 -0.00000000000E+00 -0.50332805077E+02  0.50332805077E+02  0.00000000000E+00 0. -1.
         25    2    1    2    0    0 -0.15846569615E+02 -0.10265961418E+03  0.50000822152E+03  0.52578111726E+03  0.12508977388E+03 0.  0.
          5    1    3    3  502    0 -0.44103911275E+02  0.10121721167E+02  0.11793910382E+03  0.12639109478E+03  0.41800000000E+01 0. -1.
         -5    1    3    3    0  502  0.28257341660E+02 -0.11278133535E+03  0.38206911769E+03  0.39939002248E+03  0.41800000000E+01 0. -1.
        -11    1    1    2    0    0  0.12299559720E+02 -0.80061712328E+01 -0.79944930361E+01  0.16711967748E+02  0.00000000000E+00 0.  1.
         11    1    1    2    0    0  0.35470098955E+01  0.11066578541E+03  0.97046866260E+02  0.14723311989E+03  0.00000000000E+00 0. -1.
</event>
<event>
 7    1  0.2612321E-009  0.1672090E+03  0.7561462E-02  0.1180790E+00
         -2   -1    0    0    0  501 -0.00000000000E+00  0.00000000000E+00  0.36405046058E+02  0.36405046058E+02  0.00000000000E+00 0.  1.
          2   -1    0    0  501    0  0.00000000000E+00 -0.00000000000E+00 -0.90616334004E+03  0.90616334004E+03  0.00000000000E+00 0. -1.
         25    2    1    2    0    0 -0.82350987655E+01 -0.14635441774E+03 -0.53352348685E+03  0.56725845911E+03  0.12508963175E+03 0.  0.
          5    1    3    3  502    0 -0.41586894998E+02 -0.14195920167E+03 -0.34030335400E+03  0.37108722683E+03  0.41800000000E+01 0.  1.
         -5    1    3    3    0  502  0.33351796233E+02 -0.43952160712E+01 -0.19322013285E+03  0.19617123228E+03  0.41800000000E+01 0.  1.
        -11    1    1    2    0    0  0.24954537666E+02  0.10508308129E+03 -0.15656706691E+03  0.19020628109E+03  0.00000000000E+00 0.  1.
         11    1    1    2    0    0 -0.16719438901E+02  0.41271336447E+02 -0.17966774022E+03  0.18510364590E+03  0.00000000000E+00 0. -1.
</event>
<event>
 7    1  0.2612321E-009  0.5866939E+02  0.7561462E-02  0.1403502E+00
         -1   -1    0    0    0  501 -0.00000000000E+00  0.00000000000E+00  0.24435718185E+02  0.24435718185E+02  0.00000000000E+00 0.  1.
          1   -1    0    0  501    0  0.00000000000E+00 -0.00000000000E+00 -0.58726152014E+03  0.58726152014E+03  0.00000000000E+00 0. -1.
         25    2    1    2    0    0 -0.18739602656E+02 -0.18654142874E+01 -0.43999525329E+03  0.45782151964E+03  0.12510023361E+03 0.  0.
          5    1    3    3  502    0 -0.50021183290E+01 -0.81943885086E+01 -0.44189111541E+03  0.44201515751E+03  0.41800000000E+01 0. -1.
         -5    1    3    3    0  502 -0.13737484327E+02  0.63289742212E+01  0.18958621281E+01  0.15806362122E+02  0.41800000000E+01 0. -1.
        -11    1    1    2    0    0 -0.10965740196E+02  0.40774480048E+02 -0.43239476549E+02  0.60435569108E+02  0.00000000000E+00 0.  1.
         11    1    1    2    0    0  0.29705342852E+02 -0.38909065761E+02 -0.79591072120E+02  0.93440149580E+02  0.00000000000E+00 0. -1.
</event>
<event>
 7    1  0.2612321E-009  0.1034274E+03  0.7561462E-02  0.1273249E+00
         -1   -1    0    0    0  501 -0.00000000000E+00  0.00000000000E+00  0.14016864374E+03  0.14016864374E+03  0.00000000000E+00 0.  1.
          1   -1    0    0  501    0  0.00000000000E+00 -0.00000000000E+00 -0.22932164680E+03  0.22932164680E+03  0.00000000000E+00 0. -1.
         25    2    1    2    0    0 -0.97660744942E+02 -0.32339673753E+02 -0.14823363802E+03  0.21956658295E+03  0.12511113982E+03 0.  0.
          5    1    3    3  502    0 -0.46724751076E+02 -0.19626969572E+02 -0.15801980622E+03  0.16600045740E+03  0.41800000000E+01 0. -1.
         -5    1    3    3    0  502 -0.50935993866E+02 -0.12712704181E+02  0.97861682013E+01  0.53566125553E+02  0.41800000000E+01 0. -1.
        -11    1    1    2    0    0  0.59944966319E+02  0.24821723536E+02 -0.14877077751E+02  0.66564588099E+02  0.00000000000E+00 0. -1.
         11    1    1    2    0    0  0.37715778622E+02  0.75179502174E+01  0.73957712711E+02  0.83359119489E+02  0.00000000000E+00 0.  1.
</event>
<event>
 7    1  0.2892115E-009  0.1067767E+03  0.7561462E-02  0.1266658E+00
          1   -1    0    0  501    0  0.00000000000E+00  0.00000000000E+00  0.83222575436E+03  0.83222575436E+03  0.00000000000E+00 0. -1.
         -1   -1    0    0    0  501 -0.00000000000E+00 -0.00000000000E+00 -0.18226524600E+02  0.18226524600E+02  0.00000000000E+00 0.  1.
         25    2    1    2    0    0  0.50610144854E+02  0.20213171635E+02  0.52106359987E+03  0.53863191951E+03  0.12508841089E+03 0.  0.
          5    1    3    3  502    0  0.80160536157E+01 -0.45071001500E+02  0.31391269323E+03  0.31726062419E+03  0.41800000000E+01 0.  1.
         -5    1    3    3    0  502  0.42594091239E+02  0.65284173135E+02  0.20715090663E+03  0.22137129531E+03  0.41800000000E+01 0.  1.
        -11    1    1    2    0    0 -0.21844790416E+02  0.26696732840E+02  0.20645735357E+03  0.20931925199E+03  0.00000000000E+00 0. -1.
         11    1    1    2    0    0 -0.28765354438E+02 -0.46909904475E+02  0.86478276329E+02  0.10250110746E+03  0.00000000000E+00 0.  1.
</event>
<event>
 7    1  0.2612321E-009  0.8142336E+02  0.7561462E-02  0.1325060E+00
          2   -1    0    0  501    0  0.00000000000E+00  0.00000000000E+00  0.67477191336E+03  0.67477191336E+03  0.00000000000E+00 0.  1.
         -2   -1    0    0    0  501 -0.00000000000E+00 -0.00000000000E+00 -0.70747201549E+02  0.70747201549E+02  0.00000000000E+00 0. -1.
         25    2    1    2    0    0  0.55359014739E+02  0.30006697490E+02  0.61907233185E+03  0.63471522706E+03  0.12509134659E+03 0.  0.
          5    1    3    3  502    0  0.44232528585E+02  0.23855123012E+02  0.74408788666E+02  0.89887283359E+02  0.41800000000E+01 0.  1.
         -5    1    3    3    0  502  0.11126486154E+02  0.61515744782E+01  0.54466354319E+03  0.54482794370E+03  0.41800000000E+01 0.  1.
        -11    1    1    2    0    0 -0.10319566179E+02 -0.49058031428E+02  0.16301393387E+02  0.52715456178E+02  0.00000000000E+00 0.  1.
         11    1    1    2    0    0 -0.45039448560E+02  0.19051333938E+02 -0.31349013426E+02  0.58088431672E+02  0.00000000000E+00 0. -1.
</event>
<event>
 7    1  0.2612321E-009  0.1004618E+03  0.7561462E-02  0.1279328E+00
          2   -1    0    0  501    0  0.00000000000E+00  0.00000000000E+00  0.87350237604E+02  0.87350237604E+02  0.00000000000E+00 0. -1.
         -2   -1    0    0    0  501 -0.00000000000E+00 -0.00000000000E+00 -0.16255058544E+03  0.16255058544E+03  0.00000000000E+00 0.  1.
         25    2    1    2    0    0 -0.16653169386E+02  0.28062302136E+01 -0.89230720319E+02  0.15457864300E+03  0.12508889816E+03 0.  0.
          5    1    3    3  502    0 -0.69717209034E+02  0.17379988564E+01 -0.67277298238E+02  0.96990809532E+02  0.41800000000E+01 0. -1.
         -5    1    3    3    0  502  0.53064039648E+02  0.10682313572E+01 -0.21953422081E+02  0.57587833464E+02  0.41800000000E+01 0. -1.
        -11    1    1    2    0    0 -0.12179757022E+02 -0.33537551852E+02 -0.20226429666E+02  0.41014903661E+02  0.00000000000E+00 0.  1.
         11    1    1    2    0    0  0.28832926408E+02  0.30731321638E+02  0.34256802149E+02  0.54307276385E+02  0.00000000000E+00 0. -1.
</event>
<event>
 7    1  0.2612321E-009  0.9304959E+02  0.7561462E-02  0.1295630E+00
         -2   -1    0    0    0  501 -0.00000000000E+00  0.00000000000E+00  0.36525667521E+02  0.36525667521E+02  0.00000000000E+00 0.  1.
          2   -1    0    0  501    0  0.00000000000E+00 -0.00000000000E+00 -0.42540603209E+03  0.42540603209E+03  0.00000000000E+00 0. -1.
         25    2    1    2    0    0  0.42847185069E+02  0.35066598546E+02 -0.16071593089E+03  0.21105175339E+03  0.12509070535E+03 0.  0.
          5    1    3    3  502    0  0.63743843017E+02  0.97390634312E+01 -0.21723946210E+02  0.68172788692E+02  0.41800000000E+01 0.  1.
         -5    1    3    3    0  502 -0.20896657948E+02  0.25327535115E+02 -0.13899198468E+03  0.14287896470E+03  0.41800000000E+01 0.  1.
        -11    1    1    2    0    0 -0.38457910974E+02  0.12632435787E+02 -0.17367284242E+03  0.17832791578E+03  0.00000000000E+00 0. -1.
         11    1    1    2    0    0 -0.43892740949E+01 -0.47699034334E+02 -0.54491591255E+02  0.72552030440E+02  0.00000000000E+00 0.  1.
</event>
<event>
 7    1  0.2612321E-009  0.1183922E+03  0.7561462E-02  0.1245773E+00
          3   -1    0    0  501    0  0.00000000000E+00  0.00000000000E+00  0.60211922969E+03  0.60211922969E+03  0.00000000000E+00 0. -1.
         -3   -1    0    0    0  501 -0.00000000000E+00 -0.00000000000E+00 -0.32519812272E+02  0.32519812272E+02  0.00000000000E+00 0.  1.
         25    2    1    2    0    0 -0.52380457513E+02 -0.25609258896E+02  0.46788399426E+03  0.48781390486E+03  0.12508967671E+03 0.  0.
          5    1    3    3  502    0  0.18931626352E+02  0.37295612443E+02  0.12026423929E+03  0.12739830783E+03  0.41800000000E+01 0.  1.
         -5    1    3    3    0  502 -0.71312083865E+02 -0.62904871339E+02  0.34761975496E+03  0.36041559703E+03  0.41800000000E+01 0.  1.
        -11    1    1    2    0    0  0.15504431866E+02 -0.29460331819E+02  0.12224053714E+02  0.35464433558E+02  0.00000000000E+00 0.  1.
         11    1    1    2    0    0  0.36876025647E+02  0.55069590715E+02  0.89491369453E+02  0.11136070355E+03  0.00000000000E+00 0. -1.
</event>
<event>
 7    1  0.2612321E-009  0.6767393E+02  0.7561462E-02  0.1368186E+00
          4   -1    0    0  501    0  0.00000000000E+00  0.00000000000E+00  0.28463008172E+03  0.28463008172E+03  0.00000000000E+00 0. -1.
         -4   -1    0    0    0  501 -0.00000000000E+00 -0.00000000000E+00 -0.59910700822E+02  0.59910700822E+02  0.00000000000E+00 0.  1.
         25    2    1    2    0    0  0.33704385840E+02  0.30513748512E+02  0.49806270411E+02  0.14210466343E+03  0.12508395710E+03 0.  0.
          5    1    3    3  502    0  0.14170612732E+02  0.20985913694E+01 -0.41667096899E+02  0.44258668246E+02  0.41800000000E+01 0. -1.
         -5    1    3    3    0  502  0.19533773108E+02  0.28415157142E+02  0.91473367310E+02  0.97845995188E+02  0.41800000000E+01 0. -1.
        -11    1    1    2    0    0 -0.42840077344E+02 -0.48990336439E+02  0.70247622270E+02  0.95760397481E+02  0.00000000000E+00 0.  1.
         11    1    1    2    0    0  0.91356915047E+01  0.18476587927E+02  0.10466548822E+03  0.10667572163E+03  0.00000000000E+00 0. -1.
</event>
<event>
 6    1  0.2612321E-009  0.1223914E+03  0.7561462E-02  0.1239203E+00
          2   -1    0    0  501    0  0.00000000000E+00  0.00000000000E+00  0.16564939220E+03  0.16564939220E+03  0.00000000000E+00 0. -1.
         -2   -1    0    0    0  501 -0.00000000000E+00 -0.00000000000E+00 -0.13840571492E+03  0.13840571492E+03  0.00000000000E+00 0.  1.
          5    1    1    2  502    0  0.80509854140E+02  0.16422540536E+02  0.32830999978E+02  0.88582636058E+02  0.41800000000E+01 0.  1.
         -5    1    1    2    0  502  0.47631854648E+00  0.33458196791E+02 -0.62854595987E+02  0.71329169690E+02  0.41800000000E+01 0.  1.
        -11    1    1    2    0    0 -0.96856602580E+02 -0.26300926993E+02  0.57599933380E+02  0.11571815998E+03  0.00000000000E+00 0. -1.
         11    1    1    2    0    0  0.15870429893E+02 -0.23579810335E+02 -0.33266009422E+00  0.28425141392E+02  0.00000000000E+00 0.  1.
</event>
<event>
 7    1  0.2612321E-009  0.2965670E+03  0.7561462E-02  0.1086969E+00
         -2   -1    0    0    0  501 -0.00000000000E+00  0.00000000000E+00  0.92590145386E+03  0.92590145386E+03  0.00000000000E+00 0.  1.
          2   -1    0    0  501    0  0.00000000000E+00 -0.00000000000E+00 -0.10439491825E+03  0.10439491825E+03  0.00000000000E+00 0. -1.
         25    2    1    2    0    0 -0.10800509029E+02 -0.28969611331E+03  0.46913122826E+03  0.56548323728E+03  0.12508674289E+03 0.  0.
          5    1    3    3  502    0 -0.15507116846E+02 -0.74424553328E+02  0.23656516927E+03  0.24851566655E+03  0.41800000000E+01 0. -1.
         -5    1    3    3    0  502  0.47066078165E+01 -0.21527155998E+03  0.23256605899E+03  0.31696757072E+03  0.41800000000E+01 0. -1.
        -11    1    1    2    0    0 -0.17357707540E+02  0.26047365769E+03  0.28791359058E+03  0.38864128963E+03  0.00000000000E+00 0. -1.
         11    1    1    2    0    0  0.28158216569E+02  0.29222455623E+02  0.64461716774E+02  0.76171845208E+02  0.00000000000E+00 0.  1.
</event>
<event>
 7    1  0.2612321E-009  0.1099772E+03  0.7561462E-02  0.1260612E+00
         -2   -1    0    0    0  501 -0.00000000000E+00  0.00000000000E+00  0.11437525638E+03  0.11437525638E+03  0.00000000000E+00 0. -1.
          2   -1    0    0  501    0  0.00000000000E+00 -0.00000000000E+00 -0.15032913633E+03  0.15032913633E+03  0.00000000000E+00 0.  1.
         25    2    1    2    0    0  0.57116124626E+02  0.47400274847E+02 -0.18269844606E+02  0.14659711122E+03  0.12509151869E+03 0.  0.
          5    1    3    3  502    0  0.25388108466E+02 -0.17300576401E+02 -0.56846825690E+02  0.64752606020E+02  0.41800000000E+01 0. -1.
         -5    1    3    3    0  502  0.31728016160E+02  0.64700851248E+02  0.38576981085E+02  0.81844505199E+02  0.41800000000E+01 0. -1.
        -11    1    1    2    0    0 -0.30924331462E+02  0.25005281482E+02 -0.53067072795E+01  0.40121559298E+02  0.00000000000E+00 0.  1.
         11    1    1    2    0    0 -0.26191793164E+02 -0.72405556328E+02 -0.12377328068E+02  0.77985722196E+02  0.00000000000E+00 0. -1.
</event>
<event>
 7    1  0.2612321E-009  0.1033265E+03  0.7561462E-02  0.1273452E+00
          2   -1    0    0  501    0  0.00000000000E+00  0.00000000000E+00  0.67833202562E+03  0.67833202562E+03  0.00000000000E+00 0. -1.
         -2   -1    0    0    0  501 -0.00000000000E+00 -0.00000000000E+00 -0.21822261538E+02  0.21822261538E+02  0.00000000000E+00 0.  1.
         25    2    1    2    0    0  0.45929171210E+02 -0.79440557441E+01  0.44138218705E+03  0.46112842718E+03  0.12509434249E+03 0.  0.
          5    1    3    3  502    0  0.74506458143E+02 -0.27479019620E+02  0.17193366218E+03  0.18943327431E+03  0.41800000000E+01 0. -1.
         -5    1    3    3    0  502 -0.28577286934E+02  0.19534963875E+02  0.26944852487E+03  0.27169515287E+03  0.41800000000E+01 0. -1.
        -11    1    1    2    0    0  0.12246613436E+02 -0.23230678466E+02  0.19917880456E+02  0.32960065603E+02  0.00000000000E+00 0.  1.
         11    1    1    2    0    0 -0.58175784646E+02  0.31174734210E+02  0.19520969658E+03  0.20606579437E+03  0.00000000000E+00 0. -1.
</event>
<event>
 7    1  0.2612321E-009  0.8647475E+02  0.7561462E-02  0.1311620E+00
         -1   -1    0    0    0  501 -0.00000000000E+00  0.00000000000E+00  0.12237294872E+03  0.12237294872E+03  0.00000000000E+00 0.  1.
          1   -1    0    0  501    0  0.00000000000E+00 -0.00000000000E+00 -0.13318512272E+03  0.13318512272E+03  0.00000000000E+00 0. -1.
         25    2    1    2    0    0  0.22384155966E+02  0.62653748068E+02  0.69121053108E+01  0.14184992950E+03  0.12508829967E+03 0.  0.
          5    1    3    3  502    0  0.16746418109E+02  0.49546870117E+02  0.64057575674E+02  0.82802054679E+02  0.41800000000E+01 0.  1.
         -5    1    3    3    0  502  0.56377378574E+01  0.13106877951E+02 -0.57145470363E+02  0.59047874820E+02  0.41800000000E+01 0.  1.
        -11    1    1    2    0    0 -0.34924203278E+02 -0.78198189222E+02 -0.29430389772E+02  0.90558294011E+02  0.00000000000E+00 0. -1.
         11    1    1    2    0    0  0.12540047311E+02  0.15544441154E+02  0.11706110462E+02  0.23149847937E+02  0.00000000000E+00 0.  1.
</event>
<event>
 7    1  0.2612321E-009  0.3995607E+03  0.7561462E-02  0.1043932E+00
          2   -1    0    0  501    0  0.00000000000E+00  0.00000000000E+00  0.12184450885E+04  0.12184450885E+04  0.00000000000E+00 0. -1.
         -2   -1    0    0    0  501 -0.00000000000E+00 -0.00000000000E+00 -0.13785117746E+03  0.13785117746E+03  0.00000000000E+00 0.  1.
         25    2    1    2    0    0 -0.27355579991E+03  0.27966671715E+03  0.63603185808E+03  0.75711982947E+03  0.12509062049E+03 0.  0.
          5    1    3    3  502    0 -0.11688325292E+03  0.20098856585E+03  0.31817492230E+03  0.39409497840E+03  0.41800000000E+01 0. -1.
         -5    1    3    3    0  502 -0.15667254699E+03  0.78678151300E+02  0.31785693578E+03  0.36302485107E+03  0.41800000000E+01 0. -1.
        -11    1    1    2    0    0  0.81696355395E+02 -0.83921243710E+02  0.20035105426E+03  0.23207243390E+03  0.00000000000E+00 0.  1.
         11    1    1    2    0    0  0.19185944452E+03 -0.19574547344E+03  0.24421099866E+03  0.36710400255E+03  0.00000000000E+00 0. -1.
</event>
<event>
 6    1  0.2612321E-009  0.7214613E+02  0.7561462E-02  0.1352943E+00
         -2   -1    0    0    0  501 -0.00000000000E+00  0.00000000000E+00  0.37649967067E+02  0.37649967067E+02  0.00000000000E+00 0.  1.
          2   -1    0    0  501    0  0.00000000000E+00 -0.00000000000E+00 -0.41559064525E+03  0.41559064525E+03  0.00000000000E+00 0. -1.
          5    1    1    2  502    0  0.17621561181E+02  0.20987557909E+02 -0.19159253875E+03  0.19358762954E+03  0.41800000000E+01 0.  1.
         -5    1    1    2    0  502 -0.38869530291E+02  0.37490760676E+02 -0.15611975257E+02  0.56370237648E+02  0.41800000000E+01 0.  1.
        -11    1    1    2    0    0  0.74863474761E+01 -0.27645750004E+02  0.60364286206E+00  0.28647814515E+02  0.00000000000E+00 0.  1.
         11    1    1    2    0    0  0.13761621634E+02 -0.30832568581E+02 -0.17133980704E+03  0.17463493061E+03  0.00000000000E+00 0. -1.
</event>
<event>
 7    1  0.2612321E-009  0.9367998E+02  0.7561462E-02  0.1294177E+00
          1   -1    0    0  501    0  0.00000000000E+00  0.00000000000E+00  0.12187556968E+04  0.12187556968E+04  0.00000000000E+00 0.  1.
         -1   -1    0    0    0  501 -0.00000000000E+00 -0.00000000000E+00 -0.12463038161E+02  0.12463038161E+02  0.00000000000E+00 0. -1.
         25    2    1    2    0    0 -0.59842299787E+01 -0.80738626098E+01  0.10494156159E+04  0.10568952622E+04  0.12511379604E+03 0.  0.
          5    1    3    3  502    0  0.27054208822E+02 -0.56589531254E+02  0.41187672728E+03  0.41664639221E+03  0.41800000000E+01 0. -1.
         -5    1    3    3    0  502 -0.33038438800E+02  0.48515668644E+02  0.63753888866E+03  0.64024886997E+03  0.41800000000E+01 0. -1.
        -11    1    1    2    0    0  0.46866901627E+01  0.36698907760E+02  0.42203450485E+02  0.56124024520E+02  0.00000000000E+00 0. -1.
         11    1    1    2    0    0  0.12975398160E+01 -0.28625045150E+02  0.11467359221E+03  0.11819944827E+03  0.00000000000E+00 0.  1.
</event>
<event>
 6    1  0.2612321E-009  0.9024846E+02  0.7561462E-02  0.1302251E+00
          2   -1    0    0  501    0  0.00000000000E+00  0.00000000000E+00  0.18989318703E+03  0.18989318703E+03  0.00000000000E+00 0.  1.
         -2   -1    0    0    0  501 -0.00000000000E+00 -0.00000000000E+00 -0.61413349241E+02  0.61413349241E+02  0.00000000000E+00 0. -1.
          5    1    1    2  502    0  0.46475924954E+02 -0.10076833026E+02 -0.26209268409E+01  0.47811042884E+02  0.41800000000E+01 0. -1.
         -5    1    1    2    0  502 -0.54926833475E+02  0.18360418884E+01  0.85466373959E+02  0.10169710696E+03  0.41800000000E+01 0. -1.
        -11    1    1    2    0    0  0.35178319553E+02 -0.18574575494E+02  0.49767553477E+02  0.63712937465E+02  0.00000000000E+00 0.  1.
         11    1    1    2    0    0 -0.26727411032E+02  0.26815366631E+02 -0.41331628073E+01  0.38085448965E+02  0.00000000000E+00 0. -1.
</event>
<event>
 7    1  0.2612321E-009  0.7999864E+02  0.7561462E-02  0.1329055E+00
          2   -1    0    0  501    0  0.00000000000E+00  0.00000000000E+00  0.38842443118E+02  0.38842443118E+02  0.00000000000E+00 0.  1.
         -2   -1    0    0    0  501 -0.00000000000E+00 -0.00000000000E+00 -0.45163765714E+03  0.45163765714E+03  0.00000000000E+00 0. -1.
         25    2    1    2    0    0  0.53751726278E+02  0.46355377163E+02 -0.17849082430E+03  0.22922631450E+03  0.12509060647E+03 0.  0.
          5    1    3    3  502    0  0.57001042021E+02  0.53911225460E+02 -0.35976491281E+02  0.86413652550E+02  0.41800000000E+01 0.  1.
         -5    1    3    3    0  502 -0.32493157427E+01 -0.75558482968E+01 -0.14251433302E+03  0.14281266195E+03  0.41800000000E+01 0.  1.
        -11    1    1    2    0    0 -0.19395576783E+02 -0.25405194750E+02 -0.10178563745E+02  0.33544231679E+02  0.00000000000E+00 0.  1.
         11    1    1    2    0    0 -0.34356149495E+02 -0.20950182414E+02 -0.22412582598E+03  0.22770955408E+03  0.00000000000E+00 0. -1.
</event>
<event>
 7    1  0.2612321E-009  0.1367761E+03  0.7561462E-02  0.1217734E+00
          2   -1    0    0  501    0  0.00000000000E+00  0.00000000000E+00  0.41733810112E+03  0.41733810112E+03  0.00000000000E+00 0. -1.
         -2   -1    0    0    0  501 -0.00000000000E+00 -0.00000000000E+00 -0.69572620875E+02  0.69572620875E+02  0.00000000000E+00 0.  1.
         25    2    1    2    0    0  0.64050431193E+02  0.80427925085E+02  0.59232321880E+02  0.17241682805E+03  0.12509190929E+03 0.  0.
          5    1    3    3  502    0  0.91735692277E+02  0.42052971116E+02  0.61591498116E+01  0.10118941221E+03  0.41800000000E+01 0.  1.
         -5    1    3    3    0  502 -0.27685261083E+02  0.38374953970E+02  0.53073172068E+02  0.71227415837E+02  0.41800000000E+01 0.  1.
        -11    1    1    2    0    0 -0.51795382981E+02 -0.89952385744E+01  0.12663290286E+03  0.13711151702E+03  0.00000000000E+00 0. -1.
         11    1    1    2    0    0 -0.12255048213E+02 -0.71432686511E+02  0.16190025551E+03  0.17738237692E+03  0.00000000000E+00 0.  1.
</event>
<event>
 7    1  0.2612321E-009  0.5924318E+02  0.7561462E-02  0.1401035E+00
         -2   -1    0    0    0  501 -0.00000000000E+00  0.00000000000E+00  0.22504478695E+02  0.22504478695E+02  0.00000000000E+00 0.  1.
          2   -1    0    0  501    0  0.00000000000E+00 -0.00000000000E+00 -0.54687167909E+03  0.54687167909E+03  0.00000000000E+00 0. -1.
         25    2    1    2    0    0  0.80816319764E+01  0.16415762818E+02 -0.26693173057E+03  0.29535674900E+03  0.12509304677E+03 0.  0.
          5    1    3    3  502    0 -0.10143761772E+02  0.19201072031E+02 -0.27420918646E+03  0.27509948638E+03  0.41800000000E+01 0.  1.
         -5    1    3    3    0  502  0.18225393748E+02 -0.27853092132E+01  0.72774558868E+01  0.20257262620E+02  0.41800000000E+01 0.  1.
        -11    1    1    2    0    0 -0.66803802447E+01  0.30149455524E+02 -0.34643661434E+02  0.46409055433E+02  0.00000000000E+00 0.  1.
         11    1    1    2    0    0 -0.14012517318E+01 -0.46565218342E+02 -0.22279180839E+03  0.22761035335E+03  0.00000000000E+00 0. -1.
</event>
<event>
 7    1  0.2612321E-009  0.2337401E+03  0.7561462E-02  0.1124035E+00
         -2   -1    0    0    0  501 -0.00000000000E+00  0.00000000000E+00  0.19015692759E+03  0.19015692759E+03  0.00000000000E+00 0.  1.
          2   -1    0    0  501    0  0.00000000000E+00 -0.00000000000E+00 -0.32691720163E+03  0.32691720163E+03  0.00000000000E+00 0. -1.
         25    2    1    2    0    0 -0.17456977764E+02  0.21986378614E+03 -0.10523301364E+03  0.27453091392E+03  0.12509358500E+03 0.  0.
          5    1    3    3  502    0  0.27219464962E+02  0.87311776337E+02  0.11530565009E+02  0.92274979758E+02  0.41800000000E+01 0.  1.
         -5    1    3    3    0  502 -0.44676442726E+02  0.13255200981E+03 -0.11676357865E+03  0.18225593416E+03  0.41800000000E+01 0.  1.
        -11    1    1    2    0    0  0.40885078825E+02 -0.50335283901E+02  0.12014619094E+02  0.65951357438E+02  0.00000000000E+00 0. -1.
         11    1    1    2    0    0 -0.23428101061E+02 -0.16952850224E+03 -0.43541879491E+02  0.17659185786E+03  0.00000000000E+00 0.  1.
</event>
<event>
 7    1  0.2612321E-009  0.8492899E+02  0.7561462E-02  0.1315618E+00
          1   -1    0    0  501    0  0.00000000000E+00  0.00000000000E+00  0.59379331476E+02  0.59379331476E+02  0.00000000000E+00 0. -1.
         -1   -1    0    0    0  501 -0.00000000000E+00 -0.00000000000E+00 -0.26749969399E+03  0.26749969399E+03  0.00000000000E+00 0.  1.
         25    2    1    2    0    0 -0.45328946224E+01  0.34524086419E+02 -0.19850917025E+03  0.23720533366E+03  0.12509204599E+03 0.  0.
          5    1    3    3  502    0  0.37977616922E+02  0.45232211021E+02 -0.37043874823E+02  0.69842489667E+02  0.41800000000E+01 0.  1.
         -5    1    3    3    0  502 -0.42510511544E+02 -0.10708124602E+02 -0.16146529542E+03  0.16736284400E+03  0.41800000000E+01 0.  1.
        -11    1    1    2    0    0  0.24471710032E+02 -0.39125821672E+02  0.22698774099E+02  0.51428871842E+02  0.00000000000E+00 0. -1.
         11    1    1    2    0    0 -0.19938815409E+02  0.46017352524E+01 -0.32309966365E+02  0.38244819960E+02  0.00000000000E+00 0.  1.
</event>
<event>
 7    1  0.2612321E-009  0.2744633E+03  0.7561462E-02  0.1098752E+00
          1   -1    0    0  501    0  0.00000000000E+00  0.00000000000E+00  0.11291981254E+04  0.11291981254E+04  0.00000000000E+00 0. -1.
         -1   -1    0    0    0  501 -0.00000000000E+00 -0.00000000000E+00 -0.71234170589E+02  0.71234170589E+02  0.00000000000E+00 0.  1.
         25    2    1    2    0    0  0.16350618053E+03  0.20434435345E+03  0.50723561020E+03  0.58431671583E+03  0.12508866568E+03 0.  0.
          5    1    3    3  502    0  0.14499373362E+03  0.90260160521E+02  0.34614152498E+03  0.38600713346E+03  0.41800000000E+01 0.  1.
         -5    1    3    3    0  502  0.18512446915E+02  0.11408419292E+03  0.16109408522E+03  0.19830958237E+03  0.41800000000E+01 0.  1.
        -11    1    1    2    0    0 -0.46498695683E+02 -0.72750332113E+02  0.28125538194E+03  0.29420966910E+03  0.00000000000E+00 0. -1.
         11    1    1    2    0    0 -0.11700748485E+03 -0.13159402133E+03  0.26947296263E+03  0.32190591102E+03  0.00000000000E+00 0.  1.
</event>
<event>
 7    1  0.2612321E-009  0.9853134E+02  0.7561462E-02  0.1283415E+00
          2   -1    0    0  501    0  0.00000000000E+00  0.00000000000E+00  0.11692855246E+03  0.11692855246E+03  0.00000000000E+00 0.  1.
         -2   -1    0    0    0  501 -0.00000000000E+00 -0.00000000000E+00 -0.15672409301E+03  0.15672409301E+03  0.00000000000E+00 0. -1.
         25    2    1    2    0    0  0.79162754356E+02 -0.69110190129E+01 -0.88335746826E+01  0.14845532369E+03  0.12508575950E+03 0.  0.
          5    1    3    3  502    0  0.13736065606E+02  0.10517508555E+02 -0.60576524251E+02  0.63137034891E+02  0.41800000000E+01 0. -1.
         -5    1    3    3    0  502  0.65426688750E+02 -0.17428527568E+02  0.51742949568E+02  0.85318288801E+02  0.41800000000E+01 0. -1.
        -11    1    1    2    0    0 -0.50122075967E+02 -0.34500422202E+02  0.79723837074E+01  0.61368237170E+02  0.00000000000E+00 0.  1.
         11    1    1    2    0    0 -0.29040678389E+02  0.41411441215E+02 -0.38934349577E+02  0.63829084608E+02  0.00000000000E+00 0. -1.
</event>
<event>
 7    1  0.2612321E-009  0.9645636E+02  0.7561462E-02  0.1287929E+00
          1   -1    0    0  501    0  0.00000000000E+00  0.00000000000E+00  0.18348121625E+03  0.18348121625E+03  0.00000000000E+00 0. -1.
         -1   -1    0    0    0  501 -0.00000000000E+00 -0.00000000000E+00 -0.82004907508E+02  0.82004907508E+02  0.00000000000E+00 0.  1.
         25    2    1    2    0    0 -0.95307526612E+01  0.52162924663E+02  0.84152820989E+02  0.15982184135E+03  0.12509803250E+03 0.  0.
          5    1    3    3  502    0  0.52178693484E+02  0.38744581248E+02  0.16504751860E+02  0.67183613060E+02  0.41800000000E+01 0. -1.
         -5    1    3    3    0  502 -0.61709446145E+02  0.13418343415E+02  0.67648069129E+02  0.92638228288E+02  0.41800000000E+01 0. -1.
        -11    1    1    2    0    0  0.23168462558E+02 -0.39997314578E+02  0.50082174296E+02  0.68152674291E+02  0.00000000000E+00 0. -1.
         11    1    1    2    0    0 -0.13637709896E+02 -0.12165610085E+02 -0.32758686541E+02  0.37511608121E+02  0.00000000000E+00 0.  1.
</event>
<event>
 7    1  0.2612321E-009  0.2466097E+03  0.7561462E-02  0.1115466E+00
          1   -1    0    0  501    0  0.00000000000E+00  0.00000000000E+00  0.28035093731E+04  0.28035093731E+04  0.00000000000E+00 0. -1.
         -1   -1    0    0    0  501 -0.00000000000E+00 -0.00000000000E+00 -0.40513854776E+02  0.40513854776E+02  0.00000000000E+00 0.  1.
         25    2    1    2    0    0  0.51267663904E+01  0.23134823029E+03  0.23284417165E+04  0.23432534522E+04  0.12509047493E+03 0.  0.
          5    1    3    3  502    0 -0.68107577784E+01 -0.58764162337E+01  0.17359665891E+02  0.19993726244E+02  0.41800000000E+01 0.  1.
         -5    1    3    3    0  502  0.11937524169E+02  0.23722464652E+03  0.23110820506E+04  0.23232597260E+04  0.41800000000E+01 0.  1.
        -11    1    1    2    0    0 -0.39298784204E+02 -0.17871838301E+03  0.28630031993E+03  0.33978306029E+03  0.00000000000E+00 0.  1.
         11    1    1    2    0    0  0.34172017813E+02 -0.52629847278E+02  0.14825348194E+03  0.16098671539E+03  0.00000000000E+00 0. -1.
</event>
<event>
 7    1  0.2612321E-009  0.1332104E+03  0.7561462E-02  0.1222768E+00
          2   -1    0    0  501    0  0.00000000000E+00  0.00000000000E+00  0.81332418392E+03  0.81332418392E+03  0.00000000000E+00 0. -1.
         -2   -1    0    0    0  501 -0.00000000000E+00 -0.00000000000E+00 -0.25137344178E+02  0.25137344178E+02  0.00000000000E+00 0.  1.
         25    2    1    2    0    0  0.54029704025E+02  0.62043347659E+02  0.58242715057E+03  0.60136162526E+03  0.12508330306E+03 0.  0.
          5    1    3    3  502    0  0.94529989182E+02  0.42428242766E+02  0.37544164002E+03  0.38949964326E+03  0.41800000000E+01 0. -1.
         -5    1    3    3    0  502 -0.40500285157E+02  0.19615104893E+02  0.20698551055E+03  0.21186198200E+03  0.41800000000E+01 0. -1.
        -11    1    1    2    0    0  0.10240270687E+02 -0.51365772323E+02  0.83587226190E+02  0.98641421787E+02  0.00000000000E+00 0. -1.
         11    1    1    2    0    0 -0.64269974712E+02 -0.10677575336E+02  0.12217246299E+03  0.13845848106E+03  0.00000000000E+00 0.  1.
</event>
<event>
 7    1  0.2612321E-009  0.1115168E+03  0.7561462E-02  0.1257787E+00
          1   -1    0    0  501    0  0.00000000000E+00  0.00000000000E+00  0.70227103879E+02  0.70227103879E+02  0.00000000000E+00 0. -1.
         -1   -1    0    0    0  501 -0.00000000000E+00 -0.00000000000E+00 -0.22914944601E+03  0.22914944601E+03  0.00000000000E+00 0.  1.
         25    2    1    2    0    0 -0.42370785865E+02  0.31531675184E+02 -0.46357573849E+02  0.14348609045E+03  0.12509877483E+03 0.  0.
          5    1    3    3  502    0 -0.72828389153E+02 -0.10278572112E+02 -0.53575408101E+02  0.91090175455E+02  0.41800000000E+01 0. -1.
         -5    1    3    3    0  502  0.30457603288E+02  0.41810247296E+02  0.72178342527E+01  0.52395914996E+02  0.41800000000E+01 0. -1.
        -11    1    1    2    0    0  0.65854776091E+02 -0.12033845244E+02 -0.10486359245E+03  0.12441076314E+03  0.00000000000E+00 0.  1.
         11    1    1    2    0    0 -0.23483990226E+02 -0.19497829940E+02 -0.77011758328E+01  0.31479696290E+02  0.00000000000E+00 0. -1.
</event>
<event>
 7    1  0.2612321E-009  0.1216754E+03  0.7561462E-02  0.1240358E+00
          4   -1    0    0  501    0  0.00000000000E+00  0.00000000000E+00  0.41085273951E+02  0.41085273951E+02  0.00000000000E+00 0. -1.
         -4   -1    0    0    0  501 -0.00000000000E+00 -0.00000000000E+00 -0.68706066945E+03  0.68706066945E+03  0.00000000000E+00 0.  1.
         25    2    1    2    0    0  0.71262012743E+02 -0.51793916193E+02 -0.55074644187E+03  0.57160277943E+03  0.12508880844E+03 0.  0.
          5    1    3    3  502    0  0.32058828949E+02  0.30324435266E+02 -0.32751572872E+03  0.33050168660E+03  0.41800000000E+01 0.  1.
         -5    1    3    3    0  502  0.39203183794E+02 -0.82118351459E+02 -0.22323071315E+03  0.24110109282E+03  0.41800000000E+01 0.  1.
        -11    1    1    2    0    0 -0.37535023676E+02 -0.88287882137E+01  0.20387554627E+00  0.38559915312E+02  0.00000000000E+00 0. -1.
         11    1    1    2    0    0 -0.33726989067E+02  0.60622704407E+02 -0.95432829168E+02  0.11798324866E+03  0.00000000000E+00 0.  1.
</event>
<event>
 7    1  0.2612321E-009  0.1393707E+03  0.7561462E-02  0.1214178E+00
          2   -1    0    0  501    0  0.00000000000E+00  0.00000000000E+00  0.59035148306E+03  0.59035148306E+03  0.00000000000E+00 0. -1.
         -2   -1    0    0    0  501 -0.00000000000E+00 -0.00000000000E+00 -0.43720278833E+02  0.43720278833E+02  0.00000000000E+00 0.  1.
         25    2    1    2    0    0  0.68529910629E+02 -0.96685091584E+02  0.25979925117E+03  0.31174947116E+03  0.12509087206E+03 0.  0.
          5    1    3    3  502    0  0.64901917706E+02 -0.19509733505E+02  0.40175944536E+02  0.78895294807E+02  0.41800000000E+01 0.  1.
         -5    1    3    3    0  502  0.36279929235E+01 -0.77175358079E+02  0.21962330664E+03  0.23285417635E+03  0.41800000000E+01 0.  1.
        -11    1    1    2    0    0 -0.78624755366E+02  0.71259957442E+02  0.27024351631E+03  0.29032979833E+03  0.00000000000E+00 0. -1.
         11    1    1    2    0    0  0.10094844737E+02  0.25425134142E+02  0.16588436744E+02  0.31992492401E+02  0.00000000000E+00 0.  1.
</event>
<event>
 7    1  0.3372931E-009  0.7417696E+02  0.7561462E-02  0.1346439E+00
          2   -1    0    0  501    0  0.00000000000E+00  0.00000000000E+00  0.89111389725E+02  0.89111389725E+02  0.00000000000E+00 0. -1.
         -2   -1    0    0    0  501 -0.00000000000E+00 -0.00000000000E+00 -0.14479415719E+03  0.14479415719E+03  0.00000000000E+00 0.  1.
         25    2    1    2    0    0 -0.18512414453E+02 -0.12403624585E+02 -0.59006848867E+02  0.14008878563E+03  0.12508597145E+03 0.  0.
          5    1    3    3  502    0 -0.88498269422E+01  0.49392931721E+02  0.48730535327E+01  0.50588538145E+02  0.41800000000E+01 0.  1.
         -5    1    3    3    0  502 -0.96625875103E+01 -0.61796556306E+02 -0.63879902400E+02  0.89500247482E+02  0.41800000000E+01 0.  1.
        -11    1    1    2    0    0  0.11640538400E+02  0.21179406243E+02  0.44781746412E+02  0.50886876449E+02  0.00000000000E+00 0. -1.
         11    1    1    2    0    0  0.68718760524E+01 -0.87757816582E+01 -0.41457665005E+02  0.42929884834E+02  0.00000000000E+00 0.  1.
</event>
<event>
 7    1  0.2900907E-009  0.1276459E+03  0.7561462E-02  0.1230991E+00
          2   -1    0    0  501    0  0.00000000000E+00  0.00000000000E+00  0.60034941533E+03  0.60034941533E+03  0.00000000000E+00 0. -1.
         -2   -1    0    0    0  501 -0.00000000000E+00 -0.00000000000E+00 -0.36142109612E+02  0.36142109612E+02  0.00000000000E+00 0.  1.
         25    2    1    2    0    0  0.93703954651E+02  0.23272570874E+02  0.25577408956E+03  0.30064958750E+03  0.12509095053E+03 0.  0.
          5    1    3    3  502    0  0.58770909817E+02  0.58093795781E+02  0.69959466972E+02  0.10835454936E+03  0.41800000000E+01 0. -1.
         -5    1    3    3    0  502  0.34933044833E+02 -0.34821224907E+02  0.18581462258E+03  0.19229503814E+03  0.41800000000E+01 0. -1.
        -11    1    1    2    0    0 -0.75438126143E+02  0.18312131472E+02  0.12731214107E+03  0.14911279723E+03  0.00000000000E+00 0.  1.
         11    1    1    2    0    0 -0.18265828507E+02 -0.41584702346E+02  0.18112107510E+03  0.18672914021E+03  0.00000000000E+00 0. -1.
</event>
<event>
 7    1  0.2612321E-009  0.1534913E+03  0.7561462E-02  0.1196247E+00
          1   -1    0    0  501    0  0.00000000000E+00  0.00000000000E+00  0.11805121942E+04  0.11805121942E+04  0.00000000000E+00 0. -1.
         -1   -1    0    0    0  501 -0.00000000000E+00 -0.00000000000E+00 -0.27190458603E+02  0.27190458603E+02  0.00000000000E+00 0.  1.
         25    2    1    2    0    0  0.12364988460E+02  0.13452381349E+03  0.45757402034E+03  0.49322471584E+03  0.12508831637E+03 0.  0.
          5    1    3    3  502    0  0.37853862426E+02  0.21483786864E+02  0.26386116509E+03  0.26745963217E+03  0.41800000000E+01 0.  1.
         -5    1    3    3    0  502 -0.25488873966E+02  0.11304002662E+03  0.19371285525E+03  0.22576508367E+03  0.41800000000E+01 0.  1.
        -11    1    1    2    0    0  0.28101460920E+00 -0.13465637706E+03  0.68428865531E+03  0.69741191748E+03  0.00000000000E+00 0. -1.
         11    1    1    2    0    0 -0.12646003069E+02  0.13256357556E+00  0.11459059991E+02  0.17066019530E+02  0.00000000000E+00 0.  1.
</event>
<event>
 7    1  0.2612321E-009  0.9494445E+02  0.7561462E-02  0.1291301E+00
          3   -1    0    0  501    0  0.00000000000E+00  0.00000000000E+00  0.60943744843E+02  0.60943744843E+02  0.00000000000E+00 0. -1.
         -3   -1    0    0    0  501 -0.00000000000E+00 -0.00000000000E+00 -0.27280923456E+03  0.27280923456E+03  0.00000000000E+00 0.  1.
         25    2    1    2    0    0  0.57700395336E+02 -0.22054916036E+02 -0.76168050072E+02  0.15895071723E+03  0.12509198101E+03 0.  0.
          5    1    3    3  502    0  0.43577310631E+01  0.20870330646E+02  0.27249865890E+02  0.34850941341E+02  0.41800000000E+01 0.  1.
         -5    1    3    3    0  502  0.53342664273E+02 -0.42925246682E+02 -0.10341791596E+03  0.12409977589E+03  0.41800000000E+01 0.  1.
        -11    1    1    2    0    0 -0.72453430859E+02  0.34515689317E+02 -0.13295222833E+03  0.15529690103E+03  0.00000000000E+00 0.  1.
         11    1    1    2    0    0  0.14753035523E+02 -0.12460773281E+02 -0.27452113129E+01  0.19505361136E+02  0.00000000000E+00 0. -1.
</event>
<event>
 7    1  0.2612321E-009  0.1023677E+03  0.7561462E-02  0.1275394E+00
          2   -1    0    0  501    0  0.00000000000E+00  0.00000000000E+00  0.13485904904E+03  0.13485904904E+03  0.00000000000E+00 0. -1.
         -2   -1    0    0    0  501 -0.00000000000E+00 -0.00000000000E+00 -0.95214038320E+02  0.95214038320E+02  0.00000000000E+00 0.  1.
         25    2    1    2    0    0 -0.37542663891E+02  0.13283283838E+02  0.36407395376E+02  0.13623040378E+03  0.12508927706E+03 0.  0.
          5    1    3    3  502    0 -0.34036574724E+01  0.60799686881E+02 -0.94621097348E+01  0.61767230225E+02  0.41800000000E+01 0. -1.
         -5    1    3    3    0  502 -0.34139006419E+02 -0.47516403043E+02  0.45869505111E+02  0.74463173559E+02  0.41800000000E+01 0. -1.
        -11    1    1    2    0    0  0.59492869642E+02 -0.21470529732E+00  0.20595703380E+02  0.62957371565E+02  0.00000000000E+00 0. -1.
         11    1    1    2    0    0 -0.21950205751E+02 -0.13068578541E+02 -0.17358088038E+02  0.30885312009E+02  0.00000000000E+00 0.  1.
</event>
<event>
 7    1  0.2612321E-009  0.5179658E+02  0.7561462E-02  0.1435885E+00
         -1   -1    0    0    0  501 -0.00000000000E+00  0.00000000000E+00  0.14327678005E+03  0.14327678005E+03  0.00000000000E+00 0.  1.
          1   -1    0    0  501    0  0.00000000000E+00 -0.00000000000E+00 -0.84716561879E+02  0.84716561879E+02  0.00000000000E+00 0. -1.
         25    2    1    2    0    0  0.16767329296E+01 -0.28669550155E+01  0.13142570790E+02  0.12582130551E+03  0.12508893992E+03 0.  0.
          5    1    3    3  502    0  0.11070655225E+02  0.13946713616E+02 -0.53387368915E+02  0.56433622845E+02  0.41800000000E+01 0. -1.
         -5    1    3    3    0  502 -0.93939222957E+01 -0.16813668631E+02  0.66529939705E+02  0.69387682668E+02  0.41800000000E+01 0. -1.
        -11    1    1    2    0    0  0.23775708736E+02 -0.20235124935E+02 -0.13456997077E+02  0.33997578993E+02  0.00000000000E+00 0. -1.
         11    1    1    2    0    0 -0.25452441666E+02  0.23102079951E+02  0.58874644454E+02  0.68174457419E+02  0.00000000000E+00 0.  1.
</event>
<event>
 7    1  0.2612321E-009  0.1182214E+03  0.7561462E-02  0.1246060E+00
          1   -1    0    0  501    0  0.00000000000E+00  0.00000000000E+00  0.17674574849E+04  0.17674574849E+04  0.00000000000E+00 0. -1.
         -1   -1    0    0    0  501 -0.00000000000E+00 -0.00000000000E+00 -0.93838768514E+01  0.93838768514E+01  0.00000000000E+00 0.  1.
         25    2    1    2    0    0  0.15194580381E+02 -0.38272171669E+02  0.12733733912E+04  0.12801653224E+04  0.12509126608E+03 0.  0.
          5    1    3    3  502    0  0.67747514237E+02 -0.34639943224E+02  0.87300020549E+03  0.87631985173E+03  0.41800000000E+01 0. -1.
         -5    1    3    3    0  502 -0.52552933857E+02 -0.36322284451E+01  0.40037318570E+03  0.40384547065E+03  0.41800000000E+01 0. -1.
        -11    1    1    2    0    0 -0.15687251885E+02 -0.32780122427E+02  0.13334413991E+03  0.13820740193E+03  0.00000000000E+00 0.  1.
         11    1    1    2    0    0  0.49267150406E+00  0.71052294097E+02  0.35135607695E+03  0.35846863744E+03  0.00000000000E+00 0. -1.
</event>
<event>
 7    1  0.2612321E-009  0.9862166E+02  0.7561462E-02  0.1283221E+00
          1   -1    0    0  501    0  0.00000000000E+00  0.00000000000E+00  0.24686762606E+03  0.24686762606E+03  0.00000000000E+00 0. -1.
         -1   -1    0    0    0  501 -0.00000000000E+00 -0.00000000000E+00 -0.62459801519E+02  0.62459801519E+02  0.00000000000E+00 0.  1.
         25    2    1    2    0    0 -0.30613478107E+02  0.20447208825E+02  0.16628477945E+03  0.21131371926E+03  0.12509031409E+03 0.  0.
          5    1    3    3  502    0  0.19410239831E+02 -0.29585033891E+02  0.12347798321E+03  0.12851582151E+03  0.41800000000E+01 0. -1.
         -5    1    3    3    0  502 -0.50023717937E+02  0.50032242716E+02  0.42806796247E+02  0.82797897754E+02  0.41800000000E+01 0. -1.
        -11    1    1    2    0    0 -0.36443373672E+00  0.30829636392E+02 -0.91915805596E+01  0.32172728283E+02  0.00000000000E+00 0.  1.
         11    1    1    2    0    0  0.30977911843E+02 -0.51276845217E+02  0.27314625643E+02  0.65840980033E+02  0.00000000000E+00 0. -1.
</event>
<event>
 7    1  0.3090309E-009  0.1434350E+03  0.7561462E-02  0.1208780E+00
         -3   -1    0    0    0  501 -0.00000000000E+00  0.00000000000E+00  0.54419350887E+02  0.54419350887E+02  0.00000000000E+00 0.  1.
          3   -1    0    0  501    0  0.00000000000E+00 -0.00000000000E+00 -0.58577252168E+03  0.58577252168E+03  0.00000000000E+00 0. -1.
         25    2    1    2    0    0  0.41856944542E+02  0.10727737428E+03 -0.13374282558E+03  0.21631909435E+03  0.12508544418E+03 0.  0.
          5    1    3    3  502    0  0.33629281335E+02  0.13206451131E+03 -0.84449822645E+02  0.16037832976E+03  0.41800000000E+01 0. -1.
         -5    1    3    3    0  502  0.82276632062E+01 -0.24787137031E+02 -0.49293002936E+02  0.55940764586E+02  0.41800000000E+01 0. -1.
        -11    1    1    2    0    0 -0.81694575136E+00 -0.65533163593E+02 -0.32009970059E+03  0.32674008210E+03  0.00000000000E+00 0. -1.
         11    1    1    2    0    0 -0.41039998790E+02 -0.41744210689E+02 -0.77510644627E+02  0.97132696128E+02  0.00000000000E+00 0.  1.
</event>
<event>
 7    1  0.2612321E-009  0.1181552E+03  0.7561462E-02  0.1246172E+00
         -1   -1    0    0    0  501 -0.00000000000E+00  0.00000000000E+00  0.49403152186E+02  0.49403152186E+02  0.00000000000E+00 0.  1.
          1   -1    0    0  501    0  0.00000000000E+00 -0.00000000000E+00 -0.65613950578E+03  0.65613950578E+03  0.00000000000E+00 0. -1.
         25    2    1    2    0    0  0.11070318409E+03  0.15180364173E+01 -0.14621114593E+03  0.22199753070E+03  0.12509078721E+03 0.  0.
          5    1    3    3  502    0  0.10667453526E+03  0.21014576245E+01 -0.16820981345E+03  0.19923826525E+03  0.41800000000E+01 0.  1.
         -5    1    3    3    0  502  0.40286488238E+01 -0.58342120719E+00  0.21998667519E+02  0.22759265460E+02  0.41800000000E+01 0.  1.
        -11    1    1    2    0    0 -0.34698292040E+02  0.25471809705E+02 -0.53800578777E+02  0.68900557595E+02  0.00000000000E+00 0.  1.
         11    1    1    2    0    0 -0.76004892047E+02 -0.26989846122E+02 -0.40672462889E+03  0.41464456967E+03  0.00000000000E+00 0. -1.
</event>
<event>
 7    1  0.2612321E-009  0.9403052E+02  0.7561462E-02  0.1293375E+00
         -2   -1    0    0    0  501 -0.00000000000E+00  0.00000000000E+00  0.15609431233E+02  0.15609431233E+02  0.00000000000E+00 0.  1.
          2   -1    0    0  501    0  0.00000000000E+00 -0.00000000000E+00 -0.10295971209E+04  0.10295971209E+04  0.00000000000E+00 0. -1.
         25    2    1    2    0    0  0.49832871876E+02 -0.26965553246E+02 -0.58704307694E+03  0.60289194645E+03  0.12509463909E+03 0.  0.
          5    1    3    3  502    0  0.30208411290E+02  0.10349134918E+02 -0.53416320776E+03  0.53513312141E+03  0.41800000000E+01 0. -1.
         -5    1    3    3    0  502  0.19624460586E+02 -0.37314688164E+02 -0.52879869180E+02  0.67758825038E+02  0.41800000000E+01 0. -1.
        -11    1    1    2    0    0 -0.66362328496E+02 -0.15302937585E+02 -0.21353844244E+03  0.22413568422E+03  0.00000000000E+00 0.  1.
         11    1    1    2    0    0  0.16529456620E+02  0.42268490831E+02 -0.21340617025E+03  0.21817892142E+03  0.00000000000E+00 0. -1.
</event>
<event>
 7    1  0.2612321E-009  0.1173727E+03  0.7561462E-02  0.1247495E+00
          2   -1    0    0  501    0  0.00000000000E+00  0.00000000000E+00  0.35622824788E+03  0.35622824788E+03  0.00000000000E+00 0.  1.
         -2   -1    0    0    0  501 -0.00000000000E+00 -0.00000000000E+00 -0.47610041842E+02  0.47610041842E+02  0.00000000000E+00 0. -1.
         25    2    1    2    0    0  0.67604829627E+02 -0.22580102999E+02  0.14998241833E+03  0.20790038982E+03  0.12509025637E+03 0.  0.
          5    1    3    3  502    0  0.80838141896E+01 -0.52464041423E+02  0.12634127136E+03  0.13710365766E+03  0.41800000000E+01 0. -1.
         -5    1    3    3    0  502  0.59521015437E+02  0.29883938424E+02  0.23641146966E+02  0.70796732158E+02  0.41800000000E+01 0. -1.
        -11    1    1    2    0    0 -0.40877312750E+02 -0.33363691034E+02  0.66644951955E+02  0.85003765788E+02  0.00000000000E+00 0. -1.
         11    1    1    2    0    0 -0.26727516876E+02  0.55943794033E+02  0.91990835753E+02  0.11093413411E+03  0.00000000000E+00 0.  1.
</event>
<event>
 7    1  0.3153968E-009  0.1441464E+03  0.7561462E-02  0.1207856E+00
         -1   -1    0    0    0  501 -0.00000000000E+00  0.00000000000E+00  0.11387758280E+03  0.11387758280E+03  0.00000000000E+00 0.  1.
          1   -1    0    0  501    0  0.00000000000E+00 -0.00000000000E+00 -0.22566162687E+03  0.22566162687E+03  0.00000000000E+00 0. -1.
         25    2    1    2    0    0  0.49493484897E+02 -0.98624747493E+02 -0.16738932239E+02  0.16764523545E+03  0.12509311433E+03 0.  0.
          5    1    3    3  502    0  0.43594248561E+02  0.19445040314E+02  0.15862761984E+01  0.47943266186E+02  0.41800000000E+01 0. -1.
         -5    1    3    3    0  502  0.58992363364E+01 -0.11806978781E+03 -0.18325208437E+02  0.11970196927E+03  0.41800000000E+01 0. -1.
        -11    1    1    2    0    0 -0.41741935781E+02  0.26279325430E+02 -0.85231836758E+02  0.98475672859E+02  0.00000000000E+00 0. -1.
         11    1    1    2    0    0 -0.77515491156E+01  0.72345422063E+02 -0.98132750775E+01  0.73418301362E+02  0.00000000000E+00 0.  1.
</event>
<event>
 7    1  0.2612321E-009  0.1148406E+03  0.7561462E-02  0.1251860E+00
          3   -1    0    0  501    0  0.00000000000E+00  0.00000000000E+00  0.14363612572E+02  0.14363612572E+02  0.00000000000E+00 0. -1.
         -3   -1    0    0    0  501 -0.00000000000E+00 -0.00000000000E+00 -0.12630397847E+04  0.12630397847E+04  0.00000000000E+00 0.  1.
         25    2    1    2    0    0  0.12532946876E+02  0.64270227395E+02 -0.90425031321E+03  0.91520693190E+03  0.12508941748E+03 0.  0.
          5    1    3    3  502    0 -0.19942380212E+02 -0.19553214536E+02 -0.51148120882E+03  0.51226021327E+03  0.41800000000E+01 0. -1.
         -5    1    3    3    0  502  0.32475327088E+02  0.83823441931E+02 -0.39276910439E+03  0.40294671863E+03  0.41800000000E+01 0. -1.
        -11    1    1    2    0    0 -0.86152612651E+01  0.22757559859E+02 -0.91868813724E+02  0.95036878066E+02  0.00000000000E+00 0.  1.
         11    1    1    2    0    0 -0.39176856109E+01 -0.87027787254E+02 -0.25255704522E+03  0.26715958733E+03  0.00000000000E+00 0. -1.
</event>
<event>
 7    1  0.2612321E-009  0.1923556E+03  0.7561462E-02  0.1156354E+00
         -1   -1    0    0    0  501 -0.00000000000E+00  0.00000000000E+00  0.27542352254E+02  0.27542352254E+02  0.00000000000E+00 0.  1.
          1   -1    0    0  501    0  0.00000000000E+00 -0.00000000000E+00 -0.15566863777E+04  0.15566863777E+04  0.00000000000E+00 0. -1.
         25    2    1    2    0    0 -0.13661386442E+03  0.97889361844E+02 -0.99516606581E+03  0.10169801377E+04  0.12508967548E+03 0.  0.
          5    1    3    3  502    0 -0.11487861361E+02  0.68971339582E+02 -0.21011531029E+03  0.22148348169E+03  0.41800000000E+01 0. -1.
         -5    1    3    3    0  502 -0.12512600306E+03  0.28918022262E+02 -0.78505075552E+03  0.79549665606E+03  0.41800000000E+01 0. -1.
        -11    1    1    2    0    0  0.99296110093E+02 -0.10879332011E+03 -0.46838658907E+03  0.49100071364E+03  0.00000000000E+00 0.  1.
         11    1    1    2    0    0  0.37317754325E+02  0.10903958269E+02 -0.65591370614E+02  0.76247878612E+02  0.00000000000E+00 0. -1.
</event>
<event>
 7    1  0.2612321E-009  0.1078176E+03  0.7561462E-02  0.1264666E+00
          2   -1    0    0  501    0  0.00000000000E+00  0.00000000000E+00  0.10664752691E+04  0.10664752691E+04  0.00000000000E+00 0. -1.
         -2   -1    0    0    0  501 -0.00000000000E+00 -0.00000000000E+00 -0.34389651482E+02  0.34389651482E+02  0.00000000000E+00 0.  1.
         25    2    1    2    0    0  0.29803284658E+02  0.64555511061E+02  0.94308180560E+03  0.95399463282E+03  0.12508723995E+03 0.  0.
          5    1    3    3  502    0  0.43168109406E+02  0.12768326199E+02  0.79853196025E+03  0.79981077748E+03  0.41800000000E+01 0.  1.
         -5    1    3    3    0  502 -0.13364824748E+02  0.51787184861E+02  0.14454984535E+03  0.15418385534E+03  0.41800000000E+01 0.  1.
        -11    1    1    2    0    0  0.74779388582E+01  0.21623666457E+02  0.15720939984E+02  0.27760592115E+02  0.00000000000E+00 0.  1.
         11    1    1    2    0    0 -0.37281223516E+02 -0.86179177518E+02  0.73282872026E+02  0.11910969565E+03  0.00000000000E+00 0. -1.
</event>
<event>
 7    1  0.2612321E-009  0.1161471E+03  0.7561462E-02  0.1249592E+00
         -2   -1    0    0    0  501 -0.00000000000E+00  0.00000000000E+00  0.16897384204E+03  0.16897384204E+03  0.00000000000E+00 0.  1.
          2   -1    0    0  501    0  0.00000000000E+00 -0.00000000000E+00 -0.10562652495E+03  0.10562652495E+03  0.00000000000E+00 0. -1.
         25    2    1    2    0    0  0.26669568244E+02 -0.30192068687E+02 -0.31445972088E+02  0.13512529197E+03  0.12508864252E+03 0.  0.
          5    1    3    3  502    0  0.57776544535E+02 -0.62429507997E+02 -0.11605224078E+02  0.85951883010E+02  0.41800000000E+01 0.  1.
         -5    1    3    3    0  502 -0.31106976291E+02  0.32237439310E+02 -0.19840748010E+02  0.49173408961E+02  0.41800000000E+01 0.  1.
        -11    1    1    2    0    0  0.29275742724E+02 -0.12429608117E+02  0.33352047708E+02  0.46086042966E+02  0.00000000000E+00 0.  1.
         11    1    1    2    0    0 -0.55945310968E+02  0.42621676804E+02  0.61441241477E+02  0.93389032049E+02  0.00000000000E+00 0. -1.
</event>
<event>
 7    1  0.2612321E-009  0.1059779E+03  0.7561462E-02  0.1268205E+00
         -2   -1    0    0    0  501 -0.00000000000E+00  0.00000000000E+00  0.19460089399E+02  0.19460089399E+02  0.00000000000E+00 0.  1.
          2   -1    0    0  501    0  0.00000000000E+00 -0.00000000000E+00 -0.12141514753E+04  0.12141514753E+04  0.00000000000E+00 0. -1.
         25    2    1    2    0    0 -0.93901122195E+02  0.98281381166E+01 -0.85168425533E+03  0.86598650267E+03  0.12511010740E+03 0.  0.
          5    1    3    3  502    0 -0.97590897947E+02  0.19865355209E+02 -0.84812939159E+03  0.85396695075E+03  0.41800000000E+01 0.  1.
         -5    1    3    3    0  502  0.36897757521E+01 -0.10037217093E+02 -0.35548637459E+01  0.12019551918E+02  0.41800000000E+01 0.  1.
        -11    1    1    2    0    0  0.66891592536E+02  0.95253654593E+01 -0.32037429539E+03  0.32742160418E+03  0.00000000000E+00 0. -1.
         11    1    1    2    0    0  0.27009529659E+02 -0.19353503576E+02 -0.22632835132E+02  0.40203457801E+02  0.00000000000E+00 0.  1.
</event>
<event>
 7    1  0.2612321E-009  0.9778566E+02  0.7561462E-02  0.1285023E+00
          1   -1    0    0  501    0  0.00000000000E+00  0.00000000000E+00  0.11640904857E+03  0.11640904857E+03  0.00000000000E+00 0. -1.
         -1   -1    0    0    0  501 -0.00000000000E+00 -0.00000000000E+00 -0.13112709004E+03  0.13112709004E+03  0.00000000000E+00 0.  1.
         25    2    1    2    0    0  0.16685343804E+02  0.12341809430E+02  0.47578881349E+02  0.13542792601E+03  0.12508498005E+03 0.  0.
          5    1    3    3  502    0 -0.47820673458E+02 -0.24020340419E+00 -0.87193061529E+01  0.48789068524E+02  0.41800000000E+01 0. -1.
         -5    1    3    3    0  502  0.64506017262E+02  0.12582012834E+02  0.56298187502E+02  0.86638857483E+02  0.41800000000E+01 0. -1.
        -11    1    1    2    0    0  0.15626532705E+01 -0.44612867502E+02 -0.60241030596E+02  0.74978207496E+02  0.00000000000E+00 0.  1.
         11    1    1    2    0    0 -0.18247997074E+02  0.32271058072E+02 -0.20558922247E+01  0.37130005105E+02  0.00000000000E+00 0. -1.
</event>
<event>
 7    1  0.2612321E-009  0.1246648E+03  0.7561462E-02  0.1235594E+00
         -1   -1    0    0    0  501 -0.00000000000E+00  0.00000000000E+00  0.19448792553E+02  0.19448792553E+02  0.00000000000E+00 0.  1.
          1   -1    0    0  501    0  0.00000000000E+00 -0.00000000000E+00 -0.11548706545E+04  0.11548706545E+04  0.00000000000E+00 0. -1.
         25    2    1    2    0    0  0.63419659487E+02  0.14027096161E+02 -0.91799463517E+03  0.92875265786E+03  0.12509411112E+03 0.  0.
          5    1    3    3  502    0 -0.31794851497E+02  0.30078504672E+02 -0.25812733440E+03  0.26184503469E+03  0.41800000000E+01 0. -1.
         -5    1    3    3    0  502  0.95214510984E+02 -0.16051408510E+02 -0.65986730077E+03  0.66690762317E+03  0.41800000000E+01 0. -1.
        -11    1    1    2    0    0 -0.79107095599E+02  0.10292542812E+02 -0.12132868537E+03  0.14520509256E+03  0.00000000000E+00 0.  1.
         11    1    1    2    0    0  0.15687436111E+02 -0.24319638974E+02 -0.96098541436E+02  0.10036169667E+03  0.00000000000E+00 0. -1.
</event>
<event>
 7    1  0.2612321E-009  0.1381098E+03  0.7561462E-02  0.1215895E+00
          4   -1    0    0  501    0  0.00000000000E+00  0.00000000000E+00  0.11680586637E+03  0.11680586637E+03  0.00000000000E+00 0. -1.
         -4   -1    0    0    0  501 -0.00000000000E+00 -0.00000000000E+00 -0.21880856816E+03  0.21880856816E+03  0.00000000000E+00 0.  1.
         25    2    1    2    0    0  0.60412918302E+02 -0.10057898623E+03 -0.55195046489E+02  0.18016503344E+03  0.12508834057E+03 0.  0.
          5    1    3    3  502    0  0.55564787606E+02 -0.42689078893E+02  0.30513519094E+02  0.76539861026E+02  0.41800000000E+01 0.  1.
         -5    1    3    3    0  502  0.48481306961E+01 -0.57889907341E+02 -0.85708565583E+02  0.10362517241E+03  0.41800000000E+01 0.  1.
        -11    1    1    2    0    0 -0.79491060573E+02  0.50458171347E+02 -0.35619246730E+02  0.10066571663E+03  0.00000000000E+00 0. -1.
         11    1    1    2    0    0  0.19078142271E+02  0.50120814887E+02 -0.11188408575E+02  0.54783684469E+02  0.00000000000E+00 0.  1.
</event>
<event>
 7    1  0.2612321E-009  0.1007620E+03  0.7561462E-02  0.1278702E+00
         -2   -1    0    0    0  501 -0.00000000000E+00  0.00000000000E+00  0.28689429378E+03  0.28689429378E+03  0.00000000000E+00 0.  1.
          2   -1    0    0  501    0  0.00000000000E+00 -0.00000000000E+00 -0.75454964299E+02  0.75454964299E+02  0.00000000000E+00 0. -1.
         25    2    1    2    0    0 -0.53274888043E+02  0.95164713384E+01  0.12985151965E+02  0.13690976005E+03  0.12508753457E+03 0.  0.
          5    1    3    3  502    0  0.12143233712E+02  0.49005732834E+02  0.29496034317E+02  0.58621740131E+02  0.41800000000E+01 0. -1.
         -5    1    3    3    0  502 -0.65418121755E+02 -0.39489261495E+02 -0.16510882352E+02  0.78288019922E+02  0.41800000000E+01 0. -1.
        -11    1    1    2    0    0  0.61122201141E+02 -0.17052579839E+02  0.20370418476E+03  0.21335910771E+03  0.00000000000E+00 0.  1.
         11    1    1    2    0    0 -0.78473130978E+01  0.75361085009E+01 -0.52500072462E+01  0.12080390320E+02  0.00000000000E+00 0. -1.
</event>
<event>
 7    1  0.2612321E-009  0.1044104E+03  0.7561462E-02  0.1271286E+00
          3   -1    0    0  501    0  0.00000000000E+00  0.00000000000E+00  0.54516236124E+02  0.54516236124E+02  0.00000000000E+00 0. -1.
         -3   -1    0    0    0  501 -0.00000000000E+00 -0.00000000000E+00 -0.26610276397E+03  0.26610276397E+03  0.00000000000E+00 0.  1.
         25    2    1    2    0    0 -0.37714514245E+02  0.41430983122E+02 -0.12288426357E+03  0.18408985753E+03  0.12509845109E+03 0.  0.
          5    1    3    3  502    0 -0.44216728974E+02 -0.31819659798E+02 -0.21365853762E+02  0.58664997893E+02  0.41800000000E+01 0. -1.
         -5    1    3    3    0  502  0.65022147287E+01  0.73250642920E+02 -0.10151840981E+03  0.12542485963E+03  0.41800000000E+01 0. -1.
        -11    1    1    2    0    0  0.29607040786E+02  0.78130363579E+01 -0.80273535169E+02  0.85915428473E+02  0.00000000000E+00 0.  1.
         11    1    1    2    0    0  0.81074734594E+01 -0.49244019480E+02 -0.84287291131E+01  0.50613714099E+02  0.00000000000E+00 0. -1.
</event>
<event>
 7    1  0.2612321E-009  0.1447733E+03  0.7561462E-02  0.1207047E+00
          1   -1    0    0  501    0  0.00000000000E+00  0.00000000000E+00  0.39944440127E+03  0.39944440127E+03  0.00000000000E+00 0. -1.
         -1   -1    0    0    0  501 -0.00000000000E+00 -0.00000000000E+00 -0.64835517716E+02  0.64835517716E+02  0.00000000000E+00 0.  1.
         25    2    1    2    0    0 -0.32396282672E+02  0.10344110673E+03  0.10046011693E+03  0.19362309742E+03  0.12509231419E+03 0.  0.
          5    1    3    3  502    0 -0.13903417968E+01 -0.23061490368E+02  0.47447650695E+02  0.52938807550E+02  0.41800000000E+01 0.  1.
         -5    1    3    3    0  502 -0.31005940875E+02  0.12650259709E+03  0.53012466234E+02  0.14068428987E+03  0.41800000000E+01 0.  1.
        -11    1    1    2    0    0 -0.27446409413E+02 -0.40316105468E+02  0.84637909814E+02  0.97684540883E+02  0.00000000000E+00 0. -1.
         11    1    1    2    0    0  0.59842692085E+02 -0.63125001257E+02  0.14951085681E+03  0.17297228068E+03  0.00000000000E+00 0.  1.
</event>
<event>
 7    1  0.2612321E-009  0.9114318E+02  0.7561462E-02  0.1300107E+00
         -1   -1    0    0    0  501 -0.00000000000E+00  0.00000000000E+00  0.25071793790E+03  0.25071793790E+03  0.00000000000E+00 0.  1.
          1   -1    0    0  501    0  0.00000000000E+00 -0.00000000000E+00 -0.72630744426E+02  0.72630744426E+02  0.00000000000E+00 0. -1.
         25    2    1    2    0    0 -0.25376933354E+02  0.70323055952E+02  0.13618104798E+03  0.19945528861E+03  0.12509122024E+03 0.  0.
          5    1    3    3  502    0 -0.65784992690E+01  0.40946550872E+02 -0.14960826232E+02  0.44285385880E+02  0.41800000000E+01 0. -1.
         -5    1    3    3    0  502 -0.18798434085E+02  0.29376505080E+02  0.15114187421E+03  0.15516990273E+03  0.41800000000E+01 0. -1.
        -11    1    1    2    0    0  0.33718704931E+02  0.93727803013E+00  0.39723608306E+02  0.52113286302E+02  0.00000000000E+00 0.  1.
         11    1    1    2    0    0 -0.83417715774E+01 -0.71260333982E+02  0.21825371970E+01  0.71780107418E+02  0.00000000000E+00 0. -1.
</event>
<event>
 7    1  0.2612321E-009  0.1132797E+03  0.7561462E-02  0.1254614E+00
          1   -1    0    0  501    0  0.00000000000E+00  0.00000000000E+00  0.14905993616E+03  0.14905993616E+03  0.00000000000E+00 0. -1.
         -1   -1    0    0    0  501 -0.00000000000E+00 -0.00000000000E+00 -0.11973935870E+03  0.11973935870E+03  0.00000000000E+00 0.  1.
         25    2    1    2    0    0  0.57225848647E+02 -0.24288646261E+02 -0.31175399400E+02  0.14312375298E+03  0.12509103505E+03 0.  0.
          5    1    3    3  502    0 -0.29043393899E+02  0.20777817499E+02 -0.28137361646E+02  0.45655448192E+02  0.41800000000E+01 0.  1.
         -5    1    3    3    0  502  0.86269242546E+02 -0.45066463761E+02 -0.30380377546E+01  0.97468304791E+02  0.41800000000E+01 0.  1.
        -11    1    1    2    0    0 -0.10422802345E+02 -0.23859577679E+02  0.51789420035E+02  0.57966009724E+02  0.00000000000E+00 0. -1.
         11    1    1    2    0    0 -0.46803046303E+02  0.48148223940E+02  0.87065568230E+01  0.67709532146E+02  0.00000000000E+00 0.  1.
</event>
<event>
 7    1  0.2612321E-009  0.1085924E+03  0.7561462E-02  0.1263199E+00
          3   -1    0    0  501    0  0.00000000000E+00  0.00000000000E+00  0.25961065599E+02  0.25961065599E+02  0.00000000000E+00 0. -1.
         -3   -1    0    0    0  501 -0.00000000000E+00 -0.00000000000E+00 -0.67744412623E+03  0.67744412623E+03  0.00000000000E+00 0.  1.
         25    2    1    2    0    0 -0.50679304423E+02 -0.47824531380E+02 -0.42191132172E+03  0.44554918365E+03  0.12509729795E+03 0.  0.
          5    1    3    3  502    0  0.35682826253E+02 -0.18180161978E+02 -0.59888220376E+02  0.72165460705E+02  0.41800000000E+01 0.  1.
         -5    1    3    3    0  502 -0.86362130676E+02 -0.29644369403E+02 -0.36202310135E+03  0.37338372295E+03  0.41800000000E+01 0.  1.
        -11    1    1    2    0    0  0.20487794254E+02  0.51189913177E+02 -0.46054206759E+02  0.71841122518E+02  0.00000000000E+00 0. -1.
         11    1    1    2    0    0  0.30191510169E+02 -0.33653817969E+01 -0.18351753215E+03  0.18601488566E+03  0.00000000000E+00 0.  1.
</event>
<event>
 7    1  0.2612321E-009  0.1156847E+03  0.7561462E-02  0.1250391E+00
         -2   -1    0    0    0  501 -0.00000000000E+00  0.00000000000E+00  0.11111601208E+03  0.11111601208E+03  0.00000000000E+00 0. -1.
          2   -1    0    0  501    0  0.00000000000E+00 -0.00000000000E+00 -0.25892455341E+03  0.25892455341E+03  0.00000000000E+00 0.  1.
         25    2    1    2    0    0 -0.61422251677E+02  0.27821372425E+02  0.42778412158E+02  0.14840537390E+03  0.12508973055E+03 0.  0.
          5    1    3    3  502    0 -0.28169821254E+02  0.67589821717E+02  0.58780455281E+02  0.93992218573E+02  0.41800000000E+01 0. -1.
         -5    1    3    3    0  502 -0.33252430423E+02 -0.39768449292E+02 -0.16002043123E+02  0.54413155323E+02  0.41800000000E+01 0. -1.
        -11    1    1    2    0    0  0.69243592239E+02 -0.48081889832E+02 -0.11247440961E+03  0.14055972401E+03  0.00000000000E+00 0.  1.
         11    1    1    2    0    0 -0.78213405616E+01  0.20260517406E+02 -0.78112543876E+02  0.81075467588E+02  0.00000000000E+00 0. -1.
</event>
<event>
 7    1  0.2612321E-009  0.8925472E+02  0.7561462E-02  0.1304667E+00
          2   -1    0    0  501    0  0.00000000000E+00  0.00000000000E+00  0.18637842599E+02  0.18637842599E+02  0.00000000000E+00 0.  1.
         -2   -1    0    0    0  501 -0.00000000000E+00 -0.00000000000E+00 -0.67689789245E+03  0.67689789245E+03  0.00000000000E+00 0. -1.
         25    2    1    2    0    0 -0.67413265916E+01 -0.32437874016E+02 -0.38679829048E+03  0.40786759050E+03  0.12508154422E+03 0.  0.
          5    1    3    3  502    0  0.38829693306E+02 -0.18055808065E+02 -0.43320960320E+02  0.61056820178E+02  0.41800000000E+01 0. -1.
         -5    1    3    3    0  502 -0.45571019898E+02 -0.14382065951E+02 -0.34347733016E+03  0.34681077032E+03  0.41800000000E+01 0. -1.
        -11    1    1    2    0    0  0.43425541629E+02  0.10169439626E+02 -0.81359725657E+02  0.92782542146E+02  0.00000000000E+00 0.  1.
         11    1    1    2    0    0 -0.36684215038E+02  0.22268434390E+02 -0.19010203371E+03  0.19488560240E+03  0.00000000000E+00 0. -1.
</event>
<event>
 7    1  0.2612321E-009  0.1038055E+03  0.7561462E-02  0.1272491E+00
         -1   -1    0    0    0  501 -0.00000000000E+00  0.00000000000E+00  0.52904294400E+02  0.52904294400E+02  0.00000000000E+00 0.  1.
          1   -1    0    0  501    0  0.00000000000E+00 -0.00000000000E+00 -0.27768385095E+03  0.27768385095E+03  0.00000000000E+00 0. -1.
         25    2    1    2    0    0  0.39947685711E+02  0.31152158516E+01 -0.71727917348E+02  0.14965898252E+03  0.12508954696E+03 0.  0.
          5    1    3    3  502    0  0.42456417016E+01  0.61137048427E+02 -0.45899883323E+02  0.76681391829E+02  0.41800000000E+01 0.  1.
         -5    1    3    3    0  502  0.35702044009E+02 -0.58021832575E+02 -0.25828034025E+02  0.72977590694E+02  0.41800000000E+01 0.  1.
        -11    1    1    2    0    0 -0.36040738464E+02 -0.32353261110E+02 -0.14096153354E+03  0.14904973086E+03  0.00000000000E+00 0. -1.
         11    1    1    2    0    0 -0.39069472464E+01  0.29238045259E+02 -0.12090105664E+02  0.31879431964E+02  0.00000000000E+00 0.  1.
</event>
<event>
 7    1  0.2612321E-009  0.1136840E+03  0.7561462E-02  0.1253896E+00
          3   -1    0    0  501    0  0.00000000000E+00  0.00000000000E+00  0.74525965689E+02  0.74525965689E+02  0.00000000000E+00 0. -1.
         -3   -1    0    0    0  501 -0.00000000000E+00 -0.00000000000E+00 -0.25532170467E+03  0.25532170467E+03  0.00000000000E+00 0.  1.
         25    2    1    2    0    0 -0.39829072895E+02  0.48681120829E+02 -0.16795522722E+03  0.21866131929E+03  0.12509039783E+03 0.  0.
          5    1    3    3  502    0 -0.33408040392E+02  0.84241204432E+02 -0.15583652058E+03  0.18031963629E+03  0.41800000000E+01 0.  1.
         -5    1    3    3    0  502 -0.64210325028E+01 -0.35560083603E+02 -0.12118706638E+02  0.38341682994E+02  0.41800000000E+01 0.  1.
        -11    1    1    2    0    0  0.31671653602E+02 -0.70332441037E+02  0.11057565420E+02  0.77923139420E+02  0.00000000000E+00 0. -1.
         11    1    1    2    0    0  0.81574192930E+01  0.21651320208E+02 -0.23898077182E+02  0.33263211650E+02  0.00000000000E+00 0.  1.
</event>
<event>
 7    1  0.2612321E-009  0.1253514E+03  0.7561462E-02  0.1234521E+00
         -1   -1    0    0    0  501 -0.00000000000E+00  0.00000000000E+00  0.51865913519E+02  0.51865913519E+02  0.00000000000E+00 0.  1.
          1   -1    0    0  501    0  0.00000000000E+00 -0.00000000000E+00 -0.39498499190E+03  0.39498499190E+03  0.00000000000E+00 0. -1.
         25    2    1    2    0    0  0.14973079125E+02 -0.88949871541E+02 -0.21231226351E+03  0.26241267214E+03  0.12509052928E+03 0.  0.
          5    1    3    3  502    0 -0.16508817513E+02 -0.89232626071E+02 -0.21200888919E+03  0.23065178107E+03  0.41800000000E+01 0. -1.
         -5    1    3    3    0  502  0.31481896638E+02  0.28275452946E+00 -0.30337432027E+00  0.31760891077E+02  0.41800000000E+01 0. -1.
        -11    1    1    2    0    0 -0.42177398544E+02  0.91523580957E+02 -0.11485226712E+03  0.15279575282E+03  0.00000000000E+00 0. -1.
         11    1    1    2    0    0  0.27204319420E+02 -0.25737094160E+01 -0.15954547748E+02  0.31642480451E+02  0.00000000000E+00 0.  1.
</event>
<event>
 7    1  0.2612321E-009  0.3802593E+03  0.7561462E-02  0.1050838E+00
          2   -1    0    0  501    0  0.00000000000E+00  0.00000000000E+00  0.12524102563E+04  0.12524102563E+04  0.00000000000E+00 0. -1.
         -2   -1    0    0    0  501 -0.00000000000E+00 -0.00000000000E+00 -0.11929675150E+03  0.11929675150E+03  0.00000000000E+00 0.  1.
         25    2    1    2    0    0 -0.88084203487E+01 -0.36693078640E+03  0.66701014841E+03  0.77153456921E+03  0.12508902081E+03 0.  0.
          5    1    3    3  502    0  0.12056385782E+02  0.60604895879E+01  0.26510353063E+02  0.30039260838E+02  0.41800000000E+01 0. -1.
         -5    1    3    3    0  502 -0.20864806130E+02 -0.37299127599E+03  0.64049979535E+03  0.74149530837E+03  0.41800000000E+01 0. -1.
        -11    1    1    2    0    0 -0.27412462818E+02  0.20737407076E+03  0.21104160602E+03  0.29714307633E+03  0.00000000000E+00 0.  1.
         11    1    1    2    0    0  0.36220883167E+02  0.15955671565E+03  0.25506175035E+03  0.30302936223E+03  0.00000000000E+00 0. -1.
</event>
<event>
 7    1  0.2612321E-009  0.1220020E+03  0.7561462E-02  0.1239831E+00
         -1   -1    0    0    0  501 -0.00000000000E+00  0.00000000000E+00  0.15849130409E+02  0.15849130409E+02  0.00000000000E+00 0.  1.
          1   -1    0    0  501    0  0.00000000000E+00 -0.00000000000E+00 -0.12983744103E+04  0.12983744103E+04  0.00000000000E+00 0. -1.
         25    2    1    2    0    0 -0.74851392512E+01 -0.63751403289E+02 -0.10161072586E+04  0.10257885445E+04  0.12509160016E+03 0.  0.
          5    1    3    3  502    0 -0.74463234063E+00 -0.10126197919E+03 -0.68223405245E+03  0.68972118833E+03  0.41800000000E+01 0. -1.
         -5    1    3    3    0  502 -0.67405069105E+01  0.37510575896E+02 -0.33387320614E+03  0.33606735622E+03  0.41800000000E+01 0. -1.
        -11    1    1    2    0    0 -0.30105160798E+02 -0.23023577715E+00 -0.39330819876E+02  0.49530668351E+02  0.00000000000E+00 0. -1.
         11    1    1    2    0    0  0.37590300049E+02  0.63981639067E+02 -0.22708720140E+03  0.23890432779E+03  0.00000000000E+00 0.  1.
</event>
<event>
 7    1  0.2612321E-009  0.1709993E+03  0.7561462E-02  0.1176810E+00
         -1   -1    0    0    0  501 -0.00000000000E+00  0.00000000000E+00  0.87125582701E+02  0.87125582701E+02  0.00000000000E+00 0.  1.
          1   -1    0    0  501    0  0.00000000000E+00 -0.00000000000E+00 -0.42323635105E+03  0.42323635105E+03  0.00000000000E+00 0. -1.
         25    2    1    2    0    0 -0.37692075561E+02 -0.15147524464E+03 -0.14784500109E+03  0.24873650162E+03  0.12508501345E+03 0.  0.
          5    1    3    3  502    0 -0.38914779816E+02 -0.14778416705E+02  0.66958259394E+01  0.42368244871E+02  0.41800000000E+01 0. -1.
         -5    1    3    3    0  502  0.12227042557E+01 -0.13669682793E+03 -0.15454082703E+03  0.20636825675E+03  0.41800000000E+01 0. -1.
        -11    1    1    2    0    0  0.71367763544E+01  0.11744486375E+03 -0.18015847570E+03  0.21517738256E+03  0.00000000000E+00 0. -1.
         11    1    1    2    0    0  0.30555299206E+02  0.34030380884E+02 -0.81072915562E+01  0.46448049572E+02  0.00000000000E+00 0.  1.
</event>
<event>
 7    1  0.2612321E-009  0.1911208E+03  0.7561462E-02  0.1157454E+00
         -2   -1    0    0    0  501 -0.00000000000E+00  0.00000000000E+00  0.35747866479E+02  0.35747866479E+02  0.00000000000E+00 0.  1.
          2   -1    0    0  501    0  0.00000000000E+00 -0.00000000000E+00 -0.14907751253E+04  0.14907751253E+04  0.00000000000E+00 0. -1.
         25    2    1    2    0    0 -0.18166199521E+03 -0.17110438290E+02 -0.10483794208E+04  0.10714685981E+04  0.12510675094E+03 0.  0.
          5    1    3    3  502    0 -0.10436918668E+03 -0.40553827640E+02 -0.84818586840E+03  0.85555495430E+03  0.41800000000E+01 0. -1.
         -5    1    3    3    0  502 -0.77292808529E+02  0.23443389350E+02 -0.20019355243E+03  0.21591364383E+03  0.41800000000E+01 0. -1.
        -11    1    1    2    0    0  0.72535383568E+01  0.12965687519E+02 -0.27764417056E+01  0.15113950512E+02  0.00000000000E+00 0.  1.
         11    1    1    2    0    0  0.17440845685E+03  0.41447507709E+01 -0.40387139629E+03  0.43994044315E+03  0.00000000000E+00 0. -1.
</event>
<event>
 7    1  0.2612321E-009  0.3739760E+03  0.7561462E-02  0.1053183E+00
          1   -1    0    0  501    0  0.00000000000E+00  0.00000000000E+00  0.43941699477E+03  0.43941699477E+03  0.00000000000E+00 0. -1.
         -1   -1    0    0    0  501 -0.00000000000E+00 -0.00000000000E+00 -0.36568234943E+03  0.36568234943E+03  0.00000000000E+00 0.  1.
         25    2    1    2    0    0  0.35916887046E+03 -0.82617776440E+02 -0.76396550544E+02  0.39662594132E+03  0.12509088657E+03 0.  0.
          5    1    3    3  502    0  0.34272046169E+02 -0.16469726547E+02 -0.51433340407E+02  0.64099032337E+02  0.41800000000E+01 0.  1.
         -5    1    3    3    0  502  0.32489682429E+03 -0.66148049893E+02 -0.24963210137E+02  0.33252690898E+03  0.41800000000E+01 0.  1.
        -11    1    1    2    0    0 -0.22693207644E+03  0.97850746286E+01  0.10935497011E+03  0.25209606203E+03  0.00000000000E+00 0. -1.
         11    1    1    2    0    0 -0.13223679401E+03  0.72832701811E+02  0.40776225769E+02  0.15637734085E+03  0.00000000000E+00 0.  1.
</event>
<event>
 7    1  0.2612321E-009  0.1143464E+03  0.7561462E-02  0.1252726E+00
          1   -1    0    0  501    0  0.00000000000E+00  0.00000000000E+00  0.80834927950E+02  0.80834927950E+02  0.00000000000E+00 0. -1.
         -1   -1    0    0    0  501 -0.00000000000E+00 -0.00000000000E+00 -0.24920445938E+03  0.24920445938E+03  0.00000000000E+00 0.  1.
         25    2    1    2    0    0  0.12772231401E+02 -0.90132803075E+02 -0.89821763380E+02  0.17889249593E+03  0.12509006291E+03 0.  0.
          5    1    3    3  502    0  0.32836999834E+02 -0.10011267375E+03 -0.10709459524E+03  0.15029151917E+03  0.41800000000E+01 0. -1.
         -5    1    3    3    0  502 -0.20064768433E+02  0.99798706786E+01  0.17272831863E+02  0.28600976760E+02  0.41800000000E+01 0. -1.
        -11    1    1    2    0    0 -0.23868469815E+02  0.25708058879E+02 -0.78271277637E+02  0.85772962206E+02  0.00000000000E+00 0.  1.
         11    1    1    2    0    0  0.11096238414E+02  0.64424744196E+02 -0.27649041494E+00  0.65373929197E+02  0.00000000000E+00 0. -1.
</event>
<event>
 7    1  0.2612321E-009  0.1584444E+03  0.7561462E-02  0.1190464E+00
          1   -1    0    0  501    0  0.00000000000E+00  0.00000000000E+00  0.97879708823E+02  0.97879708823E+02  0.00000000000E+00 0. -1.
         -1   -1    0    0    0  501 -0.00000000000E+00 -0.00000000000E+00 -0.29029723030E+03  0.29029723030E+03  0.00000000000E+00 0.  1.
         25    2    1    2    0    0 -0.11624618250E+03  0.37838508752E+02 -0.55990373952E+02  0.18365024498E+03  0.12509021871E+03 0.  0.
          5    1    3    3  502    0 -0.72530312745E+02  0.77724051362E+02 -0.63423877996E+02  0.12386175813E+03  0.41800000000E+01 0. -1.
         -5    1    3    3    0  502 -0.43715869750E+02 -0.39885542610E+02  0.74335040441E+01  0.59788486849E+02  0.41800000000E+01 0. -1.
        -11    1    1    2    0    0  0.16701441635E+02 -0.48275055466E+02 -0.58598126170E+02  0.77737761246E+02  0.00000000000E+00 0. -1.
         11    1    1    2    0    0  0.99544740861E+02  0.10436546714E+02 -0.77829021355E+02  0.12678893290E+03  0.00000000000E+00 0.  1.
</event>
<event>
 7    1  0.2612321E-009  0.1024432E+03  0.7561462E-02  0.1275241E+00
          2   -1    0    0  501    0  0.00000000000E+00  0.00000000000E+00  0.16247915677E+03  0.16247915677E+03  0.00000000000E+00 0. -1.
         -2   -1    0    0    0  501 -0.00000000000E+00 -0.00000000000E+00 -0.10196883865E+03  0.10196883865E+03  0.00000000000E+00 0.  1.
         25    2    1    2    0    0  0.71892540661E+02  0.11168740016E+01  0.69112753217E+02  0.15998755430E+03  0.12509860136E+03 0.  0.
          5    1    3    3  502    0  0.58126648361E+02 -0.32487645271E+02 -0.14902388613E+02  0.68364522461E+02  0.41800000000E+01 0.  1.
         -5    1    3    3    0  502  0.13765892300E+02  0.33604519273E+02  0.84015141830E+02  0.91623031837E+02  0.41800000000E+01 0.  1.
        -11    1    1    2    0    0 -0.20043005759E+02  0.33662451086E+02  0.77140447427E+01  0.39929803146E+02  0.00000000000E+00 0.  1.
         11    1    1    2    0    0 -0.51849534902E+02 -0.34779325087E+02 -0.16316479847E+02  0.64530637976E+02  0.00000000000E+00 0. -1.
</event>
<event>
 7    1  0.2612321E-009  0.7779166E+02  0.7561462E-02  0.1335438E+00
          1   -1    0    0  501    0  0.00000000000E+00  0.00000000000E+00  0.67372017611E+02  0.67372017611E+02  0.00000000000E+00 0. -1.
         -1   -1    0    0    0  501 -0.00000000000E+00 -0.00000000000E+00 -0.16948176603E+03  0.16948176603E+03  0.00000000000E+00 0.  1.
         25    2    1    2    0    0  0.17629263320E+02  0.29963353325E+02 -0.89695601920E+02  0.15780601048E+03  0.12509533353E+03 0.  0.
          5    1    3    3  502    0  0.71562694930E+00 -0.35698763267E+02 -0.81879142541E+02  0.89423599815E+02  0.41800000000E+01 0. -1.
         -5    1    3    3    0  502  0.16913636371E+02  0.65662116592E+02 -0.78164593794E+01  0.68382410661E+02  0.41800000000E+01 0. -1.
        -11    1    1    2    0    0  0.11165077682E+02 -0.15956176228E+01 -0.32146550796E+02  0.34067663309E+02  0.00000000000E+00 0.  1.
         11    1    1    2    0    0 -0.28794341003E+02 -0.28367735703E+02  0.19732404302E+02  0.44980109851E+02  0.00000000000E+00 0. -1.
</event>
<event>
 7    1  0.2612321E-009  0.9677951E+02  0.7561462E-02  0.1287218E+00
          4   -1    0    0  501    0  0.00000000000E+00  0.00000000000E+00  0.15505016845E+03  0.15505016845E+03  0.00000000000E+00 0. -1.
         -4   -1    0    0    0  501 -0.00000000000E+00 -0.00000000000E+00 -0.89331037185E+02  0.89331037185E+02  0.00000000000E+00 0.  1.
         25    2    1    2    0    0 -0.38733475053E+02 -0.21976951886E+02  0.23399562152E+02  0.13482559535E+03  0.12508850127E+03 0.  0.
          5    1    3    3  502    0 -0.21377540050E+02 -0.68641066461E+02  0.39749204451E+02  0.82256105414E+02  0.41800000000E+01 0. -1.
         -5    1    3    3    0  502 -0.17355935003E+02  0.46664114575E+02 -0.16349642299E+02  0.52569489937E+02  0.41800000000E+01 0. -1.
        -11    1    1    2    0    0  0.56768174753E+01 -0.18483070483E+02 -0.20278231862E+02  0.28018865762E+02  0.00000000000E+00 0.  1.
         11    1    1    2    0    0  0.33056657578E+02  0.40460022369E+02  0.62597800974E+02  0.81536744521E+02  0.00000000000E+00 0. -1.
</event>
<event>
 7    1  0.2612321E-009  0.2438318E+03  0.7561462E-02  0.1117266E+00
          2   -1    0    0  501    0  0.00000000000E+00  0.00000000000E+00  0.10828835005E+04  0.10828835005E+04  0.00000000000E+00 0. -1.
         -2   -1    0    0    0  501 -0.00000000000E+00 -0.00000000000E+00 -0.85136335949E+02  0.85136335949E+02  0.00000000000E+00 0.  1.
         25    2    1    2    0    0  0.22668164231E+03 -0.62319954952E+02  0.20497672703E+03  0.33605186511E+03  0.12508818358E+03 0.  0.
          5    1    3    3  502    0  0.40634096293E+02 -0.48993715903E+01  0.11380984973E+03  0.12101771738E+03  0.41800000000E+01 0.  1.
         -5    1    3    3    0  502  0.18604754602E+03 -0.57420583361E+02  0.91166877303E+02  0.21503414773E+03  0.41800000000E+01 0.  1.
        -11    1    1    2    0    0 -0.22277679654E+03  0.77672592851E+02  0.72736368636E+03  0.76467016745E+03  0.00000000000E+00 0. -1.
         11    1    1    2    0    0 -0.39048457743E+01 -0.15352637900E+02  0.65406751199E+02  0.67297803927E+02  0.00000000000E+00 0.  1.
</event>
<event>
 7    1  0.2612321E-009  0.1051456E+03  0.7561462E-02  0.1269833E+00
         -1   -1    0    0    0  501 -0.00000000000E+00  0.00000000000E+00  0.42127355997E+03  0.42127355997E+03  0.00000000000E+00 0.  1.
          1   -1    0    0  501    0  0.00000000000E+00 -0.00000000000E+00 -0.43003788165E+02  0.43003788165E+02  0.00000000000E+00 0. -1.
         25    2    1    2    0    0 -0.74650789150E+02  0.29901854575E+02  0.21513224269E+03  0.26153001847E+03  0.12509679249E+03 0.  0.
          5    1    3    3  502    0 -0.72437567051E+02  0.62080143431E+02  0.86482073104E+02  0.12883232008E+03  0.41800000000E+01 0. -1.
         -5    1    3    3    0  502 -0.22132220988E+01 -0.32178288855E+02  0.12865016958E+03  0.13269769839E+03  0.41800000000E+01 0. -1.
        -11    1    1    2    0    0  0.48832037360E+02 -0.10419805143E+02  0.16292263676E+03  0.17040224699E+03  0.00000000000E+00 0.  1.
         11    1    1    2    0    0  0.25818751789E+02 -0.19482049432E+02  0.21489236087E+00  0.32345082667E+02  0.00000000000E+00 0. -1.
</event>
<event>
 7    1  0.2612321E-009  0.9531087E+02  0.7561462E-02  0.1290477E+00
         -2   -1    0    0    0  501 -0.00000000000E+00  0.00000000000E+00  0.12012967055E+03  0.12012967055E+03  0.00000000000E+00 0.  1.
          2   -1    0    0  501    0  0.00000000000E+00 -0.00000000000E+00 -0.11875060412E+03  0.11875060412E+03  0.00000000000E+00 0. -1.
         25    2    1    2    0    0 -0.33044985899E+02 -0.29841401852E+02  0.15845912221E+02  0.13371933647E+03  0.12508911885E+03 0.  0.
          5    1    3    3  502    0 -0.57790925620E+02  0.23984513566E+00 -0.36392601420E+02  0.68423259553E+02  0.41800000000E+01 0.  1.
         -5    1    3    3    0  502  0.24745939721E+02 -0.30081246988E+02  0.52238513641E+02  0.65296076915E+02  0.41800000000E+01 0.  1.
        -11    1    1    2    0    0 -0.22712353473E+02 -0.10160549815E+02 -0.25533657361E+02  0.35651864342E+02  0.00000000000E+00 0. -1.
         11    1    1    2    0    0  0.55757339372E+02  0.40001951667E+02  0.11066811569E+02  0.69509073863E+02  0.00000000000E+00 0.  1.
</event>
<event>
 7    1  0.2612321E-009  0.1111372E+03  0.7561462E-02  0.1258478E+00
         -2   -1    0    0    0  501 -0.00000000000E+00  0.00000000000E+00  0.11604343354E+03  0.11604343354E+03  0.00000000000E+00 0.  1.
          2   -1    0    0  501    0  0.00000000000E+00 -0.00000000000E+00 -0.16481063423E+03  0.16481063423E+03  0.00000000000E+00 0. -1.
         25    2    1    2    0    0  0.82785408080E+02  0.23847715487E+02 -0.72733063703E+01  0.15205946321E+03  0.12508813709E+03 0.  0.
          5    1    3    3  502    0  0.52555040414E+02 -0.23143236923E+02  0.46795039935E+02  0.74194944914E+02  0.41800000000E+01 0. -1.
         -5    1    3    3    0  502  0.30230367666E+02  0.46990952410E+02 -0.54068346305E+02  0.77864518298E+02  0.41800000000E+01 0. -1.
        -11    1    1    2    0    0  0.11511076643E+02 -0.47643943119E+01  0.13180289356E+02  0.18136272112E+02  0.00000000000E+00 0.  1.
         11    1    1    2    0    0 -0.94296484723E+02 -0.19083321175E+02 -0.54674183682E+02  0.11065833244E+03  0.00000000000E+00 0. -1.
</event>
<event>
 7    1  0.2612321E-009  0.1001737E+03  0.7561462E-02  0.1279931E+00
         -1   -1    0    0    0  501 -0.00000000000E+00  0.00000000000E+00  0.45144721572E+02  0.45144721572E+02  0.00000000000E+00 0.  1.
          1   -1    0    0  501    0  0.00000000000E+00 -0.00000000000E+00 -0.83848617546E+03  0.83848617546E+03  0.00000000000E+00 0. -1.
         25    2    1    2    0    0  0.61242128422E+01  0.64368788907E+02 -0.75182745071E+03  0.76490065611E+03  0.12509057163E+03 0.  0.
          5    1    3    3  502    0 -0.51292244288E+02  0.56446904113E+01 -0.41321171831E+03  0.41644225698E+03  0.41800000000E+01 0.  1.
         -5    1    3    3    0  502  0.57416457130E+02  0.58724098496E+02 -0.33861573241E+03  0.34845839913E+03  0.41800000000E+01 0.  1.
        -11    1    1    2    0    0 -0.10394496269E+02 -0.30910827156E+02  0.27016639800E+02  0.42348832502E+02  0.00000000000E+00 0.  1.
         11    1    1    2    0    0  0.42702834263E+01 -0.33457961751E+02 -0.68530642974E+02  0.76381408415E+02  0.00000000000E+00 0. -1.
</event>
<event>
 7    1  0.2612321E-009  0.9437403E+02  0.7561462E-02  0.1292592E+00
         -1   -1    0    0    0  501 -0.00000000000E+00  0.00000000000E+00  0.50787482553E+02  0.50787482553E+02  0.00000000000E+00 0.  1.
          1   -1    0    0  501    0  0.00000000000E+00 -0.00000000000E+00 -0.36009195806E+03  0.36009195806E+03  0.00000000000E+00 0. -1.
         25    2    1    2    0    0 -0.61288870282E+02 -0.24250460585E+02 -0.22210741876E+03  0.26329194726E+03  0.12508610460E+03 0.  0.
          5    1    3    3  502    0 -0.15758547439E+02 -0.19604437189E+02 -0.21533386444E+03  0.21683821469E+03  0.41800000000E+01 0. -1.
         -5    1    3    3    0  502 -0.45530322843E+02 -0.46460233966E+01 -0.67735543205E+01  0.46453732571E+02  0.41800000000E+01 0. -1.
        -11    1    1    2    0    0 -0.17776359747E+02 -0.19942547467E+02 -0.31298825063E+02  0.41149977104E+02  0.00000000000E+00 0.  1.
         11    1    1    2    0    0  0.79065230029E+02  0.44193008053E+02 -0.55898231688E+02  0.10643751625E+03  0.00000000000E+00 0. -1.
</event>
<event>
 7    1  0.2612321E-009  0.2089290E+03  0.7561462E-02  0.1142417E+00
         -1   -1    0    0    0  501 -0.00000000000E+00  0.00000000000E+00  0.11814220706E+03  0.11814220706E+03  0.00000000000E+00 0.  1.
          1   -1    0    0  501    0  0.00000000000E+00 -0.00000000000E+00 -0.56211839534E+03  0.56211839534E+03  0.00000000000E+00 0. -1.
         25    2    1    2    0    0 -0.10830384533E+03 -0.15695852746E+03 -0.50399072935E+02  0.23355971404E+03  0.12507746086E+03 0.  0.
          5    1    3    3  502    0  0.12682439559E+01 -0.10545914755E+03 -0.36211445711E+02  0.11158844674E+03  0.41800000000E+01 0. -1.
         -5    1    3    3    0  502 -0.10957208929E+03 -0.51499379907E+02 -0.14187627224E+02  0.12197126730E+03  0.41800000000E+01 0. -1.
        -11    1    1    2    0    0  0.32583696835E+02  0.58435606969E+02 -0.56915070255E+02  0.87839300336E+02  0.00000000000E+00 0.  1.
         11    1    1    2    0    0  0.75720148496E+02  0.98522920489E+02 -0.33666204509E+03  0.35886158802E+03  0.00000000000E+00 0. -1.
</event>
<event>
 6    1  0.2612321E-009  0.1081011E+03  0.7561462E-02  0.1264127E+00
          1   -1    0    0  501    0  0.00000000000E+00  0.00000000000E+00  0.59062534785E+03  0.59062534785E+03  0.00000000000E+00 0. -1.
         -1   -1    0    0    0  501 -0.00000000000E+00 -0.00000000000E+00 -0.41219940884E+02  0.41219940884E+02  0.00000000000E+00 0.  1.
          5    1    1    2  502    0 -0.22841005149E+02  0.61895958289E+02  0.91950610957E+02  0.11324843674E+03  0.41800000000E+01 0. -1.
         -5    1    1    2    0  502  0.30306857988E+02  0.15109891180E+02  0.36918952596E+03  0.37076298754E+03  0.41800000000E+01 0. -1.
        -11    1    1    2    0    0  0.10513739846E+02 -0.91976904793E+02  0.56758699177E+02  0.10859023747E+03  0.00000000000E+00 0.  1.
         11    1    1    2    0    0 -0.17979592684E+02  0.14971055325E+02  0.31506570864E+02  0.39243626977E+02  0.00000000000E+00 0. -1.
</event>
<event>
 7    1  0.2612321E-009  0.1053910E+03  0.7561462E-02  0.1269351E+00
         -1   -1    0    0    0  501 -0.00000000000E+00  0.00000000000E+00  0.29151678318E+03  0.29151678318E+03  0.00000000000E+00 0.  1.
          1   -1    0    0  501    0  0.00000000000E+00 -0.00000000000E+00 -0.55418771563E+02  0.55418771563E+02  0.00000000000E+00 0. -1.
         25    2    1    2    0    0  0.14193016799E+02  0.61113410580E+02  0.16300929530E+03  0.21483935938E+03  0.12509048447E+03 0.  0.
          5    1    3    3  502    0 -0.15387958139E+02  0.88002904958E+02  0.14595459083E+03  0.17117685452E+03  0.41800000000E+01 0. -1.
         -5    1    3    3    0  502  0.29580974939E+02 -0.26889494378E+02  0.17054704470E+02  0.43662504862E+02  0.41800000000E+01 0. -1.
        -11    1    1    2    0    0  0.64349717109E+01 -0.60158928904E+02  0.87881601910E+02  0.10669433697E+03  0.00000000000E+00 0.  1.
         11    1    1    2    0    0 -0.20627988510E+02 -0.95448167613E+00 -0.14792885599E+02  0.25401858389E+02  0.00000000000E+00 0. -1.
</event>
<event>
 7    1  0.2612321E-009  0.1516724E+03  0.7561462E-02  0.1198433E+00
          2   -1    0    0  501    0  0.00000000000E+00  0.00000000000E+00  0.10598422162E+04  0.10598422162E+04  0.00000000000E+00 0. -1.
         -2   -1    0    0    0  501 -0.00000000000E+00 -0.00000000000E+00 -0.26789204313E+02  0.26789204313E+02  0.00000000000E+00 0.  1.
         25    2    1    2    0    0 -0.10465206134E+03  0.42538818350E+02  0.74845609451E+03  0.76720130795E+03  0.12509882693E+03 0.  0.
          5    1    3    3  502    0  0.28552937479E+02  0.11987286201E+01  0.14052240242E+03  0.14345983818E+03  0.41800000000E+01 0. -1.
         -5    1    3    3    0  502 -0.13320499882E+03  0.41340089730E+02  0.60793369210E+03  0.62374146977E+03  0.41800000000E+01 0. -1.
        -11    1    1    2    0    0  0.93914428885E+02 -0.62116715246E+02  0.17878382235E+03  0.21128668060E+03  0.00000000000E+00 0.  1.
         11    1    1    2    0    0  0.10737632455E+02  0.19577896895E+02  0.10581309505E+03  0.10814343199E+03  0.00000000000E+00 0. -1.
</event>
<event>
 7    1  0.2612321E-009  0.7208754E+03  0.7561462E-02  0.9682184E-01
         -2   -1    0    0    0  501 -0.00000000000E+00  0.00000000000E+00  0.14284916017E+03  0.14284916017E+03  0.00000000000E+00 0.  1.
          2   -1    0    0  501    0  0.00000000000E+00 -0.00000000000E+00 -0.39470121382E+04  0.39470121382E+04  0.00000000000E+00 0. -1.
         25    2    1    2    0    0 -0.71548930355E+03 -0.41825208222E+01 -0.24521451054E+04  0.25574608292E+04  0.12509131966E+03 0.  0.
          5    1    3    3  502    0 -0.17612622467E+03 -0.37188956179E+02 -0.48146905034E+03  0.51403636477E+03  0.41800000000E+01 0.  1.
         -5    1    3    3    0  502 -0.53936307888E+03  0.33006435357E+02 -0.19706760550E+04  0.20434244645E+04  0.41800000000E+01 0.  1.
        -11    1    1    2    0    0  0.66980519977E+03 -0.19000440043E+02 -0.12536020322E+04  0.14214492877E+04  0.00000000000E+00 0.  1.
         11    1    1    2    0    0  0.45684103783E+02  0.23182960865E+02 -0.98415840424E+02  0.11095118142E+03  0.00000000000E+00 0. -1.
</event>
<event>
 7    1  0.2612321E-009  0.1675551E+03  0.7561462E-02  0.1180422E+00
         -1   -1    0    0    0  501 -0.00000000000E+00  0.00000000000E+00  0.29293710444E+02  0.29293710444E+02  0.00000000000E+00 0.  1.
          1   -1    0    0  501    0  0.00000000000E+00 -0.00000000000E+00 -0.12163955273E+04  0.12163955273E+04  0.00000000000E+00 0. -1.
         25    2    1    2    0    0  0.96075565903E+02  0.12500516906E+03 -0.69738223364E+03  0.72584326408E+03  0.12509859135E+03 0.  0.
          5    1    3    3  502    0  0.47307800591E+02  0.55623722795E+01 -0.66594084093E+02  0.81983000789E+02  0.41800000000E+01 0.  1.
         -5    1    3    3    0  502  0.48767765313E+02  0.11944279678E+03 -0.63078814955E+03  0.64386026329E+03  0.41800000000E+01 0.  1.
        -11    1    1    2    0    0 -0.58303702733E+02 -0.65101991730E+02 -0.15710901627E+03  0.17977996015E+03  0.00000000000E+00 0. -1.
         11    1    1    2    0    0 -0.37771863171E+02 -0.59903177325E+02 -0.33261056691E+03  0.34006601348E+03  0.00000000000E+00 0.  1.
</event>
<event>
 7    1  0.2612321E-009  0.1845507E+03  0.7561462E-02  0.1163470E+00
         -2   -1    0    0    0  501 -0.00000000000E+00  0.00000000000E+00  0.41827956117E+02  0.41827956117E+02  0.00000000000E+00 0.  1.
          2   -1    0    0  501    0  0.00000000000E+00 -0.00000000000E+00 -0.85119444264E+03  0.85119444264E+03  0.00000000000E+00 0. -1.
         25    2    1    2    0    0  0.94541819001E+02  0.11585421020E+03 -0.50915195663E+03  0.54519988584E+03  0.12508735755E+03 0.  0.
          5    1    3    3  502    0  0.11822711325E+03  0.12062739601E+03 -0.46425645359E+03  0.49404468024E+03  0.41800000000E+01 0.  1.
         -5    1    3    3    0  502 -0.23685294249E+02 -0.47731858111E+01 -0.44895503039E+02  0.51155205596E+02  0.41800000000E+01 0.  1.
        -11    1    1    2    0    0 -0.11205217534E+03 -0.11035824097E+03 -0.27047999453E+03  0.31288026271E+03  0.00000000000E+00 0. -1.
         11    1    1    2    0    0  0.17510356338E+02 -0.54959692271E+01 -0.29734535354E+02  0.34942250207E+02  0.00000000000E+00 0.  1.
</event>
<event>
 7    1  0.2612321E-009  0.1013184E+03  0.7561462E-02  0.1277548E+00
          2   -1    0    0  501    0  0.00000000000E+00  0.00000000000E+00  0.57986843269E+03  0.57986843269E+03  0.00000000000E+00 0. -1.
         -2   -1    0    0    0  501 -0.00000000000E+00 -0.00000000000E+00 -0.23149986508E+02  0.23149986508E+02  0.00000000000E+00 0.  1.
         25    2    1    2    0    0  0.35075937225E+02  0.27876606877E+01  0.36797991896E+03  0.39025115016E+03  0.12509455231E+03 0.  0.
          5    1    3    3  502    0 -0.23843149878E+02 -0.36406788993E+02  0.60124456495E+02  0.74339577277E+02  0.41800000000E+01 0. -1.
         -5    1    3    3    0  502  0.58919087103E+02  0.39194449681E+02  0.30785546246E+03  0.31591157288E+03  0.41800000000E+01 0. -1.
        -11    1    1    2    0    0  0.24287871639E+02  0.11645818489E+02  0.20709812730E+02  0.33976788259E+02  0.00000000000E+00 0.  1.
         11    1    1    2    0    0 -0.59363808864E+02 -0.14433479177E+02  0.16802871450E+03  0.17879048079E+03  0.00000000000E+00 0. -1.
</event>
<event>
 7    1  0.2612321E-009  0.2278818E+03  0.7561462E-02  0.1128140E+00
          1   -1    0    0  501    0  0.00000000000E+00  0.00000000000E+00  0.86174861985E+03  0.86174861985E+03  0.00000000000E+00 0. -1.
         -1   -1    0    0    0  501 -0.00000000000E+00 -0.00000000000E+00 -0.16103360886E+03  0.16103360886E+03  0.00000000000E+00 0.  1.
         25    2    1    2    0    0  0.20171072243E+03 -0.43339431573E+02  0.75532843697E+03  0.79292773215E+03  0.12509124207E+03 0.  0.
          5    1    3    3  502    0  0.84034972814E+02  0.41306834232E+02  0.24232185358E+03  0.25981817552E+03  0.41800000000E+01 0.  1.
         -5    1    3    3    0  502  0.11767574962E+03 -0.84646265805E+02  0.51300658340E+03  0.53310955663E+03  0.41800000000E+01 0.  1.
        -11    1    1    2    0    0 -0.82670218490E+02 -0.15684051431E+02 -0.47881365727E+02  0.96814150197E+02  0.00000000000E+00 0. -1.
         11    1    1    2    0    0 -0.11904050394E+03  0.59023483004E+02 -0.67320602629E+01  0.13304034636E+03  0.00000000000E+00 0.  1.
</event>
<event>
 7    1  0.2612321E-009  0.1264956E+03  0.7561462E-02  0.1232750E+00
         -2   -1    0    0    0  501 -0.00000000000E+00  0.00000000000E+00  0.57882128094E+02  0.57882128094E+02  0.00000000000E+00 0.  1.
          2   -1    0    0  501    0  0.00000000000E+00 -0.00000000000E+00 -0.48696828588E+03  0.48696828588E+03  0.00000000000E+00 0. -1.
         25    2    1    2    0    0 -0.85262079049E+02 -0.23883160705E+02 -0.78810227786E+02  0.17233174627E+03  0.12508857374E+03 0.  0.
          5    1    3    3  502    0 -0.29717435730E+02 -0.69924971832E+02 -0.61955157015E+02  0.98125132116E+02  0.41800000000E+01 0. -1.
         -5    1    3    3    0  502 -0.55544643320E+02  0.46041811127E+02 -0.16855070771E+02  0.74206614153E+02  0.41800000000E+01 0. -1.
        -11    1    1    2    0    0  0.44223253987E+02  0.40869309699E+02 -0.88762523620E+02  0.10726034807E+03  0.00000000000E+00 0.  1.
         11    1    1    2    0    0  0.41038825063E+02 -0.16986148994E+02 -0.26151340638E+03  0.26525831964E+03  0.00000000000E+00 0. -1.
</event>
<event>
 7    1  0.2612321E-009  0.3304364E+03  0.7561462E-02  0.1070944E+00
         -1   -1    0    0    0  501 -0.00000000000E+00  0.00000000000E+00  0.13600738420E+04  0.13600738420E+04  0.00000000000E+00 0.  1.
          1   -1    0    0  501    0  0.00000000000E+00 -0.00000000000E+00 -0.88235595988E+02  0.88235595988E+02  0.00000000000E+00 0. -1.
         25    2    1    2    0    0  0.57273758842E+02 -0.31585831303E+03  0.79196528233E+03  0.86365960444E+03  0.12510853916E+03 0.  0.
          5    1    3    3  502    0  0.17277883394E+02  0.13032429719E+01  0.97817143143E+02  0.99427810946E+02  0.41800000000E+01 0.  1.
         -5    1    3    3    0  502  0.39995875448E+02 -0.31716155600E+03  0.69414813919E+03  0.76423179350E+03  0.41800000000E+01 0.  1.
        -11    1    1    2    0    0 -0.35598661314E+02  0.27309370706E+03  0.45171116053E+03  0.52904669933E+03  0.00000000000E+00 0.  1.
         11    1    1    2    0    0 -0.21675097528E+02  0.42764605962E+02  0.28161803122E+02  0.55603134183E+02  0.00000000000E+00 0. -1.
</event>
<event>
 7    1  0.2612321E-009  0.9868033E+02  0.7561462E-02  0.1283096E+00
         -4   -1    0    0    0  501 -0.00000000000E+00  0.00000000000E+00  0.19345708694E+03  0.19345708694E+03  0.00000000000E+00 0.  1.
          4   -1    0    0  501    0  0.00000000000E+00 -0.00000000000E+00 -0.65106566640E+02  0.65106566640E+02  0.00000000000E+00 0. -1.
         25    2    1    2    0    0  0.22522961288E+02  0.10689144617E+02  0.56010870868E+02  0.13930734826E+03  0.12509107892E+03 0.  0.
          5    1    3    3  502    0  0.56808364430E+02  0.49551152923E+02  0.35273424044E+02  0.83331829868E+02  0.41800000000E+01 0. -1.
         -5    1    3    3    0  502 -0.34285403143E+02 -0.38862008306E+02  0.20737446824E+02  0.55975518390E+02  0.41800000000E+01 0. -1.
        -11    1    1    2    0    0  0.30665899995E+01  0.25424717725E+02  0.70444252834E+02  0.74954739697E+02  0.00000000000E+00 0.  1.
         11    1    1    2    0    0 -0.25589551287E+02 -0.36113862342E+02  0.18953965941E+01  0.44301565622E+02  0.00000000000E+00 0. -1.
</event>
<event>
 7    1  0.2612321E-009  0.7371627E+02  0.7561462E-02  0.1347893E+00
          1   -1    0    0  501    0  0.00000000000E+00  0.00000000000E+00  0.11245635621E+04  0.11245635621E+04  0.00000000000E+00 0. -1.
         -1   -1    0    0    0  501 -0.00000000000E+00 -0.00000000000E+00 -0.18546469532E+02  0.18546469532E+02  0.00000000000E+00 0.  1.
         25    2    1    2    0    0  0.92900502744E+01 -0.15679118081E+02  0.99213426847E+03  0.10001548805E+04  0.12508892276E+03 0.  0.
          5    1    3    3  502    0 -0.22873972782E+02  0.12287743224E+02  0.45512969100E+02  0.52565292929E+02  0.41800000000E+01 0.  1.
         -5    1    3    3    0  502  0.32164023057E+02 -0.27966861305E+02  0.94662129937E+03  0.94758958760E+03  0.41800000000E+01 0.  1.
        -11    1    1    2    0    0 -0.38159412531E+02  0.27576734351E+02  0.36699008975E+02  0.59694508138E+02  0.00000000000E+00 0.  1.
         11    1    1    2    0    0  0.28869362256E+02 -0.11897616270E+02  0.77183815153E+02  0.83260642993E+02  0.00000000000E+00 0. -1.
</event>
<event>
 7    1  0.2612321E-009  0.1213091E+03  0.7561462E-02  0.1240953E+00
          2   -1    0    0  501    0  0.00000000000E+00  0.00000000000E+00  0.28967245157E+03  0.28967245157E+03  0.00000000000E+00 0. -1.
         -2   -1    0    0    0  501 -0.00000000000E+00 -0.00000000000E+00 -0.52030694588E+02  0.52030694588E+02  0.00000000000E+00 0.  1.
         25    2    1    2    0    0 -0.35360461495E+02  0.22734170377E+02  0.13359443763E+03  0.18778371819E+03  0.12509215127E+03 0.  0.
          5    1    3    3  502    0  0.34190453750E+02  0.46223618979E+02  0.48613373907E+02  0.75407841779E+02  0.41800000000E+01 0.  1.
         -5    1    3    3    0  502 -0.69550915244E+02 -0.23489448602E+02  0.84981063721E+02  0.11237587641E+03  0.41800000000E+01 0.  1.
        -11    1    1    2    0    0  0.72187911979E+02 -0.17115411296E+02  0.55122453713E+02  0.92425736909E+02  0.00000000000E+00 0. -1.
         11    1    1    2    0    0 -0.36827450485E+02 -0.56187590813E+01  0.48924865645E+02  0.61493691069E+02  0.00000000000E+00 0.  1.
</event>
<event>
 7    1  0.2612321E-009  0.1408454E+03  0.7561462E-02  0.1212196E+00
         -1   -1    0    0    0  501 -0.00000000000E+00  0.00000000000E+00  0.17688516339E+02  0.17688516339E+02  0.00000000000E+00 0.  1.
          1   -1    0    0  501    0  0.00000000000E+00 -0.00000000000E+00 -0.18068718919E+04  0.18068718919E+04  0.00000000000E+00 0. -1.
         25    2    1    2    0    0  0.11812158349E+03 -0.60342655008E+02 -0.11966322537E+04  0.12104419638E+04  0.12508818001E+03 0.  0.
          5    1    3    3  502    0  0.58506899060E+02 -0.59464928978E+01 -0.15751162264E+03  0.16818383300E+03  0.41800000000E+01 0. -1.
         -5    1    3    3    0  502  0.59614684428E+02 -0.54396162110E+02 -0.10391206310E+04  0.10422581308E+04  0.41800000000E+01 0. -1.
        -11    1    1    2    0    0 -0.17382503094E+02 -0.90502251937E+01 -0.17736561355E+02  0.26431867104E+02  0.00000000000E+00 0.  1.
         11    1    1    2    0    0 -0.10073908039E+03  0.69392880202E+02 -0.57481456049E+03  0.58768657727E+03  0.00000000000E+00 0. -1.
</event>
<event>
 7    1  0.2612321E-009  0.1086897E+03  0.7561462E-02  0.1263016E+00
         -1   -1    0    0    0  501 -0.00000000000E+00  0.00000000000E+00  0.22150428049E+02  0.22150428049E+02  0.00000000000E+00 0.  1.
          1   -1    0    0  501    0  0.00000000000E+00 -0.00000000000E+00 -0.61786453092E+03  0.61786453092E+03  0.00000000000E+00 0. -1.
         25    2    1    2    0    0 -0.41244347615E+02  0.16390754266E+02 -0.35339476752E+03  0.37749856617E+03  0.12509017830E+03 0.  0.
          5    1    3    3  502    0  0.43395408296E+02  0.12660912746E+02 -0.16007000028E+03  0.16638310480E+03  0.41800000000E+01 0.  1.
         -5    1    3    3    0  502 -0.84639755910E+02  0.37298415205E+01 -0.19332476724E+03  0.21111546137E+03  0.41800000000E+01 0.  1.
        -11    1    1    2    0    0  0.85479355891E+01 -0.43717143477E+02 -0.56893893494E+02  0.72257670552E+02  0.00000000000E+00 0.  1.
         11    1    1    2    0    0  0.32696412026E+02  0.27326389211E+02 -0.18542544186E+03  0.19025872226E+03  0.00000000000E+00 0. -1.
</event>
<event>
 7    1  0.2612321E-009  0.1445562E+03  0.7561462E-02  0.1207326E+00
         -2   -1    0    0    0  501 -0.00000000000E+00  0.00000000000E+00  0.23763377172E+02  0.23763377172E+02  0.00000000000E+00 0.  1.
          2   -1    0    0  501    0  0.00000000000E+00 -0.00000000000E+00 -0.10121850564E+04  0.10121850564E+04  0.00000000000E+00 0. -1.
         25    2    1    2    0    0  0.10936001755E+03 -0.52576982232E+01 -0.59239114806E+03  0.61527437020E+03  0.12509205208E+03 0.  0.
          5    1    3    3  502    0 -0.22215439178E+02 -0.20719443811E+02 -0.71789356428E+02  0.78064109462E+02  0.41800000000E+01 0.  1.
         -5    1    3    3    0  502  0.13157545673E+03  0.15461745588E+02 -0.52060179163E+03  0.53721026073E+03  0.41800000000E+01 0.  1.
        -11    1    1    2    0    0 -0.41361613050E+02  0.32546916633E+02 -0.76539535595E+02  0.92889102297E+02  0.00000000000E+00 0. -1.
         11    1    1    2    0    0 -0.67998404504E+02 -0.27289218409E+02 -0.31949099562E+03  0.32778496112E+03  0.00000000000E+00 0.  1.
</event>
<event>
 7    1  0.2612321E-009  0.1341524E+03  0.7561462E-02  0.1221421E+00
          2   -1    0    0  501    0  0.00000000000E+00  0.00000000000E+00  0.15364553223E+04  0.15364553223E+04  0.00000000000E+00 0.  1.
         -2   -1    0    0    0  501 -0.00000000000E+00 -0.00000000000E+00 -0.12248485084E+02  0.12248485084E+02  0.00000000000E+00 0. -1.
         25    2    1    2    0    0  0.76656198489E+02  0.34341267294E+02  0.84689128062E+03  0.86019092370E+03  0.12509232043E+03 0.  0.
          5    1    3    3  502    0  0.12264189161E+02  0.71009058507E+02  0.31614147542E+03  0.32427704453E+03  0.41800000000E+01 0. -1.
         -5    1    3    3    0  502  0.64392009327E+02 -0.36667791214E+02  0.53074980520E+03  0.53591387918E+03  0.41800000000E+01 0. -1.
        -11    1    1    2    0    0 -0.93091131869E+02 -0.43867205511E+02  0.60771342504E+03  0.61636506838E+03  0.00000000000E+00 0. -1.
         11    1    1    2    0    0  0.16434933381E+02  0.95259382177E+01  0.69602131529E+02  0.72147815265E+02  0.00000000000E+00 0.  1.
</event>
<event>
 7    1  0.2612321E-009  0.1112629E+03  0.7561462E-02  0.1258249E+00
         -3   -1    0    0    0  501 -0.00000000000E+00  0.00000000000E+00  0.43613201472E+03  0.43613201472E+03  0.00000000000E+00 0.  1.
          3   -1    0    0  501    0  0.00000000000E+00 -0.00000000000E+00 -0.34536965948E+02  0.34536965948E+02  0.00000000000E+00 0. -1.
         25    2    1    2    0    0  0.17577656085E+02  0.52328607131E+02  0.19972129570E+03  0.24204750699E+03  0.12510452655E+03 0.  0.
          5    1    3    3  502    0  0.63078734219E+02  0.12797569274E+02  0.53377393207E+02  0.83721699670E+02  0.41800000000E+01 0.  1.
         -5    1    3    3    0  502 -0.45501078134E+02  0.39531037857E+02  0.14634390250E+03  0.15832580732E+03  0.41800000000E+01 0.  1.
        -11    1    1    2    0    0  0.77486284684E+01 -0.67593381875E+02  0.17818501343E+03  0.19073228758E+03  0.00000000000E+00 0.  1.
         11    1    1    2    0    0 -0.25326284553E+02  0.15264774744E+02  0.23688739642E+02  0.37889186097E+02  0.00000000000E+00 0. -1.
</event>
<event>
 7    1  0.2612321E-009  0.9270495E+02  0.7561462E-02  0.1296430E+00
         -1   -1    0    0    0  501 -0.00000000000E+00  0.00000000000E+00  0.12973514929E+03  0.12973514929E+03  0.00000000000E+00 0.  1.
          1   -1    0    0  501    0  0.00000000000E+00 -0.00000000000E+00 -0.90656287496E+02  0.90656287496E+02  0.00000000000E+00 0. -1.
         25    2    1    2    0    0  0.17735647269E+02  0.11312020088E+02  0.17612042246E+02  0.12808045542E+03  0.12510756990E+03 0.  0.
          5    1    3    3  502    0  0.63006658832E+02  0.17388944444E+01  0.41754509611E+02  0.75721689653E+02  0.41800000000E+01 0.  1.
         -5    1    3    3    0  502 -0.45271011563E+02  0.95731256432E+01 -0.24142467365E+02  0.52358765770E+02  0.41800000000E+01 0.  1.
        -11    1    1    2    0    0  0.18089220985E+02  0.20873359707E+02 -0.15433315420E+02  0.31640232081E+02  0.00000000000E+00 0.  1.
         11    1    1    2    0    0 -0.35824868254E+02 -0.32185379794E+02  0.36900134971E+02  0.60670749285E+02  0.00000000000E+00 0. -1.
</event>
<event>
 7    1  0.2612321E-009  0.8898484E+02  0.7561462E-02  0.1305329E+00
          2   -1    0    0  501    0  0.00000000000E+00  0.00000000000E+00  0.88458341669E+02  0.88458341669E+02  0.00000000000E+00 0. -1.
         -2   -1    0    0    0  501 -0.00000000000E+00 -0.00000000000E+00 -0.16032309945E+03  0.16032309945E+03  0.00000000000E+00 0.  1.
         25    2    1    2    0    0  0.43057178708E+02  0.13138156110E+02 -0.22081686299E+02  0.13481578316E+03  0.12514456734E+03 0.  0.
          5    1    3    3  502    0 -0.27606824067E+02 -0.35208661176E+02 -0.19688764184E+02  0.49060232286E+02  0.41800000000E+01 0. -1.
         -5    1    3    3    0  502  0.70664002774E+02  0.48346817287E+02 -0.23929221151E+01  0.85755550876E+02  0.41800000000E+01 0. -1.
        -11    1    1    2    0    0 -0.21471441393E+02 -0.14128582532E+02 -0.75861876785E+02  0.80097840103E+02  0.00000000000E+00 0.  1.
         11    1    1    2    0    0 -0.21585737315E+02  0.99042642125E+00  0.26078805305E+02  0.33867817852E+02  0.00000000000E+00 0. -1.
</event>
<event>
 7    1  0.2612321E-009  0.2319224E+03  0.7561462E-02  0.1125294E+00
          1   -1    0    0  501    0  0.00000000000E+00  0.00000000000E+00  0.56528040460E+03  0.56528040460E+03  0.00000000000E+00 0. -1.
         -1   -1    0    0    0  501 -0.00000000000E+00 -0.00000000000E+00 -0.21058355631E+03  0.21058355631E+03  0.00000000000E+00 0.  1.
         25    2    1    2    0    0  0.13720635733E+03  0.17308355072E+03 -0.91346678171E+02  0.26976852436E+03  0.12508933248E+03 0.  0.
          5    1    3    3  502    0  0.13419627109E+01  0.21190296352E+02 -0.59689412925E+02  0.63491164257E+02  0.41800000000E+01 0.  1.
         -5    1    3    3    0  502  0.13586439462E+03  0.15189325437E+03 -0.31657265246E+02  0.20627736010E+03  0.41800000000E+01 0.  1.
        -11    1    1    2    0    0 -0.64131847223E+02 -0.14768465915E+03  0.28205913572E+03  0.32477839894E+03  0.00000000000E+00 0. -1.
         11    1    1    2    0    0 -0.73074510105E+02 -0.25398891572E+02  0.16398439074E+03  0.18131703761E+03  0.00000000000E+00 0.  1.
</event>
<event>
 7    1  0.2612321E-009  0.2227959E+03  0.7561462E-02  0.1131816E+00
          2   -1    0    0  501    0  0.00000000000E+00  0.00000000000E+00  0.85907056350E+03  0.85907056350E+03  0.00000000000E+00 0.  1.
         -2   -1    0    0    0  501 -0.00000000000E+00 -0.00000000000E+00 -0.70482492309E+02  0.70482492309E+02  0.00000000000E+00 0. -1.
         25    2    1    2    0    0  0.26673195670E+01  0.20595155086E+03  0.55618954749E+03  0.60615036761E+03  0.12509316340E+03 0.  0.
          5    1    3    3  502    0 -0.40605304149E+02  0.15406943488E+03  0.28397362554E+03  0.32564501208E+03  0.41800000000E+01 0. -1.
         -5    1    3    3    0  502  0.43272623716E+02  0.51882115976E+02  0.27221592195E+03  0.28050535553E+03  0.41800000000E+01 0. -1.
        -11    1    1    2    0    0  0.23928837176E+02 -0.17921670860E+03  0.21754297426E+03  0.28287128441E+03  0.00000000000E+00 0.  1.
         11    1    1    2    0    0 -0.26596156743E+02 -0.26734842257E+02  0.14855549446E+02  0.40531403792E+02  0.00000000000E+00 0. -1.
</event>
<event>
 7    1  0.2612321E-009  0.1435882E+03  0.7561462E-02  0.1208581E+00
          1   -1    0    0  501    0  0.00000000000E+00  0.00000000000E+00  0.51412722220E+02  0.51412722220E+02  0.00000000000E+00 0. -1.
         -1   -1    0    0    0  501 -0.00000000000E+00 -0.00000000000E+00 -0.54118165378E+03  0.54118165378E+03  0.00000000000E+00 0.  1.
         25    2    1    2    0    0  0.11441176147E+03  0.66754508685E+01 -0.35333149404E+03  0.39194790996E+03  0.12508159990E+03 0.  0.
          5    1    3    3  502    0  0.12903410599E+03  0.38076482953E+02 -0.27358450033E+03  0.30490255867E+03  0.41800000000E+01 0.  1.
         -5    1    3    3    0  502 -0.14622344519E+02 -0.31401032085E+02 -0.79746993710E+02  0.87045351289E+02  0.41800000000E+01 0.  1.
        -11    1    1    2    0    0 -0.72051917342E+02  0.88025391944E+01 -0.13755623556E+03  0.15553353796E+03  0.00000000000E+00 0.  1.
         11    1    1    2    0    0 -0.42359844127E+02 -0.15477990063E+02  0.11187980427E+01  0.45112928079E+02  0.00000000000E+00 0. -1.
</event>
<event>
 7    1  0.2612321E-009  0.1390308E+03  0.7561462E-02  0.1214639E+00
          1   -1    0    0  501    0  0.00000000000E+00  0.00000000000E+00  0.15597441899E+03  0.15597441899E+03  0.00000000000E+00 0. -1.
         -1   -1    0    0    0  501 -0.00000000000E+00 -0.00000000000E+00 -0.14689352670E+03  0.14689352670E+03  0.00000000000E+00 0.  1.
         25    2    1    2    0    0 -0.88378502328E+02 -0.55997913386E+02  0.46028442874E+01  0.16314258888E+03  0.12509113539E+03 0.  0.
          5    1    3    3  502    0  0.12684968728E+02 -0.51068985103E+02 -0.23889651119E+02  0.57940810330E+02  0.41800000000E+01 0. -1.
         -5    1    3    3    0  502 -0.10106347106E+03 -0.49289282825E+01  0.28492495406E+02  0.10520177855E+03  0.41800000000E+01 0. -1.
        -11    1    1    2    0    0  0.78927394353E+02  0.71073461047E+02  0.28370174901E+02  0.10993560510E+03  0.00000000000E+00 0. -1.
         11    1    1    2    0    0  0.94511079755E+01 -0.15075547661E+02 -0.23892126896E+02  0.29789751708E+02  0.00000000000E+00 0.  1.
</event>
<event>
 7    1  0.2612321E-009  0.1082408E+03  0.7561462E-02  0.1263863E+00
          3   -1    0    0  501    0  0.00000000000E+00  0.00000000000E+00  0.19324446510E+02  0.19324446510E+02  0.00000000000E+00 0. -1.
         -3   -1    0    0    0  501 -0.00000000000E+00 -0.00000000000E+00 -0.10743922622E+04  0.10743922622E+04  0.00000000000E+00 0.  1.
         25    2    1    2    0    0 -0.41880192115E+02 -0.72370376376E+02 -0.74828697421E+03  0.76326388195E+03  0.12508771262E+03 0.  0.
          5    1    3    3  502    0  0.96498328272E+01 -0.62463941932E+01 -0.21480101122E+01  0.12418657796E+02  0.41800000000E+01 0. -1.
         -5    1    3    3    0  502 -0.51530024943E+02 -0.66123982182E+02 -0.74613896409E+03  0.75084522415E+03  0.41800000000E+01 0. -1.
        -11    1    1    2    0    0 -0.98925094449E+01  0.67602644895E+02 -0.14046530222E+03  0.15620012954E+03  0.00000000000E+00 0. -1.
         11    1    1    2    0    0  0.51772701560E+02  0.47677314809E+01 -0.16631553928E+03  0.17425269724E+03  0.00000000000E+00 0.  1.
</event>
<event>
 7    1  0.2612321E-009  0.6091966E+02  0.7561462E-02  0.1394012E+00
          1   -1    0    0  501    0  0.00000000000E+00  0.00000000000E+00  0.39959250704E+02  0.39959250704E+02  0.00000000000E+00 0. -1.
         -1   -1    0    0    0  501 -0.00000000000E+00 -0.00000000000E+00 -0.30509159014E+03  0.30509159014E+03  0.00000000000E+00 0.  1.
         25    2    1    2    0    0 -0.57526411768E+00 -0.20094647933E+02 -0.15582579344E+03  0.20082917051E+03  0.12508617838E+03 0.  0.
          5    1    3    3  502    0 -0.14422053290E+02  0.10521493664E+02  0.16827727407E+02  0.24886587948E+02  0.41800000000E+01 0.  1.
         -5    1    3    3    0  502  0.13846789172E+02 -0.30616141597E+02 -0.17265352085E+03  0.17594258256E+03  0.41800000000E+01 0.  1.
        -11    1    1    2    0    0 -0.33050792259E+02  0.95462135465E+01 -0.58092949649E+01  0.34888865989E+02  0.00000000000E+00 0. -1.
         11    1    1    2    0    0  0.33626056377E+02  0.10548434387E+02 -0.10349725103E+03  0.10933280434E+03  0.00000000000E+00 0.  1.
</event>
<event>
 7    1  0.2612321E-009  0.1142526E+03  0.7561462E-02  0.1252891E+00
          2   -1    0    0  501    0  0.00000000000E+00  0.00000000000E+00  0.36070317424E+03  0.36070317424E+03  0.00000000000E+00 0. -1.
         -2   -1    0    0    0  501 -0.00000000000E+00 -0.00000000000E+00 -0.40117216395E+02  0.40117216395E+02  0.00000000000E+00 0.  1.
         25    2    1    2    0    0  0.56191008502E+01  0.56117526280E+02  0.16723247990E+03  0.21632110241E+03  0.12508943186E+03 0.  0.
          5    1    3    3  502    0  0.32742101230E+02  0.86268383411E+02  0.13837618481E+03  0.16637223354E+03  0.41800000000E+01 0.  1.
         -5    1    3    3    0  502 -0.27123000380E+02 -0.30150857132E+02  0.28856295091E+02  0.49948868873E+02  0.41800000000E+01 0.  1.
        -11    1    1    2    0    0 -0.34996463240E+02 -0.35860661096E+01  0.26343303478E+02  0.43949766183E+02  0.00000000000E+00 0.  1.
         11    1    1    2    0    0  0.29377362389E+02 -0.52531460170E+02  0.12701017446E+03  0.14054952204E+03  0.00000000000E+00 0. -1.
</event>
<event>
 7    1  0.2612321E-009  0.1593432E+03  0.7561462E-02  0.1189440E+00
          3   -1    0    0  501    0  0.00000000000E+00  0.00000000000E+00  0.22888774210E+03  0.22888774210E+03  0.00000000000E+00 0. -1.
         -3   -1    0    0    0  501 -0.00000000000E+00 -0.00000000000E+00 -0.13556200347E+03  0.13556200347E+03  0.00000000000E+00 0.  1.
         25    2    1    2    0    0  0.26699437843E+02  0.13311604074E+03  0.21858095015E+02  0.18590128323E+03  0.12509504589E+03 0.  0.
          5    1    3    3  502    0 -0.45893045927E+02  0.80215118052E+02  0.25326315681E+02  0.95914188182E+02  0.41800000000E+01 0. -1.
         -5    1    3    3    0  502  0.72592483771E+02  0.52900922683E+02 -0.34682206659E+01  0.89987095049E+02  0.41800000000E+01 0. -1.
        -11    1    1    2    0    0 -0.13483744828E+02 -0.40106459457E+02  0.73244570507E+02  0.84587863039E+02  0.00000000000E+00 0. -1.
         11    1    1    2    0    0 -0.13215693015E+02 -0.93009581279E+02 -0.17769268931E+01  0.93960599300E+02  0.00000000000E+00 0.  1.
</event>
<event>
 7    1  0.2612321E-009  0.1073550E+03  0.7561462E-02  0.1265548E+00
         -2   -1    0    0    0  501 -0.00000000000E+00  0.00000000000E+00  0.15485410015E+03  0.15485410015E+03  0.00000000000E+00 0.  1.
          2   -1    0    0  501    0  0.00000000000E+00 -0.00000000000E+00 -0.11219264851E+03  0.11219264851E+03  0.00000000000E+00 0. -1.
         25    2    1    2    0    0 -0.71035117905E+02 -0.15937391561E+02  0.45686853939E+02  0.15177249140E+03  0.12509041569E+03 0.  0.
          5    1    3    3  502    0 -0.51717847181E+02  0.49363626901E+02  0.38076662974E+01  0.71718017963E+02  0.41800000000E+01 0.  1.
         -5    1    3    3    0  502 -0.19317270724E+02 -0.65301018462E+02  0.41879187641E+02  0.80054473441E+02  0.41800000000E+01 0.  1.
        -11    1    1    2    0    0  0.60717651566E+02  0.68226423296E+01  0.38032465184E+02  0.71969785800E+02  0.00000000000E+00 0.  1.
         11    1    1    2    0    0  0.10317466339E+02  0.91147492318E+01 -0.41057867489E+02  0.43304471455E+02  0.00000000000E+00 0. -1.
</event>
<event>
 7    1  0.2612321E-009  0.1115999E+03  0.7561462E-02  0.1257635E+00
          2   -1    0    0  501    0  0.00000000000E+00  0.00000000000E+00  0.12710439676E+04  0.12710439676E+04  0.00000000000E+00 0.  1.
         -2   -1    0    0    0  501 -0.00000000000E+00 -0.00000000000E+00 -0.18623474255E+02  0.18623474255E+02  0.00000000000E+00 0. -1.
         25    2    1    2    0    0  0.73214780235E+02 -0.39959352093E+02  0.95072581247E+03  0.96254009483E+03  0.12508680907E+03 0.  0.
          5    1    3    3  502    0  0.82280878062E+02 -0.40308925309E+02  0.35269424932E+03  0.36442510652E+03  0.41800000000E+01 0.  1.
         -5    1    3    3    0  502 -0.90660978266E+01  0.34957321620E+00  0.59803156315E+03  0.59811498832E+03  0.41800000000E+01 0.  1.
        -11    1    1    2    0    0 -0.93358373652E+02  0.25763625116E+02  0.27086812338E+03  0.28766141655E+03  0.00000000000E+00 0.  1.
         11    1    1    2    0    0  0.20143593417E+02  0.14195726976E+02  0.30826557471E+02  0.39465930442E+02  0.00000000000E+00 0. -1.
</event>
<event>
 7    1  0.2612321E-009  0.1013959E+03  0.7561462E-02  0.1277388E+00
          1   -1    0    0  501    0  0.00000000000E+00  0.00000000000E+00  0.80784599518E+03  0.80784599518E+03  0.00000000000E+00 0. -1.
         -1   -1    0    0    0  501 -0.00000000000E+00 -0.00000000000E+00 -0.21878448903E+02  0.21878448903E+02  0.00000000000E+00 0.  1.
         25    2    1    2    0    0 -0.17021796889E+02 -0.58004224459E+00  0.67867439351E+03  0.69031323272E+03  0.12507337384E+03 0.  0.
          5    1    3    3  502    0  0.33514545763E+02 -0.46488118469E+02  0.28394267180E+03  0.28969860753E+03  0.41800000000E+01 0.  1.
         -5    1    3    3    0  502 -0.50536342652E+02  0.45908076225E+02  0.39473172171E+03  0.40061462519E+03  0.41800000000E+01 0.  1.
        -11    1    1    2    0    0 -0.23625838885E+02 -0.20373221088E+02  0.11476235710E+02  0.33240824096E+02  0.00000000000E+00 0.  1.
         11    1    1    2    0    0  0.40647635774E+02  0.20953263332E+02  0.95816917056E+02  0.10617038727E+03  0.00000000000E+00 0. -1.
</event>
<event>
 7    1  0.2612321E-009  0.1292033E+03  0.7561462E-02  0.1228643E+00
         -2   -1    0    0    0  501 -0.00000000000E+00  0.00000000000E+00  0.71277622769E+02  0.71277622769E+02  0.00000000000E+00 0.  1.
          2   -1    0    0  501    0  0.00000000000E+00 -0.00000000000E+00 -0.54629696310E+03  0.54629696310E+03  0.00000000000E+00 0. -1.
         25    2    1    2    0    0 -0.29850566701E+02 -0.94278253013E+02 -0.45371374283E+03  0.48091874129E+03  0.12508888824E+03 0.  0.
          5    1    3    3  502    0  0.48915994004E+02 -0.29450569456E+02 -0.17158299790E+03  0.18088202807E+03  0.41800000000E+01 0.  1.
         -5    1    3    3    0  502 -0.78766560705E+02 -0.64827683557E+02 -0.28213074494E+03  0.30003671322E+03  0.41800000000E+01 0.  1.
        -11    1    1    2    0    0  0.20356429602E+02  0.72407239647E+02  0.29296031176E+02  0.80718337583E+02  0.00000000000E+00 0.  1.
         11    1    1    2    0    0  0.94941370992E+01  0.21871013366E+02 -0.50601628674E+02  0.55937507000E+02  0.00000000000E+00 0. -1.
</event>
<event>
 7    1  0.2612321E-009  0.9707973E+02  0.7561462E-02  0.1286560E+00
         -1   -1    0    0    0  501 -0.00000000000E+00  0.00000000000E+00  0.86883765712E+02  0.86883765712E+02  0.00000000000E+00 0.  1.
          1   -1    0    0  501    0  0.00000000000E+00 -0.00000000000E+00 -0.19133456583E+03  0.19133456583E+03  0.00000000000E+00 0. -1.
         25    2    1    2    0    0 -0.21642618682E+01 -0.58362232525E+02 -0.86820183979E+02  0.16308345750E+03  0.12509050943E+03 0.  0.
          5    1    3    3  502    0 -0.32487298453E+02 -0.48225084350E+02 -0.10923192641E+03  0.12381506156E+03  0.41800000000E+01 0.  1.
         -5    1    3    3    0  502  0.30323036585E+02 -0.10137148175E+02  0.22411742433E+02  0.39268395940E+02  0.41800000000E+01 0.  1.
        -11    1    1    2    0    0  0.91591001463E+00 -0.22613616345E+02  0.15714896686E+02  0.27553085366E+02  0.00000000000E+00 0. -1.
         11    1    1    2    0    0  0.12483518535E+01  0.80975848869E+02 -0.33345512829E+02  0.87581788680E+02  0.00000000000E+00 0.  1.
</event>
<event>
 7    1  0.2612321E-009  0.2785276E+03  0.7561462E-02  0.1096496E+00
          2   -1    0    0  501    0  0.00000000000E+00  0.00000000000E+00  0.21673678322E+04  0.21673678322E+04  0.00000000000E+00 0. -1.
         -2   -1    0    0    0  501 -0.00000000000E+00 -0.00000000000E+00 -0.38935417481E+02  0.38935417481E+02  0.00000000000E+00 0.  1.
         25    2    1    2    0    0 -0.22321748896E+03 -0.12895004887E+03  0.13800557991E+04  0.14094878214E+04  0.12509095668E+03 0.  0.
          5    1    3    3  502    0 -0.19733733459E+03 -0.15172957806E+03  0.12665890690E+04  0.12908250193E+04  0.41800000000E+01 0.  1.
         -5    1    3    3    0  502 -0.25880154367E+02  0.22779529182E+02  0.11346673015E+03  0.11866280205E+03  0.41800000000E+01 0.  1.
        -11    1    1    2    0    0  0.11648695264E+03  0.11843013879E+03  0.47015002111E+03  0.49863408453E+03  0.00000000000E+00 0.  1.
         11    1    1    2    0    0  0.10673053632E+03  0.10519910084E+02  0.27822659446E+03  0.29818134374E+03  0.00000000000E+00 0. -1.
</event>
<event>
 7    1  0.2612321E-009  0.1656927E+03  0.7561462E-02  0.1182416E+00
          3   -1    0    0  501    0  0.00000000000E+00  0.00000000000E+00  0.91546619036E+02  0.91546619036E+02  0.00000000000E+00 0. -1.
         -3   -1    0    0    0  501 -0.00000000000E+00 -0.00000000000E+00 -0.41430112244E+03  0.41430112244E+03  0.00000000000E+00 0.  1.
         25    2    1    2    0    0  0.10140456071E+03 -0.94999090199E+02 -0.27540142220E+03  0.33286487654E+03  0.12508145592E+03 0.  0.
          5    1    3    3  502    0 -0.24671524909E+02 -0.17347772201E+02 -0.16625802847E+02  0.34691772252E+02  0.41800000000E+01 0.  1.
         -5    1    3    3    0  502  0.12607608562E+03 -0.77651317998E+02 -0.25877561935E+03  0.29817310429E+03  0.41800000000E+01 0.  1.
        -11    1    1    2    0    0 -0.97632580909E+02  0.53874743908E+02 -0.63868396765E+02  0.12850595703E+03  0.00000000000E+00 0.  1.
         11    1    1    2    0    0 -0.37719797998E+01  0.41124346291E+02  0.16515315554E+02  0.44476907911E+02  0.00000000000E+00 0. -1.
</event>
<event>
 7    1  0.2612321E-009  0.7149672E+02  0.7561462E-02  0.1355076E+00
          2   -1    0    0  501    0  0.00000000000E+00  0.00000000000E+00  0.21921731409E+03  0.21921731409E+03  0.00000000000E+00 0.  1.
         -2   -1    0    0    0  501 -0.00000000000E+00 -0.00000000000E+00 -0.12038599394E+03  0.12038599394E+03  0.00000000000E+00 0. -1.
         25    2    1    2    0    0 -0.17271181416E+02 -0.43544838799E+02  0.16932518239E+03  0.21567517998E+03  0.12510123571E+03 0.  0.
          5    1    3    3  502    0  0.18236738729E+02 -0.86993046004E+01  0.16419617956E+03  0.16548750504E+03  0.41800000000E+01 0. -1.
         -5    1    3    3    0  502 -0.35507920145E+02 -0.34845534199E+02  0.51290028282E+01  0.50187674947E+02  0.41800000000E+01 0. -1.
        -11    1    1    2    0    0 -0.16037742353E+02 -0.18357967090E+01 -0.65448255163E+02  0.67409594519E+02  0.00000000000E+00 0. -1.
         11    1    1    2    0    0  0.33308923769E+02  0.45380635508E+02 -0.50456070742E+01  0.56518533531E+02  0.00000000000E+00 0.  1.
</event>
<event>
 7    1  0.2612321E-009  0.1417077E+03  0.7561462E-02  0.1211049E+00
          3   -1    0    0  501    0  0.00000000000E+00  0.00000000000E+00  0.12190313583E+03  0.12190313583E+03  0.00000000000E+00 0. -1.
         -3   -1    0    0    0  501 -0.00000000000E+00 -0.00000000000E+00 -0.28294311652E+03  0.28294311652E+03  0.00000000000E+00 0.  1.
         25    2    1    2    0    0 -0.10720620465E+03 -0.23584781846E+02 -0.19560720016E+03  0.25683265887E+03  0.12510565798E+03 0.  0.
          5    1    3    3  502    0  0.19382923661E+02  0.24000075296E+02 -0.36069117612E+02  0.47646143487E+02  0.41800000000E+01 0. -1.
         -5    1    3    3    0  502 -0.12658912831E+03 -0.47584857142E+02 -0.15953808255E+03  0.20918651539E+03  0.41800000000E+01 0. -1.
        -11    1    1    2    0    0  0.48120659423E+01  0.13215303038E+02 -0.25302570313E+02  0.28948579887E+02  0.00000000000E+00 0.  1.
         11    1    1    2    0    0  0.10239413871E+03  0.10369478808E+02  0.59869789783E+02  0.11906501359E+03  0.00000000000E+00 0. -1.
</event>
<event>
 7    1  0.2612321E-009  0.1026079E+03  0.7561462E-02  0.1274906E+00
         -4   -1    0    0    0  501 -0.00000000000E+00  0.00000000000E+00  0.45224669826E+02  0.45224669826E+02  0.00000000000E+00 0.  1.
          4   -1    0    0  501    0  0.00000000000E+00 -0.00000000000E+00 -0.36709940810E+03  0.36709940810E+03  0.00000000000E+00 0. -1.
         25    2    1    2    0    0  0.20954413088E+02  0.61505650764E+02 -0.21384117046E+03  0.25612013336E+03  0.12508974390E+03 0.  0.
          5    1    3    3  502    0 -0.25372513041E+02  0.60836733075E+02 -0.42415987243E+02  0.78494973616E+02  0.41800000000E+01 0.  1.
         -5    1    3    3    0  502  0.46326926129E+02  0.66891768967E+00 -0.17142518321E+03  0.17762515975E+03  0.41800000000E+01 0.  1.
        -11    1    1    2    0    0 -0.43855018741E+02 -0.51539429372E+02 -0.29551060999E+02  0.73843352137E+02  0.00000000000E+00 0.  1.
         11    1    1    2    0    0  0.22900605652E+02 -0.99662213923E+01 -0.78482506822E+02  0.82360592428E+02  0.00000000000E+00 0. -1.
</event>
<event>
 7    1  0.2612321E-009  0.1440624E+03  0.7561462E-02  0.1207965E+00
          2   -1    0    0  501    0  0.00000000000E+00  0.00000000000E+00  0.62320170112E+03  0.62320170112E+03  0.00000000000E+00 0. -1.
         -2   -1    0    0    0  501 -0.00000000000E+00 -0.00000000000E+00 -0.50347546052E+02  0.50347546052E+02  0.00000000000E+00 0.  1.
         25    2    1    2    0    0  0.47237897088E+02 -0.11875360867E+03  0.19837354245E+03  0.26708383544E+03  0.12509146380E+03 0.  0.
          5    1    3    3  502    0  0.58211666358E+02 -0.90860864771E+02  0.56225881628E+02  0.12175022387E+03  0.41800000000E+01 0. -1.
         -5    1    3    3    0  502 -0.10973769270E+02 -0.27892743895E+02  0.14214766083E+03  0.14533361157E+03  0.41800000000E+01 0. -1.
        -11    1    1    2    0    0  0.19932258479E+02  0.49649303743E+02  0.76983348314E+02  0.93748515763E+02  0.00000000000E+00 0.  1.
         11    1    1    2    0    0 -0.67170155566E+02  0.69104304923E+02  0.29749726430E+03  0.31271689596E+03  0.00000000000E+00 0. -1.
</event>
<event>
 7    1  0.2612321E-009  0.9569420E+02  0.7561462E-02  0.1289620E+00
          2   -1    0    0  501    0  0.00000000000E+00  0.00000000000E+00  0.47686838811E+03  0.47686838811E+03  0.00000000000E+00 0. -1.
         -2   -1    0    0    0  501 -0.00000000000E+00 -0.00000000000E+00 -0.37695239792E+02  0.37695239792E+02  0.00000000000E+00 0.  1.
         25    2    1    2    0    0  0.36523110850E+02 -0.64681151788E+02  0.32090076066E+03  0.35233934995E+03  0.12509248702E+03 0.  0.
          5    1    3    3  502    0  0.33881828661E+01 -0.39570458990E+02  0.13564207582E+02  0.42175361707E+02  0.41800000000E+01 0.  1.
         -5    1    3    3    0  502  0.33134927984E+02 -0.25110692798E+02  0.30733655308E+03  0.31016398825E+03  0.41800000000E+01 0.  1.
        -11    1    1    2    0    0  0.15384833272E+02  0.54684575475E+02  0.73878045667E+02  0.93193677474E+02  0.00000000000E+00 0. -1.
         11    1    1    2    0    0 -0.51907944122E+02  0.99965763127E+01  0.44394341986E+02  0.69030600470E+02  0.00000000000E+00 0.  1.
</event>
<event>
 7    1  0.2612321E-009  0.9992480E+02  0.7561462E-02  0.1280454E+00
         -1   -1    0    0    0  501 -0.00000000000E+00  0.00000000000E+00  0.30072223474E+02  0.30072223474E+02  0.00000000000E+00 0.  1.
          1   -1    0    0  501    0  0.00000000000E+00 -0.00000000000E+00 -0.44597904068E+03  0.44597904068E+03  0.00000000000E+00 0. -1.
         25    2    1    2    0    0 -0.54575082996E+00 -0.15620802577E+02 -0.15821992808E+03  0.20229876724E+03  0.12508772229E+03 0.  0.
          5    1    3    3  502    0  0.45315815570E+02  0.34369168239E+02 -0.85362885915E+02  0.10265991213E+03  0.41800000000E+01 0.  1.
         -5    1    3    3    0  502 -0.45861566400E+02 -0.49989970816E+02 -0.72857042162E+02  0.99638855109E+02  0.41800000000E+01 0.  1.
        -11    1    1    2    0    0  0.36303900141E+02  0.14453490208E+02 -0.21276997138E+03  0.21632830898E+03  0.00000000000E+00 0. -1.
         11    1    1    2    0    0 -0.35758149311E+02  0.11673123693E+01 -0.44916917746E+02  0.57424187936E+02  0.00000000000E+00 0.  1.
</event>
<event>
 7    1  0.2617649E-009  0.1286304E+03  0.7561462E-02  0.1229502E+00
         -2   -1    0    0    0  501 -0.00000000000E+00  0.00000000000E+00  0.20182929261E+03  0.20182929261E+03  0.00000000000E+00 0.  1.
          2   -1    0    0  501    0  0.00000000000E+00 -0.00000000000E+00 -0.87777026599E+02  0.87777026599E+02  0.00000000000E+00 0. -1.
         25    2    1    2    0    0  0.39006962443E+02 -0.63727978777E+02  0.42135092913E+02  0.15167600801E+03  0.12508975558E+03 0.  0.
          5    1    3    3  502    0  0.38901217799E+02  0.30441668277E+02  0.31593063351E+01  0.49673469078E+02  0.41800000000E+01 0. -1.
         -5    1    3    3    0  502  0.10574464400E+00 -0.94169647054E+02  0.38975786577E+02  0.10200253893E+03  0.41800000000E+01 0. -1.
        -11    1    1    2    0    0 -0.31848674689E+02 -0.14412442084E+02  0.40255618471E+02  0.53315770507E+02  0.00000000000E+00 0. -1.
         11    1    1    2    0    0 -0.71582877543E+01  0.78140420861E+02  0.31661554629E+02  0.84614540698E+02  0.00000000000E+00 0.  1.
</event>
<event>
 7    1  0.2612321E-009  0.1136235E+03  0.7561462E-02  0.1254003E+00
          2   -1    0    0  501    0  0.00000000000E+00  0.00000000000E+00  0.11231540088E+03  0.11231540088E+03  0.00000000000E+00 0. -1.
         -2   -1    0    0    0  501 -0.00000000000E+00 -0.00000000000E+00 -0.13117532627E+03  0.13117532627E+03  0.00000000000E+00 0.  1.
         25    2    1    2    0    0 -0.42251393710E+02  0.16572997654E+02 -0.28174005607E+02  0.13600969260E+03  0.12508004384E+03 0.  0.
          5    1    3    3  502    0  0.17627904058E+02 -0.41715863159E+02  0.55135954613E+01  0.45812971694E+02  0.41800000000E+01 0.  1.
         -5    1    3    3    0  502 -0.59879297768E+02  0.58288860813E+02 -0.33687601068E+02  0.90196720904E+02  0.41800000000E+01 0.  1.
        -11    1    1    2    0    0  0.29208403749E+02 -0.52388667109E+02  0.26616362733E+02  0.65621140314E+02  0.00000000000E+00 0.  1.
         11    1    1    2    0    0  0.13042989961E+02  0.35815669455E+02 -0.17302282512E+02  0.41859894240E+02  0.00000000000E+00 0. -1.
</event>
<event>
 7    1  0.2612321E-009  0.9686613E+02  0.7561462E-02  0.1287028E+00
         -1   -1    0    0    0  501 -0.00000000000E+00  0.00000000000E+00  0.16177485048E+02  0.16177485048E+02  0.00000000000E+00 0.  1.
          1   -1    0    0  501    0  0.00000000000E+00 -0.00000000000E+00 -0.10503477710E+04  0.10503477710E+04  0.00000000000E+00 0. -1.
         25    2    1    2    0    0 -0.16954760370E+02 -0.34309861438E+02 -0.82986489615E+03  0.84011187836E+03  0.12509033461E+03 0.  0.
          5    1    3    3  502    0  0.53649478648E+02 -0.10339187506E+02 -0.41173598325E+03  0.41536629336E+03  0.41800000000E+01 0.  1.
         -5    1    3    3    0  502 -0.70604239018E+02 -0.23970673932E+02 -0.41812891290E+03  0.42474558500E+03  0.41800000000E+01 0.  1.
        -11    1    1    2    0    0 -0.14489655677E+02  0.28929135929E+02 -0.17267479075E+02  0.36674389714E+02  0.00000000000E+00 0.  1.
         11    1    1    2    0    0  0.31444416047E+02  0.53807255089E+01 -0.18703791076E+03  0.18973898800E+03  0.00000000000E+00 0. -1.
</event>
<event>
 7    1  0.2612321E-009  0.9253843E+02  0.7561462E-02  0.1296818E+00
          2   -1    0    0  501    0  0.00000000000E+00  0.00000000000E+00  0.25616677654E+03  0.25616677654E+03  0.00000000000E+00 0. -1.
         -2   -1    0    0    0  501 -0.00000000000E+00 -0.00000000000E+00 -0.57800965871E+02  0.57800965871E+02  0.00000000000E+00 0.  1.
         25    2    1    2    0    0 -0.80921332446E+01  0.53951384368E+02  0.74089812240E+02  0.15528524279E+03  0.12509185368E+03 0.  0.
          5    1    3    3  502    0 -0.36736486956E+02  0.74892730058E+02  0.13018653341E+02  0.84530753127E+02  0.41800000000E+01 0. -1.
         -5    1    3    3    0  502  0.28644353711E+02 -0.20941345690E+02  0.61071158899E+02  0.70754489667E+02  0.41800000000E+01 0. -1.
        -11    1    1    2    0    0 -0.11492168917E+02 -0.40420202569E+02  0.12787967763E+03  0.13460711227E+03  0.00000000000E+00 0. -1.
         11    1    1    2    0    0  0.19584302162E+02 -0.13531181798E+02 -0.36036792045E+01  0.24075387346E+02  0.00000000000E+00 0.  1.
</event>
<event>
 7    1  0.2612321E-009  0.9978368E+02  0.7561462E-02  0.1280751E+00
         -2   -1    0    0    0  501 -0.00000000000E+00  0.00000000000E+00  0.10282790706E+03  0.10282790706E+03  0.00000000000E+00 0.  1.
          2   -1    0    0  501    0  0.00000000000E+00 -0.00000000000E+00 -0.15051907654E+03  0.15051907654E+03  0.00000000000E+00 0. -1.
         25    2    1    2    0    0  0.10099195205E+02  0.13304878426E+02  0.33376028651E+02  0.13054670997E+03  0.12509784436E+03 0.  0.
          5    1    3    3  502    0 -0.71111554512E+01  0.64885854280E+02  0.38285843141E+02  0.75789318525E+02  0.41800000000E+01 0. -1.
         -5    1    3    3    0  502  0.17210350657E+02 -0.51580975854E+02 -0.49098144897E+01  0.54757391447E+02  0.41800000000E+01 0. -1.
        -11    1    1    2    0    0 -0.96899815017E+01 -0.45957168988E+02 -0.15341861747E+02  0.49409815267E+02  0.00000000000E+00 0.  1.
         11    1    1    2    0    0 -0.40921370370E+00  0.32652290562E+02 -0.65725336391E+02  0.73390458361E+02  0.00000000000E+00 0. -1.
</event>
<event>
 7    1  0.2819961E-009  0.1523766E+03  0.7561462E-02  0.1197583E+00
         -2   -1    0    0    0  501 -0.00000000000E+00  0.00000000000E+00  0.57360518699E+02  0.57360518699E+02  0.00000000000E+00 0.  1.
          2   -1    0    0  501    0  0.00000000000E+00 -0.00000000000E+00 -0.42575151041E+03  0.42575151041E+03  0.00000000000E+00 0. -1.
         25    2    1    2    0    0 -0.46878570168E+02 -0.10205092720E+03 -0.20759503122E+03  0.26712510741E+03  0.12509250154E+03 0.  0.
          5    1    3    3  502    0 -0.67455947848E+02 -0.12241779360E+02 -0.12814685743E+03  0.14539345079E+03  0.41800000000E+01 0. -1.
         -5    1    3    3    0  502  0.20577377680E+02 -0.89809147835E+02 -0.79448173785E+02  0.12173165663E+03  0.41800000000E+01 0. -1.
        -11    1    1    2    0    0 -0.23458599898E+02  0.53365698459E+02 -0.57675104619E+02  0.82003788778E+02  0.00000000000E+00 0. -1.
         11    1    1    2    0    0  0.70337170066E+02  0.48685228737E+02 -0.10312085587E+03  0.13398313291E+03  0.00000000000E+00 0.  1.
</event>
<event>
 7    1  0.2612321E-009  0.8879478E+02  0.7561462E-02  0.1305797E+00
         -1   -1    0    0    0  501 -0.00000000000E+00  0.00000000000E+00  0.88706228274E+02  0.88706228274E+02  0.00000000000E+00 0.  1.
          1   -1    0    0  501    0  0.00000000000E+00 -0.00000000000E+00 -0.18513204658E+03  0.18513204658E+03  0.00000000000E+00 0. -1.
         25    2    1    2    0    0 -0.68434967866E+02  0.34867032326E+01 -0.43916292019E+02  0.14923724134E+03  0.12509041359E+03 0.  0.
          5    1    3    3  502    0 -0.66225398844E+02 -0.14329331936E+01 -0.84857282728E+02  0.10773155332E+03  0.41800000000E+01 0.  1.
         -5    1    3    3    0  502 -0.22095690222E+01  0.49196364263E+01  0.40940990709E+02  0.41505688021E+02  0.41800000000E+01 0.  1.
        -11    1    1    2    0    0  0.74854483258E+02  0.22072197974E+02 -0.58552631520E+02  0.97564267256E+02  0.00000000000E+00 0.  1.
         11    1    1    2    0    0 -0.64195153923E+01 -0.25558901207E+02  0.60431052302E+01  0.27036766256E+02  0.00000000000E+00 0. -1.
</event>
<event>
 7    1  0.2612321E-009  0.1061464E+03  0.7561462E-02  0.1267877E+00
          2   -1    0    0  501    0  0.00000000000E+00  0.00000000000E+00  0.32538014554E+03  0.32538014554E+03  0.00000000000E+00 0. -1.
         -2   -1    0    0    0  501 -0.00000000000E+00 -0.00000000000E+00 -0.49413510549E+02  0.49413510549E+02  0.00000000000E+00 0.  1.
         25    2    1    2    0    0  0.19464449585E+02 -0.26640555698E+02  0.70500021426E+02  0.14732997184E+03  0.12508910254E+03 0.  0.
          5    1    3    3  502    0  0.39009942057E+02 -0.62417977528E+02  0.10206830814E+02  0.74427355813E+02  0.41800000000E+01 0.  1.
         -5    1    3    3    0  502 -0.19545492472E+02  0.35777421830E+02  0.60293190611E+02  0.72902616022E+02  0.41800000000E+01 0.  1.
        -11    1    1    2    0    0 -0.76749258359E+01 -0.34487973738E+02  0.74609034387E+02  0.82552000771E+02  0.00000000000E+00 0.  1.
         11    1    1    2    0    0 -0.11789523749E+02  0.61128529437E+02  0.13085757918E+03  0.14491168348E+03  0.00000000000E+00 0. -1.
</event>
<event>
 7    1  0.2612321E-009  0.1171890E+03  0.7561462E-02  0.1247808E+00
          2   -1    0    0  501    0  0.00000000000E+00  0.00000000000E+00  0.23947417209E+03  0.23947417209E+03  0.00000000000E+00 0. -1.
         -2   -1    0    0    0  501 -0.00000000000E+00 -0.00000000000E+00 -0.64770084410E+02  0.64770084410E+02  0.00000000000E+00 0.  1.
         25    2    1    2    0    0  0.55719790732E+02 -0.13729238423E+02  0.76104281814E+02  0.15726533538E+03  0.12508931583E+03 0.  0.
          5    1    3    3  502    0  0.52240847714E+02 -0.63415566350E+02  0.25480585729E+02  0.86124171256E+02  0.41800000000E+01 0. -1.
         -5    1    3    3    0  502  0.34789430182E+01  0.49686327927E+02  0.50623696085E+02  0.71141164123E+02  0.41800000000E+01 0. -1.
        -11    1    1    2    0    0 -0.83071823909E+01 -0.33910975596E+02  0.11082736138E+02  0.36630459803E+02  0.00000000000E+00 0.  1.
         11    1    1    2    0    0 -0.47412608341E+02  0.47640214019E+02  0.87517069724E+02  0.11034846132E+03  0.00000000000E+00 0. -1.
</event>
<event>
 6    1  0.2612321E-009  0.9000115E+02  0.7561462E-02  0.1302849E+00
          1   -1    0    0  501    0  0.00000000000E+00  0.00000000000E+00  0.27748459927E+03  0.27748459927E+03  0.00000000000E+00 0. -1.
         -1   -1    0    0    0  501 -0.00000000000E+00 -0.00000000000E+00 -0.65871450846E+02  0.65871450846E+02  0.00000000000E+00 0.  1.
          5    1    1    2  502    0  0.39713663696E+02  0.91492777803E+01  0.19641804676E+03  0.20064497467E+03  0.41800000000E+01 0.  1.
         -5    1    1    2    0  502  0.15646268691E+02 -0.27121960755E+02 -0.83549163858E+01  0.32675426653E+02  0.41800000000E+01 0.  1.
        -11    1    1    2    0    0 -0.72165726718E+02 -0.11928521142E+02  0.14617618652E+02  0.74591262923E+02  0.00000000000E+00 0. -1.
         11    1    1    2    0    0  0.16805794332E+02  0.29901204117E+02  0.89323994015E+01  0.35444385872E+02  0.00000000000E+00 0.  1.
</event>
<event>
 7    1  0.2612321E-009  0.1795358E+03  0.7561462E-02  0.1168253E+00
          2   -1    0    0  501    0  0.00000000000E+00  0.00000000000E+00  0.10845764817E+03  0.10845764817E+03  0.00000000000E+00 0. -1.
         -2   -1    0    0    0  501 -0.00000000000E+00 -0.00000000000E+00 -0.41184713281E+03  0.41184713281E+03  0.00000000000E+00 0.  1.
         25    2    1    2    0    0 -0.90837294023E+02 -0.13931821299E+03 -0.24597534118E+03  0.32219918380E+03  0.12508983620E+03 0.  0.
          5    1    3    3  502    0 -0.21091665981E+02  0.31765014958E+01 -0.11323297776E+03  0.11530016560E+03  0.41800000000E+01 0.  1.
         -5    1    3    3    0  502 -0.69745628042E+02 -0.14249471448E+03 -0.13274236342E+03  0.20689901820E+03  0.41800000000E+01 0.  1.
        -11    1    1    2    0    0  0.10098580837E+03  0.12022223016E+03 -0.24772269318E+02  0.15895025462E+03  0.00000000000E+00 0. -1.
         11    1    1    2    0    0 -0.10148514348E+02  0.19095982826E+02 -0.32641874137E+02  0.39155342557E+02  0.00000000000E+00 0.  1.
</event>
<event>
 7    1  0.2612321E-009  0.1117708E+03  0.7561462E-02  0.1257325E+00
          2   -1    0    0  501    0  0.00000000000E+00  0.00000000000E+00  0.16698873539E+03  0.16698873539E+03  0.00000000000E+00 0.  1.
         -2   -1    0    0    0  501 -0.00000000000E+00 -0.00000000000E+00 -0.78935782975E+02  0.78935782975E+02  0.00000000000E+00 0. -1.
         25    2    1    2    0    0  0.36267314961E+02  0.75744503353E+01  0.42303926505E+02  0.13714952824E+03  0.12509068896E+03 0.  0.
          5    1    3    3  502    0  0.72950110013E+02 -0.24577667677E+02  0.42825825690E+02  0.88189024518E+02  0.41800000000E+01 0. -1.
         -5    1    3    3    0  502 -0.36682795053E+02  0.32152118013E+02 -0.52189918524E+00  0.48960503718E+02  0.41800000000E+01 0. -1.
        -11    1    1    2    0    0 -0.63217631492E+01  0.40425209548E+02  0.27621104537E+02  0.49366868162E+02  0.00000000000E+00 0.  1.
         11    1    1    2    0    0 -0.29945551811E+02 -0.47999659883E+02  0.18127921373E+02  0.59408121965E+02  0.00000000000E+00 0. -1.
</event>
<event>
 7    1  0.2612321E-009  0.8080759E+02  0.7561462E-02  0.1326775E+00
          1   -1    0    0  501    0  0.00000000000E+00  0.00000000000E+00  0.18538950711E+03  0.18538950711E+03  0.00000000000E+00 0. -1.
         -1   -1    0    0    0  501 -0.00000000000E+00 -0.00000000000E+00 -0.24969909914E+03  0.24969909914E+03  0.00000000000E+00 0.  1.
         25    2    1    2    0    0 -0.14463908670E+01 -0.59091332540E+01 -0.22094611875E+03  0.25397431840E+03  0.12509499235E+03 0.  0.
          5    1    3    3  502    0 -0.98558185742E+01  0.39191948000E+02 -0.15593259449E+02  0.43517445789E+02  0.41800000000E+01 0. -1.
         -5    1    3    3    0  502  0.84094277072E+01 -0.45101081254E+02 -0.20535285930E+03  0.21045687261E+03  0.41800000000E+01 0. -1.
        -11    1    1    2    0    0 -0.36612495378E+02  0.36274026625E+01  0.26062374686E+02  0.45087473229E+02  0.00000000000E+00 0.  1.
         11    1    1    2    0    0  0.38058886245E+02  0.22817305915E+01  0.13057415203E+03  0.13602681462E+03  0.00000000000E+00 0. -1.
</event>
<event>
 7    1  0.2612321E-009  0.1103170E+03  0.7561462E-02  0.1259984E+00
          3   -1    0    0  501    0  0.00000000000E+00  0.00000000000E+00  0.28071900258E+03  0.28071900258E+03  0.00000000000E+00 0. -1.
         -3   -1    0    0    0  501 -0.00000000000E+00 -0.00000000000E+00 -0.51352277589E+02  0.51352277589E+02  0.00000000000E+00 0.  1.
         25    2    1    2    0    0  0.36503325177E+02  0.10813836263E+02  0.14534718260E+03  0.19550864249E+03  0.12509354098E+03 0.  0.
          5    1    3    3  502    0  0.63435897308E+02 -0.33990748047E+02  0.53607497165E+02  0.89837187024E+02  0.41800000000E+01 0. -1.
         -5    1    3    3    0  502 -0.26932572131E+02  0.44804584310E+02  0.91739685430E+02  0.10567145546E+03  0.41800000000E+01 0. -1.
        -11    1    1    2    0    0  0.93105564045E+01 -0.40469398182E+02  0.69148675383E+01  0.42098385276E+02  0.00000000000E+00 0.  1.
         11    1    1    2    0    0 -0.45813881581E+02  0.29655561919E+02  0.77104674861E+02  0.94464252411E+02  0.00000000000E+00 0. -1.
</event>
<event>
 7    1  0.2612321E-009  0.4546636E+03  0.7561462E-02  0.1026340E+00
         -1   -1    0    0    0  501 -0.00000000000E+00  0.00000000000E+00  0.80616271142E+02  0.80616271142E+02  0.00000000000E+00 0.  1.
          1   -1    0    0  501    0  0.00000000000E+00 -0.00000000000E+00 -0.29507494475E+04  0.29507494475E+04  0.00000000000E+00 0. -1.
         25    2    1    2    0    0 -0.41563500017E+03  0.15076233065E+03 -0.19884249838E+04  0.20408241428E+04  0.12509009472E+03 0.  0.
          5    1    3    3  502    0 -0.18164392092E+03  0.13050168502E+03 -0.10331992498E+04  0.10571392368E+04  0.41800000000E+01 0. -1.
         -5    1    3    3    0  502 -0.23399107925E+03  0.20260645633E+02 -0.95522573401E+03  0.98368490598E+03  0.41800000000E+01 0. -1.
        -11    1    1    2    0    0  0.34499764394E+03 -0.87557952206E+02 -0.71768483247E+03  0.80110004873E+03  0.00000000000E+00 0. -1.
         11    1    1    2    0    0  0.70637356230E+02 -0.63204378448E+02 -0.16402336007E+03  0.18944152712E+03  0.00000000000E+00 0.  1.
</event>
<event>
 7    1  0.2612321E-009  0.1076046E+03  0.7561462E-02  0.1265071E+00
         -1   -1    0    0    0  501 -0.00000000000E+00  0.00000000000E+00  0.40732704414E+02  0.40732704414E+02  0.00000000000E+00 0.  1.
          1   -1    0    0  501    0  0.00000000000E+00 -0.00000000000E+00 -0.53061402426E+03  0.53061402426E+03  0.00000000000E+00 0. -1.
         25    2    1    2    0    0 -0.88818568697E+02  0.35522787035E+02 -0.32497201663E+03  0.36111222618E+03  0.12507846241E+03 0.  0.
          5    1    3    3  502    0 -0.70057121960E+01  0.17901564317E+02  0.53017517938E+01  0.20374665162E+02  0.41800000000E+01 0.  1.
         -5    1    3    3    0  502 -0.81812856501E+02  0.17621222718E+02 -0.33027376842E+03  0.34073756102E+03  0.41800000000E+01 0.  1.
        -11    1    1    2    0    0  0.25319451700E+02  0.16016631471E+02 -0.46569121712E+01  0.30319860637E+02  0.00000000000E+00 0.  1.
         11    1    1    2    0    0  0.63499116997E+02 -0.51539418506E+02 -0.16025239104E+03  0.17991464186E+03  0.00000000000E+00 0. -1.
</event>
<event>
 7    1  0.2612321E-009  0.9161660E+02  0.7561462E-02  0.1298983E+00
         -2   -1    0    0    0  501 -0.00000000000E+00  0.00000000000E+00  0.54383440356E+02  0.54383440356E+02  0.00000000000E+00 0.  1.
          2   -1    0    0  501    0  0.00000000000E+00 -0.00000000000E+00 -0.22597853234E+03  0.22597853234E+03  0.00000000000E+00 0. -1.
         25    2    1    2    0    0  0.23264343526E+02 -0.38276493716E+01 -0.11380979207E+03  0.17074847718E+03  0.12508594289E+03 0.  0.
          5    1    3    3  502    0 -0.21800722648E+02  0.35447567431E+02 -0.10121402850E+03  0.10951508348E+03  0.41800000000E+01 0. -1.
         -5    1    3    3    0  502  0.45065066173E+02 -0.39275216802E+02 -0.12595763572E+02  0.61233393700E+02  0.41800000000E+01 0. -1.
        -11    1    1    2    0    0 -0.13164271435E+02 -0.37080740454E+02 -0.15967176071E+01  0.39380564523E+02  0.00000000000E+00 0.  1.
         11    1    1    2    0    0 -0.10100072091E+02  0.40908389826E+02 -0.56188582315E+02  0.70232931001E+02  0.00000000000E+00 0. -1.
</event>
<event>
 7    1  0.2612321E-009  0.1556880E+03  0.7561462E-02  0.1193653E+00
         -1   -1    0    0    0  501 -0.00000000000E+00  0.00000000000E+00  0.40057766255E+03  0.40057766255E+03  0.00000000000E+00 0.  1.
          1   -1    0    0  501    0  0.00000000000E+00 -0.00000000000E+00 -0.76865416741E+02  0.76865416741E+02  0.00000000000E+00 0. -1.
         25    2    1    2    0    0 -0.31732070477E+02 -0.13174055834E+03  0.20560024581E+03  0.27618875681E+03  0.12508504829E+03 0.  0.
          5    1    3    3  502    0 -0.30485301268E+02  0.32661863364E+01  0.92322275672E+00  0.30957168909E+02  0.41800000000E+01 0. -1.
         -5    1    3    3    0  502 -0.12467692091E+01 -0.13500674467E+03  0.20467702305E+03  0.24523158790E+03  0.41800000000E+01 0. -1.
        -11    1    1    2    0    0  0.78953191369E+01  0.11713319636E+03  0.49952789301E+02  0.12758449323E+03  0.00000000000E+00 0. -1.
         11    1    1    2    0    0  0.23836751340E+02  0.14607361976E+02  0.68159210701E+02  0.73669829250E+02  0.00000000000E+00 0.  1.
</event>
<event>
 7    1  0.2612321E-009  0.1358035E+03  0.7561462E-02  0.1219090E+00
          4   -1    0    0  501    0  0.00000000000E+00  0.00000000000E+00  0.46295333613E+03  0.46295333613E+03  0.00000000000E+00 0.  1.
         -4   -1    0    0    0  501 -0.00000000000E+00 -0.00000000000E+00 -0.41966010961E+02  0.41966010961E+02  0.00000000000E+00 0. -1.
         25    2    1    2    0    0 -0.46301276927E+02  0.73059996460E+02  0.21143183895E+03  0.26044839683E+03  0.12509345930E+03 0.  0.
          5    1    3    3  502    0 -0.55630390121E+01  0.97753560371E+02  0.17407574776E+03  0.19976622418E+03  0.41800000000E+01 0.  1.
         -5    1    3    3    0  502 -0.40738237915E+02 -0.24693563910E+02  0.37356091196E+02  0.60682172641E+02  0.41800000000E+01 0.  1.
        -11    1    1    2    0    0  0.86209177433E+01  0.21946659907E+02  0.43605563072E+02  0.49572383790E+02  0.00000000000E+00 0.  1.
         11    1    1    2    0    0  0.37680359183E+02 -0.95006656367E+02  0.16594992314E+03  0.19489856647E+03  0.00000000000E+00 0. -1.
</event>
<event>
 7    1  0.2612321E-009  0.9523252E+02  0.7561462E-02  0.1290653E+00
          2   -1    0    0  501    0  0.00000000000E+00  0.00000000000E+00  0.30500186840E+03  0.30500186840E+03  0.00000000000E+00 0. -1.
         -2   -1    0    0    0  501 -0.00000000000E+00 -0.00000000000E+00 -0.44335708854E+02  0.44335708854E+02  0.00000000000E+00 0.  1.
         25    2    1    2    0    0 -0.13299806051E+02 -0.40051501002E+02  0.14397525574E+03  0.19534126410E+03  0.12509327569E+03 0.  0.
          5    1    3    3  502    0 -0.25811900265E+02  0.29292446999E+02  0.11040112413E+03  0.11717586038E+03  0.41800000000E+01 0.  1.
         -5    1    3    3    0  502  0.12512094214E+02 -0.69343948000E+02  0.33574131605E+02  0.78165403721E+02  0.41800000000E+01 0.  1.
        -11    1    1    2    0    0 -0.28244586622E+02  0.18980031158E+02  0.68860260323E+01  0.34719095765E+02  0.00000000000E+00 0.  1.
         11    1    1    2    0    0  0.41544392673E+02  0.21071469844E+02  0.10980487778E+03  0.11927721739E+03  0.00000000000E+00 0. -1.
</event>
<event>
 7    1  0.2612321E-009  0.1823089E+03  0.7561462E-02  0.1165587E+00
         -1   -1    0    0    0  501 -0.00000000000E+00  0.00000000000E+00  0.15383361591E+03  0.15383361591E+03  0.00000000000E+00 0.  1.
          1   -1    0    0  501    0  0.00000000000E+00 -0.00000000000E+00 -0.36354382805E+03  0.36354382805E+03  0.00000000000E+00 0. -1.
         25    2    1    2    0    0 -0.80007653859E+02 -0.14154568523E+03 -0.25328438932E+03  0.32594009652E+03  0.12509020330E+03 0.  0.
          5    1    3    3  502    0  0.14702274959E+02 -0.51295249885E+02 -0.14982180998E+03  0.15909558981E+03  0.41800000000E+01 0. -1.
         -5    1    3    3    0  502 -0.94709928818E+02 -0.90250435348E+02 -0.10346257933E+03  0.16684450671E+03  0.41800000000E+01 0. -1.
        -11    1    1    2    0    0  0.21294210105E+02  0.11286858150E+03  0.37613795085E+01  0.11492131242E+03  0.00000000000E+00 0. -1.
         11    1    1    2    0    0  0.58713443754E+02  0.28677103738E+02  0.39812797671E+02  0.76516035016E+02  0.00000000000E+00 0.  1.
</event>
<event>
 7    1  0.2612321E-009  0.8747552E+02  0.7561462E-02  0.1309083E+00
          2   -1    0    0  501    0  0.00000000000E+00  0.00000000000E+00  0.73053496997E+02  0.73053496997E+02  0.00000000000E+00 0.  1.
         -2   -1    0    0    0  501 -0.00000000000E+00 -0.00000000000E+00 -0.19198447690E+03  0.19198447690E+03  0.00000000000E+00 0. -1.
         25    2    1    2    0    0 -0.12272629736E+01 -0.29839912298E+02 -0.28129364530E+02  0.13164674519E+03  0.12509067843E+03 0.  0.
          5    1    3    3  502    0  0.25904037875E+02  0.12882256804E+02 -0.63402726883E+02  0.69816544563E+02  0.41800000000E+01 0. -1.
         -5    1    3    3    0  502 -0.27131300848E+02 -0.42722169102E+02  0.35273362353E+02  0.61830200632E+02  0.41800000000E+01 0. -1.
        -11    1    1    2    0    0  0.25336550280E+02  0.54715419874E+02 -0.41749322756E+02  0.73339783901E+02  0.00000000000E+00 0. -1.
         11    1    1    2    0    0 -0.24109287306E+02 -0.24875507576E+02 -0.49052292614E+02  0.60051444798E+02  0.00000000000E+00 0.  1.
</event>
<event>
 7    1  0.2612321E-009  0.1087338E+03  0.7561462E-02  0.1262933E+00
         -3   -1    0    0    0  501 -0.00000000000E+00  0.00000000000E+00  0.81854218007E+03  0.81854218007E+03  0.00000000000E+00 0.  1.
          3   -1    0    0  501    0  0.00000000000E+00 -0.00000000000E+00 -0.14484465638E+02  0.14484465638E+02  0.00000000000E+00 0. -1.
         25    2    1    2    0    0  0.49297465770E+01 -0.51985875918E+01  0.44837243289E+03  0.46554639402E+03  0.12507709100E+03 0.  0.
          5    1    3    3  502    0 -0.14821912736E+01  0.59697754910E+02  0.22235315003E+03  0.23027030759E+03  0.41800000000E+01 0.  1.
         -5    1    3    3    0  502  0.64119378506E+01 -0.64896342502E+02  0.22601928286E+03  0.23527608642E+03  0.41800000000E+01 0.  1.
        -11    1    1    2    0    0  0.39766597378E+02 -0.15907445676E+02  0.17355571038E+03  0.17876245048E+03  0.00000000000E+00 0.  1.
         11    1    1    2    0    0 -0.44696343955E+02  0.21106033268E+02  0.18212957116E+03  0.18871780121E+03  0.00000000000E+00 0. -1.
</event>
<event>
 7    1  0.2612321E-009  0.1278435E+03  0.7561462E-02  0.1230691E+00
         -1   -1    0    0    0  501 -0.00000000000E+00  0.00000000000E+00  0.18141609120E+03  0.18141609120E+03  0.00000000000E+00 0.  1.
          1   -1    0    0  501    0  0.00000000000E+00 -0.00000000000E+00 -0.17529946942E+03  0.17529946942E+03  0.00000000000E+00 0. -1.
         25    2    1    2    0    0  0.66345062259E+02  0.29569840871E+02  0.12438833266E+03  0.19077900246E+03  0.12509247660E+03 0.  0.
          5    1    3    3  502    0  0.83576590483E+02 -0.21127527622E+02  0.99101402689E+02  0.13141529331E+03  0.41800000000E+01 0. -1.
         -5    1    3    3    0  502 -0.17231528224E+02  0.50697368492E+02  0.25286929973E+02  0.59363709153E+02  0.41800000000E+01 0. -1.
        -11    1    1    2    0    0 -0.88096702164E+02 -0.14679800752E+02 -0.98668266422E+02  0.13308625880E+03  0.00000000000E+00 0.  1.
         11    1    1    2    0    0  0.21751639904E+02 -0.14890040119E+02 -0.19603444456E+02  0.32850299356E+02  0.00000000000E+00 0. -1.
</event>
<event>
 6    1  0.2612321E-009  0.1262422E+03  0.7561462E-02  0.1233141E+00
         -1   -1    0    0    0  501 -0.00000000000E+00  0.00000000000E+00  0.32043835054E+03  0.32043835054E+03  0.00000000000E+00 0.  1.
          1   -1    0    0  501    0  0.00000000000E+00 -0.00000000000E+00 -0.68457464858E+02  0.68457464858E+02  0.00000000000E+00 0. -1.
          5    1    1    2  502    0 -0.27824702968E+02  0.25609446944E+02  0.40675726764E+02  0.55696005384E+02  0.41800000000E+01 0.  1.
         -5    1    1    2    0  502  0.10078039465E+03 -0.24962795552E+02  0.18793510419E+03  0.21474846890E+03  0.41800000000E+01 0.  1.
        -11    1    1    2    0    0 -0.13707252148E+02 -0.38061635120E+02 -0.87136106276E+01  0.41382409785E+02  0.00000000000E+00 0. -1.
         11    1    1    2    0    0 -0.59248439530E+02  0.37414983729E+02  0.32083665359E+02  0.77068931334E+02  0.00000000000E+00 0.  1.
</event>
<event>
 7    1  0.2612321E-009  0.1063460E+03  0.7561462E-02  0.1267490E+00
          1   -1    0    0  501    0  0.00000000000E+00  0.00000000000E+00  0.24780636017E+03  0.24780636017E+03  0.00000000000E+00 0. -1.
         -1   -1    0    0    0  501 -0.00000000000E+00 -0.00000000000E+00 -0.70143254569E+02  0.70143254569E+02  0.00000000000E+00 0.  1.
         25    2    1    2    0    0 -0.88537298529E+00  0.72014060345E+02  0.90839766124E+02  0.17054706259E+03  0.12509048196E+03 0.  0.
          5    1    3    3  502    0  0.56622094228E+02  0.55290107595E+02  0.73426929728E+02  0.10803723415E+03  0.41800000000E+01 0.  1.
         -5    1    3    3    0  502 -0.57507467213E+02  0.16723952751E+02  0.17412836396E+02  0.62509828445E+02  0.41800000000E+01 0.  1.
        -11    1    1    2    0    0  0.60987211469E+01 -0.15562040747E+02  0.89110200409E+02  0.90664211952E+02  0.00000000000E+00 0. -1.
         11    1    1    2    0    0 -0.52133481616E+01 -0.56452019598E+02 -0.22868609282E+01  0.56738340200E+02  0.00000000000E+00 0.  1.
</event>
<event>
 7    1  0.2612321E-009  0.1046206E+03  0.7561462E-02  0.1270869E+00
          1   -1    0    0  501    0  0.00000000000E+00  0.00000000000E+00  0.21613209480E+03  0.21613209480E+03  0.00000000000E+00 0. -1.
         -1   -1    0    0    0  501 -0.00000000000E+00 -0.00000000000E+00 -0.74950688161E+02  0.74950688161E+02  0.00000000000E+00 0.  1.
         25    2    1    2    0    0 -0.13508553675E+02 -0.41122691266E+02  0.23000709365E+02  0.13435292019E+03  0.12509243691E+03 0.  0.
          5    1    3    3  502    0 -0.11396526624E+02  0.34149194893E+02 -0.25831937014E+02  0.44506288329E+02  0.41800000000E+01 0. -1.
         -5    1    3    3    0  502 -0.21120270511E+01 -0.75271886159E+02  0.48832646379E+02  0.89846631860E+02  0.41800000000E+01 0. -1.
        -11    1    1    2    0    0  0.50238272469E+02  0.14732443778E+02  0.87872126890E+02  0.10228606750E+03  0.00000000000E+00 0.  1.
         11    1    1    2    0    0 -0.36729718794E+02  0.26390247489E+02  0.30308570388E+02  0.54443795277E+02  0.00000000000E+00 0. -1.
</event>
<event>
 7    1  0.2612321E-009  0.1058186E+03  0.7561462E-02  0.1268515E+00
          1   -1    0    0  501    0  0.00000000000E+00  0.00000000000E+00  0.61771539350E+02  0.61771539350E+02  0.00000000000E+00 0. -1.
         -1   -1    0    0    0  501 -0.00000000000E+00 -0.00000000000E+00 -0.23982183975E+03  0.23982183975E+03  0.00000000000E+00 0.  1.
         25    2    1    2    0    0 -0.54408113773E+02  0.60698536133E+01 -0.10844768685E+03  0.17436986919E+03  0.12508742755E+03 0.  0.
          5    1    3    3  502    0  0.30569691711E+02  0.21078313596E+02 -0.70951338846E+02  0.80189564405E+02  0.41800000000E+01 0.  1.
         -5    1    3    3    0  502 -0.84977805484E+02 -0.15008459983E+02 -0.37496348000E+02  0.94180304784E+02  0.41800000000E+01 0.  1.
        -11    1    1    2    0    0  0.50527146971E+02 -0.33207434662E+02 -0.95533022070E+01  0.61212677453E+02  0.00000000000E+00 0.  1.
         11    1    1    2    0    0  0.38809668013E+01  0.27137581048E+02 -0.60049311348E+02  0.66010832458E+02  0.00000000000E+00 0. -1.
</event>
<event>
 7    1  0.2612321E-009  0.1112912E+03  0.7561462E-02  0.1258197E+00
          2   -1    0    0  501    0  0.00000000000E+00  0.00000000000E+00  0.84567408663E+03  0.84567408663E+03  0.00000000000E+00 0.  1.
         -2   -1    0    0    0  501 -0.00000000000E+00 -0.00000000000E+00 -0.23256287619E+02  0.23256287619E+02  0.00000000000E+00 0. -1.
         25    2    1    2    0    0  0.62621406054E+02 -0.55492239906E+02  0.54019241043E+03  0.56076401818E+03  0.12509042578E+03 0.  0.
          5    1    3    3  502    0  0.28692836404E+02  0.24028279459E+02  0.47952148457E+02  0.60971452470E+02  0.41800000000E+01 0. -1.
         -5    1    3    3    0  502  0.33928569649E+02 -0.79520519365E+02  0.49224026197E+03  0.49979256571E+03  0.41800000000E+01 0. -1.
        -11    1    1    2    0    0 -0.45832499046E+02  0.64646475770E+02  0.27732651441E+03  0.28842638644E+03  0.00000000000E+00 0.  1.
         11    1    1    2    0    0 -0.16788907008E+02 -0.91542358635E+01  0.48988741745E+01  0.19739969628E+02  0.00000000000E+00 0. -1.
</event>
<event>
 7    1  0.2612321E-009  0.1746009E+03  0.7561462E-02  0.1173133E+00
          2   -1    0    0  501    0  0.00000000000E+00  0.00000000000E+00  0.72747756460E+03  0.72747756460E+03  0.00000000000E+00 0. -1.
         -2   -1    0    0    0  501 -0.00000000000E+00 -0.00000000000E+00 -0.52288553415E+02  0.52288553415E+02  0.00000000000E+00 0.  1.
         25    2    1    2    0    0 -0.13799910175E+03 -0.30541401408E+02  0.51755613775E+03  0.55090027773E+03  0.12510088330E+03 0.  0.
          5    1    3    3  502    0 -0.21693072718E+02 -0.63062979426E+02  0.15681939673E+03  0.17046209071E+03  0.41800000000E+01 0.  1.
         -5    1    3    3    0  502 -0.11630602903E+03  0.32521578018E+02  0.36073674101E+03  0.38043818702E+03  0.41800000000E+01 0.  1.
        -11    1    1    2    0    0  0.76551058392E+02  0.56185362802E+02  0.66189919242E+02  0.11574957859E+03  0.00000000000E+00 0.  1.
         11    1    1    2    0    0  0.61448043354E+02 -0.25643961394E+02  0.91442954199E+02  0.11311626170E+03  0.00000000000E+00 0. -1.
</event>
<event>
 7    1  0.2612321E-009  0.1518637E+03  0.7561462E-02  0.1198201E+00
          2   -1    0    0  501    0  0.00000000000E+00  0.00000000000E+00  0.24628578757E+03  0.24628578757E+03  0.00000000000E+00 0. -1.
         -2   -1    0    0    0  501 -0.00000000000E+00 -0.00000000000E+00 -0.12286438262E+03  0.12286438262E+03  0.00000000000E+00 0.  1.
         25    2    1    2    0    0 -0.12603017244E+03  0.44488756838E+01  0.12930681270E+02  0.17809972633E+03  0.12509561600E+03 0.  0.
          5    1    3    3  502    0  0.15461895613E+01 -0.41653795385E+02  0.18393435344E+01  0.41931908576E+02  0.41800000000E+01 0.  1.
         -5    1    3    3    0  502 -0.12757636200E+03  0.46102671069E+02  0.11091337735E+02  0.13616781776E+03  0.41800000000E+01 0.  1.
        -11    1    1    2    0    0  0.54728397649E+02 -0.10740351628E+01 -0.53321098910E+01  0.54998022297E+02  0.00000000000E+00 0.  1.
         11    1    1    2    0    0  0.71301774788E+02 -0.33748405211E+01  0.11582283357E+03  0.13605242156E+03  0.00000000000E+00 0. -1.
</event>
<event>
 6    1  0.2612321E-009  0.1105349E+03  0.7561462E-02  0.1259582E+00
          3   -1    0    0  501    0  0.00000000000E+00  0.00000000000E+00  0.37790047059E+02  0.37790047059E+02  0.00000000000E+00 0. -1.
         -3   -1    0    0    0  501 -0.00000000000E+00 -0.00000000000E+00 -0.48865197629E+03  0.48865197629E+03  0.00000000000E+00 0.  1.
          5    1    1    2  502    0  0.63784967079E+02 -0.30325845401E+02 -0.57899313535E+02  0.91421998623E+02  0.41800000000E+01 0.  1.
         -5    1    1    2    0  502 -0.31875906097E+02  0.51200063334E+02 -0.49914920499E+02  0.78399563541E+02  0.41800000000E+01 0.  1.
        -11    1    1    2    0    0 -0.37524127491E+02  0.24062545112E+02 -0.23934824148E+03  0.24346385136E+03  0.00000000000E+00 0.  1.
         11    1    1    2    0    0  0.56150665102E+01 -0.44936763046E+02 -0.10369945372E+03  0.11315660983E+03  0.00000000000E+00 0. -1.
</event>
<event>
 7    1  0.2612321E-009  0.1121363E+03  0.7561462E-02  0.1256664E+00
          1   -1    0    0  501    0  0.00000000000E+00  0.00000000000E+00  0.84580688504E+02  0.84580688504E+02  0.00000000000E+00 0. -1.
         -1   -1    0    0    0  501 -0.00000000000E+00 -0.00000000000E+00 -0.18708105010E+03  0.18708105010E+03  0.00000000000E+00 0.  1.
         25    2    1    2    0    0  0.14187608747E+02 -0.60310452543E+02 -0.73206404991E+02  0.15762000516E+03  0.12508496859E+03 0.  0.
          5    1    3    3  502    0  0.23908370412E+02  0.23717830572E+02  0.13400863081E+02  0.36485629968E+02  0.41800000000E+01 0. -1.
         -5    1    3    3    0  502 -0.97207616651E+01 -0.84028283116E+02 -0.86607268072E+02  0.12113437519E+03  0.41800000000E+01 0. -1.
        -11    1    1    2    0    0  0.33114344850E+02  0.45112896285E+02 -0.31669522826E+02  0.64301570137E+02  0.00000000000E+00 0.  1.
         11    1    1    2    0    0 -0.47301953598E+02  0.15197556259E+02  0.23755662250E+01  0.49740163302E+02  0.00000000000E+00 0. -1.
</event>
<event>
 7    1  0.2612321E-009  0.1587545E+03  0.7561462E-02  0.1190110E+00
          2   -1    0    0  501    0  0.00000000000E+00  0.00000000000E+00  0.52302375760E+03  0.52302375760E+03  0.00000000000E+00 0.  1.
         -2   -1    0    0    0  501 -0.00000000000E+00 -0.00000000000E+00 -0.73268908605E+02  0.73268908605E+02  0.00000000000E+00 0. -1.
         25    2    1    2    0    0 -0.24824321507E+02 -0.15016375584E+03  0.32307084184E+03  0.37840181196E+03  0.12509101462E+03 0.  0.
          5    1    3    3  502    0 -0.83399341346E+01 -0.24271215473E+01 -0.98467013684E+01  0.13779526415E+02  0.41800000000E+01 0.  1.
         -5    1    3    3    0  502 -0.16484387372E+02 -0.14773663430E+03  0.33291754320E+03  0.36462228554E+03  0.41800000000E+01 0.  1.
        -11    1    1    2    0    0  0.36143558663E+02  0.76257270827E+02  0.18515183698E+02  0.86396413202E+02  0.00000000000E+00 0. -1.
         11    1    1    2    0    0 -0.11319237156E+02  0.73906485016E+02  0.10816882346E+03  0.13149444104E+03  0.00000000000E+00 0.  1.
</event>
<event>
 7    1  0.2612321E-009  0.1426177E+03  0.7561462E-02  0.1209849E+00
          1   -1    0    0  501    0  0.00000000000E+00  0.00000000000E+00  0.31238441157E+03  0.31238441157E+03  0.00000000000E+00 0. -1.
         -1   -1    0    0    0  501 -0.00000000000E+00 -0.00000000000E+00 -0.80825618471E+02  0.80825618471E+02  0.00000000000E+00 0.  1.
         25    2    1    2    0    0  0.32877849075E+02  0.10690260347E+03  0.18162525574E+03  0.24727315486E+03  0.12508860860E+03 0.  0.
          5    1    3    3  502    0  0.47160280573E+02  0.13031595525E+03  0.16231796700E+03  0.21347349969E+03  0.41800000000E+01 0.  1.
         -5    1    3    3    0  502 -0.14282431497E+02 -0.23413351783E+02  0.19307288737E+02  0.33799655169E+02  0.41800000000E+01 0.  1.
        -11    1    1    2    0    0 -0.36139516292E+02 -0.49191777157E+02 -0.10916841368E+02  0.62008652647E+02  0.00000000000E+00 0.  1.
         11    1    1    2    0    0  0.32616672170E+01 -0.57710826313E+02  0.60850378727E+02  0.83928222536E+02  0.00000000000E+00 0. -1.
</event>
<event>
 7    1  0.2612321E-009  0.2054250E+03  0.7561462E-02  0.1145241E+00
          2   -1    0    0  501    0  0.00000000000E+00  0.00000000000E+00  0.59310422763E+03  0.59310422763E+03  0.00000000000E+00 0. -1.
         -2   -1    0    0    0  501 -0.00000000000E+00 -0.00000000000E+00 -0.86173513363E+02  0.86173513363E+02  0.00000000000E+00 0.  1.
         25    2    1    2    0    0 -0.16550372352E+03  0.94372254174E+02  0.35367959268E+03  0.42075572294E+03  0.12509404164E+03 0.  0.
          5    1    3    3  502    0 -0.83753231109E+02  0.87988175109E+02  0.11115648898E+03  0.16471114146E+03  0.41800000000E+01 0.  1.
         -5    1    3    3    0  502 -0.81750492407E+02  0.63840790650E+01  0.24252310370E+03  0.25604458147E+03  0.41800000000E+01 0.  1.
        -11    1    1    2    0    0 -0.82550499297E+01 -0.12827224788E+02  0.52009411554E+01  0.16116244414E+02  0.00000000000E+00 0.  1.
         11    1    1    2    0    0  0.17375877345E+03 -0.81545029386E+02  0.14805018043E+03  0.24240577364E+03  0.00000000000E+00 0. -1.
</event>
<event>
 7    1  0.2612321E-009  0.3916467E+03  0.7561462E-02  0.1046711E+00
         -2   -1    0    0    0  501 -0.00000000000E+00  0.00000000000E+00  0.14849550318E+04  0.14849550318E+04  0.00000000000E+00 0.  1.
          2   -1    0    0  501    0  0.00000000000E+00 -0.00000000000E+00 -0.10524146928E+03  0.10524146928E+03  0.00000000000E+00 0. -1.
         25    2    1    2    0    0  0.27188546806E+03  0.26249196268E+03  0.77449527026E+03  0.87081216648E+03  0.12508863823E+03 0.  0.
          5    1    3    3  502    0 -0.83262987147E+01 -0.39522412669E+01  0.33391950270E+02  0.34891864440E+02  0.41800000000E+01 0. -1.
         -5    1    3    3    0  502  0.28021176678E+03  0.26644420395E+03  0.74110331999E+03  0.83592030204E+03  0.41800000000E+01 0. -1.
        -11    1    1    2    0    0 -0.19546996101E+03 -0.13401452063E+03  0.40910489827E+03  0.47279510910E+03  0.00000000000E+00 0.  1.
         11    1    1    2    0    0 -0.76415507050E+02 -0.12847744205E+03  0.19611339403E+03  0.24658922554E+03  0.00000000000E+00 0. -1.
</event>
<event>
 7    1  0.2612321E-009  0.1518257E+03  0.7561462E-02  0.1198247E+00
          2   -1    0    0  501    0  0.00000000000E+00  0.00000000000E+00  0.26050963195E+03  0.26050963195E+03  0.00000000000E+00 0. -1.
         -2   -1    0    0    0  501 -0.00000000000E+00 -0.00000000000E+00 -0.91667111725E+02  0.91667111725E+02  0.00000000000E+00 0.  1.
         25    2    1    2    0    0  0.42366596744E+02  0.95240903309E+02  0.11961478474E+03  0.20204127193E+03  0.12508885104E+03 0.  0.
          5    1    3    3  502    0  0.82664957492E+02  0.88935924818E+02  0.83700293157E+02  0.14753408215E+03  0.41800000000E+01 0.  1.
         -5    1    3    3    0  502 -0.40298360748E+02  0.63049784908E+01  0.35914491579E+02  0.54507189784E+02  0.41800000000E+01 0.  1.
        -11    1    1    2    0    0 -0.72513166630E+02 -0.55714474411E+02  0.24808351082E+02  0.94750811485E+02  0.00000000000E+00 0.  1.
         11    1    1    2    0    0  0.30146569886E+02 -0.39526428898E+02  0.24419384410E+02  0.55384660261E+02  0.00000000000E+00 0. -1.
</event>
<event>
 7    1  0.2612321E-009  0.1051714E+03  0.7561462E-02  0.1269782E+00
         -1   -1    0    0    0  501 -0.00000000000E+00  0.00000000000E+00  0.43238021226E+03  0.43238021226E+03  0.00000000000E+00 0.  1.
          1   -1    0    0  501    0  0.00000000000E+00 -0.00000000000E+00 -0.35319514995E+02  0.35319514995E+02  0.00000000000E+00 0. -1.
         25    2    1    2    0    0  0.23134035106E+01  0.31683323853E+02  0.13396614088E+03  0.18602238953E+03  0.12509283616E+03 0.  0.
          5    1    3    3  502    0 -0.58245913781E+02  0.34809662501E+02  0.76997995223E+02  0.10271544550E+03  0.41800000000E+01 0. -1.
         -5    1    3    3    0  502  0.60559317292E+02 -0.31263386475E+01  0.56968145655E+02  0.83306944030E+02  0.41800000000E+01 0. -1.
        -11    1    1    2    0    0 -0.10677317540E+02  0.23473597072E+02  0.21054368572E+02  0.33291159567E+02  0.00000000000E+00 0. -1.
         11    1    1    2    0    0  0.83639140297E+01 -0.55156920925E+02  0.24204018781E+03  0.24838617816E+03  0.00000000000E+00 0.  1.
</event>
<event>
 7    1  0.2612321E-009  0.9681105E+02  0.7561462E-02  0.1287148E+00
         -2   -1    0    0    0  501 -0.00000000000E+00  0.00000000000E+00  0.18365631717E+03  0.18365631717E+03  0.00000000000E+00 0.  1.
          2   -1    0    0  501    0  0.00000000000E+00 -0.00000000000E+00 -0.73134742261E+02  0.73134742261E+02  0.00000000000E+00 0. -1.
         25    2    1    2    0    0 -0.21485952709E+02  0.25433193465E+02  0.89072572468E+02  0.15713051133E+03  0.12509029111E+03 0.  0.
          5    1    3    3  502    0  0.25562391294E+02  0.63627745553E+02  0.47832940301E+02  0.83710145327E+02  0.41800000000E+01 0.  1.
         -5    1    3    3    0  502 -0.47048344003E+02 -0.38194552088E+02  0.41239632166E+02  0.73420366002E+02  0.41800000000E+01 0.  1.
        -11    1    1    2    0    0  0.20997815033E+02 -0.42342894167E+02 -0.22662993904E+02  0.52416030137E+02  0.00000000000E+00 0. -1.
         11    1    1    2    0    0  0.48813767564E+00  0.16909700702E+02  0.44111996351E+02  0.47244517970E+02  0.00000000000E+00 0.  1.
</event>
<event>
 7    1  0.2612321E-009  0.1137216E+03  0.7561462E-02  0.1253829E+00
         -1   -1    0    0    0  501 -0.00000000000E+00  0.00000000000E+00  0.10242140871E+03  0.10242140871E+03  0.00000000000E+00 0.  1.
          1   -1    0    0  501    0  0.00000000000E+00 -0.00000000000E+00 -0.17067072762E+03  0.17067072762E+03  0.00000000000E+00 0. -1.
         25    2    1    2    0    0 -0.49281919057E+02  0.29409323383E+02  0.72877948027E+00  0.13762404240E+03  0.12508489150E+03 0.  0.
          5    1    3    3  502    0  0.24446274923E+02  0.43315986104E+02  0.28541280178E+02  0.57497583288E+02  0.41800000000E+01 0. -1.
         -5    1    3    3    0  502 -0.73728193979E+02 -0.13906662722E+02 -0.27812500698E+02  0.80126459117E+02  0.41800000000E+01 0. -1.
        -11    1    1    2    0    0  0.42053257627E+02  0.24046353552E+02 -0.65427399627E+02  0.81409140876E+02  0.00000000000E+00 0. -1.
         11    1    1    2    0    0  0.72286614294E+01 -0.53455676935E+02 -0.35506987618E+01  0.54058953045E+02  0.00000000000E+00 0.  1.
</event>
<event>
 7    1  0.2927606E-009  0.1082012E+03  0.7561462E-02  0.1263938E+00
         -2   -1    0    0    0  501 -0.00000000000E+00  0.00000000000E+00  0.13647346107E+03  0.13647346107E+03  0.00000000000E+00 0.  1.
          2   -1    0    0  501    0  0.00000000000E+00 -0.00000000000E+00 -0.13222865100E+03  0.13222865100E+03  0.00000000000E+00 0. -1.
         25    2    1    2    0    0  0.29944681280E+02 -0.59448334962E+02  0.44678735884E+02  0.14857146417E+03  0.12508597866E+03 0.  0.
          5    1    3    3  502    0 -0.21050701986E+02  0.30830057722E+02  0.72498761686E+01  0.38257778526E+02  0.41800000000E+01 0.  1.
         -5    1    3    3    0  502  0.50995383266E+02 -0.90278392685E+02  0.37428859715E+02  0.11031368564E+03  0.41800000000E+01 0.  1.
        -11    1    1    2    0    0 -0.31466970066E+02  0.23969370069E+02  0.24208501640E+02  0.46376205734E+02  0.00000000000E+00 0.  1.
         11    1    1    2    0    0  0.15222887856E+01  0.35478964893E+02 -0.64642427448E+02  0.73754442167E+02  0.00000000000E+00 0. -1.
</event>
<event>
 7    1  0.2961469E-009  0.2920614E+03  0.7561462E-02  0.1089278E+00
          1   -1    0    0  501    0  0.00000000000E+00  0.00000000000E+00  0.49030189207E+03  0.49030189207E+03  0.00000000000E+00 0. -1.
         -1   -1    0    0    0  501 -0.00000000000E+00 -0.00000000000E+00 -0.19447547673E+03  0.19447547673E+03  0.00000000000E+00 0.  1.
         25    2    1    2    0    0  0.13856435665E+03 -0.25275548158E+03  0.13129007043E+03  0.34054332361E+03  0.12508900133E+03 0.  0.
          5    1    3    3  502    0  0.65659341910E+02 -0.68712727791E+02 -0.12346611568E+02  0.95929658385E+02  0.41800000000E+01 0.  1.
         -5    1    3    3    0  502  0.72905014744E+02 -0.18404275379E+03  0.14363668199E+03  0.24461366522E+03  0.41800000000E+01 0.  1.
        -11    1    1    2    0    0 -0.64051234587E+02  0.15769465184E+03  0.14134619216E+03  0.22124400536E+03  0.00000000000E+00 0.  1.
         11    1    1    2    0    0 -0.74513122067E+02  0.95060829748E+02  0.23190152749E+02  0.12299003983E+03  0.00000000000E+00 0. -1.
</event>
<event>
 7    1  0.2612321E-009  0.6580597E+02  0.7561462E-02  0.1374965E+00
         -2   -1    0    0    0  501 -0.00000000000E+00  0.00000000000E+00  0.33541623236E+03  0.33541623236E+03  0.00000000000E+00 0.  1.
          2   -1    0    0  501    0  0.00000000000E+00 -0.00000000000E+00 -0.53554483854E+02  0.53554483854E+02  0.00000000000E+00 0. -1.
         25    2    1    2    0    0 -0.68078003862E+00 -0.10435788162E+02  0.26605463860E+03  0.29418097963E+03  0.12509200182E+03 0.  0.
          5    1    3    3  502    0 -0.31281417935E+02 -0.32971391527E+02  0.29026673779E+02  0.54089370101E+02  0.41800000000E+01 0.  1.
         -5    1    3    3    0  502  0.30600637897E+02  0.22535603366E+02  0.23702796482E+03  0.24009160953E+03  0.41800000000E+01 0.  1.
        -11    1    1    2    0    0 -0.22877595986E+02  0.32427217056E+01 -0.32902963017E+02  0.40205778409E+02  0.00000000000E+00 0. -1.
         11    1    1    2    0    0  0.23558376025E+02  0.71930664559E+01  0.48710072915E+02  0.54583958169E+02  0.00000000000E+00 0.  1.
</event>
<event>
 7    1  0.2612321E-009  0.7820457E+02  0.7561462E-02  0.1334225E+00
         -2   -1    0    0    0  501 -0.00000000000E+00  0.00000000000E+00  0.78683840183E+02  0.78683840183E+02  0.00000000000E+00 0.  1.
          2   -1    0    0  501    0  0.00000000000E+00 -0.00000000000E+00 -0.22193558208E+03  0.22193558208E+03  0.00000000000E+00 0. -1.
         25    2    1    2    0    0  0.47310575523E+02 -0.20374045186E+02 -0.13954784256E+03  0.19435678588E+03  0.12509023776E+03 0.  0.
          5    1    3    3  502    0 -0.27841431851E+01  0.40404589591E+01  0.22257825055E+02  0.23172396036E+02  0.41800000000E+01 0. -1.
         -5    1    3    3    0  502  0.50094718708E+02 -0.24414504145E+02 -0.16180566761E+03  0.17118438985E+03  0.41800000000E+01 0. -1.
        -11    1    1    2    0    0 -0.19228398964E+02 -0.30450024636E+02  0.22599304395E+02  0.42516630702E+02  0.00000000000E+00 0.  1.
         11    1    1    2    0    0 -0.28082176559E+02  0.50824069823E+02 -0.26303203735E+02  0.63746005682E+02  0.00000000000E+00 0. -1.
</event>
<event>
 7    1  0.2612321E-009  0.1095877E+03  0.7561462E-02  0.1261335E+00
          1   -1    0    0  501    0  0.00000000000E+00  0.00000000000E+00  0.40734455402E+03  0.40734455402E+03  0.00000000000E+00 0. -1.
         -1   -1    0    0    0  501 -0.00000000000E+00 -0.00000000000E+00 -0.35233232136E+02  0.35233232136E+02  0.00000000000E+00 0.  1.
         25    2    1    2    0    0  0.44926888929E+02  0.21081447533E+02  0.24080398634E+03  0.27585670601E+03  0.12509000613E+03 0.  0.
          5    1    3    3  502    0  0.58666735913E+02  0.54720525488E+02  0.21901168591E+03  0.23328033089E+03  0.41800000000E+01 0.  1.
         -5    1    3    3    0  502 -0.13739846984E+02 -0.33639077955E+02  0.21792300431E+02  0.42576375126E+02  0.41800000000E+01 0.  1.
        -11    1    1    2    0    0  0.18978685394E+02  0.18979422779E+02  0.27732759106E+02  0.38594234232E+02  0.00000000000E+00 0.  1.
         11    1    1    2    0    0 -0.63905574323E+02 -0.40060870312E+02  0.10357457644E+03  0.12812684591E+03  0.00000000000E+00 0. -1.
</event>
<event>
 7    1  0.2612321E-009  0.3344993E+03  0.7561462E-02  0.1069163E+00
         -2   -1    0    0    0  501 -0.00000000000E+00  0.00000000000E+00  0.24059448781E+04  0.24059448781E+04  0.00000000000E+00 0.  1.
          2   -1    0    0  501    0  0.00000000000E+00 -0.00000000000E+00 -0.49073563940E+02  0.49073563940E+02  0.00000000000E+00 0. -1.
         25    2    1    2    0    0  0.30751093682E+03 -0.81110762408E+02  0.14515591998E+04  0.14912458719E+04  0.12509279687E+03 0.  0.
          5    1    3    3  502    0  0.43637018411E+02 -0.60079679831E+02  0.24791966562E+03  0.25883467756E+03  0.41800000000E+01 0. -1.
         -5    1    3    3    0  502  0.26387391841E+03 -0.21031082577E+02  0.12036395342E+04  0.12324111944E+04  0.41800000000E+01 0. -1.
        -11    1    1    2    0    0 -0.24390930955E+03  0.25213883346E+02  0.64516138769E+03  0.69018889252E+03  0.00000000000E+00 0. -1.
         11    1    1    2    0    0 -0.63601627274E+02  0.55896879062E+02  0.26015072659E+03  0.27358367756E+03  0.00000000000E+00 0.  1.
</event>
<event>
 7    1  0.2612321E-009  0.1315422E+03  0.7561462E-02  0.1225185E+00
          2   -1    0    0  501    0  0.00000000000E+00  0.00000000000E+00  0.30538718523E+03  0.30538718523E+03  0.00000000000E+00 0. -1.
         -2   -1    0    0    0  501 -0.00000000000E+00 -0.00000000000E+00 -0.83211936029E+02  0.83211936029E+02  0.00000000000E+00 0.  1.
         25    2    1    2    0    0  0.79250167002E+02  0.70338328218E+02  0.48825503551E+02  0.17105157680E+03  0.12508654101E+03 0.  0.
          5    1    3    3  502    0  0.31478482533E+02  0.92965750588E+02 -0.10658887354E+01  0.98245275529E+02  0.41800000000E+01 0. -1.
         -5    1    3    3    0  502  0.47771684470E+02 -0.22627422369E+02  0.49891392287E+02  0.72806301269E+02  0.41800000000E+01 0. -1.
        -11    1    1    2    0    0 -0.63929157537E+00 -0.16564925091E+02  0.88347463937E+02  0.89889264215E+02  0.00000000000E+00 0. -1.
         11    1    1    2    0    0 -0.78610875427E+02 -0.53773403127E+02  0.85002281713E+02  0.12765828025E+03  0.00000000000E+00 0.  1.
</event>
<event>
 7    1  0.2612321E-009  0.1293099E+03  0.7561462E-02  0.1228483E+00
          2   -1    0    0  501    0  0.00000000000E+00  0.00000000000E+00  0.12267853547E+03  0.12267853547E+03  0.00000000000E+00 0. -1.
         -2   -1    0    0    0  501 -0.00000000000E+00 -0.00000000000E+00 -0.23348828773E+03  0.23348828773E+03  0.00000000000E+00 0.  1.
         25    2    1    2    0    0  0.12146025912E+03 -0.29064465058E+02 -0.27332889447E+02  0.17885660424E+03  0.12508101519E+03 0.  0.
          5    1    3    3  502    0  0.56346665396E+02 -0.36267904577E+02  0.45270951727E+02  0.80976781080E+02  0.41800000000E+01 0. -1.
         -5    1    3    3    0  502  0.65113593722E+02  0.72034395191E+01 -0.72603841174E+02  0.97879823159E+02  0.41800000000E+01 0. -1.
        -11    1    1    2    0    0 -0.60787845274E+02  0.66294575823E+01 -0.93631953349E+02  0.11183047227E+03  0.00000000000E+00 0.  1.
         11    1    1    2    0    0 -0.60672413845E+02  0.22435007476E+02  0.10155090542E+02  0.65479746687E+02  0.00000000000E+00 0. -1.
</event>
<event>
 7    1  0.2612321E-009  0.1342075E+03  0.7561462E-02  0.1221343E+00
          1   -1    0    0  501    0  0.00000000000E+00  0.00000000000E+00  0.11439921824E+03  0.11439921824E+03  0.00000000000E+00 0. -1.
         -1   -1    0    0    0  501 -0.00000000000E+00 -0.00000000000E+00 -0.31369859351E+03  0.31369859351E+03  0.00000000000E+00 0.  1.
         25    2    1    2    0    0 -0.12109518213E+03  0.65021671562E+01 -0.21319323844E+03  0.27533136134E+03  0.12509868229E+03 0.  0.
          5    1    3    3  502    0  0.84607694147E+01  0.48160122383E+00  0.12092451686E+02  0.15346541845E+02  0.41800000000E+01 0. -1.
         -5    1    3    3    0  502 -0.12955595154E+03  0.60205659324E+01 -0.22528569013E+03  0.25998481950E+03  0.41800000000E+01 0. -1.
        -11    1    1    2    0    0  0.11645861877E+03  0.52417890931E+01 -0.18466561683E+02  0.11803008150E+03  0.00000000000E+00 0.  1.
         11    1    1    2    0    0  0.46365633562E+01 -0.11743956249E+02  0.32360424850E+02  0.34736368904E+02  0.00000000000E+00 0. -1.
</event>
<event>
 7    1  0.2612321E-009  0.1395032E+03  0.7561462E-02  0.1213999E+00
          1   -1    0    0  501    0  0.00000000000E+00  0.00000000000E+00  0.68763136667E+03  0.68763136667E+03  0.00000000000E+00 0. -1.
         -1   -1    0    0    0  501 -0.00000000000E+00 -0.00000000000E+00 -0.29755464350E+02  0.29755464350E+02  0.00000000000E+00 0.  1.
         25    2    1    2    0    0 -0.46318154185E+02 -0.81472766590E+02  0.34761531366E+03  0.38113554754E+03  0.12507883997E+03 0.  0.
          5    1    3    3  502    0 -0.63368669845E+02 -0.10662946736E+03  0.29788476461E+03  0.32270456615E+03  0.41800000000E+01 0.  1.
         -5    1    3    3    0  502  0.17050515660E+02  0.25156700772E+02  0.49730549043E+02  0.58430981389E+02  0.41800000000E+01 0.  1.
        -11    1    1    2    0    0  0.58563316185E+02  0.20525380475E+02  0.10695779670E+03  0.12365647383E+03  0.00000000000E+00 0.  1.
         11    1    1    2    0    0 -0.12245162000E+02  0.60947386115E+02  0.20330279197E+03  0.21259480965E+03  0.00000000000E+00 0. -1.
</event>
<event>
 7    1  0.2612321E-009  0.9607310E+02  0.7561462E-02  0.1288777E+00
         -1   -1    0    0    0  501 -0.00000000000E+00  0.00000000000E+00  0.40806633717E+02  0.40806633717E+02  0.00000000000E+00 0.  1.
          1   -1    0    0  501    0  0.00000000000E+00 -0.00000000000E+00 -0.45490137982E+03  0.45490137982E+03  0.00000000000E+00 0. -1.
         25    2    1    2    0    0 -0.31651413042E+02  0.23324097298E+02 -0.96955314439E+02  0.16307434401E+03  0.12508830167E+03 0.  0.
          5    1    3    3  502    0  0.21585042484E+01 -0.40352052220E+02 -0.78729777642E+02  0.88593439636E+02  0.41800000000E+01 0.  1.
         -5    1    3    3    0  502 -0.33809917291E+02  0.63676149518E+02 -0.18225536797E+02  0.74480904373E+02  0.41800000000E+01 0.  1.
        -11    1    1    2    0    0  0.41983353171E+02 -0.41094686721E+02 -0.30049537280E+03  0.30618433058E+03  0.00000000000E+00 0. -1.
         11    1    1    2    0    0 -0.10331940129E+02  0.17770589423E+02 -0.16644058867E+02  0.26449338949E+02  0.00000000000E+00 0.  1.
</event>
<event>
 7    1  0.2612321E-009  0.9007707E+02  0.7561462E-02  0.1302665E+00
          1   -1    0    0  501    0  0.00000000000E+00  0.00000000000E+00  0.65354166123E+03  0.65354166123E+03  0.00000000000E+00 0. -1.
         -1   -1    0    0    0  501 -0.00000000000E+00 -0.00000000000E+00 -0.15683663528E+02  0.15683663528E+02  0.00000000000E+00 0.  1.
         25    2    1    2    0    0 -0.46984528234E+02  0.11406168635E+02  0.42335198649E+03  0.44408414801E+03  0.12508468921E+03 0.  0.
          5    1    3    3  502    0  0.18238106655E+02 -0.33694699957E+02  0.25557182699E+03  0.25846158804E+03  0.41800000000E+01 0. -1.
         -5    1    3    3    0  502 -0.65222634889E+02  0.45100868592E+02  0.16778015950E+03  0.18562255997E+03  0.41800000000E+01 0. -1.
        -11    1    1    2    0    0  0.19263565082E+02  0.14618614475E+02  0.41727611273E+02  0.48228439446E+02  0.00000000000E+00 0.  1.
         11    1    1    2    0    0  0.27720963152E+02 -0.26024783110E+02  0.17277839994E+03  0.17691273730E+03  0.00000000000E+00 0. -1.
</event>
<event>
 7    1  0.2612321E-009  0.1082820E+03  0.7561462E-02  0.1263785E+00
         -1   -1    0    0    0  501 -0.00000000000E+00  0.00000000000E+00  0.14150706630E+02  0.14150706630E+02  0.00000000000E+00 0. -1.
          1   -1    0    0  501    0  0.00000000000E+00 -0.00000000000E+00 -0.10575311086E+04  0.10575311086E+04  0.00000000000E+00 0.  1.
         25    2    1    2    0    0  0.39134214367E+02 -0.41218776112E+02 -0.61798464381E+03  0.63307395337E+03  0.12508851352E+03 0.  0.
          5    1    3    3  502    0  0.29854915608E+02  0.33687709433E+02 -0.10183879711E+03  0.11142167989E+03  0.41800000000E+01 0.  1.
         -5    1    3    3    0  502  0.92792987591E+01 -0.74906485545E+02 -0.51614584671E+03  0.52165227349E+03  0.41800000000E+01 0.  1.
        -11    1    1    2    0    0 -0.67234457338E+01 -0.22927648377E+02 -0.40197946724E+02  0.46762770486E+02  0.00000000000E+00 0.  1.
         11    1    1    2    0    0 -0.32410768633E+02  0.64146424490E+02 -0.38519781145E+03  0.39184509139E+03  0.00000000000E+00 0. -1.
</event>
<event>
 7    1  0.2612321E-009  0.1084856E+03  0.7561462E-02  0.1263400E+00
         -2   -1    0    0    0  501 -0.00000000000E+00  0.00000000000E+00  0.10445656636E+03  0.10445656636E+03  0.00000000000E+00 0.  1.
          2   -1    0    0  501    0  0.00000000000E+00 -0.00000000000E+00 -0.15994774366E+03  0.15994774366E+03  0.00000000000E+00 0. -1.
         25    2    1    2    0    0  0.52590068169E+02 -0.28712110479E+02 -0.58234943178E+01  0.13882081616E+03  0.12508878989E+03 0.  0.
          5    1    3    3  502    0  0.20368170201E+02  0.29259283150E+02 -0.48129966429E+02  0.60041103223E+02  0.41800000000E+01 0. -1.
         -5    1    3    3    0  502  0.32221897968E+02 -0.57971393629E+02  0.42306472111E+02  0.78779712937E+02  0.41800000000E+01 0. -1.
        -11    1    1    2    0    0 -0.57286905442E+02 -0.23701760210E+02 -0.19837740242E+02  0.65093002005E+02  0.00000000000E+00 0.  1.
         11    1    1    2    0    0  0.46968372729E+01  0.52413870689E+02 -0.29829942743E+02  0.60490491856E+02  0.00000000000E+00 0. -1.
</event>
<event>
 7    1  0.2612321E-009  0.1323205E+03  0.7561462E-02  0.1224053E+00
         -2   -1    0    0    0  501 -0.00000000000E+00  0.00000000000E+00  0.24541789973E+02  0.24541789973E+02  0.00000000000E+00 0.  1.
          2   -1    0    0  501    0  0.00000000000E+00 -0.00000000000E+00 -0.16669598454E+04  0.16669598454E+04  0.00000000000E+00 0. -1.
         25    2    1    2    0    0  0.55094103278E+02  0.10316164088E+03 -0.13786804447E+04  0.13892756705E+04  0.12509770455E+03 0.  0.
          5    1    3    3  502    0  0.32020852662E+02  0.93856206799E+02 -0.47578941210E+03  0.48603226192E+03  0.41800000000E+01 0.  1.
         -5    1    3    3    0  502  0.23073250616E+02  0.93054340844E+01 -0.90289103262E+03  0.90324340860E+03  0.41800000000E+01 0.  1.
        -11    1    1    2    0    0 -0.66774114898E+02 -0.44265112518E+02 -0.10198452126E+03  0.12968818444E+03  0.00000000000E+00 0.  1.
         11    1    1    2    0    0  0.11680011620E+02 -0.58896528365E+02 -0.16175308950E+03  0.17253778047E+03  0.00000000000E+00 0. -1.
</event>
<event>
 7    1  0.2612321E-009  0.1489113E+03  0.7561462E-02  0.1201817E+00
          1   -1    0    0  501    0  0.00000000000E+00  0.00000000000E+00  0.16299741375E+04  0.16299741375E+04  0.00000000000E+00 0. -1.
         -1   -1    0    0    0  501 -0.00000000000E+00 -0.00000000000E+00 -0.14442682670E+02  0.14442682670E+02  0.00000000000E+00 0.  1.
         25    2    1    2    0    0  0.23784990055E+02 -0.10429970293E+03  0.86450657957E+03  0.88003642456E+03  0.12509327978E+03 0.  0.
          5    1    3    3  502    0  0.67561458153E+02 -0.40132755651E+02  0.57096262827E+03  0.57636011658E+03  0.41800000000E+01 0. -1.
         -5    1    3    3    0  502 -0.43776468098E+02 -0.64166947275E+02  0.29354395131E+03  0.30367630798E+03  0.41800000000E+01 0. -1.
        -11    1    1    2    0    0 -0.41398344800E+02  0.64267052555E+01  0.18480922094E+03  0.18949821539E+03  0.00000000000E+00 0.  1.
         11    1    1    2    0    0  0.17613354745E+02  0.97872997671E+02  0.56621565436E+03  0.57488218026E+03  0.00000000000E+00 0. -1.
</event>
<event>
 7    1  0.3204705E-009  0.1419794E+03  0.7561462E-02  0.1210690E+00
          2   -1    0    0  501    0  0.00000000000E+00  0.00000000000E+00  0.96910128906E+03  0.96910128906E+03  0.00000000000E+00 0.  1.
         -2   -1    0    0    0  501 -0.00000000000E+00 -0.00000000000E+00 -0.23748843645E+02  0.23748843645E+02  0.00000000000E+00 0. -1.
         25    2    1    2    0    0  0.89849790385E+02  0.50911917867E+02  0.43887932075E+03  0.46789614266E+03  0.12508690547E+03 0.  0.
          5    1    3    3  502    0 -0.12431912337E+01  0.59355971150E+02  0.26246353967E+03  0.26912684535E+03  0.41800000000E+01 0.  1.
         -5    1    3    3    0  502  0.91092981619E+02 -0.84440532824E+01  0.17641578109E+03  0.19876929731E+03  0.41800000000E+01 0.  1.
        -11    1    1    2    0    0 -0.37773444887E+02  0.21658275884E+02  0.10510898776E+03  0.11377088099E+03  0.00000000000E+00 0. -1.
         11    1    1    2    0    0 -0.52076345498E+02 -0.72570193751E+02  0.40136413690E+03  0.41118310905E+03  0.00000000000E+00 0.  1.
</event>
<event>
 7    1  0.2612321E-009  0.1013643E+03  0.7561462E-02  0.1277453E+00
          1   -1    0    0  501    0  0.00000000000E+00  0.00000000000E+00  0.32396119258E+03  0.32396119258E+03  0.00000000000E+00 0.  1.
         -1   -1    0    0    0  501 -0.00000000000E+00 -0.00000000000E+00 -0.47598120169E+02  0.47598120169E+02  0.00000000000E+00 0. -1.
         25    2    1    2    0    0 -0.62960812950E+02  0.46869674820E+01  0.16547221050E+03  0.21682817322E+03  0.12508945847E+03 0.  0.
          5    1    3    3  502    0 -0.65434663116E+02  0.51816558584E+02  0.13997238702E+03  0.16302267452E+03  0.41800000000E+01 0. -1.
         -5    1    3    3    0  502  0.24738501662E+01 -0.47129591102E+02  0.25499823485E+02  0.53805498696E+02  0.41800000000E+01 0. -1.
        -11    1    1    2    0    0  0.19447997283E+02 -0.17767203015E+02  0.10577733773E+03  0.10900799640E+03  0.00000000000E+00 0.  1.
         11    1    1    2    0    0  0.43512815667E+02  0.13080235533E+02  0.51135241816E+01  0.45723143139E+02  0.00000000000E+00 0. -1.
</event>
<event>
 7    1  0.2612321E-009  0.1685190E+03  0.7561462E-02  0.1179401E+00
         -1   -1    0    0    0  501 -0.00000000000E+00  0.00000000000E+00  0.21923497138E+03  0.21923497138E+03  0.00000000000E+00 0.  1.
          1   -1    0    0  501    0  0.00000000000E+00 -0.00000000000E+00 -0.16151981865E+03  0.16151981865E+03  0.00000000000E+00 0. -1.
         25    2    1    2    0    0 -0.51277958449E+02  0.13247184528E+03 -0.27408652487E+02  0.19125929562E+03  0.12510261834E+03 0.  0.
          5    1    3    3  502    0 -0.42396218334E+02 -0.11861306792E+02 -0.11690472253E+02  0.45741332177E+02  0.41800000000E+01 0. -1.
         -5    1    3    3    0  502 -0.88817401156E+01  0.14433315207E+03 -0.15718180234E+02  0.14551796344E+03  0.41800000000E+01 0. -1.
        -11    1    1    2    0    0  0.32252350648E+02 -0.30406411668E+02 -0.13459692447E+02  0.46324154754E+02  0.00000000000E+00 0. -1.
         11    1    1    2    0    0  0.19025607801E+02 -0.10206543361E+03  0.98583497664E+02  0.14317133967E+03  0.00000000000E+00 0.  1.
</event>
<event>
 7    1  0.2612321E-009  0.1070594E+03  0.7561462E-02  0.1266114E+00
          1   -1    0    0  501    0  0.00000000000E+00  0.00000000000E+00  0.45026712670E+03  0.45026712670E+03  0.00000000000E+00 0. -1.
         -1   -1    0    0    0  501 -0.00000000000E+00 -0.00000000000E+00 -0.30300368713E+02  0.30300368713E+02  0.00000000000E+00 0.  1.
         25    2    1    2    0    0  0.29131369539E+02 -0.11236357700E+02  0.30078958898E+03  0.32725729723E+03  0.12509224326E+03 0.  0.
          5    1    3    3  502    0 -0.40907130428E+02 -0.35731716804E+02  0.13475646364E+03  0.14535104334E+03  0.41800000000E+01 0. -1.
         -5    1    3    3    0  502  0.70038499967E+02  0.24495359104E+02  0.16603312534E+03  0.18190625389E+03  0.41800000000E+01 0. -1.
        -11    1    1    2    0    0 -0.49515105341E+02  0.29771294451E+02  0.42186765302E+02  0.71538792252E+02  0.00000000000E+00 0.  1.
         11    1    1    2    0    0  0.20383735802E+02 -0.18534936751E+02  0.76990403698E+02  0.81771405926E+02  0.00000000000E+00 0. -1.
</event>
<event>
 7    1  0.2612321E-009  0.1264011E+03  0.7561462E-02  0.1232896E+00
          1   -1    0    0  501    0  0.00000000000E+00  0.00000000000E+00  0.25984789932E+02  0.25984789932E+02  0.00000000000E+00 0. -1.
         -1   -1    0    0    0  501 -0.00000000000E+00 -0.00000000000E+00 -0.76308406676E+03  0.76308406676E+03  0.00000000000E+00 0.  1.
         25    2    1    2    0    0  0.59479403790E+02 -0.60556364677E+02 -0.35072048411E+03  0.38191251482E+03  0.12508972069E+03 0.  0.
          5    1    3    3  502    0  0.83359096452E+02 -0.11727619933E+02 -0.28123958233E+03  0.29359743033E+03  0.41800000000E+01 0.  1.
         -5    1    3    3    0  502 -0.23879692663E+02 -0.48828744744E+02 -0.69480901780E+02  0.88315084483E+02  0.41800000000E+01 0.  1.
        -11    1    1    2    0    0  0.16955189950E+02  0.78630392515E+00 -0.13010472376E+02  0.21386190207E+02  0.00000000000E+00 0. -1.
         11    1    1    2    0    0 -0.76434593740E+02  0.59770060751E+02 -0.37336832034E+03  0.38577015167E+03  0.00000000000E+00 0.  1.
</event>
<event>
 7    1  0.2612321E-009  0.1176573E+03  0.7561462E-02  0.1247013E+00
          1   -1    0    0  501    0  0.00000000000E+00  0.00000000000E+00  0.31606338998E+03  0.31606338998E+03  0.00000000000E+00 0. -1.
         -1   -1    0    0    0  501 -0.00000000000E+00 -0.00000000000E+00 -0.52481407114E+02  0.52481407114E+02  0.00000000000E+00 0.  1.
         25    2    1    2    0    0 -0.68851834270E+02 -0.34542088787E+01  0.14005158838E+03  0.20004059899E+03  0.12509711106E+03 0.  0.
          5    1    3    3  502    0  0.26135189460E+02 -0.30198539097E+01  0.87370806306E+02  0.91341654465E+02  0.41800000000E+01 0.  1.
         -5    1    3    3    0  502 -0.94987023730E+02 -0.43435496900E+00  0.52680782069E+02  0.10869894452E+03  0.41800000000E+01 0.  1.
        -11    1    1    2    0    0  0.88620431855E+02 -0.10725813082E+02  0.10564191398E+03  0.13830704247E+03  0.00000000000E+00 0.  1.
         11    1    1    2    0    0 -0.19768597585E+02  0.14180021961E+02  0.17888480518E+02  0.30197155637E+02  0.00000000000E+00 0. -1.
</event>
<event>
 7    1  0.2612321E-009  0.1078259E+03  0.7561462E-02  0.1264650E+00
         -1   -1    0    0    0  501 -0.00000000000E+00  0.00000000000E+00  0.76651081389E+02  0.76651081389E+02  0.00000000000E+00 0.  1.
          1   -1    0    0  501    0  0.00000000000E+00 -0.00000000000E+00 -0.20609329496E+03  0.20609329496E+03  0.00000000000E+00 0. -1.
         25    2    1    2    0    0  0.41767382099E+02 -0.21860960046E+02 -0.11779341802E+03  0.17817217424E+03  0.12509044154E+03 0.  0.
          5    1    3    3  502    0  0.17486753427E+02  0.51878873534E+02 -0.59764069547E+02  0.81156764803E+02  0.41800000000E+01 0. -1.
         -5    1    3    3    0  502  0.24280628672E+02 -0.73739833580E+02 -0.58029348470E+02  0.97015409441E+02  0.41800000000E+01 0. -1.
        -11    1    1    2    0    0 -0.50333840561E+02 -0.88584150494E+01  0.24237059250E+02  0.56563257189E+02  0.00000000000E+00 0.  1.
         11    1    1    2    0    0  0.85664584615E+01  0.30719375096E+02 -0.35885854803E+02  0.48008944915E+02  0.00000000000E+00 0. -1.
</event>
<event>
 7    1  0.2612321E-009  0.3948192E+03  0.7561462E-02  0.1045589E+00
          2   -1    0    0  501    0  0.00000000000E+00  0.00000000000E+00  0.12998567865E+04  0.12998567865E+04  0.00000000000E+00 0. -1.
         -2   -1    0    0    0  501 -0.00000000000E+00 -0.00000000000E+00 -0.12276407038E+03  0.12276407038E+03  0.00000000000E+00 0.  1.
         25    2    1    2    0    0  0.33971040725E+03 -0.17665373871E+03  0.55473012821E+03  0.68555244739E+03  0.12508772438E+03 0.  0.
          5    1    3    3  502    0  0.13184354918E+03 -0.12229252006E+03  0.18586273571E+03  0.25865152396E+03  0.41800000000E+01 0.  1.
         -5    1    3    3    0  502  0.20786685807E+03 -0.54361218656E+02  0.36886739250E+03  0.42690092343E+03  0.41800000000E+01 0.  1.
        -11    1    1    2    0    0 -0.12440527197E+03  0.14337541088E+02  0.20103028853E+03  0.23684470373E+03  0.00000000000E+00 0. -1.
         11    1    1    2    0    0 -0.21530513528E+03  0.16231619762E+03  0.42133229936E+03  0.50022370573E+03  0.00000000000E+00 0.  1.
</event>
<event>
 7    1  0.2612321E-009  0.1234884E+03  0.7561462E-02  0.1237451E+00
         -2   -1    0    0    0  501 -0.00000000000E+00  0.00000000000E+00  0.25959899955E+02  0.25959899955E+02  0.00000000000E+00 0. -1.
          2   -1    0    0  501    0  0.00000000000E+00 -0.00000000000E+00 -0.11102133584E+04  0.11102133584E+04  0.00000000000E+00 0.  1.
         25    2    1    2    0    0  0.98971763703E+01 -0.10132938896E+03 -0.86293424819E+03  0.87788173855E+03  0.12512086565E+03 0.  0.
          5    1    3    3  502    0 -0.36992542878E+02 -0.88945996808E+02 -0.72952225693E+03  0.73586685910E+03  0.41800000000E+01 0. -1.
         -5    1    3    3    0  502  0.46889719248E+02 -0.12383392148E+02 -0.13341199126E+03  0.14201487945E+03  0.41800000000E+01 0. -1.
        -11    1    1    2    0    0 -0.40860503087E+01  0.60282561176E+02 -0.20503420086E+03  0.21375150646E+03  0.00000000000E+00 0.  1.
         11    1    1    2    0    0 -0.58111260615E+01  0.41046827779E+02 -0.16285009375E+02  0.44540013327E+02  0.00000000000E+00 0. -1.
</event>
<event>
 7    1  0.2612321E-009  0.1283379E+03  0.7561462E-02  0.1229943E+00
          1   -1    0    0  501    0  0.00000000000E+00  0.00000000000E+00  0.57942423793E+02  0.57942423793E+02  0.00000000000E+00 0. -1.
         -1   -1    0    0    0  501 -0.00000000000E+00 -0.00000000000E+00 -0.32508721945E+03  0.32508721945E+03  0.00000000000E+00 0.  1.
         25    2    1    2    0    0  0.74669191045E+02  0.33920345870E+02 -0.16328516713E+03  0.22143918848E+03  0.12508873025E+03 0.  0.
          5    1    3    3  502    0 -0.14918236552E+02  0.53057878098E+02 -0.82036471008E+02  0.98919902879E+02  0.41800000000E+01 0.  1.
         -5    1    3    3    0  502  0.89587427597E+02 -0.19137532229E+02 -0.81248696121E+02  0.12251928560E+03  0.41800000000E+01 0.  1.
        -11    1    1    2    0    0 -0.31646458596E+02 -0.53711819502E+02 -0.20333996760E+02  0.65573846312E+02  0.00000000000E+00 0. -1.
         11    1    1    2    0    0 -0.43022732448E+02  0.19791473633E+02 -0.83525631772E+02  0.96016608453E+02  0.00000000000E+00 0.  1.
</event>
<event>
 7    1  0.2612321E-009  0.1345366E+03  0.7561462E-02  0.1220875E+00
          2   -1    0    0  501    0  0.00000000000E+00  0.00000000000E+00  0.42796444076E+03  0.42796444076E+03  0.00000000000E+00 0.  1.
         -2   -1    0    0    0  501 -0.00000000000E+00 -0.00000000000E+00 -0.59483245898E+02  0.59483245898E+02  0.00000000000E+00 0. -1.
         25    2    1    2    0    0 -0.20293039005E+02 -0.85094828572E+02  0.31547263004E+03  0.35046224535E+03  0.12509143787E+03 0.  0.
          5    1    3    3  502    0  0.10083717848E+01  0.30839845377E+02  0.39181235739E+02  0.50047522522E+02  0.41800000000E+01 0.  1.
         -5    1    3    3    0  502 -0.21301410790E+02 -0.11593467395E+03  0.27629139430E+03  0.30041472282E+03  0.41800000000E+01 0.  1.
        -11    1    1    2    0    0  0.46764664417E+02  0.22239833833E+02  0.20062802131E+01  0.51822477818E+02  0.00000000000E+00 0. -1.
         11    1    1    2    0    0 -0.26471625412E+02  0.62854994739E+02  0.51002284608E+02  0.85162963492E+02  0.00000000000E+00 0.  1.
</event>
<event>
 7    1  0.2612321E-009  0.1278152E+03  0.7561462E-02  0.1230734E+00
         -2   -1    0    0    0  501 -0.00000000000E+00  0.00000000000E+00  0.95914064480E+02  0.95914064480E+02  0.00000000000E+00 0.  1.
          2   -1    0    0  501    0  0.00000000000E+00 -0.00000000000E+00 -0.21819570816E+03  0.21819570816E+03  0.00000000000E+00 0. -1.
         25    2    1    2    0    0  0.52850182565E+02  0.73795863187E+02 -0.11409101673E+03  0.19210672377E+03  0.12509701036E+03 0.  0.
          5    1    3    3  502    0  0.29370048195E+02  0.98703266956E+02 -0.11882922150E+03  0.15729841360E+03  0.41800000000E+01 0.  1.
         -5    1    3    3    0  502  0.23480134370E+02 -0.24907403769E+02  0.47382047759E+01  0.34808310172E+02  0.41800000000E+01 0.  1.
        -11    1    1    2    0    0 -0.37722515399E+02 -0.88980875335E+02 -0.18202234223E+02  0.98345847264E+02  0.00000000000E+00 0. -1.
         11    1    1    2    0    0 -0.15127667166E+02  0.15185012148E+02  0.10011607266E+02  0.23657201606E+02  0.00000000000E+00 0.  1.
</event>
<event>
 7    1  0.2612321E-009  0.1234029E+03  0.7561462E-02  0.1237587E+00
         -1   -1    0    0    0  501 -0.00000000000E+00  0.00000000000E+00  0.22472109151E+02  0.22472109151E+02  0.00000000000E+00 0.  1.
          1   -1    0    0  501    0  0.00000000000E+00 -0.00000000000E+00 -0.97449790245E+03  0.97449790245E+03  0.00000000000E+00 0. -1.
         25    2    1    2    0    0 -0.35611065571E+02 -0.50642019932E+02 -0.79151984366E+03  0.80373113022E+03  0.12508918658E+03 0.  0.
          5    1    3    3  502    0  0.41670093116E+02 -0.45246653312E+02 -0.32302607647E+03  0.32885707347E+03  0.41800000000E+01 0. -1.
         -5    1    3    3    0  502 -0.77281158687E+02 -0.53953666199E+01 -0.46849376720E+03  0.47487405675E+03  0.41800000000E+01 0. -1.
        -11    1    1    2    0    0 -0.11847020657E+01 -0.24170093350E+02 -0.34055426606E+02  0.41777613777E+02  0.00000000000E+00 0. -1.
         11    1    1    2    0    0  0.36795767637E+02  0.74812113281E+02 -0.12645052303E+03  0.15146126760E+03  0.00000000000E+00 0.  1.
</event>
<event>
 7    1  0.2612321E-009  0.1140617E+03  0.7561462E-02  0.1253228E+00
          1   -1    0    0  501    0  0.00000000000E+00  0.00000000000E+00  0.87692629293E+02  0.87692629293E+02  0.00000000000E+00 0. -1.
         -1   -1    0    0    0  501 -0.00000000000E+00 -0.00000000000E+00 -0.17110213133E+03  0.17110213133E+03  0.00000000000E+00 0.  1.
         25    2    1    2    0    0 -0.14111339581E+01  0.55732691311E+02 -0.53284531031E+02  0.14695191459E+03  0.12508996673E+03 0.  0.
          5    1    3    3  502    0  0.31540675027E+02  0.75817756576E+02 -0.15027456433E+01  0.82236713442E+02  0.41800000000E+01 0. -1.
         -5    1    3    3    0  502 -0.32951808986E+02 -0.20085065265E+02 -0.51781785388E+02  0.64715201151E+02  0.41800000000E+01 0. -1.
        -11    1    1    2    0    0 -0.27701202054E+02  0.14348463330E+02 -0.14323499835E+02  0.34327796939E+02  0.00000000000E+00 0.  1.
         11    1    1    2    0    0  0.29112336012E+02 -0.70081154641E+02 -0.15801471168E+02  0.77515049087E+02  0.00000000000E+00 0. -1.
</event>
<event>
 7    1  0.2612321E-009  0.1906241E+03  0.7561462E-02  0.1157900E+00
         -2   -1    0    0    0  501 -0.00000000000E+00  0.00000000000E+00  0.51182693215E+02  0.51182693215E+02  0.00000000000E+00 0.  1.
          2   -1    0    0  501    0  0.00000000000E+00 -0.00000000000E+00 -0.90950409024E+03  0.90950409024E+03  0.00000000000E+00 0. -1.
         25    2    1    2    0    0  0.14093968169E+03 -0.81820560354E+02 -0.64334681938E+03  0.67535444391E+03  0.12509954804E+03 0.  0.
          5    1    3    3  502    0  0.45570074313E+01 -0.55289350982E+02 -0.29680585213E+03  0.30197494086E+03  0.41800000000E+01 0.  1.
         -5    1    3    3    0  502  0.13638267426E+03 -0.26531209372E+02 -0.34654096726E+03  0.37337950305E+03  0.41800000000E+01 0.  1.
        -11    1    1    2    0    0 -0.21091082219E+02 -0.20212784697E+02 -0.45215453093E+02  0.53831474183E+02  0.00000000000E+00 0.  1.
         11    1    1    2    0    0 -0.11984859947E+03  0.10203334505E+03 -0.16975912455E+03  0.23150086537E+03  0.00000000000E+00 0. -1.
</event>
<event>
 7    1  0.2612321E-009  0.1939278E+03  0.7561462E-02  0.1154966E+00
         -1   -1    0    0    0  501 -0.00000000000E+00  0.00000000000E+00  0.36167955905E+02  0.36167955905E+02  0.00000000000E+00 0.  1.
          1   -1    0    0  501    0  0.00000000000E+00 -0.00000000000E+00 -0.12768843237E+04  0.12768843237E+04  0.00000000000E+00 0. -1.
         25    2    1    2    0    0 -0.57231474994E+02  0.17591684453E+03 -0.68877196724E+03  0.72406817993E+03  0.12508288618E+03 0.  0.
          5    1    3    3  502    0  0.90981541890E+01  0.80393000080E+02 -0.12900965276E+03  0.15233769651E+03  0.41800000000E+01 0. -1.
         -5    1    3    3    0  502 -0.66329629183E+02  0.95523844447E+02 -0.55976231448E+03  0.57173048342E+03  0.41800000000E+01 0. -1.
        -11    1    1    2    0    0  0.64956512792E+02 -0.15082687367E+03 -0.52970900562E+03  0.55458067493E+03  0.00000000000E+00 0. -1.
         11    1    1    2    0    0 -0.77250377983E+01 -0.25089970861E+02 -0.22235394970E+02  0.34403424775E+02  0.00000000000E+00 0.  1.
</event>
<event>
 7    1  0.2612321E-009  0.1183832E+03  0.7561462E-02  0.1245788E+00
         -2   -1    0    0    0  501 -0.00000000000E+00  0.00000000000E+00  0.60843918178E+02  0.60843918178E+02  0.00000000000E+00 0.  1.
          2   -1    0    0  501    0  0.00000000000E+00 -0.00000000000E+00 -0.23930769281E+03  0.23930769281E+03  0.00000000000E+00 0. -1.
         25    2    1    2    0    0 -0.37887054712E+02 -0.34949158523E+02 -0.78876848615E+02  0.15660813036E+03  0.12509067372E+03 0.  0.
          5    1    3    3  502    0 -0.34581863720E+02 -0.80589265579E+02 -0.40261217957E+02  0.96586609301E+02  0.41800000000E+01 0. -1.
         -5    1    3    3    0  502 -0.33051909911E+01  0.45640107055E+02 -0.38615630658E+02  0.60021521062E+02  0.41800000000E+01 0. -1.
        -11    1    1    2    0    0  0.30640368309E+02  0.65132655399E+02 -0.74921708450E+02  0.10389589677E+03  0.00000000000E+00 0. -1.
         11    1    1    2    0    0  0.72466864025E+01 -0.30183496875E+02 -0.24665217563E+02  0.39647583847E+02  0.00000000000E+00 0.  1.
</event>
<event>
 7    1  0.2612321E-009  0.1132720E+03  0.7561462E-02  0.1254628E+00
         -1   -1    0    0    0  501 -0.00000000000E+00  0.00000000000E+00  0.27270407731E+03  0.27270407731E+03  0.00000000000E+00 0.  1.
          1   -1    0    0  501    0  0.00000000000E+00 -0.00000000000E+00 -0.57310938539E+02  0.57310938539E+02  0.00000000000E+00 0. -1.
         25    2    1    2    0    0 -0.34387388498E+02  0.40263931433E+02  0.75539997572E+02  0.15542134965E+03  0.12508328438E+03 0.  0.
          5    1    3    3  502    0  0.38638407836E+02 -0.69554337691E+01  0.51892430243E+02  0.65204304578E+02  0.41800000000E+01 0. -1.
         -5    1    3    3    0  502 -0.73025796335E+02  0.47219365202E+02  0.23647567329E+02  0.90217045069E+02  0.41800000000E+01 0. -1.
        -11    1    1    2    0    0  0.54261937446E+02 -0.53436378313E+02  0.81432346765E+02  0.11149453566E+03  0.00000000000E+00 0.  1.
         11    1    1    2    0    0 -0.19874548947E+02  0.13172446880E+02  0.58420794430E+02  0.63099130537E+02  0.00000000000E+00 0. -1.
</event>
<event>
 7    1  0.2612321E-009  0.6962202E+02  0.7561462E-02  0.1361383E+00
          1   -1    0    0  501    0  0.00000000000E+00  0.00000000000E+00  0.39136399153E+03  0.39136399153E+03  0.00000000000E+00 0. -1.
         -1   -1    0    0    0  501 -0.00000000000E+00 -0.00000000000E+00 -0.35669746261E+02  0.35669746261E+02  0.00000000000E+00 0.  1.
         25    2    1    2    0    0 -0.28620038356E+02 -0.40027240383E+02  0.18609779015E+03  0.22956750978E+03  0.12509023734E+03 0.  0.
          5    1    3    3  502    0  0.14060153794E+02 -0.24514790254E+02  0.18149770288E+03  0.18373228191E+03  0.41800000000E+01 0. -1.
         -5    1    3    3    0  502 -0.42680192150E+02 -0.15512450128E+02  0.46000872748E+01  0.45835227870E+02  0.41800000000E+01 0. -1.
        -11    1    1    2    0    0 -0.29616035384E+01  0.32462289499E+02  0.92781512714E+01  0.33891819456E+02  0.00000000000E+00 0.  1.
         11    1    1    2    0    0  0.31581641894E+02  0.75649508839E+01  0.16031830385E+03  0.16357440856E+03  0.00000000000E+00 0. -1.
</event>
<event>
 7    1  0.2612321E-009  0.1340283E+03  0.7561462E-02  0.1221598E+00
         -2   -1    0    0    0  501 -0.00000000000E+00  0.00000000000E+00  0.29993295266E+02  0.29993295266E+02  0.00000000000E+00 0.  1.
          2   -1    0    0  501    0  0.00000000000E+00 -0.00000000000E+00 -0.85216349331E+03  0.85216349331E+03  0.00000000000E+00 0. -1.
         25    2    1    2    0    0  0.85237819879E+02  0.80736465934E+02 -0.44763157392E+03  0.47937922948E+03  0.12508619753E+03 0.  0.
          5    1    3    3  502    0  0.16752406044E+02  0.47643871897E+01 -0.29532052421E+03  0.29586318952E+03  0.41800000000E+01 0. -1.
         -5    1    3    3    0  502  0.68485413835E+02  0.75972078745E+02 -0.15231104972E+03  0.18351603996E+03  0.41800000000E+01 0. -1.
        -11    1    1    2    0    0 -0.10355704668E+03 -0.58403999451E+02 -0.28927299316E+03  0.31275222403E+03  0.00000000000E+00 0.  1.
         11    1    1    2    0    0  0.18319226799E+02 -0.22332466483E+02 -0.85265630961E+02  0.90025335062E+02  0.00000000000E+00 0. -1.
</event>
<event>
 7    1  0.2612321E-009  0.1313817E+03  0.7561462E-02  0.1225420E+00
          2   -1    0    0  501    0  0.00000000000E+00  0.00000000000E+00  0.26384491036E+03  0.26384491036E+03  0.00000000000E+00 0.  1.
         -2   -1    0    0    0  501 -0.00000000000E+00 -0.00000000000E+00 -0.78119250355E+02  0.78119250355E+02  0.00000000000E+00 0. -1.
         25    2    1    2    0    0 -0.69010359121E+02 -0.64783759442E+02  0.12048636680E+03  0.19779987748E+03  0.12509381197E+03 0.  0.
          5    1    3    3  502    0 -0.29005134430E+01  0.35246509382E+02  0.17471975547E+02  0.39667010618E+02  0.41800000000E+01 0. -1.
         -5    1    3    3    0  502 -0.66109845678E+02 -0.10003026882E+03  0.10301439126E+03  0.15813286686E+03  0.41800000000E+01 0. -1.
        -11    1    1    2    0    0  0.25403266917E+02  0.57637868803E+02 -0.27829347548E+01  0.63049144451E+02  0.00000000000E+00 0. -1.
         11    1    1    2    0    0  0.43607092204E+02  0.71458906392E+01  0.68022227961E+02  0.81115138786E+02  0.00000000000E+00 0.  1.
</event>
<event>
 7    1  0.2612321E-009  0.1159280E+03  0.7561462E-02  0.1249970E+00
          2   -1    0    0  501    0  0.00000000000E+00  0.00000000000E+00  0.24542735572E+03  0.24542735572E+03  0.00000000000E+00 0.  1.
         -2   -1    0    0    0  501 -0.00000000000E+00 -0.00000000000E+00 -0.65960825530E+02  0.65960825530E+02  0.00000000000E+00 0. -1.
         25    2    1    2    0    0  0.24696964942E+02  0.52578902878E+02  0.14011907184E+03  0.19662244213E+03  0.12511014887E+03 0.  0.
          5    1    3    3  502    0  0.49716088077E+02 -0.21850983896E+02  0.32805626773E+02  0.63583303303E+02  0.41800000000E+01 0.  1.
         -5    1    3    3    0  502 -0.25019123135E+02  0.74429886774E+02  0.10731344507E+03  0.13303913883E+03  0.41800000000E+01 0.  1.
        -11    1    1    2    0    0 -0.40241345676E+02  0.36606935236E+01  0.39372125543E+02  0.56417469357E+02  0.00000000000E+00 0.  1.
         11    1    1    2    0    0  0.15544380733E+02 -0.56239596401E+02 -0.24667193951E-01  0.58348269762E+02  0.00000000000E+00 0. -1.
</event>
<event>
 7    1  0.2612321E-009  0.1049167E+03  0.7561462E-02  0.1270284E+00
          2   -1    0    0  501    0  0.00000000000E+00  0.00000000000E+00  0.21413281957E+02  0.21413281957E+02  0.00000000000E+00 0. -1.
         -2   -1    0    0    0  501 -0.00000000000E+00 -0.00000000000E+00 -0.17263336147E+04  0.17263336147E+04  0.00000000000E+00 0.  1.
         25    2    1    2    0    0  0.73664423547E+02  0.25801271840E+02 -0.15141492752E+04  0.15213114008E+04  0.12509275573E+03 0.  0.
          5    1    3    3  502    0  0.39718249915E+02  0.54126578172E+02 -0.13366366988E+04  0.13383281970E+04  0.41800000000E+01 0. -1.
         -5    1    3    3    0  502  0.33946173632E+02 -0.28325306332E+02 -0.17751257639E+03  0.18298320376E+03  0.41800000000E+01 0. -1.
        -11    1    1    2    0    0 -0.54696685774E+02  0.11880786264E+02 -0.17084424165E+03  0.17977940767E+03  0.00000000000E+00 0.  1.
         11    1    1    2    0    0 -0.18967737773E+02 -0.37682058104E+02 -0.19926815913E+02  0.46656088259E+02  0.00000000000E+00 0. -1.
</event>
<event>
 7    1  0.2612321E-009  0.2127808E+03  0.7561462E-02  0.1139383E+00
         -1   -1    0    0    0  501 -0.00000000000E+00  0.00000000000E+00  0.18212313365E+02  0.18212313365E+02  0.00000000000E+00 0.  1.
          1   -1    0    0  501    0  0.00000000000E+00 -0.00000000000E+00 -0.27260870151E+04  0.27260870151E+04  0.00000000000E+00 0. -1.
         25    2    1    2    0    0 -0.16976639905E+03 -0.89531245634E+02 -0.15873495330E+04  0.16037963082E+04  0.12509030413E+03 0.  0.
          5    1    3    3  502    0 -0.11119703816E+03 -0.51446503447E+01 -0.53727636540E+03  0.54870266442E+03  0.41800000000E+01 0. -1.
         -5    1    3    3    0  502 -0.58569360897E+02 -0.84386595289E+02 -0.10500731676E+04  0.10550936438E+04  0.41800000000E+01 0. -1.
        -11    1    1    2    0    0  0.45997933008E+02 -0.16009358891E+02 -0.21104966680E+03  0.21659656338E+03  0.00000000000E+00 0.  1.
         11    1    1    2    0    0  0.12376846604E+03  0.10554060452E+03 -0.90947550197E+03  0.92390645688E+03  0.00000000000E+00 0. -1.
</event>
<event>
 7    1  0.2612321E-009  0.1040106E+03  0.7561462E-02  0.1272081E+00
         -2   -1    0    0    0  501 -0.00000000000E+00  0.00000000000E+00  0.54868115944E+02  0.54868115944E+02  0.00000000000E+00 0.  1.
          2   -1    0    0  501    0  0.00000000000E+00 -0.00000000000E+00 -0.24207202477E+03  0.24207202477E+03  0.00000000000E+00 0. -1.
         25    2    1    2    0    0  0.27789213586E+02 -0.11955140288E+02 -0.76090408018E+02  0.14954001659E+03  0.12512913569E+03 0.  0.
          5    1    3    3  502    0  0.22571232455E+02 -0.67646904218E+02 -0.32395746654E+02  0.78438007281E+02  0.41800000000E+01 0. -1.
         -5    1    3    3    0  502  0.52179811311E+01  0.55691763930E+02 -0.43694661364E+02  0.71102009314E+02  0.41800000000E+01 0. -1.
        -11    1    1    2    0    0 -0.40329472219E+02  0.35558074630E+02 -0.29089402358E+02  0.61131304013E+02  0.00000000000E+00 0.  1.
         11    1    1    2    0    0  0.12540258632E+02 -0.23602934342E+02 -0.82024098451E+02  0.86268820108E+02  0.00000000000E+00 0. -1.
</event>
<event>
 7    1  0.2612321E-009  0.9769914E+02  0.7561462E-02  0.1285210E+00
         -3   -1    0    0    0  501 -0.00000000000E+00  0.00000000000E+00  0.91291218837E+03  0.91291218837E+03  0.00000000000E+00 0. -1.
          3   -1    0    0  501    0  0.00000000000E+00 -0.00000000000E+00 -0.25579615536E+02  0.25579615536E+02  0.00000000000E+00 0.  1.
         25    2    1    2    0    0  0.43648581900E+02 -0.13135955668E+02  0.78326916188E+03  0.79450291839E+03  0.12508619168E+03 0.  0.
          5    1    3    3  502    0 -0.31877791599E+02 -0.41603672999E+01  0.69595530486E+02  0.76775728697E+02  0.41800000000E+01 0. -1.
         -5    1    3    3    0  502  0.75526373499E+02 -0.89755883676E+01  0.71367363139E+03  0.71772718969E+03  0.41800000000E+01 0. -1.
        -11    1    1    2    0    0  0.82423066504E+01  0.30883912253E+02  0.73357062412E+01  0.32795796088E+02  0.00000000000E+00 0.  1.
         11    1    1    2    0    0 -0.51890888550E+02 -0.17747956586E+02  0.96727704721E+02  0.11119308943E+03  0.00000000000E+00 0. -1.
</event>
<event>
 7    1  0.2612321E-009  0.1061917E+03  0.7561462E-02  0.1267789E+00
         -1   -1    0    0    0  501 -0.00000000000E+00  0.00000000000E+00  0.44046695610E+02  0.44046695610E+02  0.00000000000E+00 0.  1.
          1   -1    0    0  501    0  0.00000000000E+00 -0.00000000000E+00 -0.29448928809E+03  0.29448928809E+03  0.00000000000E+00 0. -1.
         25    2    1    2    0    0  0.17380844852E+02 -0.35237987896E+02 -0.13910907605E+03  0.19115563182E+03  0.12508129749E+03 0.  0.
          5    1    3    3  502    0 -0.54118653525E+02 -0.18579291465E+02 -0.55724923577E+02  0.79979736424E+02  0.41800000000E+01 0.  1.
         -5    1    3    3    0  502  0.71499498378E+02 -0.16658696431E+02 -0.83384152469E+02  0.11117589540E+03  0.41800000000E+01 0.  1.
        -11    1    1    2    0    0 -0.26896545473E+02 -0.14693505446E+02 -0.71693463080E+01  0.31475749191E+02  0.00000000000E+00 0.  1.
         11    1    1    2    0    0  0.95157006209E+01  0.49931493341E+02 -0.10416417013E+03  0.11590460268E+03  0.00000000000E+00 0. -1.
</event>
<event>
 7    1  0.2612321E-009  0.1693032E+03  0.7561462E-02  0.1178576E+00
         -1   -1    0    0    0  501 -0.00000000000E+00  0.00000000000E+00  0.24057052445E+03  0.24057052445E+03  0.00000000000E+00 0.  1.
          1   -1    0    0  501    0  0.00000000000E+00 -0.00000000000E+00 -0.16652180106E+03  0.16652180106E+03  0.00000000000E+00 0. -1.
         25    2    1    2    0    0  0.11906397999E+03 -0.60785054216E+02  0.14221189953E+03  0.23182532938E+03  0.12509078634E+03 0.  0.
          5    1    3    3  502    0 -0.14863230159E+02  0.20450502090E+02  0.13034776814E+02  0.28749199173E+02  0.41800000000E+01 0.  1.
         -5    1    3    3    0  502  0.13392721015E+03 -0.81235556305E+02  0.12917712272E+03  0.20307613021E+03  0.41800000000E+01 0.  1.
        -11    1    1    2    0    0 -0.58254521188E+02 -0.13986715116E+02 -0.51780150107E+01  0.60133428956E+02  0.00000000000E+00 0.  1.
         11    1    1    2    0    0 -0.60809458801E+02  0.74771769332E+02 -0.62985161122E+02  0.11513356717E+03  0.00000000000E+00 0. -1.
</event>
<event>
 7    1  0.2612321E-009  0.4169063E+03  0.7561462E-02  0.1038078E+00
         -2   -1    0    0    0  501 -0.00000000000E+00  0.00000000000E+00  0.95249006593E+02  0.95249006593E+02  0.00000000000E+00 0.  1.
          2   -1    0    0  501    0  0.00000000000E+00 -0.00000000000E+00 -0.18379395569E+04  0.18379395569E+04  0.00000000000E+00 0. -1.
         25    2    1    2    0    0 -0.69497263780E+02  0.39744463121E+03 -0.92582327244E+03  0.10176392767E+04  0.12509540799E+03 0.  0.
          5    1    3    3  502    0 -0.10299275850E+03  0.27670916457E+03 -0.60570160999E+03  0.67384522170E+03  0.41800000000E+01 0.  1.
         -5    1    3    3    0  502  0.33495494719E+02  0.12073546664E+03 -0.32012166245E+03  0.34379405498E+03  0.41800000000E+01 0.  1.
        -11    1    1    2    0    0 -0.18921062336E+02 -0.13273449072E+03 -0.28184984538E+03  0.31211502202E+03  0.00000000000E+00 0. -1.
         11    1    1    2    0    0  0.88418326117E+02 -0.26471014049E+03 -0.53501743251E+03  0.60343426482E+03  0.00000000000E+00 0.  1.
</event>
<event>
 7    1  0.2612321E-009  0.1142428E+03  0.7561462E-02  0.1252909E+00
         -2   -1    0    0    0  501 -0.00000000000E+00  0.00000000000E+00  0.19247840064E+02  0.19247840064E+02  0.00000000000E+00 0.  1.
          2   -1    0    0  501    0  0.00000000000E+00 -0.00000000000E+00 -0.83305601177E+03  0.83305601177E+03  0.00000000000E+00 0. -1.
         25    2    1    2    0    0  0.36819234041E+02  0.47463917730E+02 -0.54371948139E+03  0.56114752530E+03  0.12508873339E+03 0.  0.
          5    1    3    3  502    0  0.66156065267E+02  0.64900740600E+02 -0.27474740260E+03  0.28998679063E+03  0.41800000000E+01 0.  1.
         -5    1    3    3    0  502 -0.29336831226E+02 -0.17436822871E+02 -0.26897207879E+03  0.27116073467E+03  0.41800000000E+01 0.  1.
        -11    1    1    2    0    0 -0.55830361111E+02 -0.65435671154E+01 -0.95352558805E+02  0.11068856293E+03  0.00000000000E+00 0.  1.
         11    1    1    2    0    0  0.19011127070E+02 -0.40920350614E+02 -0.17473613151E+03  0.18046776361E+03  0.00000000000E+00 0. -1.
</event>
<event>
 7    1  0.2612321E-009  0.1358970E+03  0.7561462E-02  0.1218959E+00
          2   -1    0    0  501    0  0.00000000000E+00  0.00000000000E+00  0.21288759840E+03  0.21288759840E+03  0.00000000000E+00 0. -1.
         -2   -1    0    0    0  501 -0.00000000000E+00 -0.00000000000E+00 -0.93650275554E+02  0.93650275554E+02  0.00000000000E+00 0.  1.
         25    2    1    2    0    0 -0.48450537998E+01  0.81434334676E+02  0.10340580466E+03  0.18164621877E+03  0.12509021922E+03 0.  0.
          5    1    3    3  502    0  0.59236334299E+02  0.28878568147E+02  0.39894990062E+02  0.77149190737E+02  0.41800000000E+01 0. -1.
         -5    1    3    3    0  502 -0.64081388099E+02  0.52555766530E+02  0.63510814598E+02  0.10449702803E+03  0.41800000000E+01 0. -1.
        -11    1    1    2    0    0  0.47261691237E+02 -0.29454652027E+02 -0.10943974266E+01  0.55699566339E+02  0.00000000000E+00 0. -1.
         11    1    1    2    0    0 -0.42416637437E+02 -0.51979682650E+02  0.16925915614E+02  0.69192088848E+02  0.00000000000E+00 0.  1.
</event>
<event>
 7    1  0.2612321E-009  0.1061247E+03  0.7561462E-02  0.1267919E+00
          1   -1    0    0  501    0  0.00000000000E+00  0.00000000000E+00  0.90999085236E+02  0.90999085236E+02  0.00000000000E+00 0. -1.
         -1   -1    0    0    0  501 -0.00000000000E+00 -0.00000000000E+00 -0.13308857975E+03  0.13308857975E+03  0.00000000000E+00 0.  1.
         25    2    1    2    0    0 -0.39537905400E+01 -0.92303775685E+01 -0.42160642585E+02  0.13239023999E+03  0.12509525783E+03 0.  0.
          5    1    3    3  502    0  0.26620926274E+02  0.50475934923E+02 -0.28012407610E+02  0.63707622010E+02  0.41800000000E+01 0. -1.
         -5    1    3    3    0  502 -0.30574716814E+02 -0.59706312492E+02 -0.14148234975E+02  0.68682617980E+02  0.41800000000E+01 0. -1.
        -11    1    1    2    0    0  0.14080936151E+02 -0.37473689733E+02 -0.13109362426E+02  0.42123693669E+02  0.00000000000E+00 0.  1.
         11    1    1    2    0    0 -0.10127145611E+02  0.46704067301E+02  0.13180510497E+02  0.49573731327E+02  0.00000000000E+00 0. -1.
</event>
<event>
 7    1  0.2612321E-009  0.9695945E+02  0.7561462E-02  0.1286823E+00
          1   -1    0    0  501    0  0.00000000000E+00  0.00000000000E+00  0.65877307614E+02  0.65877307614E+02  0.00000000000E+00 0. -1.
         -1   -1    0    0    0  501 -0.00000000000E+00 -0.00000000000E+00 -0.19596666564E+03  0.19596666564E+03  0.00000000000E+00 0.  1.
         25    2    1    2    0    0  0.23154457161E+02 -0.15538428064E+02 -0.10071528845E+03  0.16299833582E+03  0.12508923423E+03 0.  0.
          5    1    3    3  502    0 -0.18576747546E+02  0.32980915805E+02  0.59423530062E+01  0.38543745484E+02  0.41800000000E+01 0.  1.
         -5    1    3    3    0  502  0.41731204707E+02 -0.48519343868E+02 -0.10665764146E+03  0.12445459034E+03  0.41800000000E+01 0.  1.
        -11    1    1    2    0    0 -0.38498222892E+02  0.44552242558E+02 -0.29861839410E+02  0.66020791693E+02  0.00000000000E+00 0. -1.
         11    1    1    2    0    0  0.15343765731E+02 -0.29013814494E+02  0.48776983341E+00  0.32824845738E+02  0.00000000000E+00 0.  1.
</event>
<event>
 7    1  0.2612321E-009  0.1487006E+03  0.7561462E-02  0.1202079E+00
          2   -1    0    0  501    0  0.00000000000E+00  0.00000000000E+00  0.24782485463E+03  0.24782485463E+03  0.00000000000E+00 0. -1.
         -2   -1    0    0    0  501 -0.00000000000E+00 -0.00000000000E+00 -0.11580777731E+03  0.11580777731E+03  0.00000000000E+00 0.  1.
         25    2    1    2    0    0 -0.11779237618E+03  0.31568261767E+02  0.22343666414E+02  0.17612290754E+03  0.12509372524E+03 0.  0.
          5    1    3    3  502    0 -0.98267573967E+02 -0.34582784677E+02  0.24073953212E+02  0.10700239583E+03  0.41800000000E+01 0.  1.
         -5    1    3    3    0  502 -0.19524802212E+02  0.66151046444E+02 -0.17302867986E+01  0.69120511713E+02  0.41800000000E+01 0.  1.
        -11    1    1    2    0    0  0.67826758852E+01 -0.81272648661E+01 -0.15371609893E+02  0.18663963059E+02  0.00000000000E+00 0.  1.
         11    1    1    2    0    0  0.11100970029E+03 -0.23440996901E+02  0.12504502081E+03  0.16884576134E+03  0.00000000000E+00 0. -1.
</event>
<event>
 7    1  0.2612321E-009  0.1143981E+03  0.7561462E-02  0.1252635E+00
          1   -1    0    0  501    0  0.00000000000E+00  0.00000000000E+00  0.73490394692E+03  0.73490394692E+03  0.00000000000E+00 0. -1.
         -1   -1    0    0    0  501 -0.00000000000E+00 -0.00000000000E+00 -0.25141588840E+02  0.25141588840E+02  0.00000000000E+00 0.  1.
         25    2    1    2    0    0 -0.73399434586E+02 -0.11025022036E+02  0.48473610287E+03  0.50608924927E+03  0.12509280829E+03 0.  0.
          5    1    3    3  502    0 -0.32243204750E+01  0.39502658299E+02  0.29319905687E+03  0.29589527811E+03  0.41800000000E+01 0.  1.
         -5    1    3    3    0  502 -0.70175114111E+02 -0.50527680335E+02  0.19153704600E+03  0.21019397116E+03  0.41800000000E+01 0.  1.
        -11    1    1    2    0    0 -0.13697307294E+02 -0.33304388127E+01  0.21798980069E+01  0.14263940728E+02  0.00000000000E+00 0.  1.
         11    1    1    2    0    0  0.87096741879E+02  0.14355460849E+02  0.22284635720E+03  0.23969234576E+03  0.00000000000E+00 0. -1.
</event>
<event>
 7    1  0.2612321E-009  0.2913344E+02  0.7561462E-02  0.1607870E+00
         -1   -1    0    0    0  501 -0.00000000000E+00  0.00000000000E+00  0.13631549081E+03  0.13631549081E+03  0.00000000000E+00 0.  1.
          1   -1    0    0  501    0  0.00000000000E+00 -0.00000000000E+00 -0.96297751076E+02  0.96297751076E+02  0.00000000000E+00 0. -1.
         25    2    1    2    0    0 -0.12123742959E+02 -0.22715081025E+02  0.66183690486E+02  0.14384367838E+03  0.12509101836E+03 0.  0.
          5    1    3    3  502    0 -0.50281430782E+01 -0.11486193882E+02  0.10333063474E+03  0.10417248844E+03  0.41800000000E+01 0. -1.
         -5    1    3    3    0  502 -0.70955998812E+01 -0.11228887143E+02 -0.37146944253E+02  0.39671189943E+02  0.41800000000E+01 0. -1.
        -11    1    1    2    0    0  0.13352517798E+02  0.64773101862E+01  0.28281656975E+02  0.31938963666E+02  0.00000000000E+00 0.  1.
         11    1    1    2    0    0 -0.12287748386E+01  0.16237770839E+02 -0.54447607732E+02  0.56830599831E+02  0.00000000000E+00 0. -1.
</event>
<event>
 7    1  0.2612321E-009  0.9149271E+02  0.7561462E-02  0.1299277E+00
          2   -1    0    0  501    0  0.00000000000E+00  0.00000000000E+00  0.65828132348E+03  0.65828132348E+03  0.00000000000E+00 0. -1.
         -2   -1    0    0    0  501 -0.00000000000E+00 -0.00000000000E+00 -0.23928172625E+02  0.23928172625E+02  0.00000000000E+00 0.  1.
         25    2    1    2    0    0 -0.22317851641E+02 -0.48722724776E+02  0.45359863105E+03  0.47357805545E+03  0.12510981620E+03 0.  0.
          5    1    3    3  502    0 -0.30561705759E+02 -0.58177184800E+02  0.45548674629E+03  0.46022195856E+03  0.41800000000E+01 0. -1.
         -5    1    3    3    0  502  0.82438541176E+01  0.94544600238E+01 -0.18881152482E+01  0.13356096894E+02  0.41800000000E+01 0. -1.
        -11    1    1    2    0    0 -0.26709311822E+02  0.47943297345E+02  0.87913078182E+02  0.10363713820E+03  0.00000000000E+00 0.  1.
         11    1    1    2    0    0  0.49027163464E+02  0.77942743123E+00  0.92841441625E+02  0.10499430245E+03  0.00000000000E+00 0. -1.
</event>
<event>
 7    1  0.2612321E-009  0.1645728E+03  0.7561462E-02  0.1183629E+00
         -2   -1    0    0    0  501 -0.00000000000E+00  0.00000000000E+00  0.35225093725E+02  0.35225093725E+02  0.00000000000E+00 0.  1.
          2   -1    0    0  501    0  0.00000000000E+00 -0.00000000000E+00 -0.87322612540E+03  0.87322612540E+03  0.00000000000E+00 0. -1.
         25    2    1    2    0    0  0.12012282837E+03  0.63722933688E+02 -0.43444860985E+03  0.47210498320E+03  0.12508962541E+03 0.  0.
          5    1    3    3  502    0  0.40352729906E+02 -0.27620732876E+02 -0.54939819224E+02  0.73668879670E+02  0.41800000000E+01 0. -1.
         -5    1    3    3    0  502  0.79770098461E+02  0.91343666564E+02 -0.37950879063E+03  0.39843610353E+03  0.41800000000E+01 0. -1.
        -11    1    1    2    0    0 -0.72121571114E+02 -0.80305824458E+02 -0.32806805501E+03  0.34536820233E+03  0.00000000000E+00 0.  1.
         11    1    1    2    0    0 -0.48001257253E+02  0.16582890770E+02 -0.75484366808E+02  0.90978033593E+02  0.00000000000E+00 0. -1.
</event>
<event>
 7    1  0.2612321E-009  0.9942447E+02  0.7561462E-02  0.1281511E+00
          2   -1    0    0  501    0  0.00000000000E+00  0.00000000000E+00  0.19493299610E+03  0.19493299610E+03  0.00000000000E+00 0. -1.
         -2   -1    0    0    0  501 -0.00000000000E+00 -0.00000000000E+00 -0.63988494911E+02  0.63988494911E+02  0.00000000000E+00 0.  1.
         25    2    1    2    0    0  0.24992445128E+02  0.60711217171E+01  0.63761500361E+02  0.14273376813E+03  0.12508364723E+03 0.  0.
          5    1    3    3  502    0 -0.13128234057E+02 -0.41225302852E+02 -0.12421872634E+02  0.45206763260E+02  0.41800000000E+01 0.  1.
         -5    1    3    3    0  502  0.38120679185E+02  0.47296424569E+02  0.76183372995E+02  0.97527004872E+02  0.41800000000E+01 0.  1.
        -11    1    1    2    0    0 -0.59529212290E+02 -0.70245567712E+01  0.47028842987E+02  0.76189130369E+02  0.00000000000E+00 0.  1.
         11    1    1    2    0    0  0.34536767162E+02  0.95343505402E+00  0.20154157839E+02  0.39998592508E+02  0.00000000000E+00 0. -1.
</event>
<event>
 7    1  0.2612321E-009  0.7755668E+02  0.7561462E-02  0.1336132E+00
          2   -1    0    0  501    0  0.00000000000E+00  0.00000000000E+00  0.31220101859E+03  0.31220101859E+03  0.00000000000E+00 0. -1.
         -2   -1    0    0    0  501 -0.00000000000E+00 -0.00000000000E+00 -0.38390615237E+02  0.38390615237E+02  0.00000000000E+00 0.  1.
         25    2    1    2    0    0  0.17554597808E+02 -0.27879318560E+02  0.14916204486E+03  0.19743924581E+03  0.12509004696E+03 0.  0.
          5    1    3    3  502    0  0.48349141114E+02 -0.25486719731E+02  0.11132199459E+02  0.55933984248E+02  0.41800000000E+01 0. -1.
         -5    1    3    3    0  502 -0.30794543305E+02 -0.23925988290E+01  0.13802984541E+03  0.14150526156E+03  0.41800000000E+01 0. -1.
        -11    1    1    2    0    0  0.19269530974E+02 -0.48412518078E+01  0.81998468186E+00  0.19885294011E+02  0.00000000000E+00 0.  1.
         11    1    1    2    0    0 -0.36824128782E+02  0.32720570367E+02  0.12382837380E+03  0.13326709401E+03  0.00000000000E+00 0. -1.
</event>
<event>
 7    1  0.2612321E-009  0.9960496E+02  0.7561462E-02  0.1281129E+00
          2   -1    0    0  501    0  0.00000000000E+00  0.00000000000E+00  0.15519691752E+03  0.15519691752E+03  0.00000000000E+00 0. -1.
         -2   -1    0    0    0  501 -0.00000000000E+00 -0.00000000000E+00 -0.12749454090E+03  0.12749454090E+03  0.00000000000E+00 0.  1.
         25    2    1    2    0    0  0.39709347303E+02 -0.28105119021E+02  0.86969851590E+02  0.15992797891E+03  0.12508586401E+03 0.  0.
          5    1    3    3  502    0  0.32333607374E+02 -0.61513317636E+02  0.35975651660E+01  0.69712016808E+02  0.41800000000E+01 0. -1.
         -5    1    3    3    0  502  0.73757399294E+01  0.33408198615E+02  0.83372286424E+02  0.90215962101E+02  0.41800000000E+01 0. -1.
        -11    1    1    2    0    0 -0.65221436405E+02  0.17780754439E+02 -0.65949248636E+02  0.94442016025E+02  0.00000000000E+00 0.  1.
         11    1    1    2    0    0  0.25512089102E+02  0.10324364582E+02  0.66817736690E+01  0.28321463482E+02  0.00000000000E+00 0. -1.
</event>
<event>
 7    1  0.2612321E-009  0.1056936E+03  0.7561462E-02  0.1268759E+00
         -2   -1    0    0    0  501 -0.00000000000E+00  0.00000000000E+00  0.88751119519E+02  0.88751119519E+02  0.00000000000E+00 0.  1.
          2   -1    0    0  501    0  0.00000000000E+00 -0.00000000000E+00 -0.54425927030E+03  0.54425927030E+03  0.00000000000E+00 0. -1.
         25    2    1    2    0    0 -0.66866682326E+02  0.13326828788E+01  0.21070309330E+02  0.14339350863E+03  0.12507921943E+03 0.  0.
          5    1    3    3  502    0 -0.30685488045E+02  0.39335319906E+02  0.59838976858E+02  0.78019498333E+02  0.41800000000E+01 0.  1.
         -5    1    3    3    0  502 -0.36181194281E+02 -0.38002637027E+02 -0.38768667528E+02  0.65374010298E+02  0.41800000000E+01 0.  1.
        -11    1    1    2    0    0  0.35562119695E+02 -0.43488748718E+02 -0.30691248882E+03  0.31201155654E+03  0.00000000000E+00 0.  1.
         11    1    1    2    0    0  0.31304562631E+02  0.42156065839E+02 -0.16966597129E+03  0.17760532464E+03  0.00000000000E+00 0. -1.
</event>
<event>
 7    1  0.2612321E-009  0.1605711E+03  0.7561462E-02  0.1188054E+00
          2   -1    0    0  501    0  0.00000000000E+00  0.00000000000E+00  0.58751896308E+03  0.58751896308E+03  0.00000000000E+00 0.  1.
         -2   -1    0    0    0  501 -0.00000000000E+00 -0.00000000000E+00 -0.48355476183E+02  0.48355476183E+02  0.00000000000E+00 0. -1.
         25    2    1    2    0    0 -0.84918924386E+02  0.83177713394E+02  0.19157631781E+03  0.25783498839E+03  0.12509052709E+03 0.  0.
          5    1    3    3  502    0 -0.29290840154E+02 -0.32606156976E+02  0.47675639222E+02  0.64896484996E+02  0.41800000000E+01 0. -1.
         -5    1    3    3    0  502 -0.55628084233E+02  0.11578387037E+03  0.14390067859E+03  0.19293850340E+03  0.41800000000E+01 0. -1.
        -11    1    1    2    0    0  0.19464515369E+02 -0.80780717432E+02  0.19966996538E+03  0.21626947714E+03  0.00000000000E+00 0.  1.
         11    1    1    2    0    0  0.65454409017E+02 -0.23969959620E+01  0.14791720370E+03  0.16176997373E+03  0.00000000000E+00 0. -1.
</event>
<event>
 7    1  0.2612321E-009  0.1103472E+03  0.7561462E-02  0.1259928E+00
          2   -1    0    0  501    0  0.00000000000E+00  0.00000000000E+00  0.46675378114E+03  0.46675378114E+03  0.00000000000E+00 0. -1.
         -2   -1    0    0    0  501 -0.00000000000E+00 -0.00000000000E+00 -0.40760069897E+02  0.40760069897E+02  0.00000000000E+00 0.  1.
         25    2    1    2    0    0 -0.73788417259E+02 -0.19726235458E+01  0.15376723400E+03  0.21151938428E+03  0.12508983136E+03 0.  0.
          5    1    3    3  502    0 -0.81883645836E+02 -0.50204889189E+02  0.10342954937E+03  0.14121121215E+03  0.41800000000E+01 0. -1.
         -5    1    3    3    0  502  0.80952285767E+01  0.48232265643E+02  0.50337684625E+02  0.70308172130E+02  0.41800000000E+01 0. -1.
        -11    1    1    2    0    0  0.16065387478E+02 -0.60993144235E+01 -0.41833900755E+00  0.17189337357E+02  0.00000000000E+00 0.  1.
         11    1    1    2    0    0  0.57723029781E+02  0.80719379694E+01  0.27264481625E+03  0.27880512940E+03  0.00000000000E+00 0. -1.
</event>
<event>
 7    1  0.2612321E-009  0.1181653E+03  0.7561462E-02  0.1246155E+00
         -2   -1    0    0    0  501 -0.00000000000E+00  0.00000000000E+00  0.11317855475E+03  0.11317855475E+03  0.00000000000E+00 0.  1.
          2   -1    0    0  501    0  0.00000000000E+00 -0.00000000000E+00 -0.21125228354E+03  0.21125228354E+03  0.00000000000E+00 0. -1.
         25    2    1    2    0    0 -0.39268417357E+01  0.79965400389E+02 -0.13210567121E+03  0.19876769142E+03  0.12508717537E+03 0.  0.
          5    1    3    3  502    0 -0.30178953236E+02  0.10341552127E+03 -0.74210391561E+02  0.13088236655E+03  0.41800000000E+01 0. -1.
         -5    1    3    3    0  502  0.26252111500E+02 -0.23450120879E+02 -0.57895279650E+02  0.67885324874E+02  0.41800000000E+01 0. -1.
        -11    1    1    2    0    0  0.25377156263E+02 -0.34777504914E+02 -0.23806033615E+02  0.49195550048E+02  0.00000000000E+00 0. -1.
         11    1    1    2    0    0 -0.21450314527E+02 -0.45187895476E+02  0.57837976035E+02  0.76467596815E+02  0.00000000000E+00 0.  1.
</event>
<event>
 7    1  0.2612321E-009  0.2789669E+03  0.7561462E-02  0.1096255E+00
          1   -1    0    0  501    0  0.00000000000E+00  0.00000000000E+00  0.93240173338E+03  0.93240173338E+03  0.00000000000E+00 0. -1.
         -1   -1    0    0    0  501 -0.00000000000E+00 -0.00000000000E+00 -0.15414543174E+03  0.15414543174E+03  0.00000000000E+00 0.  1.
         25    2    1    2    0    0  0.26427362521E+03 -0.77132929956E+01  0.38017734777E+02  0.29494283808E+03  0.12508351493E+03 0.  0.
          5    1    3    3  502    0  0.22639542336E+03 -0.37302873342E+02 -0.60981764381E+01  0.22956709745E+03  0.41800000000E+01 0. -1.
         -5    1    3    3    0  502  0.37878201855E+02  0.29589580346E+02  0.44115911215E+02  0.65375740632E+02  0.41800000000E+01 0. -1.
        -11    1    1    2    0    0 -0.25108794141E+03 -0.17552997154E+02  0.65309969654E+03  0.69992319268E+03  0.00000000000E+00 0.  1.
         11    1    1    2    0    0 -0.13185683800E+02  0.25266290150E+02  0.87138870323E+02  0.91681134354E+02  0.00000000000E+00 0. -1.
</event>
<event>
 7    1  0.2612321E-009  0.1023261E+03  0.7561462E-02  0.1275479E+00
          1   -1    0    0  501    0  0.00000000000E+00  0.00000000000E+00  0.22827728269E+03  0.22827728269E+03  0.00000000000E+00 0. -1.
         -1   -1    0    0    0  501 -0.00000000000E+00 -0.00000000000E+00 -0.67345175885E+02  0.67345175885E+02  0.00000000000E+00 0.  1.
         25    2    1    2    0    0  0.10577879254E+02  0.33495248383E+02  0.32702503096E+02  0.13400544943E+03  0.12511667984E+03 0.  0.
          5    1    3    3  502    0  0.89508652547E+01  0.78177790078E+02  0.40224995521E+02  0.88472637098E+02  0.41800000000E+01 0. -1.
         -5    1    3    3    0  502  0.16270139990E+01 -0.44682541696E+02 -0.75224924255E+01  0.45532812336E+02  0.41800000000E+01 0. -1.
        -11    1    1    2    0    0 -0.25695187534E+02 -0.51428679369E+02  0.12545246260E+03  0.13799808729E+03  0.00000000000E+00 0.  1.
         11    1    1    2    0    0  0.15117308280E+02  0.17933430986E+02  0.27771411097E+01  0.23618921849E+02  0.00000000000E+00 0. -1.
</event>
<event>
 7    1  0.2612321E-009  0.1021093E+03  0.7561462E-02  0.1275922E+00
         -1   -1    0    0    0  501 -0.00000000000E+00  0.00000000000E+00  0.11370352754E+03  0.11370352754E+03  0.00000000000E+00 0.  1.
          1   -1    0    0  501    0  0.00000000000E+00 -0.00000000000E+00 -0.13188832149E+03  0.13188832149E+03  0.00000000000E+00 0. -1.
         25    2    1    2    0    0 -0.19035169833E+02 -0.33273334140E+02 -0.49872147879E+02  0.14001323564E+03  0.12508805924E+03 0.  0.
          5    1    3    3  502    0  0.37141838451E+02 -0.30153936425E+02 -0.65733650012E+02  0.81407377979E+02  0.41800000000E+01 0.  1.
         -5    1    3    3    0  502 -0.56177008284E+02 -0.31193977145E+01  0.15861502133E+02  0.58605857658E+02  0.41800000000E+01 0.  1.
        -11    1    1    2    0    0  0.52217090081E+02  0.40175969403E+02  0.14025972501E+02  0.67360677836E+02  0.00000000000E+00 0.  1.
         11    1    1    2    0    0 -0.33181920248E+02 -0.69026352630E+01  0.17661381427E+02  0.38217935565E+02  0.00000000000E+00 0. -1.
</event>
<event>
 7    1  0.2716270E-009  0.1469498E+03  0.7561462E-02  0.1204272E+00
         -2   -1    0    0    0  501 -0.00000000000E+00  0.00000000000E+00  0.78946366439E+02  0.78946366439E+02  0.00000000000E+00 0. -1.
          2   -1    0    0  501    0  0.00000000000E+00 -0.00000000000E+00 -0.37453870585E+03  0.37453870585E+03  0.00000000000E+00 0.  1.
         25    2    1    2    0    0  0.82136245298E+02 -0.91328180160E+02 -0.88835395219E+02  0.19653375469E+03  0.12508633021E+03 0.  0.
          5    1    3    3  502    0  0.55697351942E+01  0.15910582209E+02 -0.58814652268E+02  0.61325396842E+02  0.41800000000E+01 0. -1.
         -5    1    3    3    0  502  0.76566510104E+02 -0.10723876237E+03 -0.30020742951E+02  0.13520835785E+03  0.41800000000E+01 0. -1.
        -11    1    1    2    0    0 -0.57830992176E+02  0.85917633714E+01 -0.45495270982E+02  0.74081453385E+02  0.00000000000E+00 0. -1.
         11    1    1    2    0    0 -0.24305253122E+02  0.82736416789E+02 -0.16126167321E+03  0.18286986422E+03  0.00000000000E+00 0.  1.
</event>
<event>
 7    1  0.2612321E-009  0.1334057E+03  0.7561462E-02  0.1222488E+00
         -4   -1    0    0    0  501 -0.00000000000E+00  0.00000000000E+00  0.19921216883E+03  0.19921216883E+03  0.00000000000E+00 0.  1.
          4   -1    0    0  501    0  0.00000000000E+00 -0.00000000000E+00 -0.99998936020E+02  0.99998936020E+02  0.00000000000E+00 0. -1.
         25    2    1    2    0    0 -0.83219373789E+02  0.32571184495E+02  0.49929034389E+02  0.16163913400E+03  0.12509178603E+03 0.  0.
          5    1    3    3  502    0  0.19434748413E+02  0.45444483098E+02  0.96164516846E+01  0.50525825406E+02  0.41800000000E+01 0. -1.
         -5    1    3    3    0  502 -0.10265412220E+03 -0.12873298604E+02  0.40312582704E+02  0.11111330859E+03  0.41800000000E+01 0. -1.
        -11    1    1    2    0    0  0.57185597991E+02  0.15280120461E+02 -0.65653218070E+01  0.59554833132E+02  0.00000000000E+00 0. -1.
         11    1    1    2    0    0  0.26033775798E+02 -0.47851304955E+02  0.55849520224E+02  0.78017137716E+02  0.00000000000E+00 0.  1.
</event>
<event>
 7    1  0.2612321E-009  0.1132457E+03  0.7561462E-02  0.1254675E+00
         -2   -1    0    0    0  501 -0.00000000000E+00  0.00000000000E+00  0.91864131494E+02  0.91864131494E+02  0.00000000000E+00 0.  1.
          2   -1    0    0  501    0  0.00000000000E+00 -0.00000000000E+00 -0.15352105019E+03  0.15352105019E+03  0.00000000000E+00 0. -1.
         25    2    1    2    0    0 -0.55063828017E+01  0.41134455123E+02 -0.31015159132E+01  0.13182565969E+03  0.12508405774E+03 0.  0.
          5    1    3    3  502    0  0.10455461137E+02 -0.43721324600E+02 -0.44784305455E+01  0.45369589292E+02  0.41800000000E+01 0. -1.
         -5    1    3    3    0  502 -0.15961843938E+02  0.84855779723E+02  0.13769146323E+01  0.86456070396E+02  0.41800000000E+01 0. -1.
        -11    1    1    2    0    0 -0.79220447260E+01  0.25614709997E+02 -0.58137385081E+01  0.27434863155E+02  0.00000000000E+00 0.  1.
         11    1    1    2    0    0  0.13428427528E+02 -0.66749165120E+02 -0.52741664273E+02  0.86124658841E+02  0.00000000000E+00 0. -1.
</event>
<event>
 7    1  0.2612321E-009  0.1847854E+03  0.7561462E-02  0.1163250E+00
          2   -1    0    0  501    0  0.00000000000E+00  0.00000000000E+00  0.41699719431E+03  0.41699719431E+03  0.00000000000E+00 0. -1.
         -2   -1    0    0    0  501 -0.00000000000E+00 -0.00000000000E+00 -0.85106654171E+02  0.85106654171E+02  0.00000000000E+00 0.  1.
         25    2    1    2    0    0  0.15195683457E+03  0.16412105625E+02  0.15879670204E+03  0.25342447817E+03  0.12508931518E+03 0.  0.
          5    1    3    3  502    0  0.17090815553E+03  0.12055217315E+02  0.15863703724E+03  0.23353395444E+03  0.41800000000E+01 0.  1.
         -5    1    3    3    0  502 -0.18951320955E+02  0.43568883100E+01  0.15966480257E+00  0.19890523737E+02  0.41800000000E+01 0.  1.
        -11    1    1    2    0    0 -0.69184628864E+02 -0.53635514447E+02  0.78380891561E+02  0.11750253377E+03  0.00000000000E+00 0.  1.
         11    1    1    2    0    0 -0.82772205708E+02  0.37223408821E+02  0.94712946529E+02  0.13117683653E+03  0.00000000000E+00 0. -1.
</event>
<event>
 7    1  0.2612321E-009  0.9666913E+02  0.7561462E-02  0.1287460E+00
          3   -1    0    0  501    0  0.00000000000E+00  0.00000000000E+00  0.15279728973E+03  0.15279728973E+03  0.00000000000E+00 0. -1.
         -3   -1    0    0    0  501 -0.00000000000E+00 -0.00000000000E+00 -0.12886317016E+03  0.12886317016E+03  0.00000000000E+00 0.  1.
         25    2    1    2    0    0  0.42192486557E+02 -0.38638836009E+02 -0.52058453451E+02  0.14707831417E+03  0.12509509324E+03 0.  0.
          5    1    3    3  502    0  0.36224148585E+02  0.27523565863E+02  0.19209983812E+02  0.49560382329E+02  0.41800000000E+01 0.  1.
         -5    1    3    3    0  502  0.59683379713E+01 -0.66162401872E+02 -0.71268437263E+02  0.97517931836E+02  0.41800000000E+01 0.  1.
        -11    1    1    2    0    0 -0.51801555822E+02  0.12567733914E+02  0.89125367617E+02  0.10384931523E+03  0.00000000000E+00 0. -1.
         11    1    1    2    0    0  0.96090692651E+01  0.26071102095E+02 -0.13132794596E+02  0.30732830499E+02  0.00000000000E+00 0.  1.
</event>
<event>
 7    1  0.2612321E-009  0.2229128E+03  0.7561462E-02  0.1131730E+00
         -2   -1    0    0    0  501 -0.00000000000E+00  0.00000000000E+00  0.10775939519E+03  0.10775939519E+03  0.00000000000E+00 0.  1.
          2   -1    0    0  501    0  0.00000000000E+00 -0.00000000000E+00 -0.50353263155E+03  0.50353263155E+03  0.00000000000E+00 0. -1.
         25    2    1    2    0    0  0.66182013091E+02  0.19219477438E+03 -0.25352799100E+03  0.34819824706E+03  0.12508671743E+03 0.  0.
          5    1    3    3  502    0  0.43011069599E+02  0.19864951361E+03 -0.18287178744E+03  0.27344312829E+03  0.41800000000E+01 0. -1.
         -5    1    3    3    0  502  0.23170943492E+02 -0.64547392328E+01 -0.70656203560E+02  0.74755118770E+02  0.41800000000E+01 0. -1.
        -11    1    1    2    0    0 -0.49990640479E+02 -0.37287505774E+02 -0.21314797217E+02  0.65907077030E+02  0.00000000000E+00 0. -1.
         11    1    1    2    0    0 -0.16191372612E+02 -0.15490726861E+03 -0.12093044815E+03  0.19718670265E+03  0.00000000000E+00 0.  1.
</event>
<event>
 7    1  0.2612321E-009  0.1152590E+03  0.7561462E-02  0.1251130E+00
         -1   -1    0    0    0  501 -0.00000000000E+00  0.00000000000E+00  0.38072350657E+03  0.38072350657E+03  0.00000000000E+00 0.  1.
          1   -1    0    0  501    0  0.00000000000E+00 -0.00000000000E+00 -0.36942412999E+02  0.36942412999E+02  0.00000000000E+00 0. -1.
         25    2    1    2    0    0 -0.35121599315E+02 -0.13027054395E+02  0.20805856028E+03  0.24563928042E+03  0.12508821166E+03 0.  0.
          5    1    3    3  502    0  0.44397538434E+02  0.30799709446E-01  0.43177849875E+02  0.62072066885E+02  0.41800000000E+01 0. -1.
         -5    1    3    3    0  502 -0.79519137749E+02 -0.13057854104E+02  0.16488071040E+03  0.18356721353E+03  0.41800000000E+01 0. -1.
        -11    1    1    2    0    0  0.45042381395E+02  0.49797657319E+02  0.78657392370E+02  0.10341957344E+03  0.00000000000E+00 0.  1.
         11    1    1    2    0    0 -0.99207820801E+01 -0.36770602925E+02  0.57065140928E+02  0.68607065713E+02  0.00000000000E+00 0. -1.
</event>
<event>
 7    1  0.2612321E-009  0.9776197E+02  0.7561462E-02  0.1285074E+00
          1   -1    0    0  501    0  0.00000000000E+00  0.00000000000E+00  0.11993852803E+03  0.11993852803E+03  0.00000000000E+00 0. -1.
         -1   -1    0    0    0  501 -0.00000000000E+00 -0.00000000000E+00 -0.15073194378E+03  0.15073194378E+03  0.00000000000E+00 0.  1.
         25    2    1    2    0    0  0.25710035086E+02  0.54444591318E+02 -0.65626581312E+02  0.15355630164E+03  0.12508984840E+03 0.  0.
          5    1    3    3  502    0 -0.15781245527E+02 -0.10735340546E+01  0.30714871678E+02  0.34800516202E+02  0.41800000000E+01 0.  1.
         -5    1    3    3    0  502  0.41491280613E+02  0.55518125372E+02 -0.96341452989E+02  0.11875578544E+03  0.41800000000E+01 0.  1.
        -11    1    1    2    0    0 -0.34212080763E+02 -0.77736984028E+02  0.17117442993E+02  0.86640129331E+02  0.00000000000E+00 0.  1.
         11    1    1    2    0    0  0.85020456771E+01  0.23292392710E+02  0.17715722569E+02  0.30474040838E+02  0.00000000000E+00 0. -1.
</event>
<event>
 7    1  0.2612321E-009  0.8339580E+02  0.7561462E-02  0.1319682E+00
          1   -1    0    0  501    0  0.00000000000E+00  0.00000000000E+00  0.40134699885E+03  0.40134699885E+03  0.00000000000E+00 0. -1.
         -1   -1    0    0    0  501 -0.00000000000E+00 -0.00000000000E+00 -0.39447607524E+02  0.39447607524E+02  0.00000000000E+00 0.  1.
         25    2    1    2    0    0 -0.30392275084E+02 -0.48067856579E+02  0.16126093217E+03  0.21186888329E+03  0.12509646774E+03 0.  0.
          5    1    3    3  502    0 -0.22385780651E+02 -0.15112304775E+02  0.17344929928E+03  0.17558939817E+03  0.41800000000E+01 0.  1.
         -5    1    3    3    0  502 -0.80064944326E+01 -0.32955551805E+02 -0.12188367104E+02  0.36279485119E+02  0.41800000000E+01 0.  1.
        -11    1    1    2    0    0  0.53766107825E+01  0.71089864967E+02  0.16463095834E+03  0.17940465236E+03  0.00000000000E+00 0. -1.
         11    1    1    2    0    0  0.25015664301E+02 -0.23022008388E+02  0.36007500815E+02  0.49521070723E+02  0.00000000000E+00 0.  1.
</event>
<event>
 7    1  0.2612321E-009  0.1627181E+03  0.7561462E-02  0.1185662E+00
          1   -1    0    0  501    0  0.00000000000E+00  0.00000000000E+00  0.10908316738E+04  0.10908316738E+04  0.00000000000E+00 0. -1.
         -1   -1    0    0    0  501 -0.00000000000E+00 -0.00000000000E+00 -0.33688896286E+02  0.33688896286E+02  0.00000000000E+00 0.  1.
         25    2    1    2    0    0  0.13642408864E+03  0.26509542731E+02  0.77265338670E+03  0.79495627521E+03  0.12509170916E+03 0.  0.
          5    1    3    3  502    0  0.14693183642E+03  0.12364388080E+02  0.75631371750E+03  0.77056456857E+03  0.41800000000E+01 0.  1.
         -5    1    3    3    0  502 -0.10507747779E+02  0.14145154651E+02  0.16339669194E+02  0.24391706641E+02  0.41800000000E+01 0.  1.
        -11    1    1    2    0    0 -0.13902550889E+03 -0.41117257524E+02  0.27765843560E+03  0.31322983231E+03  0.00000000000E+00 0. -1.
         11    1    1    2    0    0  0.26014202471E+01  0.14607714793E+02  0.68309552400E+01  0.16334462595E+02  0.00000000000E+00 0.  1.
</event>
<event>
 7    1  0.2612321E-009  0.1143223E+03  0.7561462E-02  0.1252769E+00
          1   -1    0    0  501    0  0.00000000000E+00  0.00000000000E+00  0.31646146463E+03  0.31646146463E+03  0.00000000000E+00 0. -1.
         -1   -1    0    0    0  501 -0.00000000000E+00 -0.00000000000E+00 -0.56307737866E+02  0.56307737866E+02  0.00000000000E+00 0.  1.
         25    2    1    2    0    0 -0.54623896360E+02 -0.18545890539E+02  0.22835355160E+03  0.26668410846E+03  0.12508936433E+03 0.  0.
          5    1    3    3  502    0 -0.65578839403E+02 -0.57991955497E+02  0.10568506030E+03  0.13729696082E+03  0.41800000000E+01 0.  1.
         -5    1    3    3    0  502  0.10954943043E+02  0.39446064958E+02  0.12266849130E+03  0.12938714764E+03  0.41800000000E+01 0.  1.
        -11    1    1    2    0    0 -0.20856218137E+02  0.12060950439E+02  0.15333154564E+02  0.28557905899E+02  0.00000000000E+00 0.  1.
         11    1    1    2    0    0  0.75480114497E+02  0.64849400994E+01  0.16467020600E+02  0.77527188134E+02  0.00000000000E+00 0. -1.
</event>
<event>
 7    1  0.2612321E-009  0.1041731E+03  0.7561462E-02  0.1271757E+00
         -2   -1    0    0    0  501 -0.00000000000E+00  0.00000000000E+00  0.51524549092E+02  0.51524549092E+02  0.00000000000E+00 0.  1.
          2   -1    0    0  501    0  0.00000000000E+00 -0.00000000000E+00 -0.24207298230E+03  0.24207298230E+03  0.00000000000E+00 0. -1.
         25    2    1    2    0    0 -0.22172795890E+02  0.53839211472E+01 -0.13646388181E+03  0.18652232947E+03  0.12509024290E+03 0.  0.
          5    1    3    3  502    0 -0.61508771041E+02  0.35649253718E+02 -0.10736755400E+03  0.12883890041E+03  0.41800000000E+01 0.  1.
         -5    1    3    3    0  502  0.39335975151E+02 -0.30265332571E+02 -0.29096327803E+02  0.57683429062E+02  0.41800000000E+01 0.  1.
        -11    1    1    2    0    0 -0.32407738186E+02 -0.46344673823E+01 -0.38025053816E+02  0.50176134766E+02  0.00000000000E+00 0. -1.
         11    1    1    2    0    0  0.54580534076E+02 -0.74945376484E+00 -0.16059497589E+02  0.56899067161E+02  0.00000000000E+00 0.  1.
</event>
<event>
 7    1  0.2612321E-009  0.1352000E+03  0.7561462E-02  0.1219938E+00
         -1   -1    0    0    0  501 -0.00000000000E+00  0.00000000000E+00  0.58678912134E+02  0.58678912134E+02  0.00000000000E+00 0.  1.
          1   -1    0    0  501    0  0.00000000000E+00 -0.00000000000E+00 -0.40210508006E+03  0.40210508006E+03  0.00000000000E+00 0. -1.
         25    2    1    2    0    0  0.23392374141E+02  0.10936036753E+03 -0.19024785136E+03  0.25367173604E+03  0.12509281180E+03 0.  0.
          5    1    3    3  502    0 -0.10394475499E+02  0.95953761212E+02 -0.50095232227E+02  0.10882175382E+03  0.41800000000E+01 0.  1.
         -5    1    3    3    0  502  0.33786849641E+02  0.13406606322E+02 -0.14015261913E+03  0.14484998223E+03  0.41800000000E+01 0.  1.
        -11    1    1    2    0    0  0.17410463543E+02 -0.90668134227E+02 -0.11945043962E+03  0.15097099831E+03  0.00000000000E+00 0.  1.
         11    1    1    2    0    0 -0.40802837684E+02 -0.18692233307E+02 -0.33727876952E+02  0.56141257848E+02  0.00000000000E+00 0. -1.
</event>
<event>
 7    1  0.2612321E-009  0.1294371E+03  0.7561462E-02  0.1228293E+00
          1   -1    0    0  501    0  0.00000000000E+00  0.00000000000E+00  0.12461331145E+03  0.12461331145E+03  0.00000000000E+00 0. -1.
         -1   -1    0    0    0  501 -0.00000000000E+00 -0.00000000000E+00 -0.17930772417E+03  0.17930772417E+03  0.00000000000E+00 0.  1.
         25    2    1    2    0    0  0.41657574527E+01 -0.80476183235E+02  0.36768845834E+02  0.15327486635E+03  0.12508983583E+03 0.  0.
          5    1    3    3  502    0 -0.26801372999E+02 -0.10457216930E+03  0.35776733782E+02  0.11380289656E+03  0.41800000000E+01 0.  1.
         -5    1    3    3    0  502  0.30967130451E+02  0.24095986060E+02  0.99211205194E+00  0.39471969787E+02  0.41800000000E+01 0.  1.
        -11    1    1    2    0    0 -0.22469136984E+02 -0.57834893078E+01  0.54100507862E+00  0.23207833847E+02  0.00000000000E+00 0. -1.
         11    1    1    2    0    0  0.18303379532E+02  0.86259672543E+02 -0.92004263627E+02  0.12743833542E+03  0.00000000000E+00 0.  1.
</event>
<event>
 7    1  0.2612321E-009  0.1163504E+03  0.7561462E-02  0.1249242E+00
          2   -1    0    0  501    0  0.00000000000E+00  0.00000000000E+00  0.18232618406E+03  0.18232618406E+03  0.00000000000E+00 0.  1.
         -2   -1    0    0    0  501 -0.00000000000E+00 -0.00000000000E+00 -0.85639786927E+02  0.85639786927E+02  0.00000000000E+00 0. -1.
         25    2    1    2    0    0  0.18942745383E+02 -0.45046327754E+02  0.17382428029E+02  0.13542032709E+03  0.12509403239E+03 0.  0.
          5    1    3    3  502    0  0.64544789341E+02 -0.33789703065E+01 -0.13611424174E+02  0.66183007936E+02  0.41800000000E+01 0. -1.
         -5    1    3    3    0  502 -0.45602043958E+02 -0.41667357447E+02  0.30993852203E+02  0.69237319158E+02  0.41800000000E+01 0. -1.
        -11    1    1    2    0    0 -0.57452871503E+02  0.27762632193E+02  0.43886024285E+02  0.77444039911E+02  0.00000000000E+00 0.  1.
         11    1    1    2    0    0  0.38510126119E+02  0.17283695561E+02  0.35417944816E+02  0.55101603978E+02  0.00000000000E+00 0. -1.
</event>
<event>
 7    1  0.2612321E-009  0.1954756E+03  0.7561462E-02  0.1153613E+00
          2   -1    0    0  501    0  0.00000000000E+00  0.00000000000E+00  0.87267558063E+02  0.87267558063E+02  0.00000000000E+00 0.  1.
         -2   -1    0    0    0  501 -0.00000000000E+00 -0.00000000000E+00 -0.62356946110E+03  0.62356946110E+03  0.00000000000E+00 0. -1.
         25    2    1    2    0    0  0.13775596273E+03 -0.11785024248E+03 -0.12766661643E+03  0.25458189983E+03  0.12509114218E+03 0.  0.
          5    1    3    3  502    0  0.72135822207E+02 -0.92930335090E+02 -0.14029631906E+03  0.18313971051E+03  0.41800000000E+01 0.  1.
         -5    1    3    3    0  502  0.65620140522E+02 -0.24919907390E+02  0.12629702627E+02  0.71442189321E+02  0.41800000000E+01 0.  1.
        -11    1    1    2    0    0 -0.12063174606E+03  0.13335252370E+03 -0.36436205624E+03  0.40631837487E+03  0.00000000000E+00 0.  1.
         11    1    1    2    0    0 -0.17124216668E+02 -0.15502281220E+02 -0.44273230367E+02  0.49936744454E+02  0.00000000000E+00 0. -1.
</event>
<event>
 7    1  0.2612321E-009  0.8034700E+02  0.7561462E-02  0.1328070E+00
         -1   -1    0    0    0  501 -0.00000000000E+00  0.00000000000E+00  0.43122921077E+02  0.43122921077E+02  0.00000000000E+00 0.  1.
          1   -1    0    0  501    0  0.00000000000E+00 -0.00000000000E+00 -0.29348937951E+03  0.29348937951E+03  0.00000000000E+00 0. -1.
         25    2    1    2    0    0  0.82127927748E+01  0.31462419218E+02 -0.14607541656E+03  0.19504333046E+03  0.12508612890E+03 0.  0.
          5    1    3    3  502    0 -0.19414132164E+02 -0.45588661966E+01 -0.14801826855E+03  0.14941409577E+03  0.41800000000E+01 0. -1.
         -5    1    3    3    0  502  0.27626924939E+02  0.36021285415E+02  0.19428519878E+01  0.45629234690E+02  0.41800000000E+01 0. -1.
        -11    1    1    2    0    0  0.38685725429E+02 -0.79251769948E+00 -0.52854717406E+02  0.65504462355E+02  0.00000000000E+00 0. -1.
         11    1    1    2    0    0 -0.46898518204E+02 -0.30669901519E+02 -0.51436324463E+02  0.76064507775E+02  0.00000000000E+00 0.  1.
</event>
<event>
 7    1  0.2982324E-009  0.2715291E+03  0.7561462E-02  0.1100408E+00
         -1   -1    0    0    0  501 -0.00000000000E+00  0.00000000000E+00  0.96791974448E+02  0.96791974448E+02  0.00000000000E+00 0.  1.
          1   -1    0    0  501    0  0.00000000000E+00 -0.00000000000E+00 -0.82978913031E+03  0.82978913031E+03  0.00000000000E+00 0. -1.
         25    2    1    2    0    0  0.25539995063E+03 -0.50245776388E+02 -0.33321484827E+03  0.44094654466E+03  0.12509175559E+03 0.  0.
          5    1    3    3  502    0  0.56042672037E+01 -0.31165316553E+02 -0.73149486242E+02  0.79818572426E+02  0.41800000000E+01 0.  1.
         -5    1    3    3    0  502  0.24979568342E+03 -0.19080459835E+02 -0.26006536203E+03  0.36112797224E+03  0.41800000000E+01 0.  1.
        -11    1    1    2    0    0 -0.14099347037E+03  0.21784689118E+02 -0.13780776023E+03  0.19835501039E+03  0.00000000000E+00 0.  1.
         11    1    1    2    0    0 -0.11440648026E+03  0.28461087271E+02 -0.26197454737E+03  0.28727954971E+03  0.00000000000E+00 0. -1.
</event>
<event>
 7    1  0.2670055E-009  0.1377462E+03  0.7561462E-02  0.1216394E+00
          2   -1    0    0  501    0  0.00000000000E+00  0.00000000000E+00  0.70877990286E+02  0.70877990286E+02  0.00000000000E+00 0. -1.
         -2   -1    0    0    0  501 -0.00000000000E+00 -0.00000000000E+00 -0.36649998769E+03  0.36649998769E+03  0.00000000000E+00 0.  1.
         25    2    1    2    0    0  0.64195835084E+02  0.97373918021E+02 -0.12799008634E+03  0.21360569689E+03  0.12507256451E+03 0.  0.
          5    1    3    3  502    0  0.18197754009E+02 -0.23141750905E+02 -0.61750300383E+02  0.68536638985E+02  0.41800000000E+01 0.  1.
         -5    1    3    3    0  502  0.45998081076E+02  0.12051566893E+03 -0.66239785956E+02  0.14506905791E+03  0.41800000000E+01 0.  1.
        -11    1    1    2    0    0 -0.19525275574E+02 -0.26481075959E+02 -0.12596595527E+03  0.13019180334E+03  0.00000000000E+00 0.  1.
         11    1    1    2    0    0 -0.44670559510E+02 -0.70892842061E+02 -0.41665955802E+02  0.93580477747E+02  0.00000000000E+00 0. -1.
</event>
<event>
 7    1  0.2612321E-009  0.1028378E+03  0.7561462E-02  0.1274439E+00
         -2   -1    0    0    0  501 -0.00000000000E+00  0.00000000000E+00  0.20644111623E+02  0.20644111623E+02  0.00000000000E+00 0.  1.
          2   -1    0    0  501    0  0.00000000000E+00 -0.00000000000E+00 -0.10196081975E+04  0.10196081975E+04  0.00000000000E+00 0. -1.
         25    2    1    2    0    0  0.15057377767E+01 -0.70772129974E+02 -0.77659393781E+03  0.78978268701E+03  0.12509031470E+03 0.  0.
          5    1    3    3  502    0  0.31102669515E+02 -0.52569729337E+02 -0.72415237777E+03  0.72673591567E+03  0.41800000000E+01 0. -1.
         -5    1    3    3    0  502 -0.29596931738E+02 -0.18202400637E+02 -0.52441560044E+02  0.63046771346E+02  0.41800000000E+01 0. -1.
        -11    1    1    2    0    0  0.25348727743E+02 -0.77178048060E+01 -0.25236898040E+02  0.36592670467E+02  0.00000000000E+00 0.  1.
         11    1    1    2    0    0 -0.26854465520E+02  0.78489934780E+02 -0.19713325007E+03  0.21387695169E+03  0.00000000000E+00 0. -1.
</event>
<event>
 7    1  0.2612321E-009  0.1377754E+03  0.7561462E-02  0.1216354E+00
         -2   -1    0    0    0  501 -0.00000000000E+00  0.00000000000E+00  0.46286425788E+02  0.46286425788E+02  0.00000000000E+00 0.  1.
          2   -1    0    0  501    0  0.00000000000E+00 -0.00000000000E+00 -0.50396818620E+03  0.50396818620E+03  0.00000000000E+00 0. -1.
         25    2    1    2    0    0  0.80809026136E+02  0.33581385628E+02 -0.35917206772E+03  0.39027112637E+03  0.12509664137E+03 0.  0.
          5    1    3    3  502    0  0.68866009227E+02 -0.36685333666E+02 -0.14808493025E+03  0.16743643540E+03  0.41800000000E+01 0.  1.
         -5    1    3    3    0  502  0.11943016909E+02  0.70266719294E+02 -0.21108713747E+03  0.22283469097E+03  0.41800000000E+01 0.  1.
        -11    1    1    2    0    0  0.13087376236E+02  0.15318307564E+02 -0.14231697753E+02  0.24667208685E+02  0.00000000000E+00 0.  1.
         11    1    1    2    0    0 -0.93896402372E+02 -0.48899693192E+02 -0.84277994943E+02  0.13531627694E+03  0.00000000000E+00 0. -1.
</event>
<event>
 7    1  0.2612321E-009  0.1037903E+03  0.7561462E-02  0.1272522E+00
         -2   -1    0    0    0  501 -0.00000000000E+00  0.00000000000E+00  0.20166585272E+03  0.20166585272E+03  0.00000000000E+00 0.  1.
          2   -1    0    0  501    0  0.00000000000E+00 -0.00000000000E+00 -0.86547420100E+02  0.86547420100E+02  0.00000000000E+00 0. -1.
         25    2    1    2    0    0  0.58391998372E+02 -0.74367053633E+01  0.19923606278E+02  0.13967128409E+03  0.12508472109E+03 0.  0.
          5    1    3    3  502    0  0.20114476189E+02 -0.64316506460E+02  0.21824476515E+02  0.70957630532E+02  0.41800000000E+01 0. -1.
         -5    1    3    3    0  502  0.38277522183E+02  0.56879801096E+02 -0.19008702367E+01  0.68713653555E+02  0.41800000000E+01 0. -1.
        -11    1    1    2    0    0 -0.48874992786E+02  0.22303268835E+02  0.20745241690E+01  0.53763411081E+02  0.00000000000E+00 0. -1.
         11    1    1    2    0    0 -0.95170055861E+01 -0.14866563472E+02  0.93120302174E+02  0.94778577652E+02  0.00000000000E+00 0.  1.
</event>
<event>
 7    1  0.2612321E-009  0.1583999E+03  0.7561462E-02  0.1190515E+00
         -2   -1    0    0    0  501 -0.00000000000E+00  0.00000000000E+00  0.21676641957E+02  0.21676641957E+02  0.00000000000E+00 0.  1.
          2   -1    0    0  501    0  0.00000000000E+00 -0.00000000000E+00 -0.19364191494E+04  0.19364191494E+04  0.00000000000E+00 0. -1.
         25    2    1    2    0    0  0.11133049461E+03 -0.42666423172E+02 -0.16014848582E+04  0.16107814340E+04  0.12509266394E+03 0.  0.
          5    1    3    3  502    0 -0.17830903518E+01  0.34694062264E+02 -0.38870641832E+03  0.39027811803E+03  0.41800000000E+01 0. -1.
         -5    1    3    3    0  502  0.11311358496E+03 -0.77360485436E+02 -0.12127784398E+04  0.12205033160E+04  0.41800000000E+01 0. -1.
        -11    1    1    2    0    0 -0.10545894239E+03  0.39333156098E+01 -0.18251749886E+03  0.21083096758E+03  0.00000000000E+00 0.  1.
         11    1    1    2    0    0 -0.58715522182E+01  0.38733107562E+02 -0.13074015046E+03  0.13648338979E+03  0.00000000000E+00 0. -1.
</event>
<event>
 7    1  0.2612321E-009  0.1020816E+03  0.7561462E-02  0.1275979E+00
         -2   -1    0    0    0  501 -0.00000000000E+00  0.00000000000E+00  0.21819190343E+02  0.21819190343E+02  0.00000000000E+00 0.  1.
          2   -1    0    0  501    0  0.00000000000E+00 -0.00000000000E+00 -0.59859332750E+03  0.59859332750E+03  0.00000000000E+00 0. -1.
         25    2    1    2    0    0  0.28310265036E+02 -0.91659322184E+01 -0.38045201077E+03  0.40160385380E+03  0.12512568668E+03 0.  0.
          5    1    3    3  502    0  0.58919664264E+02  0.22645027446E+02 -0.10483552067E+03  0.12244297816E+03  0.41800000000E+01 0. -1.
         -5    1    3    3    0  502 -0.30609399229E+02 -0.31810959665E+02 -0.27561649010E+03  0.27916087565E+03  0.41800000000E+01 0. -1.
        -11    1    1    2    0    0 -0.46708615252E+02 -0.28446236417E+02 -0.10744691907E+03  0.12056418839E+03  0.00000000000E+00 0. -1.
         11    1    1    2    0    0  0.18398350217E+02  0.37612168636E+02 -0.88875207312E+02  0.98244475646E+02  0.00000000000E+00 0.  1.
</event>
<event>
 7    1  0.2612321E-009  0.1220776E+03  0.7561462E-02  0.1239708E+00
         -1   -1    0    0    0  501 -0.00000000000E+00  0.00000000000E+00  0.50109304353E+02  0.50109304353E+02  0.00000000000E+00 0.  1.
          1   -1    0    0  501    0  0.00000000000E+00 -0.00000000000E+00 -0.48974079193E+03  0.48974079193E+03  0.00000000000E+00 0. -1.
         25    2    1    2    0    0  0.28640524630E+02  0.78545615014E+02 -0.36480787320E+03  0.39461727588E+03  0.12509323236E+03 0.  0.
          5    1    3    3  502    0 -0.28182437780E+02  0.68054758650E+02 -0.29406660668E+03  0.30318037789E+03  0.41800000000E+01 0. -1.
         -5    1    3    3    0  502  0.56822962409E+02  0.10490856364E+02 -0.70741266521E+02  0.91436897985E+02  0.41800000000E+01 0. -1.
        -11    1    1    2    0    0 -0.49569784097E+02 -0.26198546671E+02 -0.68474900572E+02  0.88500504809E+02  0.00000000000E+00 0. -1.
         11    1    1    2    0    0  0.20929259468E+02 -0.52347068342E+02 -0.63487138020E+01  0.56732315596E+02  0.00000000000E+00 0.  1.
</event>
<event>
 7    1  0.2881460E-009  0.1197653E+03  0.7561462E-02  0.1243485E+00
         -2   -1    0    0    0  501 -0.00000000000E+00  0.00000000000E+00  0.23371789464E+02  0.23371789464E+02  0.00000000000E+00 0.  1.
          2   -1    0    0  501    0  0.00000000000E+00 -0.00000000000E+00 -0.72607762202E+03  0.72607762202E+03  0.00000000000E+00 0. -1.
         25    2    1    2    0    0  0.62436777293E+02  0.33271847684E+02 -0.35346867357E+03  0.38157316788E+03  0.12511040021E+03 0.  0.
          5    1    3    3  502    0  0.50515347088E+02  0.71991185309E+02 -0.30887921932E+03  0.32118277597E+03  0.41800000000E+01 0.  1.
         -5    1    3    3    0  502  0.11921430205E+02 -0.38719337625E+02 -0.44589454259E+02  0.60390391912E+02  0.41800000000E+01 0.  1.
        -11    1    1    2    0    0  0.18619214041E+02 -0.22158767638E+02 -0.14502592762E+03  0.14788578632E+03  0.00000000000E+00 0.  1.
         11    1    1    2    0    0 -0.81055991334E+02 -0.11113080046E+02 -0.20421123136E+03  0.21999045727E+03  0.00000000000E+00 0. -1.
</event>
<event>
 7    1  0.2612321E-009  0.1220802E+03  0.7561462E-02  0.1239704E+00
          2   -1    0    0  501    0  0.00000000000E+00  0.00000000000E+00  0.92847567440E+03  0.92847567440E+03  0.00000000000E+00 0. -1.
         -2   -1    0    0    0  501 -0.00000000000E+00 -0.00000000000E+00 -0.19093922416E+02  0.19093922416E+02  0.00000000000E+00 0.  1.
         25    2    1    2    0    0  0.15414057969E+02  0.74824965879E+02  0.53948995696E+03  0.55904685780E+03  0.12509039472E+03 0.  0.
          5    1    3    3  502    0  0.46322455480E+02  0.24482523673E+01  0.77776875212E+02  0.90655824629E+02  0.41800000000E+01 0.  1.
         -5    1    3    3    0  502 -0.30908397512E+02  0.72376713512E+02  0.46171308175E+03  0.46839103317E+03  0.41800000000E+01 0.  1.
        -11    1    1    2    0    0 -0.53826973875E+02 -0.43280610074E+02  0.22272202243E+03  0.23318587779E+03  0.00000000000E+00 0.  1.
         11    1    1    2    0    0  0.38412915906E+02 -0.31544355805E+02  0.14716977260E+03  0.15533686124E+03  0.00000000000E+00 0. -1.
</event>
<event>
 7    1  0.2612321E-009  0.1189135E+03  0.7561462E-02  0.1244900E+00
          2   -1    0    0  501    0  0.00000000000E+00  0.00000000000E+00  0.10661995448E+04  0.10661995448E+04  0.00000000000E+00 0. -1.
         -2   -1    0    0    0  501 -0.00000000000E+00 -0.00000000000E+00 -0.18519706375E+02  0.18519706375E+02  0.00000000000E+00 0.  1.
         25    2    1    2    0    0 -0.32206832423E+02  0.43963057316E+02  0.83978235373E+03  0.85079558995E+03  0.12509477917E+03 0.  0.
          5    1    3    3  502    0 -0.56294820958E+02  0.73228395985E+02  0.46679833841E+03  0.47586727770E+03  0.41800000000E+01 0. -1.
         -5    1    3    3    0  502  0.24087988535E+02 -0.29265338669E+02  0.37298401533E+03  0.37492831225E+03  0.41800000000E+01 0. -1.
        -11    1    1    2    0    0  0.53977846397E+02  0.44387748680E+01  0.10524005621E+03  0.11835869235E+03  0.00000000000E+00 0.  1.
         11    1    1    2    0    0 -0.21771013974E+02 -0.48401832184E+02  0.10265742850E+03  0.11556496889E+03  0.00000000000E+00 0. -1.
</event>
<event>
 7    1  0.2612321E-009  0.1226232E+03  0.7561462E-02  0.1238831E+00
          3   -1    0    0  501    0  0.00000000000E+00  0.00000000000E+00  0.30699399713E+03  0.30699399713E+03  0.00000000000E+00 0. -1.
         -3   -1    0    0    0  501 -0.00000000000E+00 -0.00000000000E+00 -0.77282102029E+02  0.77282102029E+02  0.00000000000E+00 0.  1.
         25    2    1    2    0    0 -0.14683144011E+01  0.78363706412E+02  0.29675724996E+02  0.15056844402E+03  0.12508869353E+03 0.  0.
          5    1    3    3  502    0 -0.34622795130E+02  0.95430583451E+02 -0.17589052840E+01  0.10161840556E+03  0.41800000000E+01 0. -1.
         -5    1    3    3    0  502  0.33154480729E+02 -0.17066877039E+02  0.31434630280E+02  0.48950038459E+02  0.41800000000E+01 0. -1.
        -11    1    1    2    0    0 -0.26825547836E+02 -0.47322253820E+01  0.11303605416E+03  0.11627189477E+03  0.00000000000E+00 0. -1.
         11    1    1    2    0    0  0.28293862238E+02 -0.73631481029E+02  0.87000115943E+02  0.11743576037E+03  0.00000000000E+00 0.  1.
</event>
<event>
 7    1  0.2612321E-009  0.3412719E+03  0.7561462E-02  0.1066256E+00
         -1   -1    0    0    0  501 -0.00000000000E+00  0.00000000000E+00  0.19536700546E+03  0.19536700546E+03  0.00000000000E+00 0.  1.
          1   -1    0    0  501    0  0.00000000000E+00 -0.00000000000E+00 -0.69961597428E+03  0.69961597428E+03  0.00000000000E+00 0. -1.
         25    2    1    2    0    0  0.16010253662E+03 -0.29322529902E+03 -0.39367121277E+03  0.53126173708E+03  0.12509241106E+03 0.  0.
          5    1    3    3  502    0  0.36047124292E+02 -0.16819014756E+03 -0.13700129754E+03  0.21994123950E+03  0.41800000000E+01 0.  1.
         -5    1    3    3    0  502  0.12405541232E+03 -0.12503515146E+03 -0.25666991523E+03  0.31132049758E+03  0.41800000000E+01 0.  1.
        -11    1    1    2    0    0 -0.90148657616E+02  0.17730209302E+03 -0.18031689266E+02  0.19971968975E+03  0.00000000000E+00 0.  1.
         11    1    1    2    0    0 -0.69953879001E+02  0.11592320600E+03 -0.92546066782E+02  0.16400155290E+03  0.00000000000E+00 0. -1.
</event>
<event>
 7    1  0.2612321E-009  0.6629336E+02  0.7561462E-02  0.1373171E+00
          4   -1    0    0  501    0  0.00000000000E+00  0.00000000000E+00  0.93885458504E+02  0.93885458504E+02  0.00000000000E+00 0. -1.
         -4   -1    0    0    0  501 -0.00000000000E+00 -0.00000000000E+00 -0.15568036657E+03  0.15568036657E+03  0.00000000000E+00 0.  1.
         25    2    1    2    0    0 -0.54402236460E+02 -0.46086268442E+01 -0.31790059963E+02  0.14014216515E+03  0.12509346812E+03 0.  0.
          5    1    3    3  502    0 -0.22172595868E+02  0.54324163593E+01 -0.78783037940E+02  0.82130229649E+02  0.41800000000E+01 0.  1.
         -5    1    3    3    0  502 -0.32229640592E+02 -0.10041043203E+02  0.46992977978E+02  0.58011935501E+02  0.41800000000E+01 0.  1.
        -11    1    1    2    0    0  0.14771148100E+02  0.26315023142E+02 -0.51263686897E+02  0.59486408981E+02  0.00000000000E+00 0.  1.
         11    1    1    2    0    0  0.39631088360E+02 -0.21706396298E+02  0.21258838794E+02  0.49937250943E+02  0.00000000000E+00 0. -1.
</event>
<event>
 7    1  0.2612321E-009  0.1113880E+03  0.7561462E-02  0.1258021E+00
          1   -1    0    0  501    0  0.00000000000E+00  0.00000000000E+00  0.39574070046E+03  0.39574070046E+03  0.00000000000E+00 0. -1.
         -1   -1    0    0    0  501 -0.00000000000E+00 -0.00000000000E+00 -0.60801937929E+02  0.60801937929E+02  0.00000000000E+00 0.  1.
         25    2    1    2    0    0  0.44184913691E+02  0.90406125291E+02  0.24747826099E+03  0.29498920294E+03  0.12509023185E+03 0.  0.
          5    1    3    3  502    0 -0.10274884391E+02  0.19588590352E+02 -0.83259294550E+01  0.24001658745E+02  0.41800000000E+01 0. -1.
         -5    1    3    3    0  502  0.54459798082E+02  0.70817534939E+02  0.25580419044E+03  0.27098754420E+03  0.41800000000E+01 0. -1.
        -11    1    1    2    0    0 -0.11021434914E+02  0.32382946254E+01 -0.14964418675E+02  0.18865110811E+02  0.00000000000E+00 0.  1.
         11    1    1    2    0    0 -0.33163478777E+02 -0.93644419916E+02  0.10242492022E+03  0.14268832464E+03  0.00000000000E+00 0. -1.
</event>
<event>
 7    1  0.2612321E-009  0.1295789E+03  0.7561462E-02  0.1228082E+00
         -1   -1    0    0    0  501 -0.00000000000E+00  0.00000000000E+00  0.41964771610E+03  0.41964771610E+03  0.00000000000E+00 0.  1.
          1   -1    0    0  501    0  0.00000000000E+00 -0.00000000000E+00 -0.82123129227E+02  0.82123129227E+02  0.00000000000E+00 0. -1.
         25    2    1    2    0    0 -0.32128561445E+02 -0.37454098629E+02  0.65292113539E+01  0.13463009686E+03  0.12509028106E+03 0.  0.
          5    1    3    3  502    0  0.93652753655E+01  0.34409469541E+02  0.31612436257E+02  0.47838671625E+02  0.41800000000E+01 0. -1.
         -5    1    3    3    0  502 -0.41493836811E+02 -0.71863568170E+02 -0.25083224903E+02  0.86791425238E+02  0.41800000000E+01 0. -1.
        -11    1    1    2    0    0  0.78439891870E+02 -0.32510035657E+01  0.95088216109E+02  0.12330918256E+03  0.00000000000E+00 0. -1.
         11    1    1    2    0    0 -0.46311330425E+02  0.40705102195E+02  0.23590715941E+03  0.24383156590E+03  0.00000000000E+00 0.  1.
</event>
<event>
 7    1  0.2612321E-009  0.1236689E+03  0.7561462E-02  0.1237164E+00
         -2   -1    0    0    0  501 -0.00000000000E+00  0.00000000000E+00  0.22902756570E+02  0.22902756570E+02  0.00000000000E+00 0.  1.
          2   -1    0    0  501    0  0.00000000000E+00 -0.00000000000E+00 -0.77455889543E+03  0.77455889543E+03  0.00000000000E+00 0. -1.
         25    2    1    2    0    0  0.32818966893E+02  0.70285572462E+02 -0.44038766806E+03  0.46433395294E+03  0.12509026895E+03 0.  0.
          5    1    3    3  502    0  0.75903602253E+02  0.43591914369E+02 -0.19579918910E+03  0.21451435077E+03  0.41800000000E+01 0.  1.
         -5    1    3    3    0  502 -0.43084635361E+02  0.26693658092E+02 -0.24458847897E+03  0.24981960217E+03  0.41800000000E+01 0.  1.
        -11    1    1    2    0    0  0.13304729904E+02  0.97377104817E+01 -0.13334199648E+02  0.21204709937E+02  0.00000000000E+00 0.  1.
         11    1    1    2    0    0 -0.46123696797E+02 -0.80023282943E+02 -0.29793427114E+03  0.31192298912E+03  0.00000000000E+00 0. -1.
</event>
<event>
 7    1  0.2612321E-009  0.1317324E+03  0.7561462E-02  0.1224908E+00
         -2   -1    0    0    0  501 -0.00000000000E+00  0.00000000000E+00  0.36897995191E+02  0.36897995191E+02  0.00000000000E+00 0.  1.
          2   -1    0    0  501    0  0.00000000000E+00 -0.00000000000E+00 -0.55159010458E+03  0.55159010458E+03  0.00000000000E+00 0. -1.
         25    2    1    2    0    0  0.50182898936E+02  0.74993228926E+02 -0.23507332321E+03  0.28115688273E+03  0.12508963861E+03 0.  0.
          5    1    3    3  502    0  0.46563829082E+02  0.10235671380E+03 -0.12766087291E+03  0.17017596162E+03  0.41800000000E+01 0.  1.
         -5    1    3    3    0  502  0.36190698533E+01 -0.27363484876E+02 -0.10741245030E+03  0.11098092111E+03  0.41800000000E+01 0.  1.
        -11    1    1    2    0    0 -0.73161975975E+02 -0.47683821835E+02 -0.23147520453E+03  0.24740087288E+03  0.00000000000E+00 0.  1.
         11    1    1    2    0    0  0.22979077039E+02 -0.27309407091E+02 -0.48143581656E+02  0.59930344166E+02  0.00000000000E+00 0. -1.
</event>
<event>
 7    1  0.2612321E-009  0.1064723E+03  0.7561462E-02  0.1267246E+00
          1   -1    0    0  501    0  0.00000000000E+00  0.00000000000E+00  0.17822612837E+03  0.17822612837E+03  0.00000000000E+00 0. -1.
         -1   -1    0    0    0  501 -0.00000000000E+00 -0.00000000000E+00 -0.71134407866E+02  0.71134407866E+02  0.00000000000E+00 0.  1.
         25    2    1    2    0    0 -0.15965144767E+02 -0.20946156256E+02  0.69907529976E+02  0.14569826499E+03  0.12508914567E+03 0.  0.
          5    1    3    3  502    0  0.37948356587E+02 -0.48073788769E+02  0.57141522526E+02  0.83867710895E+02  0.41800000000E+01 0. -1.
         -5    1    3    3    0  502 -0.53913501354E+02  0.27127632512E+02  0.12766007450E+02  0.61830554099E+02  0.41800000000E+01 0. -1.
        -11    1    1    2    0    0  0.52242169428E+02  0.10275155097E+02  0.38693869378E+02  0.65818223968E+02  0.00000000000E+00 0.  1.
         11    1    1    2    0    0 -0.36277024662E+02  0.10671001160E+02 -0.15096788478E+01  0.37844047277E+02  0.00000000000E+00 0. -1.
</event>
<event>
 7    1  0.2750159E-009  0.3508828E+03  0.7561462E-02  0.1062253E+00
         -1   -1    0    0    0  501 -0.00000000000E+00  0.00000000000E+00  0.93337006304E+02  0.93337006304E+02  0.00000000000E+00 0.  1.
          1   -1    0    0  501    0  0.00000000000E+00 -0.00000000000E+00 -0.14099630191E+04  0.14099630191E+04  0.00000000000E+00 0. -1.
         25    2    1    2    0    0  0.24243565173E+03 -0.24662689240E+03 -0.65815519983E+03  0.75393407971E+03  0.12509380561E+03 0.  0.
          5    1    3    3  502    0  0.23367219692E+02 -0.13365425922E+02 -0.15675868559E+03  0.15910820052E+03  0.41800000000E+01 0.  1.
         -5    1    3    3    0  502  0.21906843204E+03 -0.23326146648E+03 -0.50139651424E+03  0.59482587919E+03  0.41800000000E+01 0.  1.
        -11    1    1    2    0    0 -0.18737047150E+03  0.23063376870E+03 -0.51068381119E+03  0.59084480523E+03  0.00000000000E+00 0. -1.
         11    1    1    2    0    0 -0.55065180233E+02  0.15993123702E+02 -0.14778700177E+03  0.15852114046E+03  0.00000000000E+00 0.  1.
</event>
<event>
 7    1  0.2612321E-009  0.9819911E+02  0.7561462E-02  0.1284129E+00
         -1   -1    0    0    0  501 -0.00000000000E+00  0.00000000000E+00  0.28655093241E+02  0.28655093241E+02  0.00000000000E+00 0.  1.
          1   -1    0    0  501    0  0.00000000000E+00 -0.00000000000E+00 -0.52538268700E+03  0.52538268700E+03  0.00000000000E+00 0. -1.
         25    2    1    2    0    0 -0.42437107607E+02  0.64367070166E+01 -0.35978947163E+03  0.38332512358E+03  0.12508935673E+03 0.  0.
          5    1    3    3  502    0  0.27261670381E+02 -0.68885862171E+01 -0.25572284038E+03  0.25729806603E+03  0.41800000000E+01 0. -1.
         -5    1    3    3    0  502 -0.69698777989E+02  0.13325293234E+02 -0.10406663125E+03  0.12602705754E+03  0.41800000000E+01 0. -1.
        -11    1    1    2    0    0  0.68583844140E+02 -0.13283155064E+02 -0.71739005120E+02  0.10013326491E+03  0.00000000000E+00 0.  1.
         11    1    1    2    0    0 -0.26146736533E+02  0.68464480474E+01 -0.65199117003E+02  0.70579391753E+02  0.00000000000E+00 0. -1.
</event>
<event>
 7    1  0.2612321E-009  0.1910365E+03  0.7561462E-02  0.1157530E+00
         -1   -1    0    0    0  501 -0.00000000000E+00  0.00000000000E+00  0.13308197268E+03  0.13308197268E+03  0.00000000000E+00 0.  1.
          1   -1    0    0  501    0  0.00000000000E+00 -0.00000000000E+00 -0.32205822519E+03  0.32205822519E+03  0.00000000000E+00 0. -1.
         25    2    1    2    0    0 -0.15785332664E+03 -0.77367121882E+02 -0.10608452878E+03  0.24042609953E+03  0.12508971904E+03 0.  0.
          5    1    3    3  502    0 -0.15951819659E+03 -0.81536867573E+02 -0.52834897635E+02  0.18682428810E+03  0.41800000000E+01 0. -1.
         -5    1    3    3    0  502  0.16648699492E+01  0.41697456916E+01 -0.53249631147E+02  0.53601811428E+02  0.41800000000E+01 0. -1.
        -11    1    1    2    0    0  0.49472101563E+02 -0.17730593309E+02 -0.33400396394E+02  0.62269167744E+02  0.00000000000E+00 0.  1.
         11    1    1    2    0    0  0.10838122508E+03  0.95097715190E+02 -0.49491327334E+02  0.15244493060E+03  0.00000000000E+00 0. -1.
</event>
<event>
 7    1  0.2612321E-009  0.9928406E+02  0.7561462E-02  0.1281809E+00
         -2   -1    0    0    0  501 -0.00000000000E+00  0.00000000000E+00  0.15595433320E+02  0.15595433320E+02  0.00000000000E+00 0.  1.
          2   -1    0    0  501    0  0.00000000000E+00 -0.00000000000E+00 -0.11185129892E+04  0.11185129892E+04  0.00000000000E+00 0. -1.
         25    2    1    2    0    0  0.12416619475E+02  0.30385027549E+02 -0.91988488600E+03  0.92893167183E+03  0.12509366530E+03 0.  0.
          5    1    3    3  502    0  0.15101232294E+02 -0.43833356841E+02 -0.20662757138E+03  0.21180612844E+03  0.41800000000E+01 0.  1.
         -5    1    3    3    0  502 -0.26846128190E+01  0.74218384390E+02 -0.71325731462E+03  0.71712554339E+03  0.41800000000E+01 0.  1.
        -11    1    1    2    0    0  0.24263839867E+02  0.70059529879E+01 -0.12273277172E+03  0.12530423200E+03  0.00000000000E+00 0. -1.
         11    1    1    2    0    0 -0.36680459342E+02 -0.37390980537E+02 -0.60299898123E+02  0.79872518658E+02  0.00000000000E+00 0.  1.
</event>
<event>
 7    1  0.2612321E-009  0.1573136E+03  0.7561462E-02  0.1191763E+00
         -2   -1    0    0    0  501 -0.00000000000E+00  0.00000000000E+00  0.33331865660E+03  0.33331865660E+03  0.00000000000E+00 0.  1.
          2   -1    0    0  501    0  0.00000000000E+00 -0.00000000000E+00 -0.90813931756E+02  0.90813931756E+02  0.00000000000E+00 0. -1.
         25    2    1    2    0    0  0.13143595584E+03 -0.65175797255E+01  0.88274558292E+02  0.20188439516E+03  0.12508805713E+03 0.  0.
          5    1    3    3  502    0  0.69230009749E+02 -0.49071400952E+02  0.93357040704E+02  0.12622918082E+03  0.41800000000E+01 0.  1.
         -5    1    3    3    0  502  0.62205946090E+02  0.42553821227E+02 -0.50824824126E+01  0.75655214344E+02  0.41800000000E+01 0.  1.
        -11    1    1    2    0    0 -0.11258728738E+03 -0.26953917358E+02  0.13907309927E+03  0.18095230831E+03  0.00000000000E+00 0.  1.
         11    1    1    2    0    0 -0.18848668460E+02  0.33471497083E+02  0.15157067274E+02  0.41295884880E+02  0.00000000000E+00 0. -1.
</event>
<event>
 7    1  0.2612321E-009  0.1186122E+03  0.7561462E-02  0.1245404E+00
          1   -1    0    0  501    0  0.00000000000E+00  0.00000000000E+00  0.10972979372E+03  0.10972979372E+03  0.00000000000E+00 0. -1.
         -1   -1    0    0    0  501 -0.00000000000E+00 -0.00000000000E+00 -0.16055675192E+03  0.16055675192E+03  0.00000000000E+00 0.  1.
         25    2    1    2    0    0 -0.29021539553E+02 -0.53192019585E+02 -0.79190946658E+02  0.15997119202E+03  0.12509170851E+03 0.  0.
          5    1    3    3  502    0 -0.63051039962E+02 -0.69642138170E+02 -0.31928049594E+02  0.99309283554E+02  0.41800000000E+01 0.  1.
         -5    1    3    3    0  502  0.34029500409E+02  0.16450118585E+02 -0.47262897064E+02  0.60661908463E+02  0.41800000000E+01 0.  1.
        -11    1    1    2    0    0  0.21356542848E+02  0.77126236238E+02  0.13623485859E+02  0.81179785695E+02  0.00000000000E+00 0. -1.
         11    1    1    2    0    0  0.76649967051E+01 -0.23934216652E+02  0.14740502603E+02  0.29135567924E+02  0.00000000000E+00 0.  1.
</event>
<event>
 7    1  0.2612321E-009  0.1991379E+03  0.7561462E-02  0.1150468E+00
          1   -1    0    0  501    0  0.00000000000E+00  0.00000000000E+00  0.38717180386E+02  0.38717180386E+02  0.00000000000E+00 0. -1.
         -1   -1    0    0    0  501 -0.00000000000E+00 -0.00000000000E+00 -0.13338883989E+04  0.13338883989E+04  0.00000000000E+00 0.  1.
         25    2    1    2    0    0 -0.15189552023E+03  0.11248801894E+03 -0.85613998508E+03  0.88563417274E+03  0.12508561227E+03 0.  0.
          5    1    3    3  502    0 -0.11141459324E+02  0.55324951050E+02 -0.10505007248E+03  0.11932297537E+03  0.41800000000E+01 0.  1.
         -5    1    3    3    0  502 -0.14075406090E+03  0.57163067890E+02 -0.75108991260E+03  0.76631119736E+03  0.41800000000E+01 0.  1.
        -11    1    1    2    0    0  0.10648645219E+03 -0.87847597693E+02 -0.20392670449E+03  0.24625731608E+03  0.00000000000E+00 0. -1.
         11    1    1    2    0    0  0.45409068040E+02 -0.24640421247E+02 -0.23510452899E+03  0.24071409052E+03  0.00000000000E+00 0.  1.
</event>
<event>
 7    1  0.2612321E-009  0.1092272E+03  0.7561462E-02  0.1262008E+00
          3   -1    0    0  501    0  0.00000000000E+00  0.00000000000E+00  0.10902449296E+03  0.10902449296E+03  0.00000000000E+00 0. -1.
         -3   -1    0    0    0  501 -0.00000000000E+00 -0.00000000000E+00 -0.15447439537E+03  0.15447439537E+03  0.00000000000E+00 0.  1.
         25    2    1    2    0    0  0.72813629341E+02 -0.37735165470E+01 -0.32067113797E+02  0.14830848678E+03  0.12510413030E+03 0.  0.
          5    1    3    3  502    0  0.71098421466E+02 -0.50789744952E+02 -0.46305756025E+02  0.98976154544E+02  0.41800000000E+01 0.  1.
         -5    1    3    3    0  502  0.17152078748E+01  0.47016228405E+02  0.14238642228E+02  0.49332332237E+02  0.41800000000E+01 0.  1.
        -11    1    1    2    0    0 -0.38999486721E+02  0.22568736834E+02 -0.46144670528E+02  0.64495259243E+02  0.00000000000E+00 0.  1.
         11    1    1    2    0    0 -0.33814142621E+02 -0.18795220287E+02  0.32761881916E+02  0.50695142306E+02  0.00000000000E+00 0. -1.
</event>
<event>
 7    1  0.2612321E-009  0.2664927E+03  0.7561462E-02  0.1103304E+00
         -1   -1    0    0    0  501 -0.00000000000E+00  0.00000000000E+00  0.34797978981E+03  0.34797978981E+03  0.00000000000E+00 0.  1.
          1   -1    0    0  501    0  0.00000000000E+00 -0.00000000000E+00 -0.33436583215E+03  0.33436583215E+03  0.00000000000E+00 0. -1.
         25    2    1    2    0    0  0.22121420549E+03  0.12893045116E+03 -0.19047392474E+03  0.34276355673E+03  0.12509098236E+03 0.  0.
          5    1    3    3  502    0  0.16289029054E+02  0.31151731611E+02  0.13132633581E+02  0.37758460173E+02  0.41800000000E+01 0. -1.
         -5    1    3    3    0  502  0.20492517644E+03  0.97778719552E+02 -0.20360655832E+03  0.30500509656E+03  0.41800000000E+01 0. -1.
        -11    1    1    2    0    0 -0.18417542215E+03 -0.62610756622E+02  0.15905420387E+03  0.25127461618E+03  0.00000000000E+00 0.  1.
         11    1    1    2    0    0 -0.37038783344E+02 -0.66319694541E+02  0.45033678524E+02  0.88307449046E+02  0.00000000000E+00 0. -1.
</event>
<event>
 7    1  0.2612321E-009  0.1110310E+03  0.7561462E-02  0.1258672E+00
          1   -1    0    0  501    0  0.00000000000E+00  0.00000000000E+00  0.43822078478E+03  0.43822078478E+03  0.00000000000E+00 0. -1.
         -1   -1    0    0    0  501 -0.00000000000E+00 -0.00000000000E+00 -0.31678737834E+02  0.31678737834E+02  0.00000000000E+00 0.  1.
         25    2    1    2    0    0  0.19555388485E+02  0.34251662324E+02  0.18196617527E+03  0.22430519289E+03  0.12508213711E+03 0.  0.
          5    1    3    3  502    0  0.13843821748E+02 -0.45593608253E+02  0.45372699917E+02  0.65928619065E+02  0.41800000000E+01 0. -1.
         -5    1    3    3    0  502  0.57115667368E+01  0.79845270577E+02  0.13659347535E+03  0.15837657383E+03  0.41800000000E+01 0. -1.
        -11    1    1    2    0    0  0.18689535170E+02  0.20207231089E+02  0.10708931123E+03  0.11057012025E+03  0.00000000000E+00 0. -1.
         11    1    1    2    0    0 -0.38244923655E+02 -0.54458893413E+02  0.11748656044E+03  0.13502420947E+03  0.00000000000E+00 0.  1.
</event>
<event>
 7    1  0.2612321E-009  0.7158621E+02  0.7561462E-02  0.1354781E+00
         -3   -1    0    0    0  501 -0.00000000000E+00  0.00000000000E+00  0.50549625524E+03  0.50549625524E+03  0.00000000000E+00 0.  1.
          3   -1    0    0  501    0  0.00000000000E+00 -0.00000000000E+00 -0.28159887580E+02  0.28159887580E+02  0.00000000000E+00 0. -1.
         25    2    1    2    0    0  0.28970543118E+02 -0.27110735841E+02  0.35391385410E+03  0.37745246653E+03  0.12506423949E+03 0.  0.
          5    1    3    3  502    0  0.20578961755E+02  0.95702370337E+01  0.33377038772E+03  0.33456722377E+03  0.41800000000E+01 0.  1.
         -5    1    3    3    0  502  0.83915813624E+01 -0.36680972875E+02  0.20143466386E+02  0.42885242763E+02  0.41800000000E+01 0.  1.
        -11    1    1    2    0    0 -0.17985857288E+02 -0.23980784401E+02  0.10477366053E+02  0.31754437206E+02  0.00000000000E+00 0. -1.
         11    1    1    2    0    0 -0.10984685830E+02  0.51091520242E+02  0.11294514751E+03  0.12444923908E+03  0.00000000000E+00 0.  1.
</event>
<event>
 6    1  0.2612321E-009  0.7478872E+02  0.7561462E-02  0.1344527E+00
         -2   -1    0    0    0  501 -0.00000000000E+00  0.00000000000E+00  0.47357347885E+02  0.47357347885E+02  0.00000000000E+00 0. -1.
          2   -1    0    0  501    0  0.00000000000E+00 -0.00000000000E+00 -0.28255415535E+03  0.28255415535E+03  0.00000000000E+00 0.  1.
          5    1    1    2  502    0  0.10298198248E+01 -0.26890791508E+02  0.20662487824E+02  0.34184587169E+02  0.41800000000E+01 0. -1.
         -5    1    1    2    0  502 -0.22056088619E+02  0.45932681585E+02 -0.11268100508E+03  0.12373667035E+03  0.41800000000E+01 0. -1.
        -11    1    1    2    0    0 -0.21672775147E+02  0.49650419961E+01 -0.11140683667E+03  0.11360389114E+03  0.00000000000E+00 0.  1.
         11    1    1    2    0    0  0.42699043941E+02 -0.24006932073E+02 -0.31771453529E+02  0.58386354573E+02  0.00000000000E+00 0. -1.
</event>
<event>
 7    1  0.2612321E-009  0.8168011E+02  0.7561462E-02  0.1324350E+00
         -2   -1    0    0    0  501 -0.00000000000E+00  0.00000000000E+00  0.59212324255E+02  0.59212324255E+02  0.00000000000E+00 0.  1.
          2   -1    0    0  501    0  0.00000000000E+00 -0.00000000000E+00 -0.36640823976E+03  0.36640823976E+03  0.00000000000E+00 0. -1.
         25    2    1    2    0    0 -0.39556899719E+02  0.20247404484E+02 -0.39684307893E+02  0.13855248051E+03  0.12508892780E+03 0.  0.
          5    1    3    3  502    0 -0.42083487495E+02 -0.13248030771E+02  0.35054863403E+02  0.56505274862E+02  0.41800000000E+01 0.  1.
         -5    1    3    3    0  502  0.25265877756E+01  0.33495435254E+02 -0.74739171296E+02  0.82047205648E+02  0.41800000000E+01 0.  1.
        -11    1    1    2    0    0  0.59329498108E+02 -0.37595636735E+01 -0.24727768563E+03  0.25432337187E+03  0.00000000000E+00 0. -1.
         11    1    1    2    0    0 -0.19772598388E+02 -0.16487840810E+02 -0.20233921973E+02  0.32744711635E+02  0.00000000000E+00 0.  1.
</event>
<event>
 7    1  0.2612321E-009  0.1127339E+03  0.7561462E-02  0.1255589E+00
          1   -1    0    0  501    0  0.00000000000E+00  0.00000000000E+00  0.69480546338E+03  0.69480546338E+03  0.00000000000E+00 0. -1.
         -1   -1    0    0    0  501 -0.00000000000E+00 -0.00000000000E+00 -0.31086420951E+02  0.31086420951E+02  0.00000000000E+00 0.  1.
         25    2    1    2    0    0 -0.21481697888E+02  0.37696601308E+02  0.58043145428E+03  0.59534114230E+03  0.12509158845E+03 0.  0.
          5    1    3    3  502    0  0.48905045879E+02 -0.26107633520E+01  0.17061446074E+03  0.17755361503E+03  0.41800000000E+01 0. -1.
         -5    1    3    3    0  502 -0.70386743766E+02  0.40307364660E+02  0.40981699354E+03  0.41778752726E+03  0.41800000000E+01 0. -1.
        -11    1    1    2    0    0 -0.32908740459E+02 -0.13640200731E+02  0.11730338247E+02  0.37505214437E+02  0.00000000000E+00 0.  1.
         11    1    1    2    0    0  0.54390438347E+02 -0.24056400577E+02  0.71557249904E+02  0.93045527599E+02  0.00000000000E+00 0. -1.
</event>
<event>
 7    1  0.2612321E-009  0.8100457E+02  0.7561462E-02  0.1326225E+00
         -1   -1    0    0    0  501 -0.00000000000E+00  0.00000000000E+00  0.72995493108E+02  0.72995493108E+02  0.00000000000E+00 0.  1.
          1   -1    0    0  501    0  0.00000000000E+00 -0.00000000000E+00 -0.21689538993E+03  0.21689538993E+03  0.00000000000E+00 0. -1.
         25    2    1    2    0    0  0.43100511106E+02 -0.29051584433E+02 -0.12091967744E+03  0.18157252296E+03  0.12508142982E+03 0.  0.
          5    1    3    3  502    0  0.42430823442E+02 -0.20818017299E+02  0.11506999211E+02  0.48822618253E+02  0.41800000000E+01 0. -1.
         -5    1    3    3    0  502  0.66968766333E+00 -0.82335671342E+01 -0.13242667666E+03  0.13274990471E+03  0.41800000000E+01 0. -1.
        -11    1    1    2    0    0 -0.69733034195E+02  0.34987108947E+02 -0.21802391424E+02  0.81007025141E+02  0.00000000000E+00 0. -1.
         11    1    1    2    0    0  0.26632523089E+02 -0.59355245135E+01 -0.11778279521E+01  0.27311334937E+02  0.00000000000E+00 0.  1.
</event>
<event>
 7    1  0.2720794E-009  0.1268070E+03  0.7561462E-02  0.1232272E+00
         -2   -1    0    0    0  501 -0.00000000000E+00  0.00000000000E+00  0.42907914728E+02  0.42907914728E+02  0.00000000000E+00 0.  1.
          2   -1    0    0  501    0  0.00000000000E+00 -0.00000000000E+00 -0.46775038985E+03  0.46775038985E+03  0.00000000000E+00 0. -1.
         25    2    1    2    0    0 -0.54488705292E+02  0.72102333298E+02 -0.21094973901E+03  0.26137247524E+03  0.12509201796E+03 0.  0.
          5    1    3    3  502    0 -0.20215329103E+02  0.94892280012E+02 -0.85880354160E+02  0.12963838925E+03  0.41800000000E+01 0. -1.
         -5    1    3    3    0  502 -0.34273376189E+02 -0.22789946714E+02 -0.12506938485E+03  0.13173408599E+03  0.41800000000E+01 0. -1.
        -11    1    1    2    0    0  0.45750631817E+02 -0.86750567783E+02 -0.12557269204E+03  0.15933387057E+03  0.00000000000E+00 0.  1.
         11    1    1    2    0    0  0.87380734745E+01  0.14648234485E+02 -0.88320044072E+02  0.89951958770E+02  0.00000000000E+00 0. -1.
</event>
<event>
 7    1  0.2612321E-009  0.1075941E+03  0.7561462E-02  0.1265091E+00
          2   -1    0    0  501    0  0.00000000000E+00  0.00000000000E+00  0.61818087235E+03  0.61818087235E+03  0.00000000000E+00 0. -1.
         -2   -1    0    0    0  501 -0.00000000000E+00 -0.00000000000E+00 -0.22384429292E+02  0.22384429292E+02  0.00000000000E+00 0.  1.
         25    2    1    2    0    0  0.39903963113E+02  0.39716417187E+01  0.32038025540E+03  0.34626231911E+03  0.12508391334E+03 0.  0.
          5    1    3    3  502    0  0.47821454323E+02 -0.42704149215E+02  0.87347525847E+02  0.10843246066E+03  0.41800000000E+01 0. -1.
         -5    1    3    3    0  502 -0.79174912102E+01  0.46675790933E+02  0.23303272956E+03  0.23782985845E+03  0.41800000000E+01 0. -1.
        -11    1    1    2    0    0 -0.63622139343E+02  0.22855970627E+02  0.16880392422E+03  0.18183766618E+03  0.00000000000E+00 0. -1.
         11    1    1    2    0    0  0.23718176231E+02 -0.26827612346E+02  0.10661226343E+03  0.11246531635E+03  0.00000000000E+00 0.  1.
</event>
<event>
 6    1  0.2612321E-009  0.1348742E+03  0.7561462E-02  0.1220397E+00
          1   -1    0    0  501    0  0.00000000000E+00  0.00000000000E+00  0.55843996222E+03  0.55843996222E+03  0.00000000000E+00 0. -1.
         -1   -1    0    0    0  501 -0.00000000000E+00 -0.00000000000E+00 -0.39467465332E+02  0.39467465332E+02  0.00000000000E+00 0.  1.
          5    1    1    2  502    0  0.73879061954E+02  0.17214037766E+02  0.20511768685E+03  0.21873540351E+03  0.41800000000E+01 0. -1.
         -5    1    1    2    0  502 -0.42145876793E+02  0.62819853201E+02  0.17894438263E+03  0.19432234396E+03  0.41800000000E+01 0. -1.
        -11    1    1    2    0    0 -0.35858173438E+01  0.16795755602E+02  0.97975317816E+00  0.17202191970E+02  0.00000000000E+00 0.  1.
         11    1    1    2    0    0 -0.28147367817E+02 -0.96829646570E+02  0.13393067423E+03  0.16764748811E+03  0.00000000000E+00 0. -1.
</event>
<event>
 7    1  0.2612321E-009  0.8931931E+02  0.7561462E-02  0.1304509E+00
         -2   -1    0    0    0  501 -0.00000000000E+00  0.00000000000E+00  0.17050353904E+03  0.17050353904E+03  0.00000000000E+00 0.  1.
          2   -1    0    0  501    0  0.00000000000E+00 -0.00000000000E+00 -0.82607467467E+02  0.82607467467E+02  0.00000000000E+00 0. -1.
         25    2    1    2    0    0 -0.98983493211E+01  0.43946453838E+02  0.25839169019E+02  0.13544161697E+03  0.12508997093E+03 0.  0.
          5    1    3    3  502    0 -0.25661515229E+02 -0.19782991202E+02 -0.33540766398E+02  0.46822382632E+02  0.41800000000E+01 0. -1.
         -5    1    3    3    0  502  0.15763165908E+02  0.63729445041E+02  0.59379935417E+02  0.88619234338E+02  0.41800000000E+01 0. -1.
        -11    1    1    2    0    0  0.33273266739E+02 -0.34824272501E+01  0.62551897964E+02  0.70936432938E+02  0.00000000000E+00 0.  1.
         11    1    1    2    0    0 -0.23374917418E+02 -0.40464026588E+02 -0.49499541070E+00  0.46732956599E+02  0.00000000000E+00 0. -1.
</event>
<event>
 7    1  0.2612321E-009  0.1000489E+03  0.7561462E-02  0.1280193E+00
         -2   -1    0    0    0  501 -0.00000000000E+00  0.00000000000E+00  0.58612469340E+02  0.58612469340E+02  0.00000000000E+00 0.  1.
          2   -1    0    0  501    0  0.00000000000E+00 -0.00000000000E+00 -0.27616421471E+03  0.27616421471E+03  0.00000000000E+00 0. -1.
         25    2    1    2    0    0  0.31494670538E+02 -0.53877543798E+02 -0.15784239637E+03  0.21084711945E+03  0.12509029415E+03 0.  0.
          5    1    3    3  502    0 -0.13614418681E+02 -0.58169910521E+02 -0.15393516122E+03  0.16517444459E+03  0.41800000000E+01 0.  1.
         -5    1    3    3    0  502  0.45109089219E+02  0.42923667233E+01 -0.39072351504E+01  0.45672674859E+02  0.41800000000E+01 0.  1.
        -11    1    1    2    0    0 -0.52310753987E+02  0.22259976088E+02 -0.45522101535E+01  0.57031957141E+02  0.00000000000E+00 0.  1.
         11    1    1    2    0    0  0.20816083449E+02  0.31617567710E+02 -0.55157138847E+02  0.66897607459E+02  0.00000000000E+00 0. -1.
</event>
<event>
 7    1  0.2612321E-009  0.1026164E+03  0.7561462E-02  0.1274888E+00
          1   -1    0    0  501    0  0.00000000000E+00  0.00000000000E+00  0.16887608660E+03  0.16887608660E+03  0.00000000000E+00 0. -1.
         -1   -1    0    0    0  501 -0.00000000000E+00 -0.00000000000E+00 -0.96189558794E+02  0.96189558794E+02  0.00000000000E+00 0.  1.
         25    2    1    2    0    0  0.18956227452E+02  0.62364280542E+02  0.30084514142E+02  0.14420335778E+03  0.12506353728E+03 0.  0.
          5    1    3    3  502    0  0.16781021139E+02  0.10024259057E+03  0.13611029093E+02  0.10262997684E+03  0.41800000000E+01 0.  1.
         -5    1    3    3    0  502  0.21752063128E+01 -0.37878310024E+02  0.16473485049E+02  0.41573380936E+02  0.41800000000E+01 0.  1.
        -11    1    1    2    0    0 -0.23940686638E+01 -0.14358013667E+02  0.64088571869E+02  0.65720842702E+02  0.00000000000E+00 0. -1.
         11    1    1    2    0    0 -0.16562158788E+02 -0.48006266875E+02 -0.21486558209E+02  0.55141444909E+02  0.00000000000E+00 0.  1.
</event>
<event>
 7    1  0.2612321E-009  0.1159258E+03  0.7561462E-02  0.1249974E+00
          2   -1    0    0  501    0  0.00000000000E+00  0.00000000000E+00  0.40268436168E+03  0.40268436168E+03  0.00000000000E+00 0. -1.
         -2   -1    0    0    0  501 -0.00000000000E+00 -0.00000000000E+00 -0.46530873423E+02  0.46530873423E+02  0.00000000000E+00 0.  1.
         25    2    1    2    0    0  0.42812860961E+02 -0.71477057008E+02  0.12558049819E+03  0.19585617333E+03  0.12508904175E+03 0.  0.
          5    1    3    3  502    0 -0.52517281302E+01  0.25416161991E+02  0.68748566774E+02  0.73602987522E+02  0.41800000000E+01 0. -1.
         -5    1    3    3    0  502  0.48064589091E+02 -0.96893218998E+02  0.56831931416E+02  0.12225318581E+03  0.41800000000E+01 0. -1.
        -11    1    1    2    0    0 -0.11003130436E+02  0.63611260475E+02  0.19297087824E+03  0.20348272946E+03  0.00000000000E+00 0. -1.
         11    1    1    2    0    0 -0.31809730526E+02  0.78657965324E+01  0.37602111826E+02  0.49876332313E+02  0.00000000000E+00 0.  1.
</event>
<event>
 7    1  0.2612321E-009  0.1510737E+03  0.7561462E-02  0.1199160E+00
         -2   -1    0    0    0  501 -0.00000000000E+00  0.00000000000E+00  0.15067295625E+03  0.15067295625E+03  0.00000000000E+00 0.  1.
          2   -1    0    0  501    0  0.00000000000E+00 -0.00000000000E+00 -0.15693664158E+03  0.15693664158E+03  0.00000000000E+00 0. -1.
         25    2    1    2    0    0 -0.52893277375E+02 -0.95255070414E+02  0.53648930162E+01  0.16596724972E+03  0.12508044880E+03 0.  0.
          5    1    3    3  502    0 -0.93779328544E+02 -0.57613288096E+02  0.42461892383E+01  0.11022411692E+03  0.41800000000E+01 0.  1.
         -5    1    3    3    0  502  0.40886051169E+02 -0.37641782318E+02  0.11187037778E+01  0.55743132800E+02  0.41800000000E+01 0.  1.
        -11    1    1    2    0    0  0.44774257267E+02  0.11037524940E+03 -0.22650828254E+02  0.12124557647E+03  0.00000000000E+00 0.  1.
         11    1    1    2    0    0  0.81190201082E+01 -0.15120178984E+02  0.11022249915E+02  0.20396771637E+02  0.00000000000E+00 0. -1.
</event>
<event>
 7    1  0.2612321E-009  0.1029426E+03  0.7561462E-02  0.1274227E+00
         -1   -1    0    0    0  501 -0.00000000000E+00  0.00000000000E+00  0.10593841466E+03  0.10593841466E+03  0.00000000000E+00 0.  1.
          1   -1    0    0  501    0  0.00000000000E+00 -0.00000000000E+00 -0.15628647267E+03  0.15628647267E+03  0.00000000000E+00 0. -1.
         25    2    1    2    0    0  0.29391830653E+02  0.58104522453E+02 -0.16282161370E+01  0.14103743146E+03  0.12509552648E+03 0.  0.
          5    1    3    3  502    0 -0.48006015642E+00  0.78441665865E+02 -0.40008495336E+02  0.88155983917E+02  0.41800000000E+01 0. -1.
         -5    1    3    3    0  502  0.29871890809E+02 -0.20337143411E+02  0.38380279199E+02  0.52881447541E+02  0.41800000000E+01 0. -1.
        -11    1    1    2    0    0  0.20250475653E+02 -0.18833991920E+02  0.14925118243E+02  0.31425470090E+02  0.00000000000E+00 0.  1.
         11    1    1    2    0    0 -0.49642306305E+02 -0.39270530534E+02 -0.63644960112E+02  0.89761985782E+02  0.00000000000E+00 0. -1.
</event>
<event>
 7    1  0.2612321E-009  0.1044678E+03  0.7561462E-02  0.1271172E+00
         -1   -1    0    0    0  501 -0.00000000000E+00  0.00000000000E+00  0.42323162425E+02  0.42323162425E+02  0.00000000000E+00 0.  1.
          1   -1    0    0  501    0  0.00000000000E+00 -0.00000000000E+00 -0.30985479654E+03  0.30985479654E+03  0.00000000000E+00 0. -1.
         25    2    1    2    0    0  0.31322516412E+02  0.31444534358E+01 -0.14657255968E+03  0.19524990385E+03  0.12509205442E+03 0.  0.
          5    1    3    3  502    0 -0.46807463543E+02 -0.12821253980E+02 -0.47950277534E+02  0.68352210736E+02  0.41800000000E+01 0. -1.
         -5    1    3    3    0  502  0.78129979954E+02  0.15965707416E+02 -0.98622282148E+02  0.12689769311E+03  0.41800000000E+01 0. -1.
        -11    1    1    2    0    0  0.40709801500E+01 -0.33497433615E+02 -0.10049454413E+03  0.10600851068E+03  0.00000000000E+00 0. -1.
         11    1    1    2    0    0 -0.35393496562E+02  0.30352980179E+02 -0.20464530306E+02  0.50919544433E+02  0.00000000000E+00 0.  1.
</event>
<event>
 7    1  0.2612321E-009  0.1035322E+03  0.7561462E-02  0.1273039E+00
          2   -1    0    0  501    0  0.00000000000E+00  0.00000000000E+00  0.22890724216E+03  0.22890724216E+03  0.00000000000E+00 0.  1.
         -2   -1    0    0    0  501 -0.00000000000E+00 -0.00000000000E+00 -0.59680564918E+02  0.59680564918E+02  0.00000000000E+00 0. -1.
         25    2    1    2    0    0 -0.64865955141E+00 -0.12712148965E+02  0.43924940138E+02  0.13319349165E+03  0.12509630835E+03 0.  0.
          5    1    3    3  502    0 -0.19272529098E+02 -0.61639141260E+02  0.47914586015E+02  0.80523872647E+02  0.41800000000E+01 0.  1.
         -5    1    3    3    0  502  0.18623869546E+02  0.48926992295E+02 -0.39896458764E+01  0.52669619005E+02  0.41800000000E+01 0.  1.
        -11    1    1    2    0    0  0.29173208491E+02  0.40562004264E+02  0.53050612378E+02  0.72874685298E+02  0.00000000000E+00 0.  1.
         11    1    1    2    0    0 -0.28524548940E+02 -0.27849855300E+02  0.72251124729E+02  0.82519630132E+02  0.00000000000E+00 0. -1.
</event>
<event>
 7    1  0.2612321E-009  0.1303269E+03  0.7561462E-02  0.1226972E+00
          2   -1    0    0  501    0  0.00000000000E+00  0.00000000000E+00  0.39964134131E+02  0.39964134131E+02  0.00000000000E+00 0. -1.
         -2   -1    0    0    0  501 -0.00000000000E+00 -0.00000000000E+00 -0.49930637465E+03  0.49930637465E+03  0.00000000000E+00 0.  1.
         25    2    1    2    0    0 -0.29058525880E+02 -0.65067686513E+02 -0.35183857810E+03  0.38015338268E+03  0.12509199643E+03 0.  0.
          5    1    3    3  502    0  0.46764918489E+02 -0.44466764158E+02 -0.14137711620E+03  0.15546450431E+03  0.41800000000E+01 0. -1.
         -5    1    3    3    0  502 -0.75823444369E+02 -0.20600922355E+02 -0.21046146190E+03  0.22468887837E+03  0.41800000000E+01 0. -1.
        -11    1    1    2    0    0 -0.38721969671E+01  0.80741026256E+02 -0.74692169151E+02  0.11005919935E+03  0.00000000000E+00 0.  1.
         11    1    1    2    0    0  0.32930722847E+02 -0.15673339743E+02 -0.32811493263E+02  0.49057926741E+02  0.00000000000E+00 0. -1.
</event>
<event>
 7    1  0.2612321E-009  0.8677034E+02  0.7561462E-02  0.1310867E+00
          2   -1    0    0  501    0  0.00000000000E+00  0.00000000000E+00  0.40521356954E+02  0.40521356954E+02  0.00000000000E+00 0. -1.
         -2   -1    0    0    0  501 -0.00000000000E+00 -0.00000000000E+00 -0.32287817951E+03  0.32287817951E+03  0.00000000000E+00 0.  1.
         25    2    1    2    0    0  0.24457028902E+01  0.33399439280E+02 -0.18010284641E+03  0.22182351119E+03  0.12508849196E+03 0.  0.
          5    1    3    3  502    0  0.17535660593E+02 -0.34862443796E+02 -0.12977814144E+03  0.13558291845E+03  0.41800000000E+01 0. -1.
         -5    1    3    3    0  502 -0.15089957703E+02  0.68261883075E+02 -0.50324704971E+02  0.86240592733E+02  0.41800000000E+01 0. -1.
        -11    1    1    2    0    0  0.15374141657E+02 -0.41814766971E+02 -0.11130487412E+03  0.11989000781E+03  0.00000000000E+00 0.  1.
         11    1    1    2    0    0 -0.17819844547E+02  0.84153276910E+01  0.90508979753E+01  0.21686017477E+02  0.00000000000E+00 0. -1.
</event>
<event>
 7    1  0.2612321E-009  0.1315268E+03  0.7561462E-02  0.1225208E+00
          1   -1    0    0  501    0  0.00000000000E+00  0.00000000000E+00  0.11551285682E+03  0.11551285682E+03  0.00000000000E+00 0. -1.
         -1   -1    0    0    0  501 -0.00000000000E+00 -0.00000000000E+00 -0.22009478631E+03  0.22009478631E+03  0.00000000000E+00 0.  1.
         25    2    1    2    0    0 -0.66622448492E+02  0.84096131381E+02 -0.10368245655E+03  0.19469871532E+03  0.12508728150E+03 0.  0.
          5    1    3    3  502    0 -0.51235259183E+02  0.11221413842E+03 -0.10543044587E+03  0.16232718799E+03  0.41800000000E+01 0. -1.
         -5    1    3    3    0  502 -0.15387189309E+02 -0.28118007038E+02  0.17479893188E+01  0.32371527324E+02  0.41800000000E+01 0. -1.
        -11    1    1    2    0    0  0.46151118046E+02 -0.56998397096E+02 -0.44391349478E+02  0.85728261833E+02  0.00000000000E+00 0.  1.
         11    1    1    2    0    0  0.20471330446E+02 -0.27097734285E+02  0.43491876536E+02  0.55180665982E+02  0.00000000000E+00 0. -1.
</event>
<event>
 7    1  0.2612321E-009  0.7047173E+02  0.7561462E-02  0.1358496E+00
         -2   -1    0    0    0  501 -0.00000000000E+00  0.00000000000E+00  0.10749743056E+02  0.10749743056E+02  0.00000000000E+00 0.  1.
          2   -1    0    0  501    0  0.00000000000E+00 -0.00000000000E+00 -0.12159658095E+04  0.12159658095E+04  0.00000000000E+00 0. -1.
         25    2    1    2    0    0  0.36788308880E+01 -0.25765873041E+02 -0.80880719092E+03  0.81883693432E+03  0.12508972349E+03 0.  0.
          5    1    3    3  502    0 -0.12686391851E+02 -0.27081010672E+02 -0.41396836620E+02  0.51239595620E+02  0.41800000000E+01 0.  1.
         -5    1    3    3    0  502  0.16365222739E+02  0.13151376308E+01 -0.76741035430E+03  0.76759733870E+03  0.41800000000E+01 0.  1.
        -11    1    1    2    0    0 -0.38106569581E+02 -0.14550353018E+02 -0.21700473105E+03  0.22080506497E+03  0.00000000000E+00 0.  1.
         11    1    1    2    0    0  0.34427738693E+02  0.40316226059E+02 -0.17940414451E+03  0.18707355330E+03  0.00000000000E+00 0. -1.
</event>
<event>
 7    1  0.2612321E-009  0.7117516E+02  0.7561462E-02  0.1356142E+00
          2   -1    0    0  501    0  0.00000000000E+00  0.00000000000E+00  0.53747074466E+02  0.53747074466E+02  0.00000000000E+00 0. -1.
         -2   -1    0    0    0  501 -0.00000000000E+00 -0.00000000000E+00 -0.25786385718E+03  0.25786385718E+03  0.00000000000E+00 0.  1.
         25    2    1    2    0    0 -0.13909592963E+02  0.39215470983E+02 -0.12285823429E+03  0.18016826144E+03  0.12504050046E+03 0.  0.
          5    1    3    3  502    0 -0.19942948806E+02  0.36103115227E+02 -0.14805019055E+03  0.15374487783E+03  0.41800000000E+01 0. -1.
         -5    1    3    3    0  502  0.60333558430E+01  0.31123557564E+01  0.25191956262E+02  0.26423383610E+02  0.41800000000E+01 0. -1.
        -11    1    1    2    0    0  0.13571494667E+02  0.25137783699E+02 -0.10206170988E+01  0.28585578463E+02  0.00000000000E+00 0. -1.
         11    1    1    2    0    0  0.33809829576E+00 -0.64353254683E+02 -0.80237931322E+02  0.10285709174E+03  0.00000000000E+00 0.  1.
</event>
<event>
 7    1  0.2612321E-009  0.1049475E+03  0.7561462E-02  0.1270223E+00
          2   -1    0    0  501    0  0.00000000000E+00  0.00000000000E+00  0.43716370324E+03  0.43716370324E+03  0.00000000000E+00 0. -1.
         -2   -1    0    0    0  501 -0.00000000000E+00 -0.00000000000E+00 -0.32352503541E+02  0.32352503541E+02  0.00000000000E+00 0.  1.
         25    2    1    2    0    0  0.85223263202E+01 -0.47302873707E+02  0.19641085303E+03  0.23777302962E+03  0.12509435847E+03 0.  0.
          5    1    3    3  502    0 -0.53631846062E+02  0.18536718259E+01  0.92587716615E+02  0.10709700593E+03  0.41800000000E+01 0. -1.
         -5    1    3    3    0  502  0.62154172382E+02 -0.49156545533E+02  0.10382313641E+03  0.13067602369E+03  0.41800000000E+01 0. -1.
        -11    1    1    2    0    0  0.21085710594E+02  0.41491641695E+02  0.19167505596E+03  0.19724474797E+03  0.00000000000E+00 0. -1.
         11    1    1    2    0    0 -0.29608036914E+02  0.58112320126E+01  0.16725290704E+02  0.34498429190E+02  0.00000000000E+00 0.  1.
</event>
<event>
 7    1  0.2612321E-009  0.9650746E+02  0.7561462E-02  0.1287817E+00
          3   -1    0    0  501    0  0.00000000000E+00  0.00000000000E+00  0.10212923805E+04  0.10212923805E+04  0.00000000000E+00 0. -1.
         -3   -1    0    0    0  501 -0.00000000000E+00 -0.00000000000E+00 -0.15219391777E+02  0.15219391777E+02  0.00000000000E+00 0.  1.
         25    2    1    2    0    0  0.56235881196E+02 -0.44892612925E+01  0.65636980135E+03  0.67056000764E+03  0.12508708934E+03 0.  0.
          5    1    3    3  502    0  0.66948665612E+02  0.15771019650E+02  0.63567602608E+03  0.63939997766E+03  0.41800000000E+01 0. -1.
         -5    1    3    3    0  502 -0.10712784415E+02 -0.20260280943E+02  0.20693775267E+02  0.31160029984E+02  0.41800000000E+01 0. -1.
        -11    1    1    2    0    0 -0.64847046760E+02  0.31764095202E+02  0.18154197202E+03  0.19537549699E+03  0.00000000000E+00 0. -1.
         11    1    1    2    0    0  0.86111655633E+01 -0.27274833909E+02  0.16816121536E+03  0.17057626766E+03  0.00000000000E+00 0.  1.
</event>
<event>
 7    1  0.2612321E-009  0.3875635E+03  0.7561462E-02  0.1048173E+00
         -1   -1    0    0    0  501 -0.00000000000E+00  0.00000000000E+00  0.36828710087E+03  0.36828710087E+03  0.00000000000E+00 0.  1.
          1   -1    0    0  501    0  0.00000000000E+00 -0.00000000000E+00 -0.48621787751E+03  0.48621787751E+03  0.00000000000E+00 0. -1.
         25    2    1    2    0    0  0.36390561336E+03 -0.96598206271E+02  0.10108608586E+03  0.40941971847E+03  0.12509036826E+03 0.  0.
          5    1    3    3  502    0 -0.28219695828E+01 -0.20153429945E+02  0.13205373155E+02  0.24616631188E+02  0.41800000000E+01 0. -1.
         -5    1    3    3    0  502  0.36672758294E+03 -0.76444776326E+02  0.87880712702E+02  0.38480308729E+03  0.41800000000E+01 0. -1.
        -11    1    1    2    0    0 -0.19250098526E+03  0.76479812690E+02 -0.74966042609E+02  0.22028549344E+03  0.00000000000E+00 0.  1.
         11    1    1    2    0    0 -0.17140462811E+03  0.20118393582E+02 -0.14405081989E+03  0.22479976647E+03  0.00000000000E+00 0. -1.
</event>
<event>
 7    1  0.2612321E-009  0.1115064E+03  0.7561462E-02  0.1257805E+00
         -1   -1    0    0    0  501 -0.00000000000E+00  0.00000000000E+00  0.54278658916E+02  0.54278658916E+02  0.00000000000E+00 0.  1.
          1   -1    0    0  501    0  0.00000000000E+00 -0.00000000000E+00 -0.36400699596E+03  0.36400699596E+03  0.00000000000E+00 0. -1.
         25    2    1    2    0    0 -0.28355341779E+02  0.45088685124E+02 -0.27598678123E+03  0.30765757374E+03  0.12508982507E+03 0.  0.
          5    1    3    3  502    0 -0.68795698097E+02  0.35851859660E+02 -0.24105805018E+03  0.25326796062E+03  0.41800000000E+01 0.  1.
         -5    1    3    3    0  502  0.40440356318E+02  0.92368254649E+01 -0.34928731045E+02  0.54389613128E+02  0.41800000000E+01 0.  1.
        -11    1    1    2    0    0 -0.59660657372E+01 -0.64113011397E+02 -0.11149996966E+02  0.65348256313E+02  0.00000000000E+00 0. -1.
         11    1    1    2    0    0  0.34321407517E+02  0.19024326273E+02 -0.22591558849E+02  0.45279824815E+02  0.00000000000E+00 0.  1.
</event>
<event>
 7    1  0.2612321E-009  0.1270279E+03  0.7561462E-02  0.1231934E+00
         -2   -1    0    0    0  501 -0.00000000000E+00  0.00000000000E+00  0.49918172779E+02  0.49918172779E+02  0.00000000000E+00 0.  1.
          2   -1    0    0  501    0  0.00000000000E+00 -0.00000000000E+00 -0.36912775187E+03  0.36912775187E+03  0.00000000000E+00 0. -1.
         25    2    1    2    0    0  0.48804803314E+02  0.46390496519E+02 -0.24707834514E+03  0.28500726825E+03  0.12508975706E+03 0.  0.
          5    1    3    3  502    0 -0.37109436677E+02 -0.10633159904E+02 -0.70270360144E+02  0.80284309144E+02  0.41800000000E+01 0. -1.
         -5    1    3    3    0  502  0.85914239991E+02  0.57023656423E+02 -0.17680798500E+03  0.20472295910E+03  0.41800000000E+01 0. -1.
        -11    1    1    2    0    0 -0.51681516297E+02 -0.70684327059E+02 -0.63230311086E+02  0.10800613621E+03  0.00000000000E+00 0.  1.
         11    1    1    2    0    0  0.28767129832E+01  0.24293830539E+02 -0.89009228649E+01  0.26032520195E+02  0.00000000000E+00 0. -1.
</event>
<event>
 7    1  0.2612321E-009  0.6939718E+02  0.7561462E-02  0.1362155E+00
         -1   -1    0    0    0  501 -0.00000000000E+00  0.00000000000E+00  0.21165333911E+03  0.21165333911E+03  0.00000000000E+00 0.  1.
          1   -1    0    0  501    0  0.00000000000E+00 -0.00000000000E+00 -0.70508794521E+02  0.70508794521E+02  0.00000000000E+00 0. -1.
         25    2    1    2    0    0 -0.19931203494E+02 -0.45015883906E+02  0.11278442214E+03  0.17547538476E+03  0.12509037574E+03 0.  0.
          5    1    3    3  502    0 -0.10215366616E+02 -0.15930456560E+02  0.13563010218E+03  0.13700777415E+03  0.41800000000E+01 0.  1.
         -5    1    3    3    0  502 -0.97158368784E+01 -0.29085427346E+02 -0.22845680031E+02  0.38467610613E+02  0.41800000000E+01 0.  1.
        -11    1    1    2    0    0  0.43606049759E+02  0.77122007022E+01  0.41399286590E+02  0.60620677540E+02  0.00000000000E+00 0.  1.
         11    1    1    2    0    0 -0.23674846265E+02  0.37303683204E+02 -0.13039164143E+02  0.46066071330E+02  0.00000000000E+00 0. -1.
</event>
<event>
 7    1  0.2612321E-009  0.1259618E+03  0.7561462E-02  0.1233574E+00
          1   -1    0    0  501    0  0.00000000000E+00  0.00000000000E+00  0.48570687886E+02  0.48570687886E+02  0.00000000000E+00 0. -1.
         -1   -1    0    0    0  501 -0.00000000000E+00 -0.00000000000E+00 -0.38027230865E+03  0.38027230865E+03  0.00000000000E+00 0.  1.
         25    2    1    2    0    0  0.62251935275E+01  0.75513601052E+02 -0.21329830624E+03  0.25861993121E+03  0.12508814650E+03 0.  0.
          5    1    3    3  502    0 -0.41008277810E+01 -0.31882532059E+02 -0.22734501513E+02  0.39593466608E+02  0.41800000000E+01 0.  1.
         -5    1    3    3    0  502  0.10326021309E+02  0.10739613311E+03 -0.19056380473E+03  0.21902646460E+03  0.41800000000E+01 0.  1.
        -11    1    1    2    0    0  0.34056894827E+02 -0.58743672218E+02 -0.35699295453E+02  0.76714606215E+02  0.00000000000E+00 0. -1.
         11    1    1    2    0    0 -0.40282088354E+02 -0.16769928835E+02 -0.82704019074E+02  0.93508459116E+02  0.00000000000E+00 0.  1.
</event>
<event>
 7    1  0.2612321E-009  0.1386027E+03  0.7561462E-02  0.1215222E+00
          1   -1    0    0  501    0  0.00000000000E+00  0.00000000000E+00  0.14019022564E+02  0.14019022564E+02  0.00000000000E+00 0. -1.
         -1   -1    0    0    0  501 -0.00000000000E+00 -0.00000000000E+00 -0.15818426347E+04  0.15818426347E+04  0.00000000000E+00 0.  1.
         25    2    1    2    0    0  0.97487951259E+02  0.88768050740E+01 -0.99555179122E+03  0.10081436683E+04  0.12509032180E+03 0.  0.
          5    1    3    3  502    0  0.11337306054E+02  0.51093958403E+02 -0.19843715781E+03  0.20526545031E+03  0.41800000000E+01 0. -1.
         -5    1    3    3    0  502  0.86150645206E+02 -0.42217153329E+02 -0.79711463342E+03  0.80287821798E+03  0.41800000000E+01 0. -1.
        -11    1    1    2    0    0 -0.47173154009E+02  0.37486242261E+02 -0.18852553282E+03  0.19792018933E+03  0.00000000000E+00 0.  1.
         11    1    1    2    0    0 -0.50314797250E+02 -0.46363047335E+02 -0.38374628811E+03  0.38979779966E+03  0.00000000000E+00 0. -1.
</event>
<event>
 7    1  0.3054825E-009  0.1304095E+03  0.7561462E-02  0.1226849E+00
         -2   -1    0    0    0  501 -0.00000000000E+00  0.00000000000E+00  0.20804495374E+02  0.20804495374E+02  0.00000000000E+00 0.  1.
          2   -1    0    0  501    0  0.00000000000E+00 -0.00000000000E+00 -0.83153410668E+03  0.83153410668E+03  0.00000000000E+00 0. -1.
         25    2    1    2    0    0  0.73060475849E+02 -0.15243432522E+02 -0.44635778280E+03  0.46952504692E+03  0.12509318148E+03 0.  0.
          5    1    3    3  502    0 -0.34435280453E+02 -0.12026152723E+02 -0.87905965755E+02  0.95264621473E+02  0.41800000000E+01 0.  1.
         -5    1    3    3    0  502  0.10749575630E+03 -0.32172797982E+01 -0.35845181704E+03  0.37426042544E+03  0.41800000000E+01 0.  1.
        -11    1    1    2    0    0  0.18889496579E+02  0.15648535376E+02 -0.58929632616E+02  0.63830959108E+02  0.00000000000E+00 0. -1.
         11    1    1    2    0    0 -0.91949972428E+02 -0.40510285425E+00 -0.30544219589E+03  0.31898259603E+03  0.00000000000E+00 0.  1.
</event>
<event>
 7    1  0.2612321E-009  0.1412022E+03  0.7561462E-02  0.1211720E+00
          2   -1    0    0  501    0  0.00000000000E+00  0.00000000000E+00  0.25390128658E+03  0.25390128658E+03  0.00000000000E+00 0. -1.
         -2   -1    0    0    0  501 -0.00000000000E+00 -0.00000000000E+00 -0.11601891576E+03  0.11601891576E+03  0.00000000000E+00 0.  1.
         25    2    1    2    0    0  0.34634797190E+02 -0.10459668203E+03  0.14905109906E+03  0.22361883901E+03  0.12509644264E+03 0.  0.
          5    1    3    3  502    0 -0.60246900764E+01 -0.12203572713E+03  0.10844731580E+03  0.16342370786E+03  0.41800000000E+01 0.  1.
         -5    1    3    3    0  502  0.40659487267E+02  0.17439045102E+02  0.40603783258E+02  0.60195131146E+02  0.41800000000E+01 0.  1.
        -11    1    1    2    0    0 -0.26989582769E+02  0.28579683345E+02 -0.47538452493E+02  0.61685819631E+02  0.00000000000E+00 0.  1.
         11    1    1    2    0    0 -0.76452144214E+01  0.76016998685E+02  0.36369724255E+02  0.84615543696E+02  0.00000000000E+00 0. -1.
</event>
<event>
 7    1  0.2612321E-009  0.9587268E+02  0.7561462E-02  0.1289223E+00
         -1   -1    0    0    0  501 -0.00000000000E+00  0.00000000000E+00  0.76006618880E+02  0.76006618880E+02  0.00000000000E+00 0.  1.
          1   -1    0    0  501    0  0.00000000000E+00 -0.00000000000E+00 -0.20745838338E+03  0.20745838338E+03  0.00000000000E+00 0. -1.
         25    2    1    2    0    0 -0.20706446461E+02  0.32289975981E+02 -0.12518077586E+03  0.18108586760E+03  0.12510181983E+03 0.  0.
          5    1    3    3  502    0  0.50701738459E+02  0.71584797168E+00 -0.64271790192E+02  0.81972642605E+02  0.41800000000E+01 0. -1.
         -5    1    3    3    0  502 -0.71408184921E+02  0.31574128010E+02 -0.60908985672E+02  0.99113224995E+02  0.41800000000E+01 0. -1.
        -11    1    1    2    0    0  0.70168153120E+01 -0.44065185998E+02 -0.42675196421E+02  0.61742600397E+02  0.00000000000E+00 0. -1.
         11    1    1    2    0    0  0.13689631149E+02  0.11775210017E+02  0.36404207789E+02  0.40636534261E+02  0.00000000000E+00 0.  1.
</event>
<event>
 7    1  0.2612321E-009  0.9423627E+02  0.7561462E-02  0.1292906E+00
         -1   -1    0    0    0  501 -0.00000000000E+00  0.00000000000E+00  0.72036521431E+02  0.72036521431E+02  0.00000000000E+00 0.  1.
          1   -1    0    0  501    0  0.00000000000E+00 -0.00000000000E+00 -0.17148834775E+03  0.17148834775E+03  0.00000000000E+00 0. -1.
         25    2    1    2    0    0  0.12868718317E+02 -0.19097080866E+01 -0.34221235456E+02  0.13033831782E+03  0.12509089991E+03 0.  0.
          5    1    3    3  502    0 -0.14221518512E+02  0.49327749772E+02  0.15576848710E+02  0.53810678328E+02  0.41800000000E+01 0. -1.
         -5    1    3    3    0  502  0.27090236830E+02 -0.51237457859E+02 -0.49798084166E+02  0.76527639490E+02  0.41800000000E+01 0. -1.
        -11    1    1    2    0    0 -0.27898364333E+02  0.33666240363E+02 -0.64651281820E+02  0.78048207626E+02  0.00000000000E+00 0. -1.
         11    1    1    2    0    0  0.15029646015E+02 -0.31756532277E+02 -0.57930904219E+00  0.35138343737E+02  0.00000000000E+00 0.  1.
</event>
<event>
 7    1  0.2612321E-009  0.1567235E+03  0.7561462E-02  0.1192446E+00
         -2   -1    0    0    0  501 -0.00000000000E+00  0.00000000000E+00  0.42650816706E+02  0.42650816706E+02  0.00000000000E+00 0.  1.
          2   -1    0    0  501    0  0.00000000000E+00 -0.00000000000E+00 -0.79412266452E+03  0.79412266452E+03  0.00000000000E+00 0. -1.
         25    2    1    2    0    0 -0.69938897163E+02 -0.12477624282E+03 -0.39128732152E+03  0.43498601910E+03  0.12508600529E+03 0.  0.
          5    1    3    3  502    0 -0.48074208597E+02 -0.84517463774E+02 -0.37298896291E+03  0.38547706815E+03  0.41800000000E+01 0.  1.
         -5    1    3    3    0  502 -0.21864688565E+02 -0.40258779049E+02 -0.18298358611E+02  0.49508950953E+02  0.41800000000E+01 0.  1.
        -11    1    1    2    0    0 -0.95503683485E+01  0.76554700468E+02 -0.22383389446E+03  0.23675608548E+03  0.00000000000E+00 0. -1.
         11    1    1    2    0    0  0.79489265511E+02  0.48221542356E+02 -0.13635063183E+03  0.16503137665E+03  0.00000000000E+00 0.  1.
</event>
<event>
 7    1  0.2612321E-009  0.1271681E+03  0.7561462E-02  0.1231719E+00
         -1   -1    0    0    0  501 -0.00000000000E+00  0.00000000000E+00  0.38303114151E+02  0.38303114151E+02  0.00000000000E+00 0.  1.
          1   -1    0    0  501    0  0.00000000000E+00 -0.00000000000E+00 -0.60743768285E+03  0.60743768285E+03  0.00000000000E+00 0. -1.
         25    2    1    2    0    0  0.36944576761E+01 -0.10533435279E+03 -0.33919613713E+03  0.37657899112E+03  0.12509493282E+03 0.  0.
          5    1    3    3  502    0  0.24374078103E+02 -0.56816292208E+02 -0.42348999462E+02  0.75053959916E+02  0.41800000000E+01 0.  1.
         -5    1    3    3    0  502 -0.20679620427E+02 -0.48518060586E+02 -0.29684713767E+03  0.30152503121E+03  0.41800000000E+01 0.  1.
        -11    1    1    2    0    0  0.10256902362E+01  0.12207088179E+03 -0.20787668522E+03  0.24107067113E+03  0.00000000000E+00 0. -1.
         11    1    1    2    0    0 -0.47201479122E+01 -0.16736528998E+02 -0.22061746353E+02  0.28091134746E+02  0.00000000000E+00 0.  1.
</event>
<event>
 7    1  0.2612321E-009  0.2543345E+03  0.7561462E-02  0.1110596E+00
         -2   -1    0    0    0  501 -0.00000000000E+00  0.00000000000E+00  0.19101421483E+03  0.19101421483E+03  0.00000000000E+00 0.  1.
          2   -1    0    0  501    0  0.00000000000E+00 -0.00000000000E+00 -0.36044629685E+03  0.36044629685E+03  0.00000000000E+00 0. -1.
         25    2    1    2    0    0  0.14715030465E+03 -0.17883052542E+03 -0.23553875612E+02  0.26426578623E+03  0.12509217294E+03 0.  0.
          5    1    3    3  502    0  0.30134367318E+02 -0.13152527597E+03  0.38020141668E+01  0.13505149398E+03  0.41800000000E+01 0. -1.
         -5    1    3    3    0  502  0.11701593734E+03 -0.47305249445E+02 -0.27355889779E+02  0.12921429225E+03  0.41800000000E+01 0. -1.
        -11    1    1    2    0    0 -0.16759433459E+02  0.85268727637E+02 -0.50775301051E+02  0.10064673725E+03  0.00000000000E+00 0. -1.
         11    1    1    2    0    0 -0.13039087120E+03  0.93561797781E+02 -0.95102905357E+02  0.18654798820E+03  0.00000000000E+00 0.  1.
</event>
<event>
 7    1  0.2612321E-009  0.9356068E+02  0.7561462E-02  0.1294451E+00
          2   -1    0    0  501    0  0.00000000000E+00  0.00000000000E+00  0.65128586035E+02  0.65128586035E+02  0.00000000000E+00 0.  1.
         -2   -1    0    0    0  501 -0.00000000000E+00 -0.00000000000E+00 -0.22415058611E+03  0.22415058611E+03  0.00000000000E+00 0. -1.
         25    2    1    2    0    0 -0.13089643991E+02  0.43226845447E+02 -0.12564473955E+03  0.18295849518E+03  0.12508921390E+03 0.  0.
          5    1    3    3  502    0 -0.58896782052E+02  0.19413967008E+02 -0.11404051946E+03  0.12987857995E+03  0.41800000000E+01 0. -1.
         -5    1    3    3    0  502  0.45807138060E+02  0.23812878439E+02 -0.11604220096E+02  0.53079915230E+02  0.41800000000E+01 0. -1.
        -11    1    1    2    0    0 -0.96120424548E+01  0.10865986816E+02  0.21535682376E+02  0.25966259743E+02  0.00000000000E+00 0.  1.
         11    1    1    2    0    0  0.22701686446E+02 -0.54092832263E+02 -0.54912942892E+02  0.80354417220E+02  0.00000000000E+00 0. -1.
</event>
<event>
 7    1  0.2612321E-009  0.2203963E+03  0.7561462E-02  0.1133588E+00
          1   -1    0    0  501    0  0.00000000000E+00  0.00000000000E+00  0.28984999186E+03  0.28984999186E+03  0.00000000000E+00 0. -1.
         -1   -1    0    0    0  501 -0.00000000000E+00 -0.00000000000E+00 -0.16912760975E+03  0.16912760975E+03  0.00000000000E+00 0.  1.
         25    2    1    2    0    0  0.91210808271E+02  0.17028353853E+03  0.50608667993E+02  0.23563888662E+03  0.12509417482E+03 0.  0.
          5    1    3    3  502    0  0.11237532723E+03  0.84307828130E+02  0.41416955803E+02  0.14652256032E+03  0.41800000000E+01 0. -1.
         -5    1    3    3    0  502 -0.21164518959E+02  0.85975710398E+02  0.91917121896E+01  0.89116326305E+02  0.41800000000E+01 0. -1.
        -11    1    1    2    0    0  0.47038269061E+01 -0.79177728271E+02  0.33305976274E+02  0.86026313981E+02  0.00000000000E+00 0. -1.
         11    1    1    2    0    0 -0.95914635177E+02 -0.91105810257E+02  0.36807737841E+02  0.13731240100E+03  0.00000000000E+00 0.  1.
</event>
<event>
 7    1  0.2612321E-009  0.1289735E+03  0.7561462E-02  0.1228987E+00
         -3   -1    0    0    0  501 -0.00000000000E+00  0.00000000000E+00  0.42818900700E+03  0.42818900700E+03  0.00000000000E+00 0.  1.
          3   -1    0    0  501    0  0.00000000000E+00 -0.00000000000E+00 -0.64746354161E+02  0.64746354161E+02  0.00000000000E+00 0. -1.
         25    2    1    2    0    0  0.88415967224E+02 -0.72358521965E+01  0.61008020013E+02  0.16504305437E+03  0.12508992955E+03 0.  0.
          5    1    3    3  502    0  0.31022897444E+02 -0.60356160185E+02  0.38717454628E+01  0.68101020925E+02  0.41800000000E+01 0.  1.
         -5    1    3    3    0  502  0.57393069780E+02  0.53120307988E+02  0.57136274550E+02  0.96942033448E+02  0.41800000000E+01 0.  1.
        -11    1    1    2    0    0 -0.10332492729E+02  0.28831134488E+02  0.27130071457E+02  0.40914978909E+02  0.00000000000E+00 0. -1.
         11    1    1    2    0    0 -0.78083474494E+02 -0.21595282292E+02  0.27530456137E+03  0.28697732788E+03  0.00000000000E+00 0.  1.
</event>
<event>
 7    1  0.2612321E-009  0.1561634E+03  0.7561462E-02  0.1193098E+00
         -1   -1    0    0    0  501 -0.00000000000E+00  0.00000000000E+00  0.19909677472E+02  0.19909677472E+02  0.00000000000E+00 0.  1.
          1   -1    0    0  501    0  0.00000000000E+00 -0.00000000000E+00 -0.20524399069E+04  0.20524399069E+04  0.00000000000E+00 0. -1.
         25    2    1    2    0    0 -0.65257855091E+02 -0.10243469114E+03 -0.16730541881E+04  0.16821146073E+04  0.12509109477E+03 0.  0.
          5    1    3    3  502    0 -0.47059159212E+02 -0.12880706407E+03 -0.14830130758E+04  0.14893458563E+04  0.41800000000E+01 0. -1.
         -5    1    3    3    0  502 -0.18198695879E+02  0.26372372926E+02 -0.19004111229E+03  0.19276875096E+03  0.41800000000E+01 0. -1.
        -11    1    1    2    0    0 -0.10615018373E+02  0.48695185791E+02 -0.19530704274E+03  0.20156572298E+03  0.00000000000E+00 0. -1.
         11    1    1    2    0    0  0.75872873464E+02  0.53739505352E+02 -0.16416899856E+03  0.18866925412E+03  0.00000000000E+00 0.  1.
</event>
<event>
 7    1  0.2612321E-009  0.1093570E+03  0.7561462E-02  0.1261765E+00
          2   -1    0    0  501    0  0.00000000000E+00  0.00000000000E+00  0.10556301210E+04  0.10556301210E+04  0.00000000000E+00 0.  1.
         -2   -1    0    0    0  501 -0.00000000000E+00 -0.00000000000E+00 -0.18465811053E+02  0.18465811053E+02  0.00000000000E+00 0. -1.
         25    2    1    2    0    0 -0.42934748750E+02  0.45193813675E+02  0.79665869263E+03  0.80882481379E+03  0.12508650368E+03 0.  0.
          5    1    3    3  502    0  0.30867556485E+02 -0.22526025124E+02  0.26824357099E+03  0.27098397301E+03  0.41800000000E+01 0.  1.
         -5    1    3    3    0  502 -0.73802305235E+02  0.67719838799E+02  0.52841512164E+03  0.53784084077E+03  0.41800000000E+01 0.  1.
        -11    1    1    2    0    0  0.49617424161E+01 -0.41583011038E+02  0.21579792772E+03  0.21982381878E+03  0.00000000000E+00 0.  1.
         11    1    1    2    0    0  0.37973006334E+02 -0.36108026375E+01  0.24707689596E+02  0.45447299489E+02  0.00000000000E+00 0. -1.
</event>
<event>
 7    1  0.2612321E-009  0.2409672E+03  0.7561462E-02  0.1119150E+00
         -1   -1    0    0    0  501 -0.00000000000E+00  0.00000000000E+00  0.27420867836E+02  0.27420867836E+02  0.00000000000E+00 0.  1.
          1   -1    0    0  501    0  0.00000000000E+00 -0.00000000000E+00 -0.23055073863E+04  0.23055073863E+04  0.00000000000E+00 0. -1.
         25    2    1    2    0    0  0.83473575384E+02 -0.20887915975E+03 -0.10477950429E+04  0.10789415676E+04  0.12506843400E+03 0.  0.
          5    1    3    3  502    0 -0.82484336111E+01 -0.10371600557E+03 -0.62713995978E+03  0.63572560749E+03  0.41800000000E+01 0. -1.
         -5    1    3    3    0  502  0.91722008995E+02 -0.10516315418E+03 -0.42065508314E+03  0.44321596012E+03  0.41800000000E+01 0. -1.
        -11    1    1    2    0    0 -0.59131802340E+02  0.20524093937E+03 -0.11602705263E+04  0.11797661240E+04  0.00000000000E+00 0.  1.
         11    1    1    2    0    0 -0.24341773044E+02  0.36382203758E+01 -0.70020949296E+02  0.74220562533E+02  0.00000000000E+00 0. -1.
</event>
<event>
 7    1  0.2612321E-009  0.2983944E+03  0.7561462E-02  0.1086046E+00
         -2   -1    0    0    0  501 -0.00000000000E+00  0.00000000000E+00  0.39264566403E+03  0.39264566403E+03  0.00000000000E+00 0.  1.
          2   -1    0    0  501    0  0.00000000000E+00 -0.00000000000E+00 -0.32712663183E+03  0.32712663183E+03  0.00000000000E+00 0. -1.
         25    2    1    2    0    0  0.11129839780E+03  0.26646121209E+03 -0.14928703403E+03  0.34831417500E+03  0.12508890866E+03 0.  0.
          5    1    3    3  502    0  0.11707727439E+03  0.16048548844E+03 -0.54701138043E+02  0.20608825071E+03  0.41800000000E+01 0.  1.
         -5    1    3    3    0  502 -0.57788765850E+01  0.10597572365E+03 -0.94585895989E+02  0.14222592428E+03  0.41800000000E+01 0.  1.
        -11    1    1    2    0    0 -0.67623401423E+02 -0.20921806041E+03  0.20149296073E+03  0.29823570284E+03  0.00000000000E+00 0.  1.
         11    1    1    2    0    0 -0.43674996382E+02 -0.57243151680E+02  0.13313105503E+02  0.73222418024E+02  0.00000000000E+00 0. -1.
</event>
<event>
 7    1  0.2612321E-009  0.1353994E+03  0.7561462E-02  0.1219657E+00
         -2   -1    0    0    0  501 -0.00000000000E+00  0.00000000000E+00  0.83715570696E+02  0.83715570696E+02  0.00000000000E+00 0.  1.
          2   -1    0    0  501    0  0.00000000000E+00 -0.00000000000E+00 -0.42688521822E+03  0.42688521822E+03  0.00000000000E+00 0. -1.
         25    2    1    2    0    0 -0.81097465347E+02 -0.85287619363E+02 -0.31689773216E+03  0.36043144872E+03  0.12504351111E+03 0.  0.
          5    1    3    3  502    0  0.10272723578E+02 -0.41475381529E+02 -0.21312256584E+02  0.47931417707E+02  0.41800000000E+01 0.  1.
         -5    1    3    3    0  502 -0.91370188925E+02 -0.43812237834E+02 -0.29558547558E+03  0.31250003101E+03  0.41800000000E+01 0.  1.
        -11    1    1    2    0    0  0.65155672167E+02  0.88785549747E+02 -0.50341217068E+02  0.12108828843E+03  0.00000000000E+00 0. -1.
         11    1    1    2    0    0  0.15941793180E+02 -0.34979303846E+01  0.24069301712E+02  0.29081051763E+02  0.00000000000E+00 0.  1.
</event>
<event>
 7    1  0.2612321E-009  0.1496249E+03  0.7561462E-02  0.1200935E+00
         -3   -1    0    0    0  501 -0.00000000000E+00  0.00000000000E+00  0.28670661089E+02  0.28670661089E+02  0.00000000000E+00 0.  1.
          3   -1    0    0  501    0  0.00000000000E+00 -0.00000000000E+00 -0.90707184054E+03  0.90707184054E+03  0.00000000000E+00 0. -1.
         25    2    1    2    0    0  0.16983628691E+02  0.11477626280E+03 -0.53468133659E+03  0.56124404950E+03  0.12509483306E+03 0.  0.
          5    1    3    3  502    0 -0.39682012036E+02  0.58848639501E+02 -0.12437433506E+03  0.14326294731E+03  0.41800000000E+01 0.  1.
         -5    1    3    3    0  502  0.56665640727E+02  0.55927623304E+02 -0.41030700152E+03  0.41798110219E+03  0.41800000000E+01 0.  1.
        -11    1    1    2    0    0 -0.31873431059E+02  0.80733855422E+00 -0.83235156422E+02  0.89132814763E+02  0.00000000000E+00 0. -1.
         11    1    1    2    0    0  0.14889802368E+02 -0.11558360136E+03 -0.26048468644E+03  0.28536563736E+03  0.00000000000E+00 0.  1.
</event>
<event>
 7    1  0.2612321E-009  0.1001580E+03  0.7561462E-02  0.1279964E+00
          2   -1    0    0  501    0  0.00000000000E+00  0.00000000000E+00  0.19678089382E+03  0.19678089382E+03  0.00000000000E+00 0. -1.
         -2   -1    0    0    0  501 -0.00000000000E+00 -0.00000000000E+00 -0.63874058837E+02  0.63874058837E+02  0.00000000000E+00 0.  1.
         25    2    1    2    0    0 -0.65696914873E+01 -0.19193577367E+02  0.10116752333E+03  0.16215468337E+03  0.12509084421E+03 0.  0.
          5    1    3    3  502    0 -0.13328009228E+02  0.42567849590E+02  0.87646782392E+02  0.98433167745E+02  0.41800000000E+01 0. -1.
         -5    1    3    3    0  502  0.67583177411E+01 -0.61761426956E+02  0.13520740939E+02  0.63721515628E+02  0.41800000000E+01 0. -1.
        -11    1    1    2    0    0  0.41602512826E+02  0.35418069403E+02  0.18920877041E+02  0.57820483409E+02  0.00000000000E+00 0. -1.
         11    1    1    2    0    0 -0.35032821338E+02 -0.16224492036E+02  0.12818434608E+02  0.40679785872E+02  0.00000000000E+00 0.  1.
</event>
<event>
 7    1  0.2612321E-009  0.9596572E+02  0.7561462E-02  0.1289016E+00
          3   -1    0    0  501    0  0.00000000000E+00  0.00000000000E+00  0.16031512500E+03  0.16031512500E+03  0.00000000000E+00 0. -1.
         -3   -1    0    0    0  501 -0.00000000000E+00 -0.00000000000E+00 -0.93594628393E+02  0.93594628393E+02  0.00000000000E+00 0.  1.
         25    2    1    2    0    0 -0.76662522782E+01 -0.22285474906E+02  0.90052285092E+02  0.15592288225E+03  0.12508843809E+03 0.  0.
          5    1    3    3  502    0  0.30075564177E+01 -0.58561586381E+02  0.10053455634E+03  0.11646104161E+03  0.41800000000E+01 0. -1.
         -5    1    3    3    0  502 -0.10673808696E+02  0.36276111476E+02 -0.10482271249E+02  0.39461840636E+02  0.41800000000E+01 0. -1.
        -11    1    1    2    0    0 -0.33440350454E+02  0.38424695179E+02 -0.14354498546E+02  0.52922262486E+02  0.00000000000E+00 0.  1.
         11    1    1    2    0    0  0.41106602732E+02 -0.16139220274E+02 -0.89772899354E+01  0.45064608661E+02  0.00000000000E+00 0. -1.
</event>
<event>
 7    1  0.2612321E-009  0.1404005E+03  0.7561462E-02  0.1212791E+00
          2   -1    0    0  501    0  0.00000000000E+00  0.00000000000E+00  0.48898741849E+03  0.48898741849E+03  0.00000000000E+00 0. -1.
         -2   -1    0    0    0  501 -0.00000000000E+00 -0.00000000000E+00 -0.67979549292E+02  0.67979549292E+02  0.00000000000E+00 0.  1.
         25    2    1    2    0    0  0.91165632917E+02 -0.68406297479E+02  0.81777065013E+02  0.18795089653E+03  0.12508979569E+03 0.  0.
          5    1    3    3  502    0  0.95276746453E+02 -0.33932106742E+01  0.76782014175E+02  0.12248315147E+03  0.41800000000E+01 0. -1.
         -5    1    3    3    0  502 -0.41111135361E+01 -0.65013086805E+02  0.49950508374E+01  0.65467745061E+02  0.41800000000E+01 0. -1.
        -11    1    1    2    0    0 -0.24255015303E+02  0.41314423551E+02  0.43862978948E+02  0.64954971194E+02  0.00000000000E+00 0.  1.
         11    1    1    2    0    0 -0.66910617614E+02  0.27091873928E+02  0.29536782524E+03  0.30406110006E+03  0.00000000000E+00 0. -1.
</event>
<event>
 7    1  0.2612321E-009  0.7807377E+02  0.7561462E-02  0.1334608E+00
          2   -1    0    0  501    0  0.00000000000E+00  0.00000000000E+00  0.67794567196E+02  0.67794567196E+02  0.00000000000E+00 0. -1.
         -2   -1    0    0    0  501 -0.00000000000E+00 -0.00000000000E+00 -0.18102830116E+03  0.18102830116E+03  0.00000000000E+00 0.  1.
         25    2    1    2    0    0 -0.17829663518E+02 -0.11420159154E+02 -0.62707973317E+02  0.14152475952E+03  0.12509456704E+03 0.  0.
          5    1    3    3  502    0  0.29741795978E+02 -0.18157216959E+01 -0.83354396369E+02  0.88618841492E+02  0.41800000000E+01 0. -1.
         -5    1    3    3    0  502 -0.47571459496E+02 -0.96044374583E+01  0.20646423052E+02  0.52905918027E+02  0.41800000000E+01 0. -1.
        -11    1    1    2    0    0 -0.28010833196E+02  0.14235721994E+02 -0.52660074561E+02  0.61321660201E+02  0.00000000000E+00 0.  1.
         11    1    1    2    0    0  0.45840496714E+02 -0.28155628395E+01  0.21343139164E+01  0.45976448634E+02  0.00000000000E+00 0. -1.
</event>
<event>
 7    1  0.2612321E-009  0.1138277E+03  0.7561462E-02  0.1253641E+00
          2   -1    0    0  501    0  0.00000000000E+00  0.00000000000E+00  0.11491519585E+03  0.11491519585E+03  0.00000000000E+00 0. -1.
         -2   -1    0    0    0  501 -0.00000000000E+00 -0.00000000000E+00 -0.16533569986E+03  0.16533569986E+03  0.00000000000E+00 0.  1.
         25    2    1    2    0    0  0.60723776994E+02  0.52694292057E+02 -0.12880776912E+02  0.14925287267E+03  0.12508573091E+03 0.  0.
          5    1    3    3  502    0 -0.98223166626E+01  0.58263425671E+02 -0.42003924785E+02  0.72614783432E+02  0.41800000000E+01 0. -1.
         -5    1    3    3    0  502  0.70546093657E+02 -0.55691336147E+01  0.29123147873E+02  0.76638089235E+02  0.41800000000E+01 0. -1.
        -11    1    1    2    0    0  0.10446833824E+02 -0.10414864025E+02 -0.45502830542E+02  0.47834227463E+02  0.00000000000E+00 0.  1.
         11    1    1    2    0    0 -0.71170610819E+02 -0.42279428031E+02  0.79631034491E+01  0.83163795581E+02  0.00000000000E+00 0. -1.
</event>
<event>
 7    1  0.2612321E-009  0.9400923E+02  0.7561462E-02  0.1293423E+00
          1   -1    0    0  501    0  0.00000000000E+00  0.00000000000E+00  0.93193548976E+03  0.93193548976E+03  0.00000000000E+00 0. -1.
         -1   -1    0    0    0  501 -0.00000000000E+00 -0.00000000000E+00 -0.19669493417E+02  0.19669493417E+02  0.00000000000E+00 0.  1.
         25    2    1    2    0    0  0.10250401745E+02  0.78709579740E+02  0.48889711596E+03  0.51085074806E+03  0.12509127915E+03 0.  0.
          5    1    3    3  502    0 -0.32947266496E+00  0.23495328373E+02  0.42488099776E+03  0.42555078859E+03  0.41800000000E+01 0.  1.
         -5    1    3    3    0  502  0.10579874410E+02  0.55214251367E+02  0.64016118198E+02  0.85299959470E+02  0.41800000000E+01 0.  1.
        -11    1    1    2    0    0  0.31633780440E+02 -0.30983959285E+02  0.78848860721E+02  0.90431436099E+02  0.00000000000E+00 0. -1.
         11    1    1    2    0    0 -0.41884182185E+02 -0.47725620455E+02  0.34452001966E+03  0.35032279902E+03  0.00000000000E+00 0.  1.
</event>
<event>
 7    1  0.2612321E-009  0.7225470E+02  0.7561462E-02  0.1352589E+00
          3   -1    0    0  501    0  0.00000000000E+00  0.00000000000E+00  0.24579006103E+03  0.24579006103E+03  0.00000000000E+00 0. -1.
         -3   -1    0    0    0  501 -0.00000000000E+00 -0.00000000000E+00 -0.71995798497E+02  0.71995798497E+02  0.00000000000E+00 0.  1.
         25    2    1    2    0    0 -0.55769523683E+02  0.17210751486E+02  0.15329679273E+03  0.20628932553E+03  0.12509568109E+03 0.  0.
          5    1    3    3  502    0 -0.15034884445E+02  0.37370166617E+02  0.15540865768E+03  0.16059856907E+03  0.41800000000E+01 0. -1.
         -5    1    3    3    0  502 -0.40734639237E+02 -0.20159415132E+02 -0.21118649532E+01  0.45690756460E+02  0.41800000000E+01 0. -1.
        -11    1    1    2    0    0  0.13369643323E+02 -0.37802698728E+01 -0.36583976481E+02  0.39133427374E+02  0.00000000000E+00 0.  1.
         11    1    1    2    0    0  0.42399880360E+02 -0.13430481613E+02  0.57081446285E+02  0.72363106628E+02  0.00000000000E+00 0. -1.
</event>
<event>
 7    1  0.2612321E-009  0.1245782E+03  0.7561462E-02  0.1235730E+00
         -1   -1    0    0    0  501 -0.00000000000E+00  0.00000000000E+00  0.20154541268E+03  0.20154541268E+03  0.00000000000E+00 0.  1.
          1   -1    0    0  501    0  0.00000000000E+00 -0.00000000000E+00 -0.10511350545E+03  0.10511350545E+03  0.00000000000E+00 0. -1.
         25    2    1    2    0    0 -0.57120489103E+02  0.48668991660E+02 -0.11911712518E+02  0.14635925770E+03  0.12509085656E+03 0.  0.
          5    1    3    3  502    0  0.11638269281E+02 -0.30925906989E+02 -0.23053678614E+02  0.40506857847E+02  0.41800000000E+01 0.  1.
         -5    1    3    3    0  502 -0.68758758384E+02  0.79594898649E+02  0.11141966096E+02  0.10585239985E+03  0.41800000000E+01 0.  1.
        -11    1    1    2    0    0 -0.20862454565E+02 -0.14722290948E+02  0.52992029571E+02  0.58822980707E+02  0.00000000000E+00 0.  1.
         11    1    1    2    0    0  0.77982943668E+02 -0.33946700712E+02  0.55351590185E+02  0.10147667973E+03  0.00000000000E+00 0. -1.
</event>
<event>
 7    1  0.2612321E-009  0.9552571E+02  0.7561462E-02  0.1289996E+00
         -1   -1    0    0    0  501 -0.00000000000E+00  0.00000000000E+00  0.18122892195E+03  0.18122892195E+03  0.00000000000E+00 0.  1.
          1   -1    0    0  501    0  0.00000000000E+00 -0.00000000000E+00 -0.86975708342E+02  0.86975708342E+02  0.00000000000E+00 0. -1.
         25    2    1    2    0    0 -0.88068382278E+01  0.36812063574E+01  0.13969278806E+02  0.12623186724E+03  0.12509289299E+03 0.  0.
          5    1    3    3  502    0  0.38203602212E+02  0.39350392107E+02 -0.19382968673E+02  0.58319297454E+02  0.41800000000E+01 0.  1.
         -5    1    3    3    0  502 -0.47010440439E+02 -0.35669185750E+02  0.33352247479E+02  0.67912569781E+02  0.41800000000E+01 0.  1.
        -11    1    1    2    0    0  0.42680892336E+02  0.10011991364E+01  0.95451266799E+02  0.10456388145E+03  0.00000000000E+00 0.  1.
         11    1    1    2    0    0 -0.33874054108E+02 -0.46824054938E+01 -0.15167331999E+02  0.37408881605E+02  0.00000000000E+00 0. -1.
</event>
<event>
 7    1  0.2612321E-009  0.2651903E+03  0.7561462E-02  0.1104064E+00
          2   -1    0    0  501    0  0.00000000000E+00  0.00000000000E+00  0.18491732587E+04  0.18491732587E+04  0.00000000000E+00 0. -1.
         -2   -1    0    0    0  501 -0.00000000000E+00 -0.00000000000E+00 -0.43260682420E+02  0.43260682420E+02  0.00000000000E+00 0.  1.
         25    2    1    2    0    0 -0.21797231458E+03 -0.14266428992E+03  0.87827785914E+03  0.92460005040E+03  0.12509286870E+03 0.  0.
          5    1    3    3  502    0 -0.50328564753E+02 -0.18381468314E+02  0.61967257445E+02  0.82025948350E+02  0.41800000000E+01 0.  1.
         -5    1    3    3    0  502 -0.16764374983E+03 -0.12428282161E+03  0.81631060170E+03  0.84257410205E+03  0.41800000000E+01 0.  1.
        -11    1    1    2    0    0  0.18148128380E+03  0.86773813872E+02  0.58119501134E+03  0.61502259499E+03  0.00000000000E+00 0.  1.
         11    1    1    2    0    0  0.36491030783E+02  0.55890476049E+02  0.34643970577E+03  0.35281129570E+03  0.00000000000E+00 0. -1.
</event>
<event>
 7    1  0.2612321E-009  0.1475057E+03  0.7561462E-02  0.1203572E+00
          1   -1    0    0  501    0  0.00000000000E+00  0.00000000000E+00  0.23531507619E+03  0.23531507619E+03  0.00000000000E+00 0. -1.
         -1   -1    0    0    0  501 -0.00000000000E+00 -0.00000000000E+00 -0.19764847715E+03  0.19764847715E+03  0.00000000000E+00 0.  1.
         25    2    1    2    0    0  0.11985304481E+03 -0.93726884027E+01 -0.12281174684E+03  0.21256238047E+03  0.12508973096E+03 0.  0.
          5    1    3    3  502    0  0.12852016908E+03  0.29754332306E+02 -0.10429161907E+03  0.16821702755E+03  0.41800000000E+01 0. -1.
         -5    1    3    3    0  502 -0.86671242723E+01 -0.39127020709E+02 -0.18520127778E+02  0.44345352920E+02  0.41800000000E+01 0. -1.
        -11    1    1    2    0    0 -0.20421564965E+02  0.11186681109E+02 -0.81184707478E+01  0.24659515752E+02  0.00000000000E+00 0.  1.
         11    1    1    2    0    0 -0.99431479842E+02 -0.18139927059E+01  0.16859681663E+03  0.19574165712E+03  0.00000000000E+00 0. -1.
</event>
<event>
 7    1  0.2612321E-009  0.1772332E+03  0.7561462E-02  0.1170508E+00
          2   -1    0    0  501    0  0.00000000000E+00  0.00000000000E+00  0.10835437009E+03  0.10835437009E+03  0.00000000000E+00 0. -1.
         -2   -1    0    0    0  501 -0.00000000000E+00 -0.00000000000E+00 -0.37582519516E+03  0.37582519516E+03  0.00000000000E+00 0.  1.
         25    2    1    2    0    0 -0.15783832270E+03  0.60206494268E+02 -0.15737887179E+03  0.26259387715E+03  0.12509866891E+03 0.  0.
          5    1    3    3  502    0 -0.63351015225E+02  0.51732406512E+02 -0.14540648087E+03  0.16688352253E+03  0.41800000000E+01 0.  1.
         -5    1    3    3    0  502 -0.94487307474E+02  0.84740877560E+01 -0.11972390929E+02  0.95710354621E+02  0.41800000000E+01 0.  1.
        -11    1    1    2    0    0  0.69988476403E+02  0.19175099282E+01 -0.86762756327E+02  0.11148919032E+03  0.00000000000E+00 0.  1.
         11    1    1    2    0    0  0.87849846296E+02 -0.62124004196E+02 -0.23329196946E+02  0.11009649777E+03  0.00000000000E+00 0. -1.
</event>
<event>
 7    1  0.2612321E-009  0.1107258E+03  0.7561462E-02  0.1259232E+00
          1   -1    0    0  501    0  0.00000000000E+00  0.00000000000E+00  0.11892689317E+03  0.11892689317E+03  0.00000000000E+00 0. -1.
         -1   -1    0    0    0  501 -0.00000000000E+00 -0.00000000000E+00 -0.11536179308E+03  0.11536179308E+03  0.00000000000E+00 0.  1.
         25    2    1    2    0    0  0.58353287463E+01  0.36691326256E+02  0.31119406063E+02  0.13413873354E+03  0.12507788741E+03 0.  0.
          5    1    3    3  502    0  0.63348478927E+02  0.33321953412E+02  0.89026080495E+01  0.72250336965E+02  0.41800000000E+01 0.  1.
         -5    1    3    3    0  502 -0.57513150180E+02  0.33693728443E+01  0.22216798014E+02  0.61888396578E+02  0.41800000000E+01 0.  1.
        -11    1    1    2    0    0  0.70482691222E+00  0.27477910086E+02 -0.22371646634E+02  0.35440413327E+02  0.00000000000E+00 0.  1.
         11    1    1    2    0    0 -0.65401556585E+01 -0.64169236342E+02 -0.51826593327E+01  0.64709539378E+02  0.00000000000E+00 0. -1.
</event>
<event>
 7    1  0.2612321E-009  0.1305820E+03  0.7561462E-02  0.1226595E+00
          1   -1    0    0  501    0  0.00000000000E+00  0.00000000000E+00  0.16747752706E+03  0.16747752706E+03  0.00000000000E+00 0. -1.
         -1   -1    0    0    0  501 -0.00000000000E+00 -0.00000000000E+00 -0.14810608493E+03  0.14810608493E+03  0.00000000000E+00 0.  1.
         25    2    1    2    0    0  0.90771283141E+02 -0.21537763846E+02 -0.55559217410E+02  0.16564417436E+03  0.12509142554E+03 0.  0.
          5    1    3    3  502    0  0.78476578357E+02  0.39779236106E+02 -0.11052929255E+02  0.88772747062E+02  0.41800000000E+01 0.  1.
         -5    1    3    3    0  502  0.12294704784E+02 -0.61316999952E+02 -0.44506288155E+02  0.76871427294E+02  0.41800000000E+01 0.  1.
        -11    1    1    2    0    0 -0.42275619810E+02  0.40299883145E+02 -0.39664161739E+00  0.58407755790E+02  0.00000000000E+00 0.  1.
         11    1    1    2    0    0 -0.48495663331E+02 -0.18762119299E+02  0.75327301153E+02  0.91531681846E+02  0.00000000000E+00 0. -1.
</event>
<event>
 7    1  0.2612321E-009  0.1318677E+03  0.7561462E-02  0.1224710E+00
          2   -1    0    0  501    0  0.00000000000E+00  0.00000000000E+00  0.60544139030E+03  0.60544139030E+03  0.00000000000E+00 0. -1.
         -2   -1    0    0    0  501 -0.00000000000E+00 -0.00000000000E+00 -0.52312493490E+02  0.52312493490E+02  0.00000000000E+00 0.  1.
         25    2    1    2    0    0  0.87533554241E+02 -0.36852613461E+02  0.48690372217E+03  0.51160834957E+03  0.12509048905E+03 0.  0.
          5    1    3    3  502    0  0.80007891768E+02 -0.79717261924E+02  0.36528176629E+03  0.38236676866E+03  0.41800000000E+01 0.  1.
         -5    1    3    3    0  502  0.75256624729E+01  0.42864648463E+02  0.12162195588E+03  0.12924158091E+03  0.41800000000E+01 0.  1.
        -11    1    1    2    0    0 -0.75793265557E+02  0.84520507033E+01  0.81678681516E+02  0.11174731889E+03  0.00000000000E+00 0. -1.
         11    1    1    2    0    0 -0.11740288684E+02  0.28400562758E+02 -0.15453506873E+02  0.34398215332E+02  0.00000000000E+00 0.  1.
</event>
<event>
 7    1  0.2612321E-009  0.1025817E+03  0.7561462E-02  0.1274959E+00
          1   -1    0    0  501    0  0.00000000000E+00  0.00000000000E+00  0.20432693415E+03  0.20432693415E+03  0.00000000000E+00 0. -1.
         -1   -1    0    0    0  501 -0.00000000000E+00 -0.00000000000E+00 -0.10968314810E+03  0.10968314810E+03  0.00000000000E+00 0.  1.
         25    2    1    2    0    0  0.82333449502E+02  0.43648097502E+02 -0.17925194741E+01  0.15600464784E+03  0.12510109391E+03 0.  0.
          5    1    3    3  502    0  0.44113407579E+02  0.60933964419E+01  0.59531355259E+02  0.74461915551E+02  0.41800000000E+01 0.  1.
         -5    1    3    3    0  502  0.38220041922E+02  0.37554701060E+02 -0.61323874733E+02  0.81542732286E+02  0.41800000000E+01 0.  1.
        -11    1    1    2    0    0 -0.24388795747E+02  0.11259256044E+02 -0.66027148372E+01  0.27661888003E+02  0.00000000000E+00 0.  1.
         11    1    1    2    0    0 -0.57944653754E+02 -0.54907353546E+02  0.10303902036E+03  0.13034354640E+03  0.00000000000E+00 0. -1.
</event>
<event>
 7    1  0.2612321E-009  0.2376904E+03  0.7561462E-02  0.1121341E+00
          2   -1    0    0  501    0  0.00000000000E+00  0.00000000000E+00  0.70872308760E+03  0.70872308760E+03  0.00000000000E+00 0. -1.
         -2   -1    0    0    0  501 -0.00000000000E+00 -0.00000000000E+00 -0.11669828734E+03  0.11669828734E+03  0.00000000000E+00 0.  1.
         25    2    1    2    0    0 -0.24725452232E+02 -0.22115865862E+03  0.51188669556E+03  0.57201173807E+03  0.12508772574E+03 0.  0.
          5    1    3    3  502    0 -0.63445505965E+02 -0.87539368311E+02  0.15571910596E+03  0.18961641699E+03  0.41800000000E+01 0.  1.
         -5    1    3    3    0  502  0.38720053734E+02 -0.13361929031E+03  0.35616758960E+03  0.38239532108E+03  0.41800000000E+01 0.  1.
        -11    1    1    2    0    0  0.25025993418E+02  0.42299862265E+02  0.53379587297E+02  0.72560037446E+02  0.00000000000E+00 0. -1.
         11    1    1    2    0    0 -0.30054118599E+00  0.17885879636E+03  0.26758517407E+02  0.18084959943E+03  0.00000000000E+00 0.  1.
</event>
<event>
 7    1  0.2612321E-009  0.2235454E+03  0.7561462E-02  0.1131267E+00
          1   -1    0    0  501    0  0.00000000000E+00  0.00000000000E+00  0.41407922430E+03  0.41407922430E+03  0.00000000000E+00 0. -1.
         -1   -1    0    0    0  501 -0.00000000000E+00 -0.00000000000E+00 -0.17349516779E+03  0.17349516779E+03  0.00000000000E+00 0.  1.
         25    2    1    2    0    0  0.19104552662E+03 -0.69614291731E+02 -0.26743736498E+02  0.24022375723E+03  0.12509070007E+03 0.  0.
          5    1    3    3  502    0  0.90200401576E+02 -0.96693290538E+02 -0.30053840241E+02  0.13567022736E+03  0.41800000000E+01 0. -1.
         -5    1    3    3    0  502  0.10084512505E+03  0.27078998807E+02  0.33101037436E+01  0.10455352987E+03  0.41800000000E+01 0. -1.
        -11    1    1    2    0    0 -0.69672975253E+02 -0.13652744158E+01  0.40850204560E+02  0.80777018189E+02  0.00000000000E+00 0. -1.
         11    1    1    2    0    0 -0.12137255137E+03  0.70979566147E+02  0.22647758844E+03  0.26657361666E+03  0.00000000000E+00 0.  1.
</event>
<event>
 7    1  0.2612321E-009  0.1397145E+03  0.7561462E-02  0.1213714E+00
          1   -1    0    0  501    0  0.00000000000E+00  0.00000000000E+00  0.16577822597E+03  0.16577822597E+03  0.00000000000E+00 0. -1.
         -1   -1    0    0    0  501 -0.00000000000E+00 -0.00000000000E+00 -0.18080136512E+03  0.18080136512E+03  0.00000000000E+00 0.  1.
         25    2    1    2    0    0  0.12475843691E+03  0.39857018528E+02  0.23715522530E+02  0.18265714450E+03  0.12509179398E+03 0.  0.
          5    1    3    3  502    0  0.63102723218E+02  0.49148973733E+02  0.68810753484E+02  0.10559340648E+03  0.41800000000E+01 0. -1.
         -5    1    3    3    0  502  0.61655713696E+02 -0.92919552050E+01 -0.45095230955E+02  0.77063738021E+02  0.41800000000E+01 0. -1.
        -11    1    1    2    0    0 -0.10589648394E+02 -0.17577250877E+02 -0.42868322812E+02  0.47526766167E+02  0.00000000000E+00 0.  1.
         11    1    1    2    0    0 -0.11416878852E+03 -0.22279767650E+02  0.41296611361E+01  0.11639568042E+03  0.00000000000E+00 0. -1.
</event>
<event>
 7    1  0.2612321E-009  0.1070894E+03  0.7561462E-02  0.1266057E+00
          3   -1    0    0  501    0  0.00000000000E+00  0.00000000000E+00  0.20147914671E+02  0.20147914671E+02  0.00000000000E+00 0. -1.
         -3   -1    0    0    0  501 -0.00000000000E+00 -0.00000000000E+00 -0.72413101900E+03  0.72413101900E+03  0.00000000000E+00 0.  1.
         25    2    1    2    0    0  0.16816659382E+00  0.12057115290E+02 -0.56751897414E+03  0.58126716727E+03  0.12509329093E+03 0.  0.
          5    1    3    3  502    0  0.59659376378E+02 -0.12018673014E+02 -0.29820117288E+03  0.30437657860E+03  0.41800000000E+01 0. -1.
         -5    1    3    3    0  502 -0.59491209784E+02  0.24075788304E+02 -0.26931780126E+03  0.27689058868E+03  0.41800000000E+01 0. -1.
        -11    1    1    2    0    0  0.42939027991E+02 -0.15423010206E+02 -0.76747944071E+02  0.89285364354E+02  0.00000000000E+00 0. -1.
         11    1    1    2    0    0 -0.43107194585E+02  0.33658949162E+01 -0.59716186119E+02  0.73726402043E+02  0.00000000000E+00 0.  1.
</event>
<event>
 7    1  0.2612321E-009  0.1778031E+03  0.7561462E-02  0.1169946E+00
          2   -1    0    0  501    0  0.00000000000E+00  0.00000000000E+00  0.35311651738E+03  0.35311651738E+03  0.00000000000E+00 0. -1.
         -2   -1    0    0    0  501 -0.00000000000E+00 -0.00000000000E+00 -0.13878078711E+03  0.13878078711E+03  0.00000000000E+00 0.  1.
         25    2    1    2    0    0 -0.12982278967E+03 -0.11497978026E+03  0.17584391846E+02  0.21454861355E+03  0.12509032797E+03 0.  0.
          5    1    3    3  502    0 -0.43514493414E+01 -0.35026924302E+01  0.44036468962E+02  0.44585726015E+02  0.41800000000E+01 0. -1.
         -5    1    3    3    0  502 -0.12547134033E+03 -0.11147708783E+03 -0.26452077116E+02  0.16996288753E+03  0.41800000000E+01 0. -1.
        -11    1    1    2    0    0  0.66640974276E+01  0.30911418452E+02  0.14845144564E+01  0.31656433287E+02  0.00000000000E+00 0. -1.
         11    1    1    2    0    0  0.12315869224E+03  0.84068361804E+02  0.19526682397E+03  0.24569225766E+03  0.00000000000E+00 0.  1.
</event>
<event>
 7    1  0.2922757E-009  0.1051190E+03  0.7561462E-02  0.1269885E+00
          1   -1    0    0  501    0  0.00000000000E+00  0.00000000000E+00  0.32609628278E+03  0.32609628278E+03  0.00000000000E+00 0. -1.
         -1   -1    0    0    0  501 -0.00000000000E+00 -0.00000000000E+00 -0.57461921794E+02  0.57461921794E+02  0.00000000000E+00 0.  1.
         25    2    1    2    0    0 -0.55443903784E+02  0.59005836478E+02  0.12144876399E+03  0.19222987563E+03  0.12508720001E+03 0.  0.
          5    1    3    3  502    0 -0.75828022895E+01  0.40709638786E+02 -0.16684737854E+02  0.44840009567E+02  0.41800000000E+01 0. -1.
         -5    1    3    3    0  502 -0.47861101495E+02  0.18296197692E+02  0.13813350185E+03  0.14738986607E+03  0.41800000000E+01 0. -1.
        -11    1    1    2    0    0  0.57849150335E+02  0.30406156854E+00  0.99886627944E+02  0.11542943771E+03  0.00000000000E+00 0. -1.
         11    1    1    2    0    0 -0.24052465507E+01 -0.59309898047E+02  0.47298969053E+02  0.75898891235E+02  0.00000000000E+00 0.  1.
</event>
<event>
 7    1  0.2612321E-009  0.9936217E+02  0.7561462E-02  0.1281643E+00
          2   -1    0    0  501    0  0.00000000000E+00  0.00000000000E+00  0.57716836698E+02  0.57716836698E+02  0.00000000000E+00 0. -1.
         -2   -1    0    0    0  501 -0.00000000000E+00 -0.00000000000E+00 -0.26872799541E+03  0.26872799541E+03  0.00000000000E+00 0.  1.
         25    2    1    2    0    0  0.17067113535E+02 -0.20714243988E+01 -0.40789865120E+02  0.13269139343E+03  0.12509042981E+03 0.  0.
          5    1    3    3  502    0 -0.46715066357E+02  0.26108328312E+02 -0.42241023019E+01  0.53844755290E+02  0.41800000000E+01 0.  1.
         -5    1    3    3    0  502  0.63782179893E+02 -0.28179752711E+02 -0.36565762819E+02  0.78846638135E+02  0.41800000000E+01 0.  1.
        -11    1    1    2    0    0  0.28668793922E+02  0.59867487009E+01 -0.12826033047E+03  0.13156159499E+03  0.00000000000E+00 0.  1.
         11    1    1    2    0    0 -0.45735907457E+02 -0.39153243021E+01 -0.41960963119E+02  0.62191843687E+02  0.00000000000E+00 0. -1.
</event>
<event>
 7    1  0.2612321E-009  0.1377385E+03  0.7561462E-02  0.1216405E+00
         -2   -1    0    0    0  501 -0.00000000000E+00  0.00000000000E+00  0.27020116846E+03  0.27020116846E+03  0.00000000000E+00 0. -1.
          2   -1    0    0  501    0  0.00000000000E+00 -0.00000000000E+00 -0.89161177909E+02  0.89161177909E+02  0.00000000000E+00 0.  1.
         25    2    1    2    0    0  0.20490872232E+02 -0.89672238813E+02  0.24042577139E+02  0.15711912608E+03  0.12508951997E+03 0.  0.
          5    1    3    3  502    0  0.62048717645E+02 -0.86444270701E+02  0.37840232299E+02  0.11301332169E+03  0.41800000000E+01 0.  1.
         -5    1    3    3    0  502 -0.41557845413E+02 -0.32279681117E+01 -0.13797655161E+02  0.44105804396E+02  0.41800000000E+01 0.  1.
        -11    1    1    2    0    0  0.40829269644E+01  0.10025575228E+03  0.13017451269E+03  0.16435720219E+03  0.00000000000E+00 0. -1.
         11    1    1    2    0    0 -0.24573799196E+02 -0.10583513463E+02  0.26822900727E+02  0.37886018101E+02  0.00000000000E+00 0.  1.
</event>
<event>
 7    1  0.2612321E-009  0.9004144E+02  0.7561462E-02  0.1302751E+00
         -3   -1    0    0    0  501 -0.00000000000E+00  0.00000000000E+00  0.11881480822E+03  0.11881480822E+03  0.00000000000E+00 0.  1.
          3   -1    0    0  501    0  0.00000000000E+00 -0.00000000000E+00 -0.12862208407E+03  0.12862208407E+03  0.00000000000E+00 0. -1.
         25    2    1    2    0    0  0.30242614222E+02 -0.43151099528E+02  0.23869495989E+02  0.13780190030E+03  0.12507189045E+03 0.  0.
          5    1    3    3  502    0 -0.27488439167E+01  0.13252820340E+02  0.60935894515E+02  0.62560762705E+02  0.41800000000E+01 0. -1.
         -5    1    3    3    0  502  0.32991458139E+02 -0.56403919868E+02 -0.37066398526E+02  0.75241137593E+02  0.41800000000E+01 0. -1.
        -11    1    1    2    0    0 -0.15790865312E+02 -0.25658824562E+02  0.30980424174E+01  0.30287366542E+02  0.00000000000E+00 0.  1.
         11    1    1    2    0    0 -0.14451748910E+02  0.68809924091E+02 -0.36774814258E+02  0.79347625444E+02  0.00000000000E+00 0. -1.
</event>
<event>
 7    1  0.2612321E-009  0.1157603E+03  0.7561462E-02  0.1250260E+00
          4   -1    0    0  501    0  0.00000000000E+00  0.00000000000E+00  0.64861522497E+02  0.64861522497E+02  0.00000000000E+00 0. -1.
         -4   -1    0    0    0  501 -0.00000000000E+00 -0.00000000000E+00 -0.24963651940E+03  0.24963651940E+03  0.00000000000E+00 0.  1.
         25    2    1    2    0    0 -0.69874739683E+02  0.12093556859E+02 -0.10291056569E+03  0.17682649138E+03  0.12509312595E+03 0.  0.
          5    1    3    3  502    0 -0.10931305013E+02  0.62858122472E+02 -0.32069053341E+02  0.71529948778E+02  0.41800000000E+01 0. -1.
         -5    1    3    3    0  502 -0.58943434670E+02 -0.50764565613E+02 -0.70841512345E+02  0.10529654260E+03  0.41800000000E+01 0. -1.
        -11    1    1    2    0    0  0.55793963430E+02 -0.32738451924E+02 -0.15163719558E+02  0.66443291463E+02  0.00000000000E+00 0.  1.
         11    1    1    2    0    0  0.14080776253E+02  0.20644895066E+02 -0.66700711662E+02  0.71228259058E+02  0.00000000000E+00 0. -1.
</event>
<event>
 7    1  0.2612321E-009  0.1307898E+03  0.7561462E-02  0.1226289E+00
          2   -1    0    0  501    0  0.00000000000E+00  0.00000000000E+00  0.12024309281E+04  0.12024309281E+04  0.00000000000E+00 0. -1.
         -2   -1    0    0    0  501 -0.00000000000E+00 -0.00000000000E+00 -0.14433366230E+02  0.14433366230E+02  0.00000000000E+00 0.  1.
         25    2    1    2    0    0 -0.64495750270E+02  0.32859284378E+02  0.72038928472E+03  0.73474402156E+03  0.12509444951E+03 0.  0.
          5    1    3    3  502    0  0.14488284498E+02  0.59201134547E+02  0.31599688996E+03  0.32184808774E+03  0.41800000000E+01 0. -1.
         -5    1    3    3    0  502 -0.78984034768E+02 -0.26341850169E+02  0.40439239476E+03  0.41289593381E+03  0.41800000000E+01 0. -1.
        -11    1    1    2    0    0  0.87761386976E+02 -0.33262292250E+02  0.38725188281E+03  0.39846262293E+03  0.00000000000E+00 0.  1.
         11    1    1    2    0    0 -0.23265636706E+02  0.40300787151E+00  0.80356394288E+02  0.83657649797E+02  0.00000000000E+00 0. -1.
</event>
<event>
 7    1  0.2612321E-009  0.1034803E+03  0.7561462E-02  0.1273143E+00
         -2   -1    0    0    0  501 -0.00000000000E+00  0.00000000000E+00  0.61566668280E+02  0.61566668280E+02  0.00000000000E+00 0.  1.
          2   -1    0    0  501    0  0.00000000000E+00 -0.00000000000E+00 -0.24026185554E+03  0.24026185554E+03  0.00000000000E+00 0. -1.
         25    2    1    2    0    0 -0.13658915476E+02  0.43921695725E+02 -0.13102209466E+03  0.18689523637E+03  0.12508940308E+03 0.  0.
          5    1    3    3  502    0  0.45226854035E+02  0.40135464885E+01 -0.10353123913E+02  0.46757207531E+02  0.41800000000E+01 0.  1.
         -5    1    3    3    0  502 -0.58885769512E+02  0.39908149236E+02 -0.12066897074E+03  0.14013802884E+03  0.41800000000E+01 0.  1.
        -11    1    1    2    0    0  0.29788667245E+02 -0.60214355593E+02 -0.58956025387E+02  0.89380905372E+02  0.00000000000E+00 0. -1.
         11    1    1    2    0    0 -0.16129751769E+02  0.16292659868E+02  0.11282932783E+02  0.25552382078E+02  0.00000000000E+00 0.  1.
</event>
<event>
 6    1  0.2612321E-009  0.1373636E+03  0.7561462E-02  0.1216921E+00
          1   -1    0    0  501    0  0.00000000000E+00  0.00000000000E+00  0.11655632727E+03  0.11655632727E+03  0.00000000000E+00 0. -1.
         -1   -1    0    0    0  501 -0.00000000000E+00 -0.00000000000E+00 -0.18415510596E+03  0.18415510596E+03  0.00000000000E+00 0.  1.
          5    1    1    2  502    0  0.36002100011E+02  0.79383069262E+01 -0.47073127798E+02  0.59937631608E+02  0.41800000000E+01 0.  1.
         -5    1    1    2    0  502 -0.45763706579E+02 -0.95451659755E+02 -0.22982498309E+02  0.10840204711E+03  0.41800000000E+01 0.  1.
        -11    1    1    2    0    0 -0.32986534509E+02 -0.14151498465E+01  0.63651051456E+01  0.33624822252E+02  0.00000000000E+00 0.  1.
         11    1    1    2    0    0  0.42748141076E+02  0.88928502675E+02 -0.39082577285E+01  0.98746932266E+02  0.00000000000E+00 0. -1.
</event>
<event>
 7    1  0.2612321E-009  0.1086268E+03  0.7561462E-02  0.1263134E+00
         -1   -1    0    0    0  501 -0.00000000000E+00  0.00000000000E+00  0.34158380163E+02  0.34158380163E+02  0.00000000000E+00 0.  1.
          1   -1    0    0  501    0  0.00000000000E+00 -0.00000000000E+00 -0.12271396295E+04  0.12271396295E+04  0.00000000000E+00 0. -1.
         25    2    1    2    0    0  0.81337942678E+02 -0.42655258845E+02 -0.10794973183E+04  0.10905947050E+04  0.12508804177E+03 0.  0.
          5    1    3    3  502    0  0.61956169257E+02 -0.51366698171E+02 -0.29532036457E+03  0.30611875918E+03  0.41800000000E+01 0. -1.
         -5    1    3    3    0  502  0.19381773421E+02  0.87114393256E+01 -0.78417695375E+03  0.78447594578E+03  0.41800000000E+01 0. -1.
        -11    1    1    2    0    0 -0.16231813013E+02  0.47032567345E+02 -0.13926613440E+02  0.51667056300E+02  0.00000000000E+00 0.  1.
         11    1    1    2    0    0 -0.65106129665E+02 -0.43773084999E+01 -0.99557317533E+02  0.11903624836E+03  0.00000000000E+00 0. -1.
</event>
<event>
 7    1  0.2612321E-009  0.1068179E+03  0.7561462E-02  0.1266579E+00
          1   -1    0    0  501    0  0.00000000000E+00  0.00000000000E+00  0.31771384735E+03  0.31771384735E+03  0.00000000000E+00 0. -1.
         -1   -1    0    0    0  501 -0.00000000000E+00 -0.00000000000E+00 -0.61706278589E+02  0.61706278589E+02  0.00000000000E+00 0.  1.
         25    2    1    2    0    0  0.50438520361E+01  0.62870621520E+02  0.22767880564E+03  0.26732636700E+03  0.12509033720E+03 0.  0.
          5    1    3    3  502    0  0.47403957563E+02  0.33918301108E+02  0.20104411735E+03  0.20936522124E+03  0.41800000000E+01 0.  1.
         -5    1    3    3    0  502 -0.42360105527E+02  0.28952320412E+02  0.26634688286E+02  0.57961145758E+02  0.41800000000E+01 0.  1.
        -11    1    1    2    0    0  0.27019256327E+02 -0.66181706505E+02  0.34338935300E+02  0.79304608731E+02  0.00000000000E+00 0. -1.
         11    1    1    2    0    0 -0.32063108363E+02  0.33110849852E+01 -0.60101721807E+01  0.32789150208E+02  0.00000000000E+00 0.  1.
</event>
<event>
 7    1  0.2612321E-009  0.1331997E+03  0.7561462E-02  0.1222784E+00
          2   -1    0    0  501    0  0.00000000000E+00  0.00000000000E+00  0.11224486648E+03  0.11224486648E+03  0.00000000000E+00 0. -1.
         -2   -1    0    0    0  501 -0.00000000000E+00 -0.00000000000E+00 -0.17129743537E+03  0.17129743537E+03  0.00000000000E+00 0.  1.
         25    2    1    2    0    0  0.63006377577E+02  0.50137326823E+02 -0.62524961227E+02  0.16136245219E+03  0.12507963481E+03 0.  0.
          5    1    3    3  502    0 -0.38114001793E+01  0.76284542061E+02 -0.38060433996E+02  0.85439611216E+02  0.41800000000E+01 0. -1.
         -5    1    3    3    0  502  0.66817777757E+02 -0.26147215238E+02 -0.24464527231E+02  0.75922840975E+02  0.41800000000E+01 0. -1.
        -11    1    1    2    0    0 -0.89998606705E+01 -0.62073324309E+02 -0.13825914683E+02  0.64228116894E+02  0.00000000000E+00 0.  1.
         11    1    1    2    0    0 -0.54006516907E+02  0.11935997486E+02  0.17298307021E+02  0.57951732763E+02  0.00000000000E+00 0. -1.
</event>
<event>
 7    1  0.2612321E-009  0.1572890E+03  0.7561462E-02  0.1191792E+00
         -2   -1    0    0    0  501 -0.00000000000E+00  0.00000000000E+00  0.20383366663E+03  0.20383366663E+03  0.00000000000E+00 0.  1.
          2   -1    0    0  501    0  0.00000000000E+00 -0.00000000000E+00 -0.15368135257E+03  0.15368135257E+03  0.00000000000E+00 0. -1.
         25    2    1    2    0    0  0.30405802314E+01  0.13067752836E+03  0.73577557075E+02  0.19531152643E+03  0.12508826446E+03 0.  0.
          5    1    3    3  502    0 -0.20109929276E+02  0.13079756001E+03  0.95426191481E+02  0.16320551884E+03  0.41800000000E+01 0. -1.
         -5    1    3    3    0  502  0.23150509507E+02 -0.12003164645E+00 -0.21848634406E+02  0.32106007591E+02  0.41800000000E+01 0. -1.
        -11    1    1    2    0    0  0.33155605422E+02 -0.11413842030E+03 -0.67281129325E+01  0.11904680030E+03  0.00000000000E+00 0. -1.
         11    1    1    2    0    0 -0.36196185654E+02 -0.16539108064E+02 -0.16697130080E+02  0.43156692463E+02  0.00000000000E+00 0.  1.
</event>
<event>
 7    1  0.2612321E-009  0.1009917E+03  0.7561462E-02  0.1278224E+00
         -1   -1    0    0    0  501 -0.00000000000E+00  0.00000000000E+00  0.21622247741E+02  0.21622247741E+02  0.00000000000E+00 0.  1.
          1   -1    0    0  501    0  0.00000000000E+00 -0.00000000000E+00 -0.59200499274E+03  0.59200499274E+03  0.00000000000E+00 0. -1.
         25    2    1    2    0    0 -0.34943551163E+02 -0.37766863697E+01 -0.29793095377E+03  0.32503062662E+03  0.12508692938E+03 0.  0.
          5    1    3    3  502    0 -0.53381437255E+02 -0.50406211208E+02 -0.22267138730E+03  0.23450028378E+03  0.41800000000E+01 0.  1.
         -5    1    3    3    0  502  0.18437886092E+02  0.46629524838E+02 -0.75259566468E+02  0.90530342842E+02  0.41800000000E+01 0.  1.
        -11    1    1    2    0    0 -0.11279589538E+01  0.32190691405E+02 -0.38575355007E+02  0.50255058635E+02  0.00000000000E+00 0.  1.
         11    1    1    2    0    0  0.36071510117E+02 -0.28414005035E+02 -0.23387643622E+03  0.23834155522E+03  0.00000000000E+00 0. -1.
</event>
<event>
 7    1  0.2612321E-009  0.1305540E+03  0.7561462E-02  0.1226636E+00
          2   -1    0    0  501    0  0.00000000000E+00  0.00000000000E+00  0.74871732955E+02  0.74871732955E+02  0.00000000000E+00 0. -1.
         -2   -1    0    0    0  501 -0.00000000000E+00 -0.00000000000E+00 -0.30409041795E+03  0.30409041795E+03  0.00000000000E+00 0.  1.
         25    2    1    2    0    0  0.40668278366E+02  0.66975655827E+02 -0.37069346061E+02  0.15218225656E+03  0.12508259454E+03 0.  0.
          5    1    3    3  502    0  0.49069425714E+02 -0.23123893448E+02 -0.27871862895E+02  0.61129666524E+02  0.41800000000E+01 0.  1.
         -5    1    3    3    0  502 -0.84011473479E+01  0.90099549275E+02 -0.91974831660E+01  0.91052590040E+02  0.41800000000E+01 0.  1.
        -11    1    1    2    0    0  0.16403085700E+02 -0.55537259388E+02 -0.65706739971E+02  0.87583240853E+02  0.00000000000E+00 0. -1.
         11    1    1    2    0    0 -0.57071364066E+02 -0.11438396439E+02 -0.12644259897E+03  0.13919665349E+03  0.00000000000E+00 0.  1.
</event>
<event>
 7    1  0.2612321E-009  0.1421201E+03  0.7561462E-02  0.1210504E+00
         -1   -1    0    0    0  501 -0.00000000000E+00  0.00000000000E+00  0.69607759916E+03  0.69607759916E+03  0.00000000000E+00 0.  1.
          1   -1    0    0  501    0  0.00000000000E+00 -0.00000000000E+00 -0.30460885885E+02  0.30460885885E+02  0.00000000000E+00 0. -1.
         25    2    1    2    0    0  0.85663245748E+02  0.43297539795E+02  0.32789226538E+03  0.36383321581E+03  0.12509357540E+03 0.  0.
          5    1    3    3  502    0  0.10258147716E+03 -0.30186138311E+01  0.26210773248E+03  0.28151377819E+03  0.41800000000E+01 0.  1.
         -5    1    3    3    0  502 -0.16918231417E+02  0.46316153626E+02  0.65784532907E+02  0.82319437625E+02  0.41800000000E+01 0.  1.
        -11    1    1    2    0    0 -0.48157884794E+02  0.24898766585E+02  0.14938735971E+03  0.15892046340E+03  0.00000000000E+00 0. -1.
         11    1    1    2    0    0 -0.37505360954E+02 -0.68196306380E+02  0.18833708818E+03  0.20378480583E+03  0.00000000000E+00 0.  1.
</event>
<event>
 7    1  0.2795748E-009  0.9765452E+02  0.7561462E-02  0.1285307E+00
          3   -1    0    0  501    0  0.00000000000E+00  0.00000000000E+00  0.71199369933E+02  0.71199369933E+02  0.00000000000E+00 0. -1.
         -3   -1    0    0    0  501 -0.00000000000E+00 -0.00000000000E+00 -0.24029344523E+03  0.24029344523E+03  0.00000000000E+00 0.  1.
         25    2    1    2    0    0  0.44987354973E+02  0.53003229283E+02 -0.65775093164E+02  0.15750030027E+03  0.12508707880E+03 0.  0.
          5    1    3    3  502    0 -0.24094411566E+02  0.22105546644E+02  0.23431408007E+02  0.40443777548E+02  0.41800000000E+01 0. -1.
         -5    1    3    3    0  502  0.69081766539E+02  0.30897682639E+02 -0.89206501172E+02  0.11705652272E+03  0.41800000000E+01 0. -1.
        -11    1    1    2    0    0 -0.20956358302E+01 -0.42291408160E+02 -0.10123576091E+03  0.10973438012E+03  0.00000000000E+00 0.  1.
         11    1    1    2    0    0 -0.42891719142E+02 -0.10711821123E+02 -0.20832212223E+01  0.44258134771E+02  0.00000000000E+00 0. -1.
</event>
<event>
 7    1  0.2612321E-009  0.8757450E+02  0.7561462E-02  0.1308834E+00
          2   -1    0    0  501    0  0.00000000000E+00  0.00000000000E+00  0.36481713120E+03  0.36481713120E+03  0.00000000000E+00 0. -1.
         -2   -1    0    0    0  501 -0.00000000000E+00 -0.00000000000E+00 -0.33762000167E+02  0.33762000167E+02  0.00000000000E+00 0.  1.
         25    2    1    2    0    0  0.17058763134E+02 -0.14778094340E+02  0.20189611174E+03  0.23857726132E+03  0.12509067195E+03 0.  0.
          5    1    3    3  502    0  0.27264629293E+02 -0.55066679524E+02  0.45162328355E+02  0.76372819162E+02  0.41800000000E+01 0.  1.
         -5    1    3    3    0  502 -0.10205866159E+02  0.40288585183E+02  0.15673378339E+03  0.16220444216E+03  0.41800000000E+01 0.  1.
        -11    1    1    2    0    0 -0.39948099696E+01  0.41686474593E+02  0.19240328212E+02  0.46085907829E+02  0.00000000000E+00 0.  1.
         11    1    1    2    0    0 -0.13063953164E+02 -0.26908380253E+02  0.10991869108E+03  0.11391596222E+03  0.00000000000E+00 0. -1.
</event>
<event>
 7    1  0.2612321E-009  0.7853634E+02  0.7561462E-02  0.1333257E+00
         -1   -1    0    0    0  501 -0.00000000000E+00  0.00000000000E+00  0.16103640584E+03  0.16103640584E+03  0.00000000000E+00 0.  1.
          1   -1    0    0  501    0  0.00000000000E+00 -0.00000000000E+00 -0.76088887880E+02  0.76088887880E+02  0.00000000000E+00 0. -1.
         25    2    1    2    0    0 -0.10403776247E+02  0.31868909710E+01  0.14092327474E+02  0.12636478826E+03  0.12510424127E+03 0.  0.
          5    1    3    3  502    0 -0.59453436195E+02 -0.24594697921E+02 -0.93897589269E+01  0.65155584672E+02  0.41800000000E+01 0. -1.
         -5    1    3    3    0  502  0.49049659948E+02  0.27781588892E+02  0.23482086401E+02  0.61209203590E+02  0.41800000000E+01 0. -1.
        -11    1    1    2    0    0  0.94097940386E+01 -0.18484426660E+02  0.86443634022E+02  0.88897244703E+02  0.00000000000E+00 0.  1.
         11    1    1    2    0    0  0.99398220834E+00  0.15297535689E+02 -0.15588443539E+02  0.21863260753E+02  0.00000000000E+00 0. -1.
</event>
<event>
 7    1  0.2612321E-009  0.2492690E+03  0.7561462E-02  0.1113768E+00
          2   -1    0    0  501    0  0.00000000000E+00  0.00000000000E+00  0.90996644983E+03  0.90996644983E+03  0.00000000000E+00 0. -1.
         -2   -1    0    0    0  501 -0.00000000000E+00 -0.00000000000E+00 -0.70186486032E+02  0.70186486032E+02  0.00000000000E+00 0.  1.
         25    2    1    2    0    0  0.22233575896E+03  0.45941126268E+02  0.41749971814E+03  0.49142436640E+03  0.12509243161E+03 0.  0.
          5    1    3    3  502    0 -0.80915859258E+01  0.19744355963E+02  0.72588530721E+02  0.75775197443E+02  0.41800000000E+01 0. -1.
         -5    1    3    3    0  502  0.23042734488E+03  0.26196770304E+02  0.34491118742E+03  0.41564916895E+03  0.41800000000E+01 0. -1.
        -11    1    1    2    0    0 -0.12595768421E+03 -0.71897338803E+02  0.27338939584E+03  0.30947750693E+03  0.00000000000E+00 0. -1.
         11    1    1    2    0    0 -0.96378074751E+02  0.25956212535E+02  0.14889084982E+03  0.17925106254E+03  0.00000000000E+00 0.  1.
</event>
<event>
 7    1  0.2612321E-009  0.1810092E+03  0.7561462E-02  0.1166830E+00
          1   -1    0    0  501    0  0.00000000000E+00  0.00000000000E+00  0.76977873202E+03  0.76977873202E+03  0.00000000000E+00 0. -1.
         -1   -1    0    0    0  501 -0.00000000000E+00 -0.00000000000E+00 -0.46115541067E+02  0.46115541067E+02  0.00000000000E+00 0.  1.
         25    2    1    2    0    0 -0.14596953978E+03 -0.29844720384E+02  0.30309340155E+03  0.36015559789E+03  0.12509448729E+03 0.  0.
          5    1    3    3  502    0  0.19081381894E+02 -0.32778454417E+01  0.73464736181E+02  0.76087996871E+02  0.41800000000E+01 0. -1.
         -5    1    3    3    0  502 -0.16505092167E+03 -0.26566874942E+02  0.22962866537E+03  0.28406760102E+03  0.41800000000E+01 0. -1.
        -11    1    1    2    0    0  0.37358097187E+02  0.52106050540E+02  0.17213060781E+03  0.18368346162E+03  0.00000000000E+00 0. -1.
         11    1    1    2    0    0  0.10861144259E+03 -0.22261330157E+02  0.24843918159E+03  0.27205521357E+03  0.00000000000E+00 0.  1.
</event>
<event>
 7    1  0.2612321E-009  0.6006569E+02  0.7561462E-02  0.1397556E+00
          1   -1    0    0  501    0  0.00000000000E+00  0.00000000000E+00  0.32339370819E+03  0.32339370819E+03  0.00000000000E+00 0. -1.
         -1   -1    0    0    0  501 -0.00000000000E+00 -0.00000000000E+00 -0.43994426586E+02  0.43994426586E+02  0.00000000000E+00 0.  1.
         25    2    1    2    0    0 -0.89424270619E+00  0.22253106738E+02  0.10879699136E+03  0.16727192358E+03  0.12508841136E+03 0.  0.
          5    1    3    3  502    0  0.22364186528E+02 -0.69127141918E+01 -0.21265777313E+02  0.31900597821E+02  0.41800000000E+01 0.  1.
         -5    1    3    3    0  502 -0.23258429235E+02  0.29165820930E+02  0.13006276868E+03  0.13537132576E+03  0.41800000000E+01 0.  1.
        -11    1    1    2    0    0 -0.68472142335E+01  0.17250794770E+02 -0.55901752158E+01  0.19383609620E+02  0.00000000000E+00 0.  1.
         11    1    1    2    0    0  0.77414569397E+01 -0.39503901508E+02  0.17619246546E+03  0.18073260158E+03  0.00000000000E+00 0. -1.
</event>
<event>
 7    1  0.2612321E-009  0.9619739E+02  0.7561462E-02  0.1288502E+00
          2   -1    0    0  501    0  0.00000000000E+00  0.00000000000E+00  0.31558080233E+03  0.31558080233E+03  0.00000000000E+00 0. -1.
         -2   -1    0    0    0  501 -0.00000000000E+00 -0.00000000000E+00 -0.38924439442E+02  0.38924439442E+02  0.00000000000E+00 0.  1.
         25    2    1    2    0    0 -0.10889952540E+02 -0.31986928246E+01  0.11716284125E+03  0.17176563406E+03  0.12508988358E+03 0.  0.
          5    1    3    3  502    0 -0.38159921975E+02 -0.42890640416E+02  0.16151396513E+02  0.59784000283E+02  0.41800000000E+01 0. -1.
         -5    1    3    3    0  502  0.27269969435E+02  0.39691947592E+02  0.10101144474E+03  0.11198163378E+03  0.41800000000E+01 0. -1.
        -11    1    1    2    0    0 -0.70931083433E+01  0.42599014377E+02  0.57334419685E+02  0.71778993393E+02  0.00000000000E+00 0. -1.
         11    1    1    2    0    0  0.17983060883E+02 -0.39400321553E+02  0.10215910196E+03  0.11096061432E+03  0.00000000000E+00 0.  1.
</event>
<event>
 7    1  0.2612321E-009  0.1367133E+03  0.7561462E-02  0.1217821E+00
          1   -1    0    0  501    0  0.00000000000E+00  0.00000000000E+00  0.35427477271E+02  0.35427477271E+02  0.00000000000E+00 0. -1.
         -1   -1    0    0    0  501 -0.00000000000E+00 -0.00000000000E+00 -0.67359180414E+03  0.67359180414E+03  0.00000000000E+00 0.  1.
         25    2    1    2    0    0 -0.73505005270E+02 -0.83898425047E+02 -0.29254471009E+03  0.33715398693E+03  0.12509385265E+03 0.  0.
          5    1    3    3  502    0 -0.76836396089E+02 -0.11036804692E+03 -0.27117233673E+03  0.30271578445E+03  0.41800000000E+01 0.  1.
         -5    1    3    3    0  502  0.33313908189E+01  0.26469621872E+02 -0.21372373362E+02  0.34438202479E+02  0.41800000000E+01 0.  1.
        -11    1    1    2    0    0  0.30876545841E+02  0.28886168507E+02 -0.25028000079E+03  0.25382641826E+03  0.00000000000E+00 0.  1.
         11    1    1    2    0    0  0.42628459429E+02  0.55012256541E+02 -0.95339615990E+02  0.11803887622E+03  0.00000000000E+00 0. -1.
</event>
<event>
 7    1  0.2612321E-009  0.8858276E+02  0.7561462E-02  0.1306321E+00
          2   -1    0    0  501    0  0.00000000000E+00  0.00000000000E+00  0.17345795234E+04  0.17345795234E+04  0.00000000000E+00 0. -1.
         -2   -1    0    0    0  501 -0.00000000000E+00 -0.00000000000E+00 -0.81072656279E+01  0.81072656279E+01  0.00000000000E+00 0.  1.
         25    2    1    2    0    0 -0.15264680718E+02  0.26410654323E+02  0.11960012386E+04  0.12029119250E+04  0.12509038064E+03 0.  0.
          5    1    3    3  502    0 -0.24429693140E+02  0.47788222560E+02  0.11494108641E+04  0.11506708179E+04  0.41800000000E+01 0. -1.
         -5    1    3    3    0  502  0.91650124217E+01 -0.21377568236E+02  0.46590374502E+02  0.52241107116E+02  0.41800000000E+01 0. -1.
        -11    1    1    2    0    0  0.52029129133E+02 -0.34010133872E+02  0.31973732623E+03  0.32572331398E+03  0.00000000000E+00 0.  1.
         11    1    1    2    0    0 -0.36764448415E+02  0.75994795487E+01  0.21073369293E+03  0.21405155008E+03  0.00000000000E+00 0. -1.
</event>
<event>
 6    1  0.2612321E-009  0.1005147E+03  0.7561462E-02  0.1279217E+00
         -1   -1    0    0    0  501 -0.00000000000E+00  0.00000000000E+00  0.24870009648E+02  0.24870009648E+02  0.00000000000E+00 0.  1.
          1   -1    0    0  501    0  0.00000000000E+00 -0.00000000000E+00 -0.86219406769E+03  0.86219406769E+03  0.00000000000E+00 0. -1.
          5    1    1    2  502    0  0.27727819484E+02  0.36830571167E+02 -0.50511368621E+03  0.50723035333E+03  0.41800000000E+01 0.  1.
         -5    1    1    2    0  502 -0.22738754642E+02 -0.60113632248E+02 -0.23335960156E+03  0.24208443937E+03  0.41800000000E+01 0.  1.
        -11    1    1    2    0    0  0.39562676048E+02  0.23035484597E+02 -0.26832615526E+02  0.53064377342E+02  0.00000000000E+00 0.  1.
         11    1    1    2    0    0 -0.44551740889E+02  0.24757648388E+00 -0.72018154747E+02  0.84684907295E+02  0.00000000000E+00 0. -1.
</event>
<event>
 7    1  0.2612321E-009  0.1451802E+03  0.7561462E-02  0.1206524E+00
         -2   -1    0    0    0  501 -0.00000000000E+00  0.00000000000E+00  0.38024038600E+03  0.38024038600E+03  0.00000000000E+00 0.  1.
          2   -1    0    0  501    0  0.00000000000E+00 -0.00000000000E+00 -0.61534500043E+02  0.61534500043E+02  0.00000000000E+00 0. -1.
         25    2    1    2    0    0 -0.70660096001E+02 -0.79690022291E+02  0.17726374255E+03  0.24169195826E+03  0.12509684026E+03 0.  0.
          5    1    3    3  502    0 -0.45872061011E+01 -0.94241036899E+02  0.12167466883E+03  0.15402796152E+03  0.41800000000E+01 0.  1.
         -5    1    3    3    0  502 -0.66072889900E+02  0.14551014609E+02  0.55589073722E+02  0.87663996733E+02  0.41800000000E+01 0.  1.
        -11    1    1    2    0    0 -0.11849160313E+02  0.28916660196E+02  0.78656666632E+02  0.84637149306E+02  0.00000000000E+00 0.  1.
         11    1    1    2    0    0  0.82509256314E+02  0.50773362095E+02  0.62785476771E+02  0.11544577848E+03  0.00000000000E+00 0. -1.
</event>
<event>
 7    1  0.2612321E-009  0.8801884E+02  0.7561462E-02  0.1307722E+00
          2   -1    0    0  501    0  0.00000000000E+00  0.00000000000E+00  0.12260461173E+04  0.12260461173E+04  0.00000000000E+00 0. -1.
         -2   -1    0    0    0  501 -0.00000000000E+00 -0.00000000000E+00 -0.12043347581E+02  0.12043347581E+02  0.00000000000E+00 0.  1.
         25    2    1    2    0    0  0.41043747493E+02  0.34354530593E+02  0.66302331526E+03  0.67683763802E+03  0.12507777052E+03 0.  0.
          5    1    3    3  502    0  0.23384492687E+02 -0.80224764808E+01  0.19757702167E+02  0.31922309159E+02  0.41800000000E+01 0. -1.
         -5    1    3    3    0  502  0.17659254807E+02  0.42377007074E+02  0.64326561309E+03  0.64491532886E+03  0.41800000000E+01 0. -1.
        -11    1    1    2    0    0 -0.59674412475E+02 -0.52039213782E+02  0.45779561214E+03  0.46459222741E+03  0.00000000000E+00 0. -1.
         11    1    1    2    0    0  0.18630664981E+02  0.17684683188E+02  0.93183842300E+02  0.96659599435E+02  0.00000000000E+00 0.  1.
</event>
<event>
 7    1  0.2612321E-009  0.9580517E+02  0.7561462E-02  0.1289373E+00
          1   -1    0    0  501    0  0.00000000000E+00  0.00000000000E+00  0.73618513380E+02  0.73618513380E+02  0.00000000000E+00 0. -1.
         -1   -1    0    0    0  501 -0.00000000000E+00 -0.00000000000E+00 -0.24886134452E+03  0.24886134452E+03  0.00000000000E+00 0.  1.
         25    2    1    2    0    0 -0.11391850638E+02 -0.77554606792E+02 -0.11750298759E+03  0.18867779827E+03  0.12509143924E+03 0.  0.
          5    1    3    3  502    0 -0.95236734314E+01 -0.82745852566E+02 -0.14120069267E+03  0.16398989141E+03  0.41800000000E+01 0. -1.
         -5    1    3    3    0  502 -0.18681772061E+01  0.51912457739E+01  0.23697705086E+02  0.24687906859E+02  0.41800000000E+01 0. -1.
        -11    1    1    2    0    0 -0.19389118815E+02  0.65373141351E+02 -0.10988330808E+01  0.68196722594E+02  0.00000000000E+00 0. -1.
         11    1    1    2    0    0  0.30780969453E+02  0.12181465442E+02 -0.56641010469E+02  0.65605337037E+02  0.00000000000E+00 0.  1.
</event>
<event>
 7    1  0.2612321E-009  0.7762547E+02  0.7561462E-02  0.1335928E+00
         -2   -1    0    0    0  501 -0.00000000000E+00  0.00000000000E+00  0.52518359070E+02  0.52518359070E+02  0.00000000000E+00 0.  1.
          2   -1    0    0  501    0  0.00000000000E+00 -0.00000000000E+00 -0.27517235293E+03  0.27517235293E+03  0.00000000000E+00 0. -1.
         25    2    1    2    0    0  0.27715774407E+02 -0.39493282287E+02 -0.12258568292E+03  0.18166159320E+03  0.12508317749E+03 0.  0.
          5    1    3    3  502    0 -0.10225609399E+02  0.24377198268E+02 -0.10056314159E+03  0.10406358023E+03  0.41800000000E+01 0.  1.
         -5    1    3    3    0  502  0.37941383805E+02 -0.63870480555E+02 -0.22022541330E+02  0.77598012977E+02  0.41800000000E+01 0.  1.
        -11    1    1    2    0    0 -0.91481060617E+01  0.33258324010E+02 -0.11584975798E+03  0.12087584699E+03  0.00000000000E+00 0. -1.
         11    1    1    2    0    0 -0.18567668345E+02  0.62349582772E+01  0.15781447036E+02  0.25153271816E+02  0.00000000000E+00 0.  1.
</event>
<event>
 6    1  0.2612321E-009  0.1330987E+03  0.7561462E-02  0.1222929E+00
         -1   -1    0    0    0  501 -0.00000000000E+00  0.00000000000E+00  0.14035984154E+03  0.14035984154E+03  0.00000000000E+00 0.  1.
          1   -1    0    0  501    0  0.00000000000E+00 -0.00000000000E+00 -0.18233230795E+03  0.18233230795E+03  0.00000000000E+00 0. -1.
          5    1    1    2  502    0 -0.72796418490E+02 -0.67309269264E+01  0.28555469590E+02  0.78597144769E+02  0.41800000000E+01 0.  1.
         -5    1    1    2    0  502 -0.28737792849E+02 -0.38810697091E+02 -0.85327454731E+02  0.98134488725E+02  0.41800000000E+01 0.  1.
        -11    1    1    2    0    0  0.88243243503E+02  0.72653487787E+02  0.17540324533E+02  0.11564195733E+03  0.00000000000E+00 0. -1.
         11    1    1    2    0    0  0.13290967836E+02 -0.27111863769E+02 -0.27408058062E+01  0.30318558665E+02  0.00000000000E+00 0.  1.
</event>
<event>
 7    1  0.2612321E-009  0.1270582E+03  0.7561462E-02  0.1231887E+00
          1   -1    0    0  501    0  0.00000000000E+00  0.00000000000E+00  0.18639486584E+03  0.18639486584E+03  0.00000000000E+00 0. -1.
         -1   -1    0    0    0  501 -0.00000000000E+00 -0.00000000000E+00 -0.18499672899E+03  0.18499672899E+03  0.00000000000E+00 0.  1.
         25    2    1    2    0    0  0.10502673453E+03 -0.50013503015E+02  0.95117332875E+02  0.19551558419E+03  0.12508825364E+03 0.  0.
          5    1    3    3  502    0  0.49517920502E+02  0.10820351665E+01  0.10797677322E+03  0.11886820940E+03  0.41800000000E+01 0. -1.
         -5    1    3    3    0  502  0.55508814033E+02 -0.51095538181E+02 -0.12859440341E+02  0.76647374797E+02  0.41800000000E+01 0. -1.
        -11    1    1    2    0    0 -0.60536238679E+02  0.57781587347E+02 -0.99868133451E+02  0.13029578700E+03  0.00000000000E+00 0.  1.
         11    1    1    2    0    0 -0.44490495855E+02 -0.77680843325E+01  0.61489374204E+01  0.45580223640E+02  0.00000000000E+00 0. -1.
</event>
<event>
 7    1  0.2612321E-009  0.5938874E+02  0.7561462E-02  0.1400415E+00
         -1   -1    0    0    0  501 -0.00000000000E+00  0.00000000000E+00  0.28448198638E+03  0.28448198638E+03  0.00000000000E+00 0.  1.
          1   -1    0    0  501    0  0.00000000000E+00 -0.00000000000E+00 -0.60074785593E+02  0.60074785593E+02  0.00000000000E+00 0. -1.
         25    2    1    2    0    0  0.50209237143E+02 -0.99827418324E+01  0.19010131944E+03  0.23325272206E+03  0.12509075932E+03 0.  0.
          5    1    3    3  502    0  0.39050582706E+02 -0.24289724163E+02  0.41418145772E+01  0.46363409469E+02  0.41800000000E+01 0.  1.
         -5    1    3    3    0  502  0.11158654437E+02  0.14306982330E+02  0.18595950486E+03  0.18688931259E+03  0.41800000000E+01 0.  1.
        -11    1    1    2    0    0 -0.18646231503E+02 -0.46090414617E+01  0.63224449010E+02  0.66077652539E+02  0.00000000000E+00 0.  1.
         11    1    1    2    0    0 -0.31563005640E+02  0.14591783294E+02 -0.28918567656E+02  0.45226397380E+02  0.00000000000E+00 0. -1.
</event>
<event>
 7    1  0.2612321E-009  0.2527221E+03  0.7561462E-02  0.1111597E+00
         -1   -1    0    0    0  501 -0.00000000000E+00  0.00000000000E+00  0.24570351533E+03  0.24570351533E+03  0.00000000000E+00 0.  1.
          1   -1    0    0  501    0  0.00000000000E+00 -0.00000000000E+00 -0.29412568222E+03  0.29412568222E+03  0.00000000000E+00 0. -1.
         25    2    1    2    0    0 -0.24519053776E+03  0.10880965961E+02 -0.26239856723E+02  0.27671814883E+03  0.12509040165E+03 0.  0.
          5    1    3    3  502    0 -0.22843306276E+03 -0.15330085947E+01 -0.60537736633E+02  0.23636053866E+03  0.41800000000E+01 0. -1.
         -5    1    3    3    0  502 -0.16757474996E+02  0.12413974556E+02  0.34297879910E+02  0.40357610173E+02  0.41800000000E+01 0. -1.
        -11    1    1    2    0    0  0.19453445648E+03 -0.38043039207E+02  0.76192612922E+01  0.19836577510E+03  0.00000000000E+00 0.  1.
         11    1    1    2    0    0  0.50656081283E+02  0.27162073246E+02 -0.29801571467E+02  0.64745273618E+02  0.00000000000E+00 0. -1.
</event>
<event>
 7    1  0.2612321E-009  0.1094700E+03  0.7561462E-02  0.1261555E+00
         -1   -1    0    0    0  501 -0.00000000000E+00  0.00000000000E+00  0.77137080991E+02  0.77137080991E+02  0.00000000000E+00 0.  1.
          1   -1    0    0  501    0  0.00000000000E+00 -0.00000000000E+00 -0.17861722916E+03  0.17861722916E+03  0.00000000000E+00 0. -1.
         25    2    1    2    0    0 -0.10801705143E+02  0.23201613469E+02 -0.16675870228E+02  0.12876318927E+03  0.12508749963E+03 0.  0.
          5    1    3    3  502    0  0.11357574041E+02  0.72480285042E+02 -0.99493919027E+01  0.74154224473E+02  0.41800000000E+01 0.  1.
         -5    1    3    3    0  502 -0.22159279184E+02 -0.49278671573E+02 -0.67264783252E+01  0.54608964801E+02  0.41800000000E+01 0.  1.
        -11    1    1    2    0    0 -0.10800569315E+02  0.31046801135E+02 -0.15427330194E+02  0.36311963251E+02  0.00000000000E+00 0. -1.
         11    1    1    2    0    0  0.21602274459E+02 -0.54248414604E+02 -0.69376947743E+02  0.90679157622E+02  0.00000000000E+00 0.  1.
</event>
<event>
 7    1  0.2612321E-009  0.1967011E+03  0.7561462E-02  0.1152553E+00
          2   -1    0    0  501    0  0.00000000000E+00  0.00000000000E+00  0.15980400430E+04  0.15980400430E+04  0.00000000000E+00 0. -1.
         -2   -1    0    0    0  501 -0.00000000000E+00 -0.00000000000E+00 -0.31064716085E+02  0.31064716085E+02  0.00000000000E+00 0.  1.
         25    2    1    2    0    0 -0.67814737436E+02  0.18186509097E+03  0.85062189413E+03  0.88140780638E+03  0.12509342293E+03 0.  0.
          5    1    3    3  502    0 -0.35512105084E+02  0.54352046734E+02  0.54207555328E+03  0.54596577956E+03  0.41800000000E+01 0.  1.
         -5    1    3    3    0  502 -0.32302632353E+02  0.12751304423E+03  0.30854634085E+03  0.33544202682E+03  0.41800000000E+01 0.  1.
        -11    1    1    2    0    0  0.43538047050E+02 -0.71344373237E+02  0.45926050574E+03  0.46680380597E+03  0.00000000000E+00 0.  1.
         11    1    1    2    0    0  0.24276690386E+02 -0.11052071773E+03  0.25709292705E+03  0.28089314673E+03  0.00000000000E+00 0. -1.
</event>
<event>
 7    1  0.2612321E-009  0.1567360E+03  0.7561462E-02  0.1192432E+00
          2   -1    0    0  501    0  0.00000000000E+00  0.00000000000E+00  0.87580724193E+02  0.87580724193E+02  0.00000000000E+00 0. -1.
         -2   -1    0    0    0  501 -0.00000000000E+00 -0.00000000000E+00 -0.31103537474E+03  0.31103537474E+03  0.00000000000E+00 0.  1.
         25    2    1    2    0    0  0.84874708199E+02  0.78566187984E+02 -0.68815305326E+02  0.18373412984E+03  0.12508525986E+03 0.  0.
          5    1    3    3  502    0  0.11539988900E+03  0.78076078735E+02 -0.59319617136E+02  0.15149025655E+03  0.41800000000E+01 0.  1.
         -5    1    3    3    0  502 -0.30525180805E+02  0.49010924926E+00 -0.94956881902E+01  0.32243873286E+02  0.41800000000E+01 0.  1.
        -11    1    1    2    0    0 -0.10216911105E+03 -0.63246039853E+02 -0.14840407980E+03  0.19095119720E+03  0.00000000000E+00 0.  1.
         11    1    1    2    0    0  0.17294402855E+02 -0.15320148130E+02 -0.62352654250E+01  0.23930771901E+02  0.00000000000E+00 0. -1.
</event>
<event>
 7    1  0.2612321E-009  0.2592769E+03  0.7561462E-02  0.1107578E+00
         -1   -1    0    0    0  501 -0.00000000000E+00  0.00000000000E+00  0.90147637235E+03  0.90147637235E+03  0.00000000000E+00 0.  1.
          1   -1    0    0  501    0  0.00000000000E+00 -0.00000000000E+00 -0.95035587576E+02  0.95035587576E+02  0.00000000000E+00 0. -1.
         25    2    1    2    0    0 -0.24036669013E+03 -0.67371262712E+02  0.59703920042E+03  0.65910334414E+03  0.12508548537E+03 0.  0.
          5    1    3    3  502    0 -0.24395713538E+03 -0.67747028210E+02  0.60109194655E+03  0.65225282241E+03  0.41800000000E+01 0. -1.
         -5    1    3    3    0  502  0.35904452520E+01  0.37576549771E+00 -0.40527461253E+01  0.68505217300E+01  0.41800000000E+01 0. -1.
        -11    1    1    2    0    0  0.21252750398E+03  0.32202751228E+02  0.14640596744E+03  0.26007626658E+03  0.00000000000E+00 0.  1.
         11    1    1    2    0    0  0.27839186150E+02  0.35168511484E+02  0.62995616909E+02  0.77332349216E+02  0.00000000000E+00 0. -1.
</event>
<event>
 7    1  0.2612321E-009  0.1160878E+03  0.7561462E-02  0.1249694E+00
         -1   -1    0    0    0  501 -0.00000000000E+00  0.00000000000E+00  0.33931993168E+02  0.33931993168E+02  0.00000000000E+00 0.  1.
          1   -1    0    0  501    0  0.00000000000E+00 -0.00000000000E+00 -0.53182275840E+03  0.53182275840E+03  0.00000000000E+00 0. -1.
         25    2    1    2    0    0 -0.57240942611E+02  0.36093088513E+02 -0.18462672513E+03  0.23305189825E+03  0.12508766166E+03 0.  0.
          5    1    3    3  502    0 -0.92813960381E+02  0.44221033092E+02 -0.15409298030E+03  0.18528909840E+03  0.41800000000E+01 0.  1.
         -5    1    3    3    0  502  0.35573017770E+02 -0.81279445794E+01 -0.30533744831E+02  0.47762799852E+02  0.41800000000E+01 0.  1.
        -11    1    1    2    0    0 -0.11468103420E+02  0.49798639857E+01 -0.38209860224E+01  0.13073498979E+02  0.00000000000E+00 0.  1.
         11    1    1    2    0    0  0.68709046031E+02 -0.41072952498E+02 -0.30944305409E+03  0.31962935434E+03  0.00000000000E+00 0. -1.
</event>
<event>
 7    1  0.2612321E-009  0.9703330E+02  0.7561462E-02  0.1286661E+00
          3   -1    0    0  501    0  0.00000000000E+00  0.00000000000E+00  0.22565965058E+03  0.22565965058E+03  0.00000000000E+00 0. -1.
         -3   -1    0    0    0  501 -0.00000000000E+00 -0.00000000000E+00 -0.12061876484E+03  0.12061876484E+03  0.00000000000E+00 0.  1.
         25    2    1    2    0    0  0.35061007743E+02  0.40444185569E+02 -0.61966776210E+02  0.14950307675E+03  0.12508509980E+03 0.  0.
          5    1    3    3  502    0  0.62881044019E+02 -0.74880432138E+01 -0.68690427143E+02  0.93519750156E+02  0.41800000000E+01 0. -1.
         -5    1    3    3    0  502 -0.27820036276E+02  0.47932228783E+02  0.67236509332E+01  0.55983326593E+02  0.41800000000E+01 0. -1.
        -11    1    1    2    0    0 -0.48508165273E+02 -0.37363903405E+02  0.17163085646E+03  0.18222583314E+03  0.00000000000E+00 0. -1.
         11    1    1    2    0    0  0.13447157530E+02 -0.30802821648E+01 -0.46231945040E+01  0.14549505534E+02  0.00000000000E+00 0.  1.
</event>
<event>
 7    1  0.2612321E-009  0.1298897E+03  0.7561462E-02  0.1227620E+00
         -1   -1    0    0    0  501 -0.00000000000E+00  0.00000000000E+00  0.85649412725E+03  0.85649412725E+03  0.00000000000E+00 0.  1.
          1   -1    0    0  501    0  0.00000000000E+00 -0.00000000000E+00 -0.25096662683E+02  0.25096662683E+02  0.00000000000E+00 0. -1.
         25    2    1    2    0    0 -0.58524820694E+02  0.75985054162E+02  0.51713516253E+03  0.54062495010E+03  0.12509067615E+03 0.  0.
          5    1    3    3  502    0  0.30689788474E+02  0.56352051965E+02  0.17357483356E+03  0.18510297707E+03  0.41800000000E+01 0.  1.
         -5    1    3    3    0  502 -0.89214609169E+02  0.19633002197E+02  0.34356032897E+03  0.35552197303E+03  0.41800000000E+01 0.  1.
        -11    1    1    2    0    0  0.49260319218E+02 -0.31226230103E+02  0.64103220099E+02  0.86665329417E+02  0.00000000000E+00 0.  1.
         11    1    1    2    0    0  0.92645014761E+01 -0.44758824059E+02  0.25015908194E+03  0.25430051041E+03  0.00000000000E+00 0. -1.
</event>
<event>
 7    1  0.2612321E-009  0.1047069E+03  0.7561462E-02  0.1270698E+00
          1   -1    0    0  501    0  0.00000000000E+00  0.00000000000E+00  0.82261790466E+03  0.82261790466E+03  0.00000000000E+00 0. -1.
         -1   -1    0    0    0  501 -0.00000000000E+00 -0.00000000000E+00 -0.17686462356E+02  0.17686462356E+02  0.00000000000E+00 0.  1.
         25    2    1    2    0    0  0.55915989421E+02  0.10826425355E+02  0.43125374418E+03  0.45262649367E+03  0.12508853482E+03 0.  0.
          5    1    3    3  502    0 -0.23947002012E+02 -0.46610272694E+01  0.27772937816E+03  0.27883017049E+03  0.41800000000E+01 0.  1.
         -5    1    3    3    0  502  0.79862991434E+02  0.15487452625E+02  0.15352436602E+03  0.17379632318E+03  0.41800000000E+01 0.  1.
        -11    1    1    2    0    0 -0.57295335486E+01  0.34865389369E+02  0.12290166992E+03  0.12787980059E+03  0.00000000000E+00 0. -1.
         11    1    1    2    0    0 -0.50186455873E+02 -0.45691814724E+02  0.25077602821E+03  0.25979807276E+03  0.00000000000E+00 0.  1.
</event>
<event>
 7    1  0.2612321E-009  0.1144452E+03  0.7561462E-02  0.1252553E+00
         -1   -1    0    0    0  501 -0.00000000000E+00  0.00000000000E+00  0.67266926311E+02  0.67266926311E+02  0.00000000000E+00 0.  1.
          1   -1    0    0  501    0  0.00000000000E+00 -0.00000000000E+00 -0.39035335669E+03  0.39035335669E+03  0.00000000000E+00 0. -1.
         25    2    1    2    0    0  0.44041030576E+02  0.32661684247E+02 -0.32293797512E+03  0.35062893495E+03  0.12508123865E+03 0.  0.
          5    1    3    3  502    0  0.52027416986E+02 -0.38316491618E+02 -0.14236779467E+03  0.15640034209E+03  0.41800000000E+01 0.  1.
         -5    1    3    3    0  502 -0.79863864106E+01  0.70978175865E+02 -0.18057018045E+03  0.19422859286E+03  0.41800000000E+01 0.  1.
        -11    1    1    2    0    0  0.21278973392E+02 -0.67932812915E+01 -0.24010306256E+02  0.32793874212E+02  0.00000000000E+00 0. -1.
         11    1    1    2    0    0 -0.65320003968E+02 -0.25868402956E+02  0.23861850999E+02  0.74197473831E+02  0.00000000000E+00 0.  1.
</event>
<event>
 7    1  0.2612321E-009  0.9736755E+02  0.7561462E-02  0.1285931E+00
          1   -1    0    0  501    0  0.00000000000E+00  0.00000000000E+00  0.26619582075E+03  0.26619582075E+03  0.00000000000E+00 0. -1.
         -1   -1    0    0    0  501 -0.00000000000E+00 -0.00000000000E+00 -0.49755555312E+02  0.49755555312E+02  0.00000000000E+00 0.  1.
         25    2    1    2    0    0 -0.23173019243E+02 -0.11277204920E+02  0.96965092645E+02  0.16035915608E+03  0.12509462649E+03 0.  0.
          5    1    3    3  502    0  0.49598944920E+02  0.39514257918E+01  0.57248269525E+02  0.75963845786E+02  0.41800000000E+01 0. -1.
         -5    1    3    3    0  502 -0.72771964163E+02 -0.15228630712E+02  0.39716823120E+02  0.84395310298E+02  0.41800000000E+01 0. -1.
        -11    1    1    2    0    0  0.41569740623E+02  0.23971904665E+02  0.17313864144E+02  0.51014365039E+02  0.00000000000E+00 0.  1.
         11    1    1    2    0    0 -0.18396721380E+02 -0.12694699745E+02  0.10216130865E+03  0.10457785494E+03  0.00000000000E+00 0. -1.
</event>
<event>
 7    1  0.2612321E-009  0.1667786E+03  0.7561462E-02  0.1181250E+00
         -2   -1    0    0    0  501 -0.00000000000E+00  0.00000000000E+00  0.19402835702E+02  0.19402835702E+02  0.00000000000E+00 0.  1.
          2   -1    0    0  501    0  0.00000000000E+00 -0.00000000000E+00 -0.16913039599E+04  0.16913039599E+04  0.00000000000E+00 0. -1.
         25    2    1    2    0    0 -0.14189331744E+03 -0.18196743505E+02 -0.10217213764E+04  0.10392433766E+04  0.12508952740E+03 0.  0.
          5    1    3    3  502    0 -0.92603427972E+02  0.33847188718E+02 -0.34846315086E+03  0.36216718096E+03  0.41800000000E+01 0.  1.
         -5    1    3    3    0  502 -0.49289889469E+02 -0.52043932223E+02 -0.67325822555E+03  0.67707619568E+03  0.41800000000E+01 0.  1.
        -11    1    1    2    0    0  0.13868371290E+02 -0.24467439224E+02 -0.63266966604E+02  0.69236524810E+02  0.00000000000E+00 0.  1.
         11    1    1    2    0    0  0.12802494615E+03  0.42664182729E+02 -0.58691278115E+03  0.60222689412E+03  0.00000000000E+00 0. -1.
</event>
<event>
 7    1  0.2612321E-009  0.8174891E+02  0.7561462E-02  0.1324160E+00
         -2   -1    0    0    0  501 -0.00000000000E+00  0.00000000000E+00  0.25435276753E+02  0.25435276753E+02  0.00000000000E+00 0.  1.
          2   -1    0    0  501    0  0.00000000000E+00 -0.00000000000E+00 -0.52229194970E+03  0.52229194970E+03  0.00000000000E+00 0. -1.
         25    2    1    2    0    0  0.42159799479E+01 -0.14932198696E+02 -0.36646446575E+03  0.38753461700E+03  0.12508449014E+03 0.  0.
          5    1    3    3  502    0  0.15218539261E+02 -0.67191163857E+02 -0.16035933129E+03  0.17458191192E+03  0.41800000000E+01 0.  1.
         -5    1    3    3    0  502 -0.11002559314E+02  0.52258965162E+02 -0.20610513446E+03  0.21295270509E+03  0.41800000000E+01 0.  1.
        -11    1    1    2    0    0 -0.88909969933E+01 -0.11235628890E+02  0.98927570258E+01  0.17411370585E+02  0.00000000000E+00 0.  1.
         11    1    1    2    0    0  0.46750170454E+01  0.26167827586E+02 -0.14028496423E+03  0.14278123887E+03  0.00000000000E+00 0. -1.
</event>
<event>
 7    1  0.2612321E-009  0.8815964E+02  0.7561462E-02  0.1307371E+00
         -1   -1    0    0    0  501 -0.00000000000E+00  0.00000000000E+00  0.10159570315E+03  0.10159570315E+03  0.00000000000E+00 0.  1.
          1   -1    0    0  501    0  0.00000000000E+00 -0.00000000000E+00 -0.19575249763E+03  0.19575249763E+03  0.00000000000E+00 0. -1.
         25    2    1    2    0    0 -0.62464472150E+02  0.60948646609E+02 -0.71417631163E+02  0.16842067659E+03  0.12509395851E+03 0.  0.
          5    1    3    3  502    0 -0.30440252494E+02  0.19114538731E+02 -0.10139649679E+03  0.10766009717E+03  0.41800000000E+01 0. -1.
         -5    1    3    3    0  502 -0.32024219656E+02  0.41834107878E+02  0.29978865623E+02  0.60760579413E+02  0.41800000000E+01 0. -1.
        -11    1    1    2    0    0  0.42440308462E+02 -0.42276481656E+02 -0.58606500923E+02  0.83804550199E+02  0.00000000000E+00 0. -1.
         11    1    1    2    0    0  0.20024163687E+02 -0.18672164953E+02  0.35867337606E+02  0.45122973997E+02  0.00000000000E+00 0.  1.
</event>
<event>
 7    1  0.2612321E-009  0.8588053E+02  0.7561462E-02  0.1313146E+00
         -1   -1    0    0    0  501 -0.00000000000E+00  0.00000000000E+00  0.24343563492E+03  0.24343563492E+03  0.00000000000E+00 0.  1.
          1   -1    0    0  501    0  0.00000000000E+00 -0.00000000000E+00 -0.59677200404E+02  0.59677200404E+02  0.00000000000E+00 0. -1.
         25    2    1    2    0    0  0.16868866737E+02 -0.54704818777E+02  0.11089380764E+03  0.17669752568E+03  0.12508958048E+03 0.  0.
          5    1    3    3  502    0 -0.19585388695E+02  0.60362371803E+01 -0.19273990311E+02  0.28442621401E+02  0.41800000000E+01 0. -1.
         -5    1    3    3    0  502  0.36454255432E+02 -0.60741055957E+02  0.13016779795E+03  0.14825490428E+03  0.41800000000E+01 0. -1.
        -11    1    1    2    0    0 -0.16435883739E+02  0.66285140770E+02  0.85397312646E+02  0.10934605237E+03  0.00000000000E+00 0.  1.
         11    1    1    2    0    0 -0.43298299771E+00 -0.11580321994E+02 -0.12532685766E+02  0.17069257285E+02  0.00000000000E+00 0. -1.
</event>
<event>
 7    1  0.2612321E-009  0.1594474E+03  0.7561462E-02  0.1189322E+00
         -2   -1    0    0    0  501 -0.00000000000E+00  0.00000000000E+00  0.45765065755E+02  0.45765065755E+02  0.00000000000E+00 0.  1.
          2   -1    0    0  501    0  0.00000000000E+00 -0.00000000000E+00 -0.83584880402E+03  0.83584880402E+03  0.00000000000E+00 0. -1.
         25    2    1    2    0    0 -0.36682874723E+02  0.14824906999E+03 -0.53946246625E+03  0.57444857003E+03  0.12509191448E+03 0.  0.
          5    1    3    3  502    0 -0.14210087025E+02  0.53528978502E+02 -0.40277281811E+03  0.40658417766E+03  0.41800000000E+01 0.  1.
         -5    1    3    3    0  502 -0.22472787698E+02  0.94720091488E+02 -0.13668964814E+03  0.16786439237E+03  0.41800000000E+01 0.  1.
        -11    1    1    2    0    0  0.49325662701E+02 -0.14456227929E+03 -0.25118752715E+03  0.29398375362E+03  0.00000000000E+00 0. -1.
         11    1    1    2    0    0 -0.12642787977E+02 -0.36867906992E+01  0.56625513283E+00  0.13181546130E+02  0.00000000000E+00 0.  1.
</event>
<event>
 7    1  0.2612321E-009  0.1408881E+03  0.7561462E-02  0.1212139E+00
          1   -1    0    0  501    0  0.00000000000E+00  0.00000000000E+00  0.21240780090E+03  0.21240780090E+03  0.00000000000E+00 0.  1.
         -1   -1    0    0    0  501 -0.00000000000E+00 -0.00000000000E+00 -0.10396311106E+03  0.10396311106E+03  0.00000000000E+00 0. -1.
         25    2    1    2    0    0 -0.93665624856E+02 -0.23052065124E+00  0.15986092436E+02  0.15708567976E+03  0.12508818175E+03 0.  0.
          5    1    3    3  502    0 -0.99311042052E+02  0.44602322689E+02  0.22483422083E+02  0.11124309835E+03  0.41800000000E+01 0.  1.
         -5    1    3    3    0  502  0.56454171965E+01 -0.44832843340E+02 -0.64973296469E+01  0.45842581404E+02  0.41800000000E+01 0.  1.
        -11    1    1    2    0    0  0.10358790923E+03  0.19841234733E+02  0.86786631787E+02  0.13658714797E+03  0.00000000000E+00 0. -1.
         11    1    1    2    0    0 -0.99222843747E+01 -0.19610714082E+02  0.56719656169E+01  0.22698084235E+02  0.00000000000E+00 0.  1.
</event>
<event>
 7    1  0.2612321E-009  0.1138318E+03  0.7561462E-02  0.1253634E+00
         -1   -1    0    0    0  501 -0.00000000000E+00  0.00000000000E+00  0.77156222374E+02  0.77156222374E+02  0.00000000000E+00 0.  1.
          1   -1    0    0  501    0  0.00000000000E+00 -0.00000000000E+00 -0.22014374309E+03  0.22014374309E+03  0.00000000000E+00 0. -1.
         25    2    1    2    0    0 -0.46206505470E+02  0.41485948461E+02 -0.25998645622E+02  0.14202807201E+03  0.12505966015E+03 0.  0.
          5    1    3    3  502    0  0.25691418686E+02 -0.18490289489E+02 -0.35593746477E+02  0.47815551736E+02  0.41800000000E+01 0. -1.
         -5    1    3    3    0  502 -0.71897924155E+02  0.59976237950E+02  0.95951008555E+01  0.94212520277E+02  0.41800000000E+01 0. -1.
        -11    1    1    2    0    0 -0.66878327780E+01 -0.48228853562E+02 -0.52769420095E+02  0.71800843452E+02  0.00000000000E+00 0.  1.
         11    1    1    2    0    0  0.52894338248E+02  0.67429051012E+01 -0.64219454998E+02  0.83471050000E+02  0.00000000000E+00 0. -1.
</event>
<event>
 7    1  0.2612321E-009  0.3947761E+03  0.7561462E-02  0.1045604E+00
         -2   -1    0    0    0  501 -0.00000000000E+00  0.00000000000E+00  0.14476666040E+04  0.14476666040E+04  0.00000000000E+00 0.  1.
          2   -1    0    0  501    0  0.00000000000E+00 -0.00000000000E+00 -0.11348817095E+03  0.11348817095E+03  0.00000000000E+00 0. -1.
         25    2    1    2    0    0  0.24601878307E+03  0.30211666125E+03  0.63339986549E+03  0.75408406750E+03  0.12509065765E+03 0.  0.
          5    1    3    3  502    0  0.20890879185E+02  0.31781175333E+02  0.12178103654E+02  0.40152839841E+02  0.41800000000E+01 0. -1.
         -5    1    3    3    0  502  0.22512790389E+03  0.27033548592E+03  0.62122176183E+03  0.71393122766E+03  0.41800000000E+01 0. -1.
        -11    1    1    2    0    0 -0.12188147063E+03 -0.21720802479E+03  0.41070899502E+03  0.48032936357E+03  0.00000000000E+00 0. -1.
         11    1    1    2    0    0 -0.12413731244E+03 -0.84908636454E+02  0.29006957250E+03  0.32674134384E+03  0.00000000000E+00 0.  1.
</event>
<event>
 7    1  0.2612321E-009  0.8886756E+02  0.7561462E-02  0.1305617E+00
          2   -1    0    0  501    0  0.00000000000E+00  0.00000000000E+00  0.45051936604E+03  0.45051936604E+03  0.00000000000E+00 0. -1.
         -2   -1    0    0    0  501 -0.00000000000E+00 -0.00000000000E+00 -0.27425058798E+02  0.27425058798E+02  0.00000000000E+00 0.  1.
         25    2    1    2    0    0  0.18214049481E+02  0.14024668650E+02  0.21503057860E+03  0.24982338225E+03  0.12508049272E+03 0.  0.
          5    1    3    3  502    0  0.64114175553E+02  0.18862264579E+02  0.17902091857E+03  0.19113444016E+03  0.41800000000E+01 0. -1.
         -5    1    3    3    0  502 -0.45900126072E+02 -0.48375959290E+01  0.36009660029E+02  0.58688942086E+02  0.41800000000E+01 0. -1.
        -11    1    1    2    0    0 -0.38806382181E+02 -0.19054934910E+02  0.20127064047E+03  0.20586135276E+03  0.00000000000E+00 0. -1.
         11    1    1    2    0    0  0.20592332699E+02  0.50302662608E+01  0.67930881782E+01  0.22259689837E+02  0.00000000000E+00 0.  1.
</event>
<event>
 7    1  0.2612321E-009  0.1834988E+03  0.7561462E-02  0.1164459E+00
          1   -1    0    0  501    0  0.00000000000E+00  0.00000000000E+00  0.95233044071E+03  0.95233044071E+03  0.00000000000E+00 0. -1.
         -1   -1    0    0    0  501 -0.00000000000E+00 -0.00000000000E+00 -0.45569829536E+02  0.45569829536E+02  0.00000000000E+00 0.  1.
         25    2    1    2    0    0  0.93895186621E+02  0.13888339125E+03  0.32456320410E+03  0.38612660814E+03  0.12509029388E+03 0.  0.
          5    1    3    3  502    0  0.22960648463E+02 -0.12142388943E-01 -0.27815357725E+01  0.23503209707E+02  0.41800000000E+01 0. -1.
         -5    1    3    3    0  502  0.70934538158E+02  0.13889553364E+03  0.32734473987E+03  0.36262339843E+03  0.41800000000E+01 0.  1.
        -11    1    1    2    0    0 -0.72344992398E+01 -0.85614798213E+02  0.25017339942E+03  0.26451646722E+03  0.00000000000E+00 0. -1.
         11    1    1    2    0    0 -0.86660687381E+02 -0.53268593041E+02  0.33202400765E+03  0.34725719488E+03  0.00000000000E+00 0.  1.
</event>
<event>
 7    1  0.2612321E-009  0.1035180E+03  0.7561462E-02  0.1273067E+00
          2   -1    0    0  501    0  0.00000000000E+00  0.00000000000E+00  0.84632052839E+03  0.84632052839E+03  0.00000000000E+00 0. -1.
         -2   -1    0    0    0  501 -0.00000000000E+00 -0.00000000000E+00 -0.21781271923E+02  0.21781271923E+02  0.00000000000E+00 0.  1.
         25    2    1    2    0    0 -0.62542379009E+02  0.64433678479E+01  0.63274959820E+03  0.64805329569E+03  0.12509178180E+03 0.  0.
          5    1    3    3  502    0 -0.41597670934E+02  0.41845044821E+02  0.56902455587E+03  0.57209071971E+03  0.41800000000E+01 0.  1.
         -5    1    3    3    0  502 -0.20944708075E+02 -0.35401676973E+02  0.63725042334E+02  0.75962575979E+02  0.41800000000E+01 0.  1.
        -11    1    1    2    0    0 -0.46223783675E+01 -0.33728815007E+02  0.45985960286E+02  0.57216325354E+02  0.00000000000E+00 0. -1.
         11    1    1    2    0    0  0.67164757377E+02  0.27285447159E+02  0.14580369798E+03  0.16283217926E+03  0.00000000000E+00 0.  1.
</event>
<event>
 7    1  0.2612321E-009  0.1225965E+03  0.7561462E-02  0.1238874E+00
          3   -1    0    0  501    0  0.00000000000E+00  0.00000000000E+00  0.15965731325E+02  0.15965731325E+02  0.00000000000E+00 0. -1.
         -3   -1    0    0    0  501 -0.00000000000E+00 -0.00000000000E+00 -0.14044259583E+04  0.14044259583E+04  0.00000000000E+00 0.  1.
         25    2    1    2    0    0 -0.70126370275E+02  0.12352410205E+02 -0.11128829943E+04  0.11221522905E+04  0.12508762587E+03 0.  0.
          5    1    3    3  502    0 -0.97767036843E+02  0.36537931773E+02 -0.72056909066E+03  0.72810074905E+03  0.41800000000E+01 0. -1.
         -5    1    3    3    0  502  0.27640666568E+02 -0.24185521567E+02 -0.39231390368E+03  0.39405154146E+03  0.41800000000E+01 0. -1.
        -11    1    1    2    0    0 -0.16321816054E+02  0.74111047539E+00 -0.11277353812E+02  0.19852698382E+02  0.00000000000E+00 0. -1.
         11    1    1    2    0    0  0.86448186329E+02 -0.13093520681E+02 -0.26429987884E+03  0.27838670076E+03  0.00000000000E+00 0.  1.
</event>
<event>
 7    1  0.2612321E-009  0.1215014E+03  0.7561462E-02  0.1240641E+00
          3   -1    0    0  501    0  0.00000000000E+00  0.00000000000E+00  0.18057064322E+03  0.18057064322E+03  0.00000000000E+00 0. -1.
         -3   -1    0    0    0  501 -0.00000000000E+00 -0.00000000000E+00 -0.93092191239E+02  0.93092191239E+02  0.00000000000E+00 0.  1.
         25    2    1    2    0    0 -0.47769113185E+02 -0.47330902798E+02  0.22731379973E+02  0.14382473111E+03  0.12508691022E+03 0.  0.
          5    1    3    3  502    0 -0.36141177110E+02 -0.89208882096E+02  0.43215042812E+01  0.96439396135E+02  0.41800000000E+01 0. -1.
         -5    1    3    3    0  502 -0.11627936075E+02  0.41877979298E+02  0.18409875691E+02  0.47385334972E+02  0.41800000000E+01 0. -1.
        -11    1    1    2    0    0  0.49130540679E+02 -0.61367680654E+01  0.57475474256E+02  0.75861057801E+02  0.00000000000E+00 0.  1.
         11    1    1    2    0    0 -0.13614274937E+01  0.53467670863E+02  0.72715977513E+01  0.53977045549E+02  0.00000000000E+00 0. -1.
</event>
<event>
 7    1  0.2612321E-009  0.8077437E+02  0.7561462E-02  0.1326868E+00
         -1   -1    0    0    0  501 -0.00000000000E+00  0.00000000000E+00  0.91467027501E+02  0.91467027501E+02  0.00000000000E+00 0.  1.
          1   -1    0    0  501    0  0.00000000000E+00 -0.00000000000E+00 -0.14201957200E+03  0.14201957200E+03  0.00000000000E+00 0. -1.
         25    2    1    2    0    0  0.12031521122E+02  0.12313710786E+02 -0.57724394506E+02  0.13884215449E+03  0.12509457689E+03 0.  0.
          5    1    3    3  502    0 -0.53251805577E+02  0.25475329234E+02 -0.21868136638E+02  0.63090688669E+02  0.41800000000E+01 0.  1.
         -5    1    3    3    0  502  0.65283326699E+02 -0.13161618447E+02 -0.35856257868E+02  0.75751465816E+02  0.41800000000E+01 0.  1.
        -11    1    1    2    0    0 -0.14467315356E+02  0.70718815621E+01 -0.40251951066E+02  0.43353596011E+02  0.00000000000E+00 0. -1.
         11    1    1    2    0    0  0.24357942333E+01 -0.19385592348E+02  0.47423801069E+02  0.51290849009E+02  0.00000000000E+00 0.  1.
</event>
<event>
 7    1  0.2612321E-009  0.9281346E+02  0.7561462E-02  0.1296178E+00
          1   -1    0    0  501    0  0.00000000000E+00  0.00000000000E+00  0.53034740360E+03  0.53034740360E+03  0.00000000000E+00 0. -1.
         -1   -1    0    0    0  501 -0.00000000000E+00 -0.00000000000E+00 -0.30145204698E+02  0.30145204698E+02  0.00000000000E+00 0.  1.
         25    2    1    2    0    0  0.74571507882E+02 -0.44441174905E+01  0.36371842101E+03  0.39181620620E+03  0.12509272438E+03 0.  0.
          5    1    3    3  502    0  0.39985589407E+02  0.24652529874E+02  0.31965268164E+02  0.56972320983E+02  0.41800000000E+01 0.  1.
         -5    1    3    3    0  502  0.34585918475E+02 -0.29096647365E+02  0.33175315285E+03  0.33484388522E+03  0.41800000000E+01 0.  1.
        -11    1    1    2    0    0 -0.61066219981E+02 -0.20746469348E+02  0.64441719647E+02  0.91171456302E+02  0.00000000000E+00 0.  1.
         11    1    1    2    0    0 -0.13505287901E+02  0.25190586838E+02  0.72042058247E+02  0.77504945797E+02  0.00000000000E+00 0. -1.
</event>
<event>
 7    1  0.2612321E-009  0.2511603E+03  0.7561462E-02  0.1112574E+00
          2   -1    0    0  501    0  0.00000000000E+00  0.00000000000E+00  0.12717268313E+03  0.12717268313E+03  0.00000000000E+00 0. -1.
         -2   -1    0    0    0  501 -0.00000000000E+00 -0.00000000000E+00 -0.51378424855E+03  0.51378424855E+03  0.00000000000E+00 0.  1.
         25    2    1    2    0    0  0.16844201066E+03 -0.15335474592E+03 -0.24745744713E+03  0.35884946684E+03  0.12508941865E+03 0.  0.
          5    1    3    3  502    0 -0.20048252172E+02 -0.21908158583E+02 -0.26233467944E+02  0.39844285262E+02  0.41800000000E+01 0. -1.
         -5    1    3    3    0  502  0.18849026284E+03 -0.13144658734E+03 -0.22122397919E+03  0.31900518158E+03  0.41800000000E+01 0. -1.
        -11    1    1    2    0    0 -0.39307629508E+02  0.90934446832E+02 -0.78424771977E+02  0.12635113066E+03  0.00000000000E+00 0.  1.
         11    1    1    2    0    0 -0.12913438116E+03  0.62420299092E+02 -0.60729346305E+02  0.15575633418E+03  0.00000000000E+00 0. -1.
</event>
<event>
 7    1  0.2612321E-009  0.2459337E+03  0.7561462E-02  0.1115902E+00
         -1   -1    0    0    0  501 -0.00000000000E+00  0.00000000000E+00  0.10380974567E+04  0.10380974567E+04  0.00000000000E+00 0.  1.
          1   -1    0    0  501    0  0.00000000000E+00 -0.00000000000E+00 -0.62662111394E+02  0.62662111394E+02  0.00000000000E+00 0. -1.
         25    2    1    2    0    0  0.18196956500E+03  0.13880751590E+03  0.50350056794E+03  0.56704549187E+03  0.12508924365E+03 0.  0.
          5    1    3    3  502    0  0.48274990613E+02  0.10435738694E+03  0.16229348515E+03  0.19894116379E+03  0.41800000000E+01 0. -1.
         -5    1    3    3    0  502  0.13369457439E+03  0.34450128962E+02  0.34120708279E+03  0.36810432808E+03  0.41800000000E+01 0. -1.
        -11    1    1    2    0    0 -0.71033242899E+02 -0.15287392466E+02  0.22262321791E+03  0.23418053531E+03  0.00000000000E+00 0. -1.
         11    1    1    2    0    0 -0.11093632210E+03 -0.12352012343E+03  0.24931155944E+03  0.29953354090E+03  0.00000000000E+00 0.  1.
</event>
<event>
 7    1  0.2612321E-009  0.1138268E+03  0.7561462E-02  0.1253643E+00
          2   -1    0    0  501    0  0.00000000000E+00  0.00000000000E+00  0.13480973215E+04  0.13480973215E+04  0.00000000000E+00 0. -1.
         -2   -1    0    0    0  501 -0.00000000000E+00 -0.00000000000E+00 -0.23178202756E+02  0.23178202756E+02  0.00000000000E+00 0.  1.
         25    2    1    2    0    0  0.57457544619E+02  0.89696494766E+02  0.10592166450E+04  0.10718833759E+04  0.12508892788E+03 0.  0.
          5    1    3    3  502    0  0.23957926638E+02  0.82521403840E+01  0.74743723052E+03  0.74787830965E+03  0.41800000000E+01 0. -1.
         -5    1    3    3    0  502  0.33499617981E+02  0.81444354382E+02  0.31177941447E+03  0.32400506625E+03  0.41800000000E+01 0. -1.
        -11    1    1    2    0    0  0.58583068643E+01 -0.13646627872E+02 -0.10382205597E+01  0.14887179502E+02  0.00000000000E+00 0.  1.
         11    1    1    2    0    0 -0.63315851484E+02 -0.76049866894E+02  0.26674069428E+03  0.28450496883E+03  0.00000000000E+00 0. -1.
</event>
<event>
 7    1  0.2612321E-009  0.1162094E+03  0.7561462E-02  0.1249485E+00
         -3   -1    0    0    0  501 -0.00000000000E+00  0.00000000000E+00  0.22425619038E+03  0.22425619038E+03  0.00000000000E+00 0.  1.
          3   -1    0    0  501    0  0.00000000000E+00 -0.00000000000E+00 -0.10274959291E+03  0.10274959291E+03  0.00000000000E+00 0. -1.
         25    2    1    2    0    0  0.51405507176E+01 -0.74206100029E+02  0.14653891770E+03  0.20652274869E+03  0.12508005749E+03 0.  0.
          5    1    3    3  502    0 -0.39125483386E+02 -0.56860791499E+02  0.14278688117E+03  0.15864904316E+03  0.41800000000E+01 0. -1.
         -5    1    3    3    0  502  0.44266034104E+02 -0.17345308530E+02  0.37520365305E+01  0.47873705533E+02  0.41800000000E+01 0. -1.
        -11    1    1    2    0    0  0.38445167912E+02  0.13364299725E+02  0.23968892429E+01  0.40772300904E+02  0.00000000000E+00 0. -1.
         11    1    1    2    0    0 -0.43585718630E+02  0.60841800304E+02 -0.27429209474E+02  0.79710733688E+02  0.00000000000E+00 0.  1.
</event>
<event>
 7    1  0.2612321E-009  0.9504219E+02  0.7561462E-02  0.1291081E+00
          2   -1    0    0  501    0  0.00000000000E+00  0.00000000000E+00  0.79600070270E+03  0.79600070270E+03  0.00000000000E+00 0. -1.
         -2   -1    0    0    0  501 -0.00000000000E+00 -0.00000000000E+00 -0.24376104398E+02  0.24376104398E+02  0.00000000000E+00 0.  1.
         25    2    1    2    0    0  0.49308301187E+02 -0.61254307111E+01  0.62505326506E+03  0.63938096496E+03  0.12509038623E+03 0.  0.
          5    1    3    3  502    0 -0.17551371495E+02 -0.20090315088E+02  0.29827694382E+02  0.40234750574E+02  0.41800000000E+01 0. -1.
         -5    1    3    3    0  502  0.66859672681E+02  0.13964884377E+02  0.59522557067E+03  0.59914621438E+03  0.41800000000E+01 0. -1.
        -11    1    1    2    0    0 -0.48823060102E+02  0.38559598664E+02  0.13098233464E+03  0.14500657169E+03  0.00000000000E+00 0. -1.
         11    1    1    2    0    0 -0.48524108508E+00 -0.32434167953E+02  0.15588998611E+02  0.35989270449E+02  0.00000000000E+00 0.  1.
</event>
<event>
 7    1  0.2612321E-009  0.1258752E+03  0.7561462E-02  0.1233708E+00
          2   -1    0    0  501    0  0.00000000000E+00  0.00000000000E+00  0.13350085872E+03  0.13350085872E+03  0.00000000000E+00 0. -1.
         -2   -1    0    0    0  501 -0.00000000000E+00 -0.00000000000E+00 -0.21247960541E+03  0.21247960541E+03  0.00000000000E+00 0.  1.
         25    2    1    2    0    0  0.83388603307E+02  0.15816341871E+02 -0.14081904379E+03  0.20660270912E+03  0.12510339920E+03 0.  0.
          5    1    3    3  502    0  0.32495897264E+02 -0.47353662718E+02 -0.10071398360E+03  0.11601349751E+03  0.41800000000E+01 0.  1.
         -5    1    3    3    0  502  0.50892706044E+02  0.63170004589E+02 -0.40105060184E+02  0.90589211612E+02  0.41800000000E+01 0.  1.
        -11    1    1    2    0    0 -0.21897563571E+02 -0.41007781070E+02 -0.29329443161E+01  0.46580506234E+02  0.00000000000E+00 0.  1.
         11    1    1    2    0    0 -0.61491039737E+02  0.25191439199E+02  0.64773241415E+02  0.92797248775E+02  0.00000000000E+00 0. -1.
</event>
<event>
 7    1  0.2612321E-009  0.9066716E+02  0.7561462E-02  0.1301244E+00
         -2   -1    0    0    0  501 -0.00000000000E+00  0.00000000000E+00  0.34312205974E+02  0.34312205974E+02  0.00000000000E+00 0.  1.
          2   -1    0    0  501    0  0.00000000000E+00 -0.00000000000E+00 -0.56286035575E+03  0.56286035575E+03  0.00000000000E+00 0. -1.
         25    2    1    2    0    0  0.30651476769E+02 -0.66831075075E+02 -0.38474667065E+03  0.41119698229E+03  0.12508817707E+03 0.  0.
          5    1    3    3  502    0  0.45633923673E+02 -0.77899508258E+01 -0.40724442303E+02  0.61798793877E+02  0.41800000000E+01 0.  1.
         -5    1    3    3    0  502 -0.14982446904E+02 -0.59041124249E+02 -0.34402222835E+03  0.34939818841E+03  0.41800000000E+01 0.  1.
        -11    1    1    2    0    0 -0.83344693617E+01  0.25463271079E+02 -0.13564964578E+03  0.13827027141E+03  0.00000000000E+00 0. -1.
         11    1    1    2    0    0 -0.22317007407E+02  0.41367803997E+02 -0.81518333392E+01  0.47705308027E+02  0.00000000000E+00 0.  1.
</event>
<event>
 7    1  0.2612321E-009  0.1000683E+03  0.7561462E-02  0.1280152E+00
          3   -1    0    0  501    0  0.00000000000E+00  0.00000000000E+00  0.98122473108E+02  0.98122473108E+02  0.00000000000E+00 0. -1.
         -3   -1    0    0    0  501 -0.00000000000E+00 -0.00000000000E+00 -0.22433054960E+03  0.22433054960E+03  0.00000000000E+00 0.  1.
         25    2    1    2    0    0  0.12979080600E+02 -0.54930588935E+02  0.22557096853E+02  0.13907625609E+03  0.12509019248E+03 0.  0.
          5    1    3    3  502    0  0.14855220551E+02 -0.77515534087E+02 -0.27730062973E+02  0.83760159950E+02  0.41800000000E+01 0.  1.
         -5    1    3    3    0  502 -0.18761399509E+01  0.22584945152E+02  0.50287159826E+02  0.55316096139E+02  0.41800000000E+01 0.  1.
        -11    1    1    2    0    0  0.23936053780E+02 -0.78797953168E+01 -0.10922491394E+02  0.27465007975E+02  0.00000000000E+00 0. -1.
         11    1    1    2    0    0 -0.36915134380E+02  0.62810384251E+02 -0.13784268195E+03  0.15591175864E+03  0.00000000000E+00 0.  1.
</event>
<event>
 7    1  0.2612321E-009  0.1256113E+03  0.7561462E-02  0.1234117E+00
          2   -1    0    0  501    0  0.00000000000E+00  0.00000000000E+00  0.38573085781E+02  0.38573085781E+02  0.00000000000E+00 0.  1.
         -2   -1    0    0    0  501 -0.00000000000E+00 -0.00000000000E+00 -0.46427756631E+03  0.46427756631E+03  0.00000000000E+00 0. -1.
         25    2    1    2    0    0  0.76567128572E+02  0.79466012592E+01 -0.27079239904E+03  0.30806077541E+03  0.12508894565E+03 0.  0.
          5    1    3    3  502    0  0.87181790685E+02 -0.33819838667E+02 -0.23104473549E+03  0.24928615748E+03  0.41800000000E+01 0. -1.
         -5    1    3    3    0  502 -0.10614662113E+02  0.41766439926E+02 -0.39747663549E+02  0.58774617935E+02  0.41800000000E+01 0. -1.
        -11    1    1    2    0    0 -0.89176858528E+02  0.12751945870E+02 -0.13953055507E+03  0.16608401494E+03  0.00000000000E+00 0. -1.
         11    1    1    2    0    0  0.12609729956E+02 -0.20698547129E+02 -0.15381526416E+02  0.28705861731E+02  0.00000000000E+00 0.  1.
</event>
<event>
 7    1  0.2612321E-009  0.1669374E+03  0.7561462E-02  0.1181080E+00
          1   -1    0    0  501    0  0.00000000000E+00  0.00000000000E+00  0.26406270481E+03  0.26406270481E+03  0.00000000000E+00 0. -1.
         -1   -1    0    0    0  501 -0.00000000000E+00 -0.00000000000E+00 -0.15669419296E+03  0.15669419296E+03  0.00000000000E+00 0.  1.
         25    2    1    2    0    0  0.85131674842E+02 -0.13013233046E+03 -0.17116135152E+02  0.20030731094E+03  0.12509289045E+03 0.  0.
          5    1    3    3  502    0 -0.85512427030E+01 -0.41491352270E+02 -0.51450797148E+02  0.66778087664E+02  0.41800000000E+01 0.  1.
         -5    1    3    3    0  502  0.93682917545E+02 -0.88640978191E+02  0.34334661995E+02  0.13352922328E+03  0.41800000000E+01 0.  1.
        -11    1    1    2    0    0 -0.82547691476E+02  0.90278422073E+02  0.42933203353E+02  0.12964403114E+03  0.00000000000E+00 0.  1.
         11    1    1    2    0    0 -0.25839833659E+01  0.39853908389E+02  0.81551443650E+02  0.90805555696E+02  0.00000000000E+00 0. -1.
</event>
<event>
 7    1  0.2612321E-009  0.2166885E+03  0.7561462E-02  0.1136376E+00
          1   -1    0    0  501    0  0.00000000000E+00  0.00000000000E+00  0.15246925319E+03  0.15246925319E+03  0.00000000000E+00 0. -1.
         -1   -1    0    0    0  501 -0.00000000000E+00 -0.00000000000E+00 -0.34061952329E+03  0.34061952329E+03  0.00000000000E+00 0.  1.
         25    2    1    2    0    0  0.16215637189E+03 -0.11289955178E+03 -0.63905944760E+02  0.24242584530E+03  0.12508126541E+03 0.  0.
          5    1    3    3  502    0  0.17683188263E+03 -0.75225727922E+02 -0.61064530732E+02  0.20167988043E+03  0.41800000000E+01 0. -1.
         -5    1    3    3    0  502 -0.14675510742E+02 -0.37673823855E+02 -0.28414140287E+01  0.40745964868E+02  0.41800000000E+01 0. -1.
        -11    1    1    2    0    0 -0.89887262757E+02  0.82865575723E+02 -0.12148697726E+03  0.17235286273E+03  0.00000000000E+00 0.  1.
         11    1    1    2    0    0 -0.72269109135E+02  0.30033976054E+02 -0.27573480878E+01  0.78310068454E+02  0.00000000000E+00 0. -1.
</event>
<event>
 7    1  0.3156849E-009  0.2076101E+03  0.7561462E-02  0.1143473E+00
         -2   -1    0    0    0  501 -0.00000000000E+00  0.00000000000E+00  0.11361473579E+03  0.11361473579E+03  0.00000000000E+00 0.  1.
          2   -1    0    0  501    0  0.00000000000E+00 -0.00000000000E+00 -0.41768787818E+03  0.41768787818E+03  0.00000000000E+00 0. -1.
         25    2    1    2    0    0 -0.18529978118E+03 -0.30090232615E+02 -0.17800361609E+03  0.28735729493E+03  0.12508995406E+03 0.  0.
          5    1    3    3  502    0 -0.14010613240E+03 -0.73087637003E+02 -0.15308504981E+03  0.22005462025E+03  0.41800000000E+01 0.  1.
         -5    1    3    3    0  502 -0.45193648782E+02  0.42997404388E+02 -0.24918566280E+02  0.67302674685E+02  0.41800000000E+01 0.  1.
        -11    1    1    2    0    0  0.67189128110E+02  0.36261518234E+02 -0.79020903407E+01  0.76757538213E+02  0.00000000000E+00 0.  1.
         11    1    1    2    0    0  0.11811065307E+03 -0.61712856191E+01 -0.11816743596E+03  0.16718778082E+03  0.00000000000E+00 0. -1.
</event>
<event>
 7    1  0.2612321E-009  0.1123207E+03  0.7561462E-02  0.1256332E+00
          2   -1    0    0  501    0  0.00000000000E+00  0.00000000000E+00  0.28486045262E+03  0.28486045262E+03  0.00000000000E+00 0. -1.
         -2   -1    0    0    0  501 -0.00000000000E+00 -0.00000000000E+00 -0.65180638120E+02  0.65180638120E+02  0.00000000000E+00 0.  1.
         25    2    1    2    0    0  0.14610100886E+02 -0.27537249054E+02  0.22581170021E+02  0.13088145444E+03  0.12509312828E+03 0.  0.
          5    1    3    3  502    0  0.68763325294E+02 -0.28475662200E+02  0.11210178972E+02  0.75381687138E+02  0.41800000000E+01 0. -1.
         -5    1    3    3    0  502 -0.54153224408E+02  0.93841314582E+00  0.11370991048E+02  0.55499767301E+02  0.41800000000E+01 0. -1.
        -11    1    1    2    0    0 -0.50757167366E+02  0.30980127365E+02  0.11881450765E+03  0.13286438785E+03  0.00000000000E+00 0. -1.
         11    1    1    2    0    0  0.36147066480E+02 -0.34428783111E+01  0.78284136832E+02  0.86295248453E+02  0.00000000000E+00 0.  1.
</event>
<event>
 7    1  0.2612321E-009  0.6556787E+02  0.7561462E-02  0.1375848E+00
          2   -1    0    0  501    0  0.00000000000E+00  0.00000000000E+00  0.91571557638E+02  0.91571557638E+02  0.00000000000E+00 0.  1.
         -2   -1    0    0    0  501 -0.00000000000E+00 -0.00000000000E+00 -0.13348879045E+03  0.13348879045E+03  0.00000000000E+00 0. -1.
         25    2    1    2    0    0 -0.17012429713E+01  0.23450205161E+02 -0.30438326167E+02  0.13087184581E+03  0.12509253366E+03 0.  0.
          5    1    3    3  502    0 -0.34979968528E+02 -0.54250881749E+01  0.36246997243E+02  0.50836473020E+02  0.41800000000E+01 0.  1.
         -5    1    3    3    0  502  0.33278725557E+02  0.28875293335E+02 -0.66685323410E+02  0.80035372794E+02  0.41800000000E+01 0.  1.
        -11    1    1    2    0    0  0.11281166816E+02  0.10831368769E+02 -0.43552228930E+02  0.46275046395E+02  0.00000000000E+00 0. -1.
         11    1    1    2    0    0 -0.95799238442E+01 -0.34281573930E+02  0.32073322285E+02  0.47913455880E+02  0.00000000000E+00 0.  1.
</event>
<event>
 7    1  0.2612321E-009  0.8528332E+02  0.7561462E-02  0.1314693E+00
         -2   -1    0    0    0  501 -0.00000000000E+00  0.00000000000E+00  0.16842044455E+02  0.16842044455E+02  0.00000000000E+00 0.  1.
          2   -1    0    0  501    0  0.00000000000E+00 -0.00000000000E+00 -0.87559528865E+03  0.87559528865E+03  0.00000000000E+00 0. -1.
         25    2    1    2    0    0 -0.50909103931E+02 -0.10370383651E+02 -0.44992595766E+03  0.46987390860E+03  0.12509532722E+03 0.  0.
          5    1    3    3  502    0 -0.29416979224E+02  0.12373907695E+02 -0.18160980614E+02  0.36956269769E+02  0.41800000000E+01 0. -1.
         -5    1    3    3    0  502 -0.21492124706E+02 -0.22744291346E+02 -0.43176497704E+03  0.43291763884E+03  0.41800000000E+01 0. -1.
        -11    1    1    2    0    0 -0.43251028245E+01 -0.35039745143E+02 -0.14156435749E+03  0.14590050571E+03  0.00000000000E+00 0.  1.
         11    1    1    2    0    0  0.55234206755E+02  0.45410128794E+02 -0.26726292904E+03  0.27666291879E+03  0.00000000000E+00 0. -1.
</event>
<event>
 7    1  0.2612321E-009  0.8996531E+02  0.7561462E-02  0.1302936E+00
         -4   -1    0    0    0  501 -0.00000000000E+00  0.00000000000E+00  0.62457775440E+02  0.62457775440E+02  0.00000000000E+00 0.  1.
          4   -1    0    0  501    0  0.00000000000E+00 -0.00000000000E+00 -0.21172604606E+03  0.21172604606E+03  0.00000000000E+00 0. -1.
         25    2    1    2    0    0  0.33305356461E+02  0.13051026300E+02 -0.97042096610E+02  0.16230982388E+03  0.12509090437E+03 0.  0.
          5    1    3    3  502    0 -0.16728260873E+02  0.50887789544E+02 -0.81384477633E+02  0.97520805145E+02  0.41800000000E+01 0. -1.
         -5    1    3    3    0  502  0.50033617334E+02 -0.37836763244E+02 -0.15657618977E+02  0.64789018732E+02  0.41800000000E+01 0. -1.
        -11    1    1    2    0    0 -0.14284246765E+02  0.20369068766E+02  0.18748235854E+02  0.31151805978E+02  0.00000000000E+00 0.  1.
         11    1    1    2    0    0 -0.19021109696E+02 -0.33420095065E+02 -0.70974409863E+02  0.80722191643E+02  0.00000000000E+00 0. -1.
</event>
<event>
 7    1  0.2612321E-009  0.3668299E+03  0.7561462E-02  0.1055912E+00
          2   -1    0    0  501    0  0.00000000000E+00  0.00000000000E+00  0.88644252348E+03  0.88644252348E+03  0.00000000000E+00 0. -1.
         -2   -1    0    0    0  501 -0.00000000000E+00 -0.00000000000E+00 -0.15886723734E+03  0.15886723734E+03  0.00000000000E+00 0.  1.
         25    2    1    2    0    0  0.69885814968E+02  0.35111757399E+03  0.35365936764E+03  0.51854649722E+03  0.12509174059E+03 0.  0.
          5    1    3    3  502    0  0.36996098964E+02  0.67254002042E+02  0.20414489510E+02  0.79536381054E+02  0.41800000000E+01 0.  1.
         -5    1    3    3    0  502  0.32889716004E+02  0.28386357195E+03  0.33324487813E+03  0.43901011617E+03  0.41800000000E+01 0.  1.
        -11    1    1    2    0    0 -0.93904854506E+02 -0.30296283103E+03  0.31694783582E+03  0.44839773563E+03  0.00000000000E+00 0.  1.
         11    1    1    2    0    0  0.24019039538E+02 -0.48154742954E+02  0.56968082684E+02  0.78365527970E+02  0.00000000000E+00 0. -1.
</event>
<event>
 7    1  0.2612321E-009  0.2025040E+03  0.7561462E-02  0.1147643E+00
         -1   -1    0    0    0  501 -0.00000000000E+00  0.00000000000E+00  0.14302088572E+03  0.14302088572E+03  0.00000000000E+00 0.  1.
          1   -1    0    0  501    0  0.00000000000E+00 -0.00000000000E+00 -0.31967555553E+03  0.31967555553E+03  0.00000000000E+00 0. -1.
         25    2    1    2    0    0 -0.13091140754E+03 -0.12255881434E+03 -0.13715207583E+03  0.25810567152E+03  0.12509750664E+03 0.  0.
          5    1    3    3  502    0 -0.44847727146E+02  0.16222296477E+02 -0.52783141197E+01  0.48164453003E+02  0.41800000000E+01 0. -1.
         -5    1    3    3    0  502 -0.86063680390E+02 -0.13878111082E+03 -0.13187376171E+03  0.20994121851E+03  0.41800000000E+01 0. -1.
        -11    1    1    2    0    0  0.94157455353E+01  0.52898917504E+02 -0.35663889867E+02  0.64489260947E+02  0.00000000000E+00 0. -1.
         11    1    1    2    0    0  0.12149566200E+03  0.69659896838E+02 -0.38387041104E+01  0.14010150878E+03  0.00000000000E+00 0.  1.
</event>
<event>
 7    1  0.2612321E-009  0.1448538E+03  0.7561462E-02  0.1206943E+00
          1   -1    0    0  501    0  0.00000000000E+00  0.00000000000E+00  0.19011717292E+03  0.19011717292E+03  0.00000000000E+00 0. -1.
         -1   -1    0    0    0  501 -0.00000000000E+00 -0.00000000000E+00 -0.17280007212E+03  0.17280007212E+03  0.00000000000E+00 0.  1.
         25    2    1    2    0    0 -0.22202060096E+02  0.11553307696E+03 -0.75294222265E+02  0.18750368694E+03  0.12509032483E+03 0.  0.
          5    1    3    3  502    0 -0.67282717625E+02  0.39966078180E+02 -0.58573017883E+02  0.97839267781E+02  0.41800000000E+01 0.  1.
         -5    1    3    3    0  502  0.45080657529E+02  0.75566998778E+02 -0.16721204382E+02  0.89664419161E+02  0.41800000000E+01 0.  1.
        -11    1    1    2    0    0 -0.72578963804E+01 -0.59503224470E+02 -0.38145370995E+01  0.60065476569E+02  0.00000000000E+00 0.  1.
         11    1    1    2    0    0  0.29459956476E+02 -0.56029852488E+02  0.96425860161E+02  0.11534808153E+03  0.00000000000E+00 0. -1.
</event>
<event>
 7    1  0.2612321E-009  0.2437787E+03  0.7561462E-02  0.1117301E+00
         -1   -1    0    0    0  501 -0.00000000000E+00  0.00000000000E+00  0.15649809620E+03  0.15649809620E+03  0.00000000000E+00 0.  1.
          1   -1    0    0  501    0  0.00000000000E+00 -0.00000000000E+00 -0.40052633745E+03  0.40052633745E+03  0.00000000000E+00 0. -1.
         25    2    1    2    0    0  0.22450648050E+03 -0.16885036088E+02 -0.14426639543E+03  0.29520573420E+03  0.12508144716E+03 0.  0.
          5    1    3    3  502    0  0.52223485666E+02 -0.58601218947E+02 -0.60008934442E+02  0.98893578811E+02  0.41800000000E+01 0. -1.
         -5    1    3    3    0  502  0.17228299483E+03  0.41716182859E+02 -0.84257460985E+02  0.19631215538E+03  0.41800000000E+01 0. -1.
        -11    1    1    2    0    0 -0.42376431153E+02  0.25232206231E+02 -0.55410573616E+02  0.74180575739E+02  0.00000000000E+00 0. -1.
         11    1    1    2    0    0 -0.18213004934E+03 -0.83471701428E+01 -0.44351272205E+02  0.18763812371E+03  0.00000000000E+00 0.  1.
</event>
<event>
 7    1  0.2612321E-009  0.8408795E+02  0.7561462E-02  0.1317835E+00
          2   -1    0    0  501    0  0.00000000000E+00  0.00000000000E+00  0.18395437587E+02  0.18395437587E+02  0.00000000000E+00 0. -1.
         -2   -1    0    0    0  501 -0.00000000000E+00 -0.00000000000E+00 -0.80466149910E+03  0.80466149910E+03  0.00000000000E+00 0.  1.
         25    2    1    2    0    0  0.48354127910E+02  0.29381923917E+01 -0.52173220659E+03  0.53870036752E+03  0.12508731315E+03 0.  0.
          5    1    3    3  502    0  0.44730106020E+02 -0.13780166764E+02 -0.58058080306E+02  0.74691957194E+02  0.41800000000E+01 0. -1.
         -5    1    3    3    0  502  0.36240218891E+01  0.16718359156E+02 -0.46367412628E+03  0.46400841033E+03  0.41800000000E+01 0. -1.
        -11    1    1    2    0    0 -0.40735610965E+02 -0.45075142018E+02 -0.13825548942E+03  0.15101569052E+03  0.00000000000E+00 0. -1.
         11    1    1    2    0    0 -0.76185169450E+01  0.42136949626E+02 -0.12627836550E+03  0.13334087865E+03  0.00000000000E+00 0.  1.
</event>
<event>
 7    1  0.2612321E-009  0.1296944E+03  0.7561462E-02  0.1227910E+00
         -1   -1    0    0    0  501 -0.00000000000E+00  0.00000000000E+00  0.74567318620E+02  0.74567318620E+02  0.00000000000E+00 0. -1.
          1   -1    0    0  501    0  0.00000000000E+00 -0.00000000000E+00 -0.33687776059E+03  0.33687776059E+03  0.00000000000E+00 0.  1.
         25    2    1    2    0    0  0.15353665489E+02 -0.97226797479E+02 -0.21997511187E+03  0.27152626512E+03  0.12509467461E+03 0.  0.
          5    1    3    3  502    0  0.45119397588E+02 -0.20166829907E+02 -0.16479068081E+03  0.17209271323E+03  0.41800000000E+01 0. -1.
         -5    1    3    3    0  502 -0.29765732099E+02 -0.77059967572E+02 -0.55184431065E+02  0.99433551891E+02  0.41800000000E+01 0. -1.
        -11    1    1    2    0    0 -0.47697745135E+02  0.70495281262E+02 -0.76144237292E+01  0.85455479753E+02  0.00000000000E+00 0. -1.
         11    1    1    2    0    0  0.32344079646E+02  0.26731516217E+02 -0.34720906365E+02  0.54463334329E+02  0.00000000000E+00 0.  1.
</event>
<event>
 7    1  0.2612321E-009  0.1444150E+03  0.7561462E-02  0.1207509E+00
          2   -1    0    0  501    0  0.00000000000E+00  0.00000000000E+00  0.68575984938E+02  0.68575984938E+02  0.00000000000E+00 0. -1.
         -2   -1    0    0    0  501 -0.00000000000E+00 -0.00000000000E+00 -0.33297111780E+03  0.33297111780E+03  0.00000000000E+00 0.  1.
         25    2    1    2    0    0  0.88967395302E+02  0.54689373676E+02 -0.15561324013E+03  0.22531969709E+03  0.12508940952E+03 0.  0.
          5    1    3    3  502    0  0.96929378522E+02  0.78797891762E+02 -0.87675512635E+02  0.15267246013E+03  0.41800000000E+01 0.  1.
         -5    1    3    3    0  502 -0.79619832195E+01 -0.24108518086E+02 -0.67937727493E+02  0.72647236960E+02  0.41800000000E+01 0.  1.
        -11    1    1    2    0    0  0.16428581086E+02 -0.22596832095E+02 -0.16032546183E+02  0.32211141463E+02  0.00000000000E+00 0.  1.
         11    1    1    2    0    0 -0.10539597639E+03 -0.32092541581E+02 -0.92749346553E+02  0.14401626419E+03  0.00000000000E+00 0. -1.
</event>
<event>
 7    1  0.2612321E-009  0.9824215E+02  0.7561462E-02  0.1284036E+00
         -2   -1    0    0    0  501 -0.00000000000E+00  0.00000000000E+00  0.40747051140E+02  0.40747051140E+02  0.00000000000E+00 0.  1.
          2   -1    0    0  501    0  0.00000000000E+00 -0.00000000000E+00 -0.47782121070E+03  0.47782121070E+03  0.00000000000E+00 0. -1.
         25    2    1    2    0    0  0.27440076442E+02 -0.49643746483E+02 -0.36377784028E+03  0.38884462228E+03  0.12509342043E+03 0.  0.
          5    1    3    3  502    0 -0.28812088018E+02 -0.69052118921E+02 -0.16317575661E+03  0.17956094088E+03  0.41800000000E+01 0. -1.
         -5    1    3    3    0  502  0.56252164460E+02  0.19408372438E+02 -0.20060208367E+03  0.20928368140E+03  0.41800000000E+01 0. -1.
        -11    1    1    2    0    0 -0.39059585789E+01  0.32604943146E+02 -0.90281711583E+02  0.96068341696E+02  0.00000000000E+00 0. -1.
         11    1    1    2    0    0 -0.23534117863E+02  0.17038803337E+02  0.16985392303E+02  0.33655297866E+02  0.00000000000E+00 0.  1.
</event>
<event>
 7    1  0.2612321E-009  0.1308285E+03  0.7561462E-02  0.1226231E+00
         -1   -1    0    0    0  501 -0.00000000000E+00  0.00000000000E+00  0.74736863615E+02  0.74736863615E+02  0.00000000000E+00 0.  1.
          1   -1    0    0  501    0  0.00000000000E+00 -0.00000000000E+00 -0.35682051178E+03  0.35682051178E+03  0.00000000000E+00 0. -1.
         25    2    1    2    0    0  0.12012292178E+02  0.10696120647E+03 -0.23059697154E+03  0.28355812533E+03  0.12508098298E+03 0.  0.
          5    1    3    3  502    0  0.83061748745E+00  0.12157946257E+03 -0.23459856224E+03  0.26426542235E+03  0.41800000000E+01 0.  1.
         -5    1    3    3    0  502  0.11181674691E+02 -0.14618256099E+02  0.40015906992E+01  0.19292702983E+02  0.41800000000E+01 0.  1.
        -11    1    1    2    0    0 -0.31257570395E+02 -0.90698010804E+02 -0.61484895268E+01  0.96129957840E+02  0.00000000000E+00 0.  1.
         11    1    1    2    0    0  0.19245278216E+02 -0.16263195662E+02 -0.45338187099E+02  0.51869292228E+02  0.00000000000E+00 0. -1.
</event>
<event>
 7    1  0.2612321E-009  0.9502440E+02  0.7561462E-02  0.1291121E+00
         -2   -1    0    0    0  501 -0.00000000000E+00  0.00000000000E+00  0.12081993281E+02  0.12081993281E+02  0.00000000000E+00 0. -1.
          2   -1    0    0  501    0  0.00000000000E+00 -0.00000000000E+00 -0.15963034752E+04  0.15963034752E+04  0.00000000000E+00 0.  1.
         25    2    1    2    0    0 -0.37372949891E+02  0.56470838447E+02 -0.11681249584E+04  0.11767530300E+04  0.12508430012E+03 0.  0.
          5    1    3    3  502    0 -0.11254893987E+02  0.46996158091E+02 -0.13856086632E+03  0.14680564563E+03  0.41800000000E+01 0. -1.
         -5    1    3    3    0  502 -0.26118055904E+02  0.94746803565E+01 -0.10295640921E+04  0.10299473844E+04  0.41800000000E+01 0. -1.
        -11    1    1    2    0    0 -0.23265997238E+02 -0.46497487523E+02 -0.22355575670E+03  0.22952232861E+03  0.00000000000E+00 0.  1.
         11    1    1    2    0    0  0.60638947128E+02 -0.99733509241E+01 -0.19254076675E+03  0.20211010984E+03  0.00000000000E+00 0. -1.
</event>
<event>
 7    1  0.2612321E-009  0.1451807E+03  0.7561462E-02  0.1206523E+00
          2   -1    0    0  501    0  0.00000000000E+00  0.00000000000E+00  0.10896891171E+03  0.10896891171E+03  0.00000000000E+00 0. -1.
         -2   -1    0    0    0  501 -0.00000000000E+00 -0.00000000000E+00 -0.26747343721E+03  0.26747343721E+03  0.00000000000E+00 0.  1.
         25    2    1    2    0    0 -0.39610385009E+02  0.91358751225E+02  0.93663988920E+01  0.16015573751E+03  0.12508687703E+03 0.  0.
          5    1    3    3  502    0  0.44971630541E+02  0.37698163991E+02 -0.42315250538E+01  0.58982856205E+02  0.41800000000E+01 0.  1.
         -5    1    3    3    0  502 -0.84582015549E+02  0.53660587234E+02  0.13597923946E+02  0.10117288131E+03  0.41800000000E+01 0.  1.
        -11    1    1    2    0    0 -0.25729546667E+02 -0.11748780731E+02 -0.15158996318E+02  0.32091098294E+02  0.00000000000E+00 0. -1.
         11    1    1    2    0    0  0.65339931676E+02 -0.79609970495E+02 -0.15271192808E+03  0.18419551311E+03  0.00000000000E+00 0.  1.
</event>
<event>
 7    1  0.2612321E-009  0.1117712E+03  0.7561462E-02  0.1257325E+00
         -1   -1    0    0    0  501 -0.00000000000E+00  0.00000000000E+00  0.24424090531E+03  0.24424090531E+03  0.00000000000E+00 0.  1.
          1   -1    0    0  501    0  0.00000000000E+00 -0.00000000000E+00 -0.58314969603E+02  0.58314969603E+02  0.00000000000E+00 0. -1.
         25    2    1    2    0    0  0.41055902052E+02 -0.23168728859E+02  0.84838110213E+02  0.15832779534E+03  0.12509120170E+03 0.  0.
          5    1    3    3  502    0  0.13238536602E+02  0.46730930280E+02  0.63427753920E+02  0.79997444106E+02  0.41800000000E+01 0. -1.
         -5    1    3    3    0  502  0.27817365450E+02 -0.69899659139E+02  0.21410356293E+02  0.78330351237E+02  0.41800000000E+01 0. -1.
        -11    1    1    2    0    0 -0.55987694954E+02 -0.15416755107E+02  0.40257460865E+02  0.70660890736E+02  0.00000000000E+00 0.  1.
         11    1    1    2    0    0  0.14931792902E+02  0.38585483966E+02  0.60830364629E+02  0.73567188835E+02  0.00000000000E+00 0. -1.
</event>
<event>
 7    1  0.2612321E-009  0.1238687E+03  0.7561462E-02  0.1236848E+00
         -1   -1    0    0    0  501 -0.00000000000E+00  0.00000000000E+00  0.10420361232E+03  0.10420361232E+03  0.00000000000E+00 0. -1.
          1   -1    0    0  501    0  0.00000000000E+00 -0.00000000000E+00 -0.24207375229E+03  0.24207375229E+03  0.00000000000E+00 0.  1.
         25    2    1    2    0    0  0.16874540001E+02  0.87586527479E+02 -0.15788892376E+03  0.22026713812E+03  0.12503019634E+03 0.  0.
          5    1    3    3  502    0 -0.50120060259E+02  0.39486216248E+02 -0.37032997919E+02  0.73892469500E+02  0.41800000000E+01 0.  1.
         -5    1    3    3    0  502  0.66994600259E+02  0.48100311231E+02 -0.12085592584E+03  0.14637466862E+03  0.41800000000E+01 0.  1.
        -11    1    1    2    0    0  0.15859849998E+02 -0.43527393835E+02 -0.27100196260E+02  0.53671123459E+02  0.00000000000E+00 0. -1.
         11    1    1    2    0    0 -0.32734389999E+02 -0.44059133645E+02  0.47118980043E+02  0.72339103025E+02  0.00000000000E+00 0.  1.
</event>
<event>
 7    1  0.2612321E-009  0.1196093E+03  0.7561462E-02  0.1243743E+00
          1   -1    0    0  501    0  0.00000000000E+00  0.00000000000E+00  0.19890047714E+02  0.19890047714E+02  0.00000000000E+00 0. -1.
         -1   -1    0    0    0  501 -0.00000000000E+00 -0.00000000000E+00 -0.12781261776E+04  0.12781261776E+04  0.00000000000E+00 0.  1.
         25    2    1    2    0    0  0.99355579511E+02  0.11190960288E+02 -0.91337265953E+03  0.92730518675E+03  0.12509406629E+03 0.  0.
          5    1    3    3  502    0  0.20971312050E+02  0.12405592171E+02 -0.23936228028E+02  0.34410900284E+02  0.41800000000E+01 0.  1.
         -5    1    3    3    0  502  0.78384267461E+02 -0.12146318830E+01 -0.88943643150E+03  0.89289428646E+03  0.41800000000E+01 0.  1.
        -11    1    1    2    0    0  0.58702927354E+01 -0.28721756073E+02 -0.72723924334E+02  0.78410259401E+02  0.00000000000E+00 0. -1.
         11    1    1    2    0    0 -0.10522587225E+03  0.17530795785E+02 -0.27213954600E+03  0.29230077914E+03  0.00000000000E+00 0.  1.
</event>
<event>
 7    1  0.3347050E-009  0.6475666E+02  0.7561462E-02  0.1378889E+00
          1   -1    0    0  501    0  0.00000000000E+00  0.00000000000E+00  0.51948701115E+03  0.51948701115E+03  0.00000000000E+00 0. -1.
         -1   -1    0    0    0  501 -0.00000000000E+00 -0.00000000000E+00 -0.31085484650E+02  0.31085484650E+02  0.00000000000E+00 0.  1.
         25    2    1    2    0    0  0.63359334231E+01  0.95923579961E+01  0.41329309408E+03  0.43196075385E+03  0.12508698519E+03 0.  0.
          5    1    3    3  502    0  0.11035124141E+02 -0.42077405911E+02  0.56689034707E+02  0.71577937306E+02  0.41800000000E+01 0.  1.
         -5    1    3    3    0  502 -0.46991907181E+01  0.51669763907E+02  0.35660405937E+03  0.36038281654E+03  0.41800000000E+01 0.  1.
        -11    1    1    2    0    0  0.10450036973E+02 -0.12952555313E+02 -0.17666327572E+02  0.24270786797E+02  0.00000000000E+00 0.  1.
         11    1    1    2    0    0 -0.16785970396E+02  0.33601973165E+01  0.92774759991E+02  0.94340955155E+02  0.00000000000E+00 0. -1.
</event>
<event>
 7    1  0.2612321E-009  0.1246470E+03  0.7561462E-02  0.1235622E+00
         -1   -1    0    0    0  501 -0.00000000000E+00  0.00000000000E+00  0.30972659335E+03  0.30972659335E+03  0.00000000000E+00 0.  1.
          1   -1    0    0  501    0  0.00000000000E+00 -0.00000000000E+00 -0.87436032784E+02  0.87436032784E+02  0.00000000000E+00 0. -1.
         25    2    1    2    0    0 -0.11590420083E+03  0.63597325944E+01  0.16618654479E+03  0.23819950556E+03  0.12508719683E+03 0.  0.
          5    1    3    3  502    0 -0.13842357556E+02  0.19116421068E+02 -0.16086271283E+02  0.28866744550E+02  0.41800000000E+01 0.  1.
         -5    1    3    3    0  502 -0.10206184327E+03 -0.12756688474E+02  0.18227281607E+03  0.20933276101E+03  0.41800000000E+01 0.  1.
        -11    1    1    2    0    0  0.55564391434E+02  0.16337449355E+02  0.72158620909E+02  0.92526647072E+02  0.00000000000E+00 0.  1.
         11    1    1    2    0    0  0.60339809392E+02 -0.22697181950E+02 -0.16054605131E+02  0.66436473505E+02  0.00000000000E+00 0. -1.
</event>
<event>
 7    1  0.2612321E-009  0.9263845E+02  0.7561462E-02  0.1296585E+00
         -1   -1    0    0    0  501 -0.00000000000E+00  0.00000000000E+00  0.43563362596E+03  0.43563362596E+03  0.00000000000E+00 0.  1.
          1   -1    0    0  501    0  0.00000000000E+00 -0.00000000000E+00 -0.32454005308E+02  0.32454005308E+02  0.00000000000E+00 0. -1.
         25    2    1    2    0    0 -0.26204399348E+02  0.37344994124E+02  0.19253797075E+03  0.23409154751E+03  0.12508662321E+03 0.  0.
          5    1    3    3  502    0  0.24434888659E+02  0.22620717506E+02 -0.87846933912E+00  0.33570891449E+02  0.41800000000E+01 0.  1.
         -5    1    3    3    0  502 -0.50639288008E+02  0.14724276618E+02  0.19341644009E+03  0.20052065606E+03  0.41800000000E+01 0.  1.
        -11    1    1    2    0    0 -0.83407236869E+01 -0.57979885583E+02  0.95583821642E+02  0.11210486949E+03  0.00000000000E+00 0.  1.
         11    1    1    2    0    0  0.34545123035E+02  0.20634891459E+02  0.11505782826E+03  0.12189121427E+03  0.00000000000E+00 0. -1.
</event>
<event>
 7    1  0.2612321E-009  0.9724645E+02  0.7561462E-02  0.1286195E+00
         -3   -1    0    0    0  501 -0.00000000000E+00  0.00000000000E+00  0.16715867008E+03  0.16715867008E+03  0.00000000000E+00 0.  1.
          3   -1    0    0  501    0  0.00000000000E+00 -0.00000000000E+00 -0.77170893245E+02  0.77170893245E+02  0.00000000000E+00 0. -1.
         25    2    1    2    0    0  0.12616103244E+02  0.37109114211E+01  0.81676655149E+02  0.14997188483E+03  0.12509018074E+03 0.  0.
          5    1    3    3  502    0  0.72901898169E+01  0.61651375419E+02  0.63422678367E+02  0.88847889620E+02  0.41800000000E+01 0.  1.
         -5    1    3    3    0  502  0.53259134273E+01 -0.57940463998E+02  0.18253976782E+02  0.61123995211E+02  0.41800000000E+01 0.  1.
        -11    1    1    2    0    0  0.10835455308E+02 -0.33968562913E+02 -0.25053388694E+02  0.43576859033E+02  0.00000000000E+00 0. -1.
         11    1    1    2    0    0 -0.23451558552E+02  0.30257651492E+02  0.33364510382E+02  0.50780819463E+02  0.00000000000E+00 0.  1.
</event>
<event>
 7    1  0.2612321E-009  0.1151439E+03  0.7561462E-02  0.1251330E+00
         -1   -1    0    0    0  501 -0.00000000000E+00  0.00000000000E+00  0.64368740439E+03  0.64368740439E+03  0.00000000000E+00 0.  1.
          1   -1    0    0  501    0  0.00000000000E+00 -0.00000000000E+00 -0.23542726762E+02  0.23542726762E+02  0.00000000000E+00 0. -1.
         25    2    1    2    0    0  0.14333827095E+02 -0.56096020290E+02  0.34859529084E+03  0.37485649846E+03  0.12508595267E+03 0.  0.
          5    1    3    3  502    0  0.19618941472E+02 -0.90490132373E+02  0.30581719646E+03  0.31955437248E+03  0.41800000000E+01 0.  1.
         -5    1    3    3    0  502 -0.52851143765E+01  0.34394112082E+02  0.42778094380E+02  0.55302125987E+02  0.41800000000E+01 0.  1.
        -11    1    1    2    0    0  0.80004645307E+01  0.73688847501E+02  0.14711731093E+03  0.16473480765E+03  0.00000000000E+00 0. -1.
         11    1    1    2    0    0 -0.22334291626E+02 -0.17592827211E+02  0.12443207587E+03  0.12763882504E+03  0.00000000000E+00 0.  1.
</event>
<event>
 7    1  0.2612321E-009  0.1801106E+03  0.7561462E-02  0.1167696E+00
         -1   -1    0    0    0  501 -0.00000000000E+00  0.00000000000E+00  0.14889816231E+03  0.14889816231E+03  0.00000000000E+00 0.  1.
          1   -1    0    0  501    0  0.00000000000E+00 -0.00000000000E+00 -0.25993955740E+03  0.25993955740E+03  0.00000000000E+00 0. -1.
         25    2    1    2    0    0 -0.21171269075E+00 -0.14733072192E+03  0.15747959040E+02  0.19391126969E+03  0.12508875192E+03 0.  0.
          5    1    3    3  502    0 -0.41480723691E+02 -0.89168524935E+01  0.24462025412E+02  0.49153064844E+02  0.41800000000E+01 0. -1.
         -5    1    3    3    0  502  0.41269011000E+02 -0.13841386943E+03 -0.87140663725E+01  0.14475820485E+03  0.41800000000E+01 0. -1.
        -11    1    1    2    0    0 -0.42482886133E+02  0.10361556528E+03 -0.74512469368E+02  0.13451055376E+03  0.00000000000E+00 0.  1.
         11    1    1    2    0    0  0.42694598824E+02  0.43715156645E+02 -0.52276884767E+02  0.80415896253E+02  0.00000000000E+00 0. -1.
</event>
<event>
 7    1  0.2612321E-009  0.7777737E+02  0.7561462E-02  0.1335480E+00
          2   -1    0    0  501    0  0.00000000000E+00  0.00000000000E+00  0.74299418274E+02  0.74299418274E+02  0.00000000000E+00 0. -1.
         -2   -1    0    0    0  501 -0.00000000000E+00 -0.00000000000E+00 -0.21466725405E+03  0.21466725405E+03  0.00000000000E+00 0.  1.
         25    2    1    2    0    0  0.16653597681E+02  0.36422101541E+02 -0.19348618901E+02  0.13276881162E+03  0.12509706826E+03 0.  0.
          5    1    3    3  502    0 -0.18382155940E+02  0.44246674617E+02 -0.60963287634E+02  0.77650928590E+02  0.41800000000E+01 0.  1.
         -5    1    3    3    0  502  0.35035753621E+02 -0.78245730761E+01  0.41614668734E+02  0.55117883027E+02  0.41800000000E+01 0.  1.
        -11    1    1    2    0    0 -0.17100618109E+02 -0.52509853800E+02 -0.12742408944E+03  0.13887625591E+03  0.00000000000E+00 0.  1.
         11    1    1    2    0    0  0.44702042782E+00  0.16087752259E+02  0.64048725685E+01  0.17321604794E+02  0.00000000000E+00 0. -1.
</event>
<event>
 7    1  0.2612321E-009  0.9937232E+02  0.7561462E-02  0.1281621E+00
          3   -1    0    0  501    0  0.00000000000E+00  0.00000000000E+00  0.75361589440E+02  0.75361589440E+02  0.00000000000E+00 0. -1.
         -3   -1    0    0    0  501 -0.00000000000E+00 -0.00000000000E+00 -0.20306246422E+03  0.20306246422E+03  0.00000000000E+00 0.  1.
         25    2    1    2    0    0 -0.52658355894E+02 -0.25044910626E+02 -0.84512992136E+02  0.16185403709E+03  0.12511647969E+03 0.  0.
          5    1    3    3  502    0  0.24626105161E+01  0.45572884469E+02 -0.43691033098E+02  0.63319278443E+02  0.41800000000E+01 0. -1.
         -5    1    3    3    0  502 -0.55120966410E+02 -0.70617795096E+02 -0.40821959038E+02  0.98534758648E+02  0.41800000000E+01 0. -1.
        -11    1    1    2    0    0  0.40164797807E+02  0.62254791823E+01 -0.70347128307E+02  0.81244606190E+02  0.00000000000E+00 0.  1.
         11    1    1    2    0    0  0.12493558087E+02  0.18819431444E+02  0.27159245662E+02  0.35325410379E+02  0.00000000000E+00 0. -1.
</event>
<event>
 7    1  0.2612321E-009  0.1092595E+03  0.7561462E-02  0.1261947E+00
          1   -1    0    0  501    0  0.00000000000E+00  0.00000000000E+00  0.14310278967E+03  0.14310278967E+03  0.00000000000E+00 0.  1.
         -1   -1    0    0    0  501 -0.00000000000E+00 -0.00000000000E+00 -0.95886898000E+02  0.95886898000E+02  0.00000000000E+00 0. -1.
         25    2    1    2    0    0  0.39719710682E+01  0.37305655966E+02  0.18308145656E+02  0.13187581066E+03  0.12509417540E+03 0.  0.
          5    1    3    3  502    0 -0.53735160200E+02 -0.39966043467E+01  0.26724015008E+02  0.60291671615E+02  0.41800000000E+01 0.  1.
         -5    1    3    3    0  502  0.57707131268E+02  0.41302260312E+02 -0.84158693517E+01  0.71584139046E+02  0.41800000000E+01 0.  1.
        -11    1    1    2    0    0 -0.32361372287E+02 -0.52130810143E+02  0.39971197530E+02  0.73229614327E+02  0.00000000000E+00 0.  1.
         11    1    1    2    0    0  0.28389401219E+02  0.14825154177E+02 -0.11063451517E+02  0.33884262681E+02  0.00000000000E+00 0. -1.
</event>
<event>
 7    1  0.2612321E-009  0.1561034E+03  0.7561462E-02  0.1193168E+00
          2   -1    0    0  501    0  0.00000000000E+00  0.00000000000E+00  0.23165647738E+04  0.23165647738E+04  0.00000000000E+00 0. -1.
         -2   -1    0    0    0  501 -0.00000000000E+00 -0.00000000000E+00 -0.12592214691E+02  0.12592214691E+02  0.00000000000E+00 0.  1.
         25    2    1    2    0    0  0.99433652230E+02 -0.77761643990E+02  0.14851592105E+04  0.14957538569E+04  0.12509114850E+03 0.  0.
          5    1    3    3  502    0  0.95534306582E+02 -0.18364388497E+02  0.12238716148E+04  0.12277390832E+04  0.41800000000E+01 0.  1.
         -5    1    3    3    0  502  0.38993456484E+01 -0.59397255493E+02  0.26128759568E+03  0.26801477369E+03  0.41800000000E+01 0.  1.
        -11    1    1    2    0    0 -0.10131128379E+03  0.27652072230E+02  0.56781936273E+03  0.57744908175E+03  0.00000000000E+00 0.  1.
         11    1    1    2    0    0  0.18776315548E+01  0.50109571760E+02  0.25099398583E+03  0.25595404980E+03  0.00000000000E+00 0. -1.
</event>
<event>
 7    1  0.2612321E-009  0.1501203E+03  0.7561462E-02  0.1200325E+00
          1   -1    0    0  501    0  0.00000000000E+00  0.00000000000E+00  0.37245479741E+03  0.37245479741E+03  0.00000000000E+00 0. -1.
         -1   -1    0    0    0  501 -0.00000000000E+00 -0.00000000000E+00 -0.80371935696E+02  0.80371935696E+02  0.00000000000E+00 0.  1.
         25    2    1    2    0    0  0.37484956878E+02 -0.11571272031E+03  0.23373116628E+03  0.29167283897E+03  0.12509289056E+03 0.  0.
          5    1    3    3  502    0  0.51797824003E+02 -0.13087471889E+03  0.15192122019E+03  0.20714423999E+03  0.41800000000E+01 0.  1.
         -5    1    3    3    0  502 -0.14312867125E+02  0.15161998584E+02  0.81809946091E+02  0.84528598982E+02  0.41800000000E+01 0.  1.
        -11    1    1    2    0    0  0.94061354534E+01  0.76381639996E+02  0.53455322374E+00  0.76960483755E+02  0.00000000000E+00 0.  1.
         11    1    1    2    0    0 -0.46891092331E+02  0.39331080311E+02  0.57817142213E+02  0.84193410384E+02  0.00000000000E+00 0. -1.
</event>
<event>
 7    1  0.2612321E-009  0.1017924E+03  0.7561462E-02  0.1276571E+00
         -2   -1    0    0    0  501 -0.00000000000E+00  0.00000000000E+00  0.34901056985E+03  0.34901056985E+03  0.00000000000E+00 0. -1.
          2   -1    0    0  501    0  0.00000000000E+00 -0.00000000000E+00 -0.35529671268E+02  0.35529671268E+02  0.00000000000E+00 0.  1.
         25    2    1    2    0    0  0.18410338545E+02  0.16180869197E+02  0.18542671215E+03  0.22502725163E+03  0.12511369751E+03 0.  0.
          5    1    3    3  502    0 -0.41095495696E+02 -0.11853298860E+02  0.20896311331E+02  0.47785653575E+02  0.41800000000E+01 0. -1.
         -5    1    3    3    0  502  0.59505834241E+02  0.28034168056E+02  0.16453040082E+03  0.17724159805E+03  0.41800000000E+01 0. -1.
        -11    1    1    2    0    0 -0.81024328743E+01 -0.54458280195E+02  0.81698586642E+02  0.98519098451E+02  0.00000000000E+00 0.  1.
         11    1    1    2    0    0 -0.10307905670E+02  0.38277410998E+02  0.46355599795E+02  0.60993891042E+02  0.00000000000E+00 0. -1.
</event>
<event>
 7    1  0.2612321E-009  0.1017070E+03  0.7561462E-02  0.1276747E+00
          2   -1    0    0  501    0  0.00000000000E+00  0.00000000000E+00  0.96228447318E+02  0.96228447318E+02  0.00000000000E+00 0. -1.
         -2   -1    0    0    0  501 -0.00000000000E+00 -0.00000000000E+00 -0.16291953658E+03  0.16291953658E+03  0.00000000000E+00 0.  1.
         25    2    1    2    0    0 -0.63429147173E+02  0.11038971030E+02 -0.34510838022E+02  0.14482062490E+03  0.12504759039E+03 0.  0.
          5    1    3    3  502    0  0.26378744642E+01  0.56761864689E+02  0.74259925155E+00  0.56981501545E+02  0.41800000000E+01 0.  1.
         -5    1    3    3    0  502 -0.66067021637E+02 -0.45722893659E+02 -0.35253437273E+02  0.87839123357E+02  0.41800000000E+01 0.  1.
        -11    1    1    2    0    0  0.22186508681E+02 -0.10946930503E+02  0.30514298526E+02  0.39283569968E+02  0.00000000000E+00 0.  1.
         11    1    1    2    0    0  0.41242638492E+02 -0.92040527107E-01 -0.62694549767E+02  0.75043789029E+02  0.00000000000E+00 0. -1.
</event>
<event>
 7    1  0.2612321E-009  0.8947734E+02  0.7561462E-02  0.1304122E+00
          4   -1    0    0  501    0  0.00000000000E+00  0.00000000000E+00  0.80124156184E+02  0.80124156184E+02  0.00000000000E+00 0. -1.
         -4   -1    0    0    0  501 -0.00000000000E+00 -0.00000000000E+00 -0.20102129799E+03  0.20102129799E+03  0.00000000000E+00 0.  1.
         25    2    1    2    0    0  0.78054181741E+01 -0.27497217239E+02 -0.13546112790E+03  0.18658182063E+03  0.12508412013E+03 0.  0.
          5    1    3    3  502    0  0.21766376326E+02 -0.53770461360E+02 -0.14403850245E+03  0.15533705366E+03  0.41800000000E+01 0. -1.
         -5    1    3    3    0  502 -0.13960958151E+02  0.26273244120E+02  0.85773745443E+01  0.31244766973E+02  0.41800000000E+01 0. -1.
        -11    1    1    2    0    0 -0.20163483942E+02  0.56088752447E+02  0.20153634667E+02  0.62918067564E+02  0.00000000000E+00 0. -1.
         11    1    1    2    0    0  0.12358065768E+02 -0.28591535207E+02 -0.55896485758E+01  0.31645565981E+02  0.00000000000E+00 0.  1.
</event>
<event>
 7    1  0.3011520E-009  0.1347705E+03  0.7561462E-02  0.1220544E+00
          3   -1    0    0  501    0  0.00000000000E+00  0.00000000000E+00  0.95337748326E+03  0.95337748326E+03  0.00000000000E+00 0. -1.
         -3   -1    0    0    0  501 -0.00000000000E+00 -0.00000000000E+00 -0.27610520035E+02  0.27610520035E+02  0.00000000000E+00 0.  1.
         25    2    1    2    0    0  0.10648974920E+03  0.53559577033E+02  0.45522517276E+03  0.48691409250E+03  0.12508669229E+03 0.  0.
          5    1    3    3  502    0  0.51150706263E+02  0.89065779748E+01  0.37909520354E+03  0.38265698430E+03  0.41800000000E+01 0.  1.
         -5    1    3    3    0  502  0.55339042942E+02  0.44652999058E+02  0.76129969219E+02  0.10425710821E+03  0.41800000000E+01 0.  1.
        -11    1    1    2    0    0 -0.80885584358E+01  0.21169222722E+02  0.38140641583E+02  0.44365181264E+02  0.00000000000E+00 0.  1.
         11    1    1    2    0    0 -0.98401190769E+02 -0.74728799755E+02  0.43240114888E+03  0.44970872952E+03  0.00000000000E+00 0. -1.
</event>
<event>
 7    1  0.2618318E-009  0.1464004E+03  0.7561462E-02  0.1204967E+00
         -2   -1    0    0    0  501 -0.00000000000E+00  0.00000000000E+00  0.27724799841E+02  0.27724799841E+02  0.00000000000E+00 0.  1.
          2   -1    0    0  501    0  0.00000000000E+00 -0.00000000000E+00 -0.96674531414E+03  0.96674531414E+03  0.00000000000E+00 0. -1.
         25    2    1    2    0    0 -0.11559022308E+03 -0.37155001672E+02 -0.44872440552E+03  0.48139652353E+03  0.12508967556E+03 0.  0.
          5    1    3    3  502    0  0.89321155247E+01 -0.14615854599E+02 -0.21378726160E+03  0.21451310337E+03  0.41800000000E+01 0. -1.
         -5    1    3    3    0  502 -0.12452233860E+03 -0.22539147074E+02 -0.23493714392E+03  0.26688342016E+03  0.41800000000E+01 0. -1.
        -11    1    1    2    0    0  0.60693893204E+02  0.63346598696E+02 -0.33483236098E+03  0.34613472839E+03  0.00000000000E+00 0. -1.
         11    1    1    2    0    0  0.54896329875E+02 -0.26191597023E+02 -0.15546374780E+03  0.16693886206E+03  0.00000000000E+00 0.  1.
</event>
<event>
 7    1  0.2612321E-009  0.9698173E+02  0.7561462E-02  0.1286774E+00
         -2   -1    0    0    0  501 -0.00000000000E+00  0.00000000000E+00  0.86428830990E+02  0.86428830990E+02  0.00000000000E+00 0.  1.
          2   -1    0    0  501    0  0.00000000000E+00 -0.00000000000E+00 -0.20594171128E+03  0.20594171128E+03  0.00000000000E+00 0. -1.
         25    2    1    2    0    0 -0.35200017461E+02 -0.58088904803E+02 -0.29177481866E+02  0.14529829064E+03  0.12508759221E+03 0.  0.
          5    1    3    3  502    0 -0.50846465217E+02 -0.63038186284E+02  0.27899967915E+02  0.85761626411E+02  0.41800000000E+01 0. -1.
         -5    1    3    3    0  502  0.15646447756E+02  0.49492814811E+01 -0.57077449781E+02  0.59536664233E+02  0.41800000000E+01 0. -1.
        -11    1    1    2    0    0 -0.20393185999E+02  0.11590488207E+02  0.81157832103E+01  0.24821107735E+02  0.00000000000E+00 0.  1.
         11    1    1    2    0    0  0.55593203460E+02  0.46498416596E+02 -0.98451181633E+02  0.12225114389E+03  0.00000000000E+00 0. -1.
</event>
<event>
 7    1  0.2612321E-009  0.1752379E+03  0.7561462E-02  0.1172493E+00
         -2   -1    0    0    0  501 -0.00000000000E+00  0.00000000000E+00  0.53954977327E+02  0.53954977327E+02  0.00000000000E+00 0.  1.
          2   -1    0    0  501    0  0.00000000000E+00 -0.00000000000E+00 -0.67533072086E+03  0.67533072086E+03  0.00000000000E+00 0. -1.
         25    2    1    2    0    0  0.15265497004E+03  0.11550328094E+02 -0.38244405754E+03  0.43051874849E+03  0.12508391463E+03 0.  0.
          5    1    3    3  502    0  0.99971620062E+02  0.49608193751E+02 -0.13790396682E+03  0.17745499196E+03  0.41800000000E+01 0.  1.
         -5    1    3    3    0  502  0.52683349974E+02 -0.38057865658E+02 -0.24454009072E+03  0.25306375653E+03  0.41800000000E+01 0.  1.
        -11    1    1    2    0    0 -0.11127010955E+03  0.29773209077E+02 -0.19147730416E+03  0.22345254366E+03  0.00000000000E+00 0.  1.
         11    1    1    2    0    0 -0.41384860488E+02 -0.41323537171E+02 -0.47454381831E+02  0.75314406038E+02  0.00000000000E+00 0. -1.
</event>
<event>
 7    1  0.2612321E-009  0.8870305E+02  0.7561462E-02  0.1306023E+00
         -2   -1    0    0    0  501 -0.00000000000E+00  0.00000000000E+00  0.22977400881E+02  0.22977400881E+02  0.00000000000E+00 0.  1.
          2   -1    0    0  501    0  0.00000000000E+00 -0.00000000000E+00 -0.85400433636E+03  0.85400433636E+03  0.00000000000E+00 0. -1.
         25    2    1    2    0    0 -0.51915237337E+01  0.74931527820E+02 -0.59841006011E+03  0.61594280915E+03  0.12509699566E+03 0.  0.
          5    1    3    3  502    0 -0.14561989014E+02 -0.87629822755E+01 -0.74903169459E+01  0.19037295774E+02  0.41800000000E+01 0.  1.
         -5    1    3    3    0  502  0.93704652807E+01  0.83694510096E+02 -0.59091974316E+03  0.59690551337E+03  0.41800000000E+01 0.  1.
        -11    1    1    2    0    0  0.16961897190E+01 -0.65545388603E+02 -0.23987180939E+03  0.24867159059E+03  0.00000000000E+00 0. -1.
         11    1    1    2    0    0  0.34953340148E+01 -0.93861392175E+01  0.72549340181E+01  0.12367337502E+02  0.00000000000E+00 0.  1.
</event>
<event>
 6    1  0.2612321E-009  0.9612067E+02  0.7561462E-02  0.1288672E+00
          2   -1    0    0  501    0  0.00000000000E+00  0.00000000000E+00  0.77974962388E+03  0.77974962388E+03  0.00000000000E+00 0. -1.
         -2   -1    0    0    0  501 -0.00000000000E+00 -0.00000000000E+00 -0.22391861042E+02  0.22391861042E+02  0.00000000000E+00 0.  1.
          5    1    1    2  502    0  0.14063855271E+02  0.68898844911E+01  0.28589464080E+03  0.28635376822E+03  0.41800000000E+01 0. -1.
         -5    1    1    2    0  502  0.49928850936E+02 -0.36561776142E+02  0.52451117423E+02  0.81229586662E+02  0.41800000000E+01 0. -1.
        -11    1    1    2    0    0 -0.82216760899E+02  0.37268555784E+01  0.32852851682E+03  0.33868048598E+03  0.00000000000E+00 0.  1.
         11    1    1    2    0    0  0.18224054692E+02  0.25945036072E+02  0.90483487802E+02  0.95877644062E+02  0.00000000000E+00 0. -1.
</event>
<event>
 7    1  0.2612321E-009  0.6017234E+02  0.7561462E-02  0.1397110E+00
         -1   -1    0    0    0  501 -0.00000000000E+00  0.00000000000E+00  0.49081417075E+03  0.49081417075E+03  0.00000000000E+00 0.  1.
          1   -1    0    0  501    0  0.00000000000E+00 -0.00000000000E+00 -0.30446545063E+02  0.30446545063E+02  0.00000000000E+00 0. -1.
         25    2    1    2    0    0 -0.54826315787E+02  0.39608034370E+01  0.24681855352E+03  0.28211402990E+03  0.12508922670E+03 0.  0.
          5    1    3    3  502    0 -0.43585483415E+02  0.66710021100E+01  0.26019940845E+03  0.26394204135E+03  0.41800000000E+01 0.  1.
         -5    1    3    3    0  502 -0.11240832372E+02 -0.27101986730E+01 -0.13380854929E+02  0.18171988551E+02  0.41800000000E+01 0.  1.
        -11    1    1    2    0    0  0.22996266101E+02 -0.17770161011E+02  0.72534363678E+01  0.29953617746E+02  0.00000000000E+00 0. -1.
         11    1    1    2    0    0  0.31830049686E+02  0.13809357574E+02  0.20629563581E+03  0.20919306817E+03  0.00000000000E+00 0.  1.
</event>
<event>
 7    1  0.3371026E-009  0.1249298E+03  0.7561462E-02  0.1235179E+00
          2   -1    0    0  501    0  0.00000000000E+00  0.00000000000E+00  0.16592552794E+03  0.16592552794E+03  0.00000000000E+00 0. -1.
         -2   -1    0    0    0  501 -0.00000000000E+00 -0.00000000000E+00 -0.11866511239E+03  0.11866511239E+03  0.00000000000E+00 0.  1.
         25    2    1    2    0    0 -0.67744600596E+02  0.32167590379E+02  0.73612337661E+02  0.16337434954E+03  0.12509323343E+03 0.  0.
          5    1    3    3  502    0 -0.10074548857E+03  0.24456058873E+01  0.45526701005E+02  0.11066068570E+03  0.41800000000E+01 0.  1.
         -5    1    3    3    0  502  0.33000887971E+02  0.29721984492E+02  0.28085636656E+02  0.52713663840E+02  0.41800000000E+01 0.  1.
        -11    1    1    2    0    0  0.23338861912E+02 -0.51052733324E+02  0.14515952069E+02  0.57981004818E+02  0.00000000000E+00 0.  1.
         11    1    1    2    0    0  0.44405738684E+02  0.18885142945E+02 -0.40867874178E+02  0.63235285971E+02  0.00000000000E+00 0. -1.
</event>
<event>
 7    1  0.2612321E-009  0.1820212E+03  0.7561462E-02  0.1165861E+00
          2   -1    0    0  501    0  0.00000000000E+00  0.00000000000E+00  0.25580865446E+03  0.25580865446E+03  0.00000000000E+00 0. -1.
         -2   -1    0    0    0  501 -0.00000000000E+00 -0.00000000000E+00 -0.15807333881E+03  0.15807333881E+03  0.00000000000E+00 0.  1.
         25    2    1    2    0    0 -0.13997611794E+03  0.44444846513E+02  0.13621456475E+03  0.23614958409E+03  0.12507421973E+03 0.  0.
          5    1    3    3  502    0 -0.14726566397E+03 -0.31748925253E+00  0.10595026523E+03  0.18146682255E+03  0.41800000000E+01 0.  1.
         -5    1    3    3    0  502  0.72895460259E+01  0.44762335765E+02  0.30264299526E+02  0.54682761546E+02  0.41800000000E+01 0.  1.
        -11    1    1    2    0    0  0.23825779622E+02 -0.49475690316E+02  0.10881977480E+01  0.54924456130E+02  0.00000000000E+00 0. -1.
         11    1    1    2    0    0  0.11615033832E+03  0.50308438035E+01 -0.39567446856E+02  0.12280795305E+03  0.00000000000E+00 0.  1.
</event>
<event>
 7    1  0.2612321E-009  0.1232353E+03  0.7561462E-02  0.1237853E+00
         -2   -1    0    0    0  501 -0.00000000000E+00  0.00000000000E+00  0.31094235825E+03  0.31094235825E+03  0.00000000000E+00 0.  1.
          2   -1    0    0  501    0  0.00000000000E+00 -0.00000000000E+00 -0.84476514821E+02  0.84476514821E+02  0.00000000000E+00 0. -1.
         25    2    1    2    0    0 -0.59529495362E+02 -0.91475590018E+02  0.53342818219E+02  0.17436670340E+03  0.12508695620E+03 0.  0.
          5    1    3    3  502    0  0.17476824756E+02 -0.81945743873E+01  0.57489027743E+02  0.60786932508E+02  0.41800000000E+01 0.  1.
         -5    1    3    3    0  502 -0.77006320117E+02 -0.83281015631E+02 -0.41462095239E+01  0.11357977089E+03  0.41800000000E+01 0.  1.
        -11    1    1    2    0    0  0.20199732705E+02  0.58508710935E+02  0.15453529909E+03  0.16647058936E+03  0.00000000000E+00 0.  1.
         11    1    1    2    0    0  0.39329762657E+02  0.32966879083E+02  0.18587726121E+02  0.54581580313E+02  0.00000000000E+00 0. -1.
</event>
<event>
 7    1  0.2612321E-009  0.7171975E+02  0.7561462E-02  0.1354341E+00
          1   -1    0    0  501    0  0.00000000000E+00  0.00000000000E+00  0.33122558808E+03  0.33122558808E+03  0.00000000000E+00 0. -1.
         -1   -1    0    0    0  501 -0.00000000000E+00 -0.00000000000E+00 -0.47024693937E+02  0.47024693937E+02  0.00000000000E+00 0.  1.
         25    2    1    2    0    0 -0.29768351427E+02 -0.49748304785E+02  0.15312364271E+03  0.20605447177E+03  0.12510214548E+03 0.  0.
          5    1    3    3  502    0 -0.35966528516E+02 -0.49190949966E+02  0.90045671939E+01  0.61740548770E+02  0.41800000000E+01 0. -1.
         -5    1    3    3    0  502  0.61981770890E+01 -0.55735481978E+00  0.14411907551E+03  0.14431392300E+03  0.41800000000E+01 0. -1.
        -11    1    1    2    0    0 -0.35938104772E+01  0.39921763591E+02  0.38122204913E+01  0.40264074645E+02  0.00000000000E+00 0.  1.
         11    1    1    2    0    0  0.33362161904E+02  0.98265411943E+01  0.12726503094E+03  0.13193173561E+03  0.00000000000E+00 0. -1.
</event>
<event>
 7    1  0.2612321E-009  0.1261533E+03  0.7561462E-02  0.1233278E+00
         -1   -1    0    0    0  501 -0.00000000000E+00  0.00000000000E+00  0.46668592332E+03  0.46668592332E+03  0.00000000000E+00 0.  1.
          1   -1    0    0  501    0  0.00000000000E+00 -0.00000000000E+00 -0.51083199759E+02  0.51083199759E+02  0.00000000000E+00 0. -1.
         25    2    1    2    0    0 -0.43495458478E+02 -0.85621030307E+02  0.31512613188E+03  0.35237796853E+03  0.12507173133E+03 0.  0.
          5    1    3    3  502    0 -0.53476955236E+02 -0.24659139046E+02  0.26838375118E+03  0.27480023322E+03  0.41800000000E+01 0. -1.
         -5    1    3    3    0  502  0.99814967580E+01 -0.60961891261E+02  0.46742380699E+02  0.77577735318E+02  0.41800000000E+01 0. -1.
        -11    1    1    2    0    0  0.21339599503E+02 -0.16426759923E+02  0.21688242339E+02  0.34577403087E+02  0.00000000000E+00 0.  1.
         11    1    1    2    0    0  0.22155858975E+02  0.10204779023E+03  0.78788349347E+02  0.13081375146E+03  0.00000000000E+00 0. -1.
</event>
<event>
 7    1  0.2612321E-009  0.1321638E+03  0.7561462E-02  0.1224280E+00
         -1   -1    0    0    0  501 -0.00000000000E+00  0.00000000000E+00  0.93494623902E+02  0.93494623902E+02  0.00000000000E+00 0.  1.
          1   -1    0    0  501    0  0.00000000000E+00 -0.00000000000E+00 -0.21285302061E+03  0.21285302061E+03  0.00000000000E+00 0. -1.
         25    2    1    2    0    0  0.81258359264E+02  0.22697784726E+02 -0.35728725502E+02  0.15505679088E+03  0.12509179106E+03 0.  0.
          5    1    3    3  502    0  0.84561164360E+02  0.58934216202E+02  0.10356586974E+01  0.10316189871E+03  0.41800000000E+01 0.  1.
         -5    1    3    3    0  502 -0.33028050960E+01 -0.36236431475E+02 -0.36764384200E+02  0.51894892168E+02  0.41800000000E+01 0.  1.
        -11    1    1    2    0    0 -0.27078136701E+02  0.35750319016E+02 -0.19104107988E+02  0.48747079287E+02  0.00000000000E+00 0. -1.
         11    1    1    2    0    0 -0.54180222563E+02 -0.58448103743E+02 -0.64525563216E+02  0.10254377434E+03  0.00000000000E+00 0.  1.
</event>
<event>
 7    1  0.2612321E-009  0.2325189E+03  0.7561462E-02  0.1124879E+00
          2   -1    0    0  501    0  0.00000000000E+00  0.00000000000E+00  0.30030306786E+03  0.30030306786E+03  0.00000000000E+00 0. -1.
         -2   -1    0    0    0  501 -0.00000000000E+00 -0.00000000000E+00 -0.19539074525E+03  0.19539074525E+03  0.00000000000E+00 0.  1.
         25    2    1    2    0    0  0.21483431246E+03  0.19035323972E+02  0.37185835495E+02  0.25208623586E+03  0.12509419882E+03 0.  0.
          5    1    3    3  502    0 -0.43693988121E+01  0.29114720386E+02  0.19422441168E+01  0.29799384244E+02  0.41800000000E+01 0.  1.
         -5    1    3    3    0  502  0.21920371128E+03 -0.10079396414E+02  0.35243591379E+02  0.22228685162E+03  0.41800000000E+01 0.  1.
        -11    1    1    2    0    0 -0.13177640352E+03 -0.77306644648E+01 -0.57656908459E+01  0.13212882686E+03  0.00000000000E+00 0.  1.
         11    1    1    2    0    0 -0.83057908944E+02 -0.11304659507E+02  0.73492177963E+02  0.11147875038E+03  0.00000000000E+00 0. -1.
</event>
<event>
 7    1  0.2612321E-009  0.2035921E+03  0.7561462E-02  0.1146743E+00
         -2   -1    0    0    0  501 -0.00000000000E+00  0.00000000000E+00  0.29318019564E+02  0.29318019564E+02  0.00000000000E+00 0. -1.
          2   -1    0    0  501    0  0.00000000000E+00 -0.00000000000E+00 -0.15444459309E+04  0.15444459309E+04  0.00000000000E+00 0.  1.
         25    2    1    2    0    0 -0.15877323609E+03 -0.79821136182E+02 -0.94305561819E+03  0.96777773114E+03  0.12513785839E+03 0.  0.
          5    1    3    3  502    0  0.91188614175E+01 -0.34581313334E+02 -0.85690372013E+02  0.92948013003E+02  0.41800000000E+01 0.  1.
         -5    1    3    3    0  502 -0.16789209751E+03 -0.45239822848E+02 -0.85736524618E+03  0.87482971813E+03  0.41800000000E+01 0.  1.
        -11    1    1    2    0    0  0.85298265813E+02  0.88911722817E+02 -0.40300737244E+03  0.42142144090E+03  0.00000000000E+00 0. -1.
         11    1    1    2    0    0  0.73474970279E+02 -0.90905866355E+01 -0.16906492066E+03  0.18456477839E+03  0.00000000000E+00 0.  1.
</event>
<event>
 7    1  0.2612321E-009  0.8710879E+02  0.7561462E-02  0.1310008E+00
          2   -1    0    0  501    0  0.00000000000E+00  0.00000000000E+00  0.91129093689E+03  0.91129093689E+03  0.00000000000E+00 0. -1.
         -2   -1    0    0    0  501 -0.00000000000E+00 -0.00000000000E+00 -0.14189723533E+02  0.14189723533E+02  0.00000000000E+00 0.  1.
         25    2    1    2    0    0  0.11159730444E+02 -0.33096516021E+02  0.56341702650E+03  0.57819222462E+03  0.12509030300E+03 0.  0.
          5    1    3    3  502    0 -0.27477761474E+02 -0.26992206604E+02  0.49921811419E+02  0.63192295799E+02  0.41800000000E+01 0.  1.
         -5    1    3    3    0  502  0.38637491917E+02 -0.61043094170E+01  0.51349521508E+03  0.51499992882E+03  0.41800000000E+01 0.  1.
        -11    1    1    2    0    0  0.36358811028E+02 -0.29681862863E+01  0.13498746682E+03  0.13982985900E+03  0.00000000000E+00 0.  1.
         11    1    1    2    0    0 -0.47518541472E+02  0.36064702307E+02  0.19869672003E+03  0.20745857680E+03  0.00000000000E+00 0. -1.
</event>
<event>
 7    1  0.2688552E-009  0.1619492E+03  0.7561462E-02  0.1186514E+00
          2   -1    0    0  501    0  0.00000000000E+00  0.00000000000E+00  0.65237829644E+03  0.65237829644E+03  0.00000000000E+00 0. -1.
         -2   -1    0    0    0  501 -0.00000000000E+00 -0.00000000000E+00 -0.45844960765E+02  0.45844960765E+02  0.00000000000E+00 0.  1.
         25    2    1    2    0    0 -0.11651573020E+03 -0.64621557812E+02  0.28968447006E+03  0.34251643430E+03  0.12509418234E+03 0.  0.
          5    1    3    3  502    0  0.69143254024E+01 -0.46064464574E+02  0.33549172767E+02  0.57556599844E+02  0.41800000000E+01 0. -1.
         -5    1    3    3    0  502 -0.12343005560E+03 -0.18557093238E+02  0.25613529729E+03  0.28495983445E+03  0.41800000000E+01 0. -1.
        -11    1    1    2    0    0  0.62526311893E+02 -0.65975013150E+01  0.74964088612E+02  0.97840080151E+02  0.00000000000E+00 0.  1.
         11    1    1    2    0    0  0.53989418305E+02  0.71219059127E+02  0.24188477701E+03  0.25786674276E+03  0.00000000000E+00 0. -1.
</event>
<event>
 7    1  0.2612321E-009  0.2145518E+03  0.7561462E-02  0.1138011E+00
         -2   -1    0    0    0  501 -0.00000000000E+00  0.00000000000E+00  0.34022001725E+03  0.34022001725E+03  0.00000000000E+00 0. -1.
          2   -1    0    0  501    0  0.00000000000E+00 -0.00000000000E+00 -0.15513477381E+03  0.15513477381E+03  0.00000000000E+00 0.  1.
         25    2    1    2    0    0 -0.18758792993E+03 -0.59175208732E+02  0.75592273675E+02  0.24505597535E+03  0.12508917791E+03 0.  0.
          5    1    3    3  502    0 -0.13775661619E+03 -0.67545373361E+02 -0.66277548240E+00  0.15348346634E+03  0.41800000000E+01 0. -1.
         -5    1    3    3    0  502 -0.49831313740E+02  0.83701646285E+01  0.76255049157E+02  0.91572509013E+02  0.41800000000E+01 0. -1.
        -11    1    1    2    0    0  0.24794691412E+02 -0.30304665567E+02  0.22691805844E+02  0.45255580095E+02  0.00000000000E+00 0. -1.
         11    1    1    2    0    0  0.16279323852E+03  0.89479874299E+02  0.86801163924E+02  0.20504323561E+03  0.00000000000E+00 0.  1.
</event>
<event>
 7    1  0.2612321E-009  0.1112434E+03  0.7561462E-02  0.1258284E+00
          1   -1    0    0  501    0  0.00000000000E+00  0.00000000000E+00  0.48207588817E+02  0.48207588817E+02  0.00000000000E+00 0. -1.
         -1   -1    0    0    0  501 -0.00000000000E+00 -0.00000000000E+00 -0.33562462076E+03  0.33562462076E+03  0.00000000000E+00 0.  1.
         25    2    1    2    0    0  0.13131601740E+02 -0.64780782528E+02 -0.15111301767E+03  0.20700632835E+03  0.12508991613E+03 0.  0.
          5    1    3    3  502    0  0.50649030456E+02 -0.40520162092E+02 -0.19357298526E+02  0.67818767523E+02  0.41800000000E+01 0.  1.
         -5    1    3    3    0  502 -0.37517428716E+02 -0.24260620436E+02 -0.13175571914E+03  0.13918756082E+03  0.41800000000E+01 0.  1.
        -11    1    1    2    0    0  0.20289843103E+02  0.74977037173E+02 -0.92187289268E+02  0.12054762602E+03  0.00000000000E+00 0.  1.
         11    1    1    2    0    0 -0.33421444843E+02 -0.10196254645E+02 -0.44116725008E+02  0.56278255211E+02  0.00000000000E+00 0. -1.
</event>
<event>
 7    1  0.2612321E-009  0.1430518E+03  0.7561462E-02  0.1209281E+00
          2   -1    0    0  501    0  0.00000000000E+00  0.00000000000E+00  0.95187689086E+02  0.95187689086E+02  0.00000000000E+00 0. -1.
         -2   -1    0    0    0  501 -0.00000000000E+00 -0.00000000000E+00 -0.28559302419E+03  0.28559302419E+03  0.00000000000E+00 0.  1.
         25    2    1    2    0    0 -0.76413592638E+02 -0.67921937758E+02 -0.18846021752E+03  0.24822819434E+03  0.12509019190E+03 0.  0.
          5    1    3    3  502    0 -0.10420241604E+03 -0.30388477429E+02 -0.97814029219E+02  0.14617338944E+03  0.41800000000E+01 0.  1.
         -5    1    3    3    0  502  0.27788823397E+02 -0.37533460329E+02 -0.90646188301E+02  0.10205480490E+03  0.41800000000E+01 0.  1.
        -11    1    1    2    0    0  0.57895063771E+02  0.86677937076E+02  0.76199833979E+01  0.10451300078E+03  0.00000000000E+00 0.  1.
         11    1    1    2    0    0  0.18518528867E+02 -0.18755999318E+02 -0.95651009857E+01  0.28039518161E+02  0.00000000000E+00 0. -1.
</event>
<event>
 7    1  0.2612321E-009  0.9624193E+02  0.7561462E-02  0.1288403E+00
         -2   -1    0    0    0  501 -0.00000000000E+00  0.00000000000E+00  0.40850657038E+02  0.40850657038E+02  0.00000000000E+00 0.  1.
          2   -1    0    0  501    0  0.00000000000E+00 -0.00000000000E+00 -0.34119360324E+03  0.34119360324E+03  0.00000000000E+00 0. -1.
         25    2    1    2    0    0  0.46468201338E+02 -0.26024863666E+01 -0.17873483926E+03  0.22305748038E+03  0.12506970103E+03 0.  0.
          5    1    3    3  502    0 -0.37344517937E+02  0.11093181501E+02 -0.99088385156E+02  0.10655351786E+03  0.41800000000E+01 0.  1.
         -5    1    3    3    0  502  0.83812719276E+02 -0.13695667867E+02 -0.79646454108E+02  0.11650396252E+03  0.41800000000E+01 0.  1.
        -11    1    1    2    0    0 -0.44038785329E+02 -0.17967338931E+02 -0.14254261901E+02  0.49653034790E+02  0.00000000000E+00 0.  1.
         11    1    1    2    0    0 -0.24294160093E+01  0.20569825298E+02 -0.10735384504E+03  0.10933374511E+03  0.00000000000E+00 0. -1.
</event>
<event>
 7    1  0.2612321E-009  0.1081818E+03  0.7561462E-02  0.1263974E+00
         -1   -1    0    0    0  501 -0.00000000000E+00  0.00000000000E+00  0.41692266464E+03  0.41692266464E+03  0.00000000000E+00 0.  1.
          1   -1    0    0  501    0  0.00000000000E+00 -0.00000000000E+00 -0.30152633923E+02  0.30152633923E+02  0.00000000000E+00 0. -1.
         25    2    1    2    0    0  0.33768668507E+02 -0.13255170637E+02  0.21868732185E+03  0.25453429275E+03  0.12509012322E+03 0.  0.
          5    1    3    3  502    0  0.16046679612E+01 -0.66888181473E+02  0.12443794083E+03  0.14134665648E+03  0.41800000000E+01 0. -1.
         -5    1    3    3    0  502  0.32164000546E+02  0.53633010836E+02  0.94249381024E+02  0.11318763628E+03  0.41800000000E+01 0. -1.
        -11    1    1    2    0    0  0.23804634275E+02 -0.82435788262E+01  0.88355827790E+02  0.91876925881E+02  0.00000000000E+00 0.  1.
         11    1    1    2    0    0 -0.57573302782E+02  0.21498749463E+02  0.79726881070E+02  0.10066407992E+03  0.00000000000E+00 0. -1.
</event>
<event>
 7    1  0.2612321E-009  0.2464448E+03  0.7561462E-02  0.1115572E+00
         -2   -1    0    0    0  501 -0.00000000000E+00  0.00000000000E+00  0.17249046462E+03  0.17249046462E+03  0.00000000000E+00 0.  1.
          2   -1    0    0  501    0  0.00000000000E+00 -0.00000000000E+00 -0.39135412969E+03  0.39135412969E+03  0.00000000000E+00 0. -1.
         25    2    1    2    0    0  0.54139342056E+02 -0.22234700111E+03 -0.50717237549E+02  0.26568608665E+03  0.12509037210E+03 0.  0.
          5    1    3    3  502    0  0.68539214237E+02 -0.72504349010E+02 -0.56965703834E+02  0.11496550929E+03  0.41800000000E+01 0. -1.
         -5    1    3    3    0  502 -0.14399872180E+02 -0.14984265210E+03  0.62484662851E+01  0.15072057736E+03  0.41800000000E+01 0. -1.
        -11    1    1    2    0    0 -0.62131333375E+02  0.87281695205E+02 -0.10046622004E+03  0.14687361327E+03  0.00000000000E+00 0. -1.
         11    1    1    2    0    0  0.79919913184E+01  0.13506530591E+03 -0.67680207486E+02  0.15128489439E+03  0.00000000000E+00 0.  1.
</event>
<event>
 7    1  0.2612321E-009  0.1120086E+03  0.7561462E-02  0.1256895E+00
          2   -1    0    0  501    0  0.00000000000E+00  0.00000000000E+00  0.11065355956E+03  0.11065355956E+03  0.00000000000E+00 0. -1.
         -2   -1    0    0    0  501 -0.00000000000E+00 -0.00000000000E+00 -0.12649661019E+03  0.12649661019E+03  0.00000000000E+00 0.  1.
         25    2    1    2    0    0 -0.59781730426E+02  0.23007458316E+02 -0.32611868126E+02  0.14426952359E+03  0.12508782141E+03 0.  0.
          5    1    3    3  502    0  0.19630806222E+02 -0.31506114053E+02 -0.29848620487E+02  0.47816485866E+02  0.41800000000E+01 0.  1.
         -5    1    3    3    0  502 -0.79412536648E+02  0.54513572369E+02 -0.27632476395E+01  0.96453037727E+02  0.41800000000E+01 0.  1.
        -11    1    1    2    0    0  0.68095073216E+02 -0.34283417538E+02  0.87502776739E+01  0.76738901958E+02  0.00000000000E+00 0.  1.
         11    1    1    2    0    0 -0.83133427901E+01  0.11275959222E+02  0.80185398314E+01  0.16141744198E+02  0.00000000000E+00 0. -1.
</event>
<event>
 7    1  0.2612321E-009  0.8492083E+02  0.7561462E-02  0.1315640E+00
          2   -1    0    0  501    0  0.00000000000E+00  0.00000000000E+00  0.49723631399E+02  0.49723631399E+02  0.00000000000E+00 0.  1.
         -2   -1    0    0    0  501 -0.00000000000E+00 -0.00000000000E+00 -0.25627346691E+03  0.25627346691E+03  0.00000000000E+00 0. -1.
         25    2    1    2    0    0 -0.26041053965E+02  0.19894176759E+02 -0.10599484154E+03  0.16719824861E+03  0.12508570320E+03 0.  0.
          5    1    3    3  502    0 -0.64571967822E+02 -0.78864797873E+00 -0.10489974548E+03  0.12325416827E+03  0.41800000000E+01 0. -1.
         -5    1    3    3    0  502  0.38530913858E+02  0.20682824738E+02 -0.10950960654E+01  0.43944080343E+02  0.41800000000E+01 0. -1.
        -11    1    1    2    0    0 -0.15492596445E+02 -0.10201367154E+02 -0.93801188980E+02  0.95617736276E+02  0.00000000000E+00 0. -1.
         11    1    1    2    0    0  0.41533650410E+02 -0.96928096055E+01 -0.67538049852E+01  0.43181113420E+02  0.00000000000E+00 0.  1.
</event>
<event>
 7    1  0.2612321E-009  0.2104818E+03  0.7561462E-02  0.1141185E+00
          1   -1    0    0  501    0  0.00000000000E+00  0.00000000000E+00  0.86569652667E+03  0.86569652667E+03  0.00000000000E+00 0. -1.
         -1   -1    0    0    0  501 -0.00000000000E+00 -0.00000000000E+00 -0.63282043027E+02  0.63282043027E+02  0.00000000000E+00 0.  1.
         25    2    1    2    0    0 -0.10825744713E+03  0.16946705731E+03  0.49545858713E+03  0.54914995311E+03  0.12509077130E+03 0.  0.
          5    1    3    3  502    0  0.57617324793E+01  0.13285439890E+02 -0.21946067785E+01  0.15231190799E+02  0.41800000000E+01 0.  1.
         -5    1    3    3    0  502 -0.11401917961E+03  0.15618161742E+03  0.49765319391E+03  0.53391876231E+03  0.41800000000E+01 0.  1.
        -11    1    1    2    0    0  0.23243517533E+02 -0.10006177015E+03  0.20831603668E+03  0.23226749685E+03  0.00000000000E+00 0. -1.
         11    1    1    2    0    0  0.85013929602E+02 -0.69405287157E+02  0.98639859837E+02  0.14756111974E+03  0.00000000000E+00 0.  1.
</event>
<event>
 7    1  0.2612321E-009  0.1069787E+03  0.7561462E-02  0.1266269E+00
          2   -1    0    0  501    0  0.00000000000E+00  0.00000000000E+00  0.26847174408E+03  0.26847174408E+03  0.00000000000E+00 0. -1.
         -2   -1    0    0    0  501 -0.00000000000E+00 -0.00000000000E+00 -0.52520413416E+02  0.52520413416E+02  0.00000000000E+00 0.  1.
         25    2    1    2    0    0  0.16178806053E+02  0.40521179927E+02  0.95879646190E+02  0.16353545587E+03  0.12508884437E+03 0.  0.
          5    1    3    3  502    0 -0.92439930780E+01  0.71668636313E+02  0.99397927009E+02  0.12296042100E+03  0.41800000000E+01 0. -1.
         -5    1    3    3    0  502  0.25422799131E+02 -0.31147456386E+02 -0.35182808191E+01  0.40575034872E+02  0.41800000000E+01 0. -1.
        -11    1    1    2    0    0  0.18097864813E+02  0.22823611641E+02  0.26526709704E+02  0.39396907072E+02  0.00000000000E+00 0.  1.
         11    1    1    2    0    0 -0.34276670866E+02 -0.63344791568E+02  0.93544974766E+02  0.11805979455E+03  0.00000000000E+00 0. -1.
</event>
<event>
 7    1  0.2612321E-009  0.8271531E+02  0.7561462E-02  0.1321518E+00
         -2   -1    0    0    0  501 -0.00000000000E+00  0.00000000000E+00  0.78909478979E+02  0.78909478979E+02  0.00000000000E+00 0.  1.
          2   -1    0    0  501    0  0.00000000000E+00 -0.00000000000E+00 -0.18878522654E+03  0.18878522654E+03  0.00000000000E+00 0. -1.
         25    2    1    2    0    0  0.42985304533E+02 -0.13188404764E+02 -0.23006428264E+02  0.13490367820E+03  0.12509211096E+03 0.  0.
          5    1    3    3  502    0 -0.29000189271E+02 -0.84920141603E+01  0.31908965460E+02  0.44144985661E+02  0.41800000000E+01 0. -1.
         -5    1    3    3    0  502  0.71985493804E+02 -0.46963906039E+01 -0.54915393725E+02  0.90758692536E+02  0.41800000000E+01 0. -1.
        -11    1    1    2    0    0 -0.44068886796E+02 -0.50837469927E+01 -0.35605128618E+00  0.44362574761E+02  0.00000000000E+00 0.  1.
         11    1    1    2    0    0  0.10835822631E+01  0.18272151757E+02 -0.86513268008E+02  0.88428452558E+02  0.00000000000E+00 0. -1.
</event>
<event>
 6    1  0.2612321E-009  0.1159299E+03  0.7561462E-02  0.1249966E+00
         -4   -1    0    0    0  501 -0.00000000000E+00  0.00000000000E+00  0.14004770868E+04  0.14004770868E+04  0.00000000000E+00 0.  1.
          4   -1    0    0  501    0  0.00000000000E+00 -0.00000000000E+00 -0.15679518715E+02  0.15679518715E+02  0.00000000000E+00 0. -1.
          5    1    1    2  502    0  0.10821069076E+02  0.24745562505E+02  0.32445769238E+02  0.42422149180E+02  0.41800000000E+01 0. -1.
         -5    1    1    2    0  502  0.73615189435E+02  0.22184592454E+02  0.90253642792E+03  0.90581500781E+03  0.41800000000E+01 0. -1.
        -11    1    1    2    0    0 -0.27500041057E+02 -0.62688117390E+02  0.20720673061E+03  0.21822163396E+03  0.00000000000E+00 0. -1.
         11    1    1    2    0    0 -0.56936217454E+02  0.15757962432E+02  0.24260864032E+03  0.24969781456E+03  0.00000000000E+00 0.  1.
</event>
<event>
 7    1  0.2612321E-009  0.7874086E+02  0.7561462E-02  0.1332663E+00
          2   -1    0    0  501    0  0.00000000000E+00  0.00000000000E+00  0.42736587502E+03  0.42736587502E+03  0.00000000000E+00 0. -1.
         -2   -1    0    0    0  501 -0.00000000000E+00 -0.00000000000E+00 -0.28459421319E+02  0.28459421319E+02  0.00000000000E+00 0.  1.
         25    2    1    2    0    0  0.25071395662E-01 -0.17825692627E+02  0.25737076041E+03  0.28671456500E+03  0.12509107692E+03 0.  0.
          5    1    3    3  502    0 -0.38630758141E+02 -0.35759981340E+02  0.42972475770E+02  0.68082433959E+02  0.41800000000E+01 0.  1.
         -5    1    3    3    0  502  0.38655829536E+02  0.17934288714E+02  0.21439828464E+03  0.21863213104E+03  0.41800000000E+01 0.  1.
        -11    1    1    2    0    0 -0.20029314083E+02  0.31710172109E+02  0.13974929242E+03  0.14469475861E+03  0.00000000000E+00 0. -1.
         11    1    1    2    0    0  0.20004242687E+02 -0.13884479482E+02  0.17864008716E+01  0.24415972724E+02  0.00000000000E+00 0.  1.
</event>
<event>
 7    1  0.2612321E-009  0.1057735E+03  0.7561462E-02  0.1268603E+00
          1   -1    0    0  501    0  0.00000000000E+00  0.00000000000E+00  0.65508833333E+03  0.65508833333E+03  0.00000000000E+00 0. -1.
         -1   -1    0    0    0  501 -0.00000000000E+00 -0.00000000000E+00 -0.24666216311E+02  0.24666216311E+02  0.00000000000E+00 0.  1.
         25    2    1    2    0    0  0.34059093053E+02 -0.53905565623E+02  0.33767822547E+03  0.36570236066E+03  0.12508317559E+03 0.  0.
          5    1    3    3  502    0 -0.19938484550E+02  0.18434498278E+02  0.16489108505E+02  0.32042736965E+02  0.41800000000E+01 0. -1.
         -5    1    3    3    0  502  0.53997577603E+02 -0.72340063901E+02  0.32118911696E+03  0.33365962370E+03  0.41800000000E+01 0. -1.
        -11    1    1    2    0    0  0.12079799959E+02  0.45156007168E+02  0.23509333569E+03  0.23969535464E+03  0.00000000000E+00 0. -1.
         11    1    1    2    0    0 -0.46138893013E+02  0.87495584554E+01  0.57650555867E+02  0.74356834342E+02  0.00000000000E+00 0.  1.
</event>
<event>
 6    1  0.2612321E-009  0.1000065E+03  0.7561462E-02  0.1280282E+00
          1   -1    0    0  501    0  0.00000000000E+00  0.00000000000E+00  0.27612518594E+03  0.27612518594E+03  0.00000000000E+00 0. -1.
         -1   -1    0    0    0  501 -0.00000000000E+00 -0.00000000000E+00 -0.44523587503E+02  0.44523587503E+02  0.00000000000E+00 0.  1.
          5    1    1    2  502    0  0.38540690327E+02 -0.67034008364E+02  0.14727406115E+03  0.16639129958E+03  0.41800000000E+01 0.  1.
         -5    1    1    2    0  502 -0.16250423495E+02  0.37293742032E+02  0.14371754427E+02  0.43346501403E+02  0.41800000000E+01 0.  1.
        -11    1    1    2    0    0  0.20310402920E+02  0.33222462161E+02  0.50968403652E+02  0.64140647250E+02  0.00000000000E+00 0.  1.
         11    1    1    2    0    0 -0.42600669751E+02 -0.34821958286E+01  0.18987379208E+02  0.46770325210E+02  0.00000000000E+00 0. -1.
</event>
<event>
 7    1  0.2612321E-009  0.8281298E+02  0.7561462E-02  0.1321253E+00
         -1   -1    0    0    0  501 -0.00000000000E+00  0.00000000000E+00  0.73274200247E+02  0.73274200247E+02  0.00000000000E+00 0.  1.
          1   -1    0    0  501    0  0.00000000000E+00 -0.00000000000E+00 -0.19661721211E+03  0.19661721211E+03  0.00000000000E+00 0. -1.
         25    2    1    2    0    0 -0.49476565914E+02 -0.46310572129E+01 -0.69522383489E+02  0.15149439516E+03  0.12509121749E+03 0.  0.
          5    1    3    3  502    0 -0.14667990976E+02 -0.22497947192E+02 -0.98785763018E+02  0.10245685415E+03  0.41800000000E+01 0.  1.
         -5    1    3    3    0  502 -0.34808574938E+02  0.17866889979E+02  0.29263379530E+02  0.49037541009E+02  0.41800000000E+01 0.  1.
        -11    1    1    2    0    0 -0.33879901073E+01  0.36970082865E+02 -0.12743275666E+01  0.37146862785E+02  0.00000000000E+00 0.  1.
         11    1    1    2    0    0  0.52864556021E+02 -0.32339025652E+02 -0.52546300807E+02  0.81250154412E+02  0.00000000000E+00 0. -1.
</event>
<event>
 7    1  0.2612321E-009  0.1374133E+03  0.7561462E-02  0.1216853E+00
         -2   -1    0    0    0  501 -0.00000000000E+00  0.00000000000E+00  0.39562662452E+03  0.39562662452E+03  0.00000000000E+00 0.  1.
          2   -1    0    0  501    0  0.00000000000E+00 -0.00000000000E+00 -0.63846926507E+02  0.63846926507E+02  0.00000000000E+00 0. -1.
         25    2    1    2    0    0  0.78881711971E+02  0.28234795203E+02  0.68024915616E+02  0.16520770638E+03  0.12508664581E+03 0.  0.
          5    1    3    3  502    0 -0.30491668664E+02 -0.23852859757E+01  0.35386425346E+02  0.46958523676E+02  0.41800000000E+01 0. -1.
         -5    1    3    3    0  502  0.10937338064E+03  0.30620081179E+02  0.32638490270E+02  0.11824918270E+03  0.41800000000E+01 0. -1.
        -11    1    1    2    0    0 -0.10294775488E+03 -0.25666545698E+02  0.22056843759E+03  0.24475997929E+03  0.00000000000E+00 0. -1.
         11    1    1    2    0    0  0.24066042906E+02 -0.25682495050E+01  0.43186344803E+02  0.49505865350E+02  0.00000000000E+00 0.  1.
</event>
<event>
 7    1  0.2612321E-009  0.2091122E+03  0.7561462E-02  0.1142271E+00
          1   -1    0    0  501    0  0.00000000000E+00  0.00000000000E+00  0.10791768898E+03  0.10791768898E+03  0.00000000000E+00 0. -1.
         -1   -1    0    0    0  501 -0.00000000000E+00 -0.00000000000E+00 -0.52198259825E+03  0.52198259825E+03  0.00000000000E+00 0.  1.
         25    2    1    2    0    0 -0.19082709809E+03 -0.82768061224E+02 -0.28201722966E+03  0.37207106615E+03  0.12505049828E+03 0.  0.
          5    1    3    3  502    0 -0.10899924978E+03 -0.57308449811E+02 -0.25315211313E+03  0.28154672730E+03  0.41800000000E+01 0. -1.
         -5    1    3    3    0  502 -0.81827848305E+02 -0.25459611413E+02 -0.28865116526E+02  0.90524338847E+02  0.41800000000E+01 0. -1.
        -11    1    1    2    0    0  0.43719288483E+02  0.89817485571E+01 -0.67769349215E+02  0.81146365819E+02  0.00000000000E+00 0. -1.
         11    1    1    2    0    0  0.14710780960E+03  0.73786312667E+02 -0.64278330403E+02  0.17668285526E+03  0.00000000000E+00 0.  1.
</event>
<event>
 7    1  0.2612321E-009  0.1501305E+03  0.7561462E-02  0.1200313E+00
          1   -1    0    0  501    0  0.00000000000E+00  0.00000000000E+00  0.87704998683E+02  0.87704998683E+02  0.00000000000E+00 0. -1.
         -1   -1    0    0    0  501 -0.00000000000E+00 -0.00000000000E+00 -0.31899642154E+03  0.31899642154E+03  0.00000000000E+00 0.  1.
         25    2    1    2    0    0 -0.12481100088E+03  0.26985034411E+02 -0.12753067548E+03  0.21958632855E+03  0.12509238376E+03 0.  0.
          5    1    3    3  502    0 -0.14386221936E+03  0.35454774547E+02 -0.82143780928E+02  0.16946519507E+03  0.41800000000E+01 0. -1.
         -5    1    3    3    0  502  0.19051218481E+02 -0.84697401363E+01 -0.45386894557E+02  0.50121133478E+02  0.41800000000E+01 0. -1.
        -11    1    1    2    0    0  0.11884221912E+03 -0.18314760751E+02 -0.46545246580E+02  0.12893937911E+03  0.00000000000E+00 0. -1.
         11    1    1    2    0    0  0.59687817599E+01 -0.86702736602E+01 -0.57215500789E+02  0.58175712557E+02  0.00000000000E+00 0.  1.
</event>
<event>
 7    1  0.2804313E-009  0.1051011E+03  0.7561462E-02  0.1269921E+00
         -1   -1    0    0    0  501 -0.00000000000E+00  0.00000000000E+00  0.96559328617E+02  0.96559328617E+02  0.00000000000E+00 0.  1.
          1   -1    0    0  501    0  0.00000000000E+00 -0.00000000000E+00 -0.15784143643E+03  0.15784143643E+03  0.00000000000E+00 0. -1.
         25    2    1    2    0    0 -0.15239771195E+02  0.56639591076E+02 -0.29066293339E+02  0.14118133863E+03  0.12508807723E+03 0.  0.
          5    1    3    3  502    0  0.28070077706E+02  0.74374758742E+02 -0.45150226310E+02  0.91518027384E+02  0.41800000000E+01 0. -1.
         -5    1    3    3    0  502 -0.43309848901E+02 -0.17735167667E+02  0.16083932971E+02  0.49663311245E+02  0.41800000000E+01 0. -1.
        -11    1    1    2    0    0 -0.22931278517E+02 -0.16732404203E+02  0.21936747372E+02  0.35875308641E+02  0.00000000000E+00 0.  1.
         11    1    1    2    0    0  0.38171049712E+02 -0.39907186873E+02 -0.54152561847E+02  0.77344117778E+02  0.00000000000E+00 0. -1.
</event>
<event>
 7    1  0.2612321E-009  0.1109647E+03  0.7561462E-02  0.1258794E+00
          1   -1    0    0  501    0  0.00000000000E+00  0.00000000000E+00  0.11135265387E+03  0.11135265387E+03  0.00000000000E+00 0. -1.
         -1   -1    0    0    0  501 -0.00000000000E+00 -0.00000000000E+00 -0.15900158633E+03  0.15900158633E+03  0.00000000000E+00 0.  1.
         25    2    1    2    0    0 -0.43847704286E+02 -0.44773384473E+02 -0.72923460136E+02  0.15777396790E+03  0.12509003469E+03 0.  0.
          5    1    3    3  502    0 -0.84064595609E+02 -0.48378207034E+02 -0.38099888319E+02  0.10428988945E+03  0.41800000000E+01 0. -1.
         -5    1    3    3    0  502  0.40216891324E+02  0.36048225606E+01 -0.34823571817E+02  0.53484078449E+02  0.41800000000E+01 0. -1.
        -11    1    1    2    0    0  0.54109289602E+02  0.20432398721E+02 -0.19123654155E+02  0.60918078490E+02  0.00000000000E+00 0.  1.
         11    1    1    2    0    0 -0.10261585316E+02  0.24340985752E+02  0.44398181830E+02  0.51662193821E+02  0.00000000000E+00 0. -1.
</event>
<event>
 7    1  0.2612321E-009  0.1133475E+03  0.7561462E-02  0.1254493E+00
         -2   -1    0    0    0  501 -0.00000000000E+00  0.00000000000E+00  0.59800159916E+02  0.59800159916E+02  0.00000000000E+00 0.  1.
          2   -1    0    0  501    0  0.00000000000E+00 -0.00000000000E+00 -0.21824239033E+03  0.21824239033E+03  0.00000000000E+00 0. -1.
         25    2    1    2    0    0 -0.72934102286E+01  0.32944965576E+02 -0.10733609762E+03  0.16823291988E+03  0.12507083150E+03 0.  0.
          5    1    3    3  502    0  0.55095699715E+02 -0.64485521840E+01 -0.47134583180E+02  0.72912696315E+02  0.41800000000E+01 0.  1.
         -5    1    3    3    0  502 -0.62389109943E+02  0.39393517760E+02 -0.60201514436E+02  0.95320223570E+02  0.41800000000E+01 0.  1.
        -11    1    1    2    0    0 -0.41371174913E+02 -0.68220649994E+01 -0.20713932987E+02  0.46767314487E+02  0.00000000000E+00 0.  1.
         11    1    1    2    0    0  0.48664585141E+02 -0.26122900577E+02 -0.30392199812E+02  0.63042315875E+02  0.00000000000E+00 0. -1.
</event>
<event>
 7    1  0.3226457E-009  0.1106668E+03  0.7561462E-02  0.1259340E+00
          2   -1    0    0  501    0  0.00000000000E+00  0.00000000000E+00  0.84888802137E+03  0.84888802137E+03  0.00000000000E+00 0. -1.
         -2   -1    0    0    0  501 -0.00000000000E+00 -0.00000000000E+00 -0.27583482189E+02  0.27583482189E+02  0.00000000000E+00 0.  1.
         25    2    1    2    0    0  0.22249290152E+02 -0.54180112681E+02  0.69857115815E+03  0.71209470253E+03  0.12508671728E+03 0.  0.
          5    1    3    3  502    0 -0.50471245494E+02 -0.25858507955E+02  0.22249987898E+03  0.22965120858E+03  0.41800000000E+01 0. -1.
         -5    1    3    3    0  502  0.72720535646E+02 -0.28321604726E+02  0.47607127918E+03  0.48244349395E+03  0.41800000000E+01 0. -1.
        -11    1    1    2    0    0 -0.40583414138E+02  0.15374053665E+02  0.11203174330E+03  0.12014360797E+03  0.00000000000E+00 0. -1.
         11    1    1    2    0    0  0.18334123986E+02  0.38806059016E+02  0.10701637730E+02  0.44233193066E+02  0.00000000000E+00 0.  1.
</event>
<event>
 7    1  0.2612321E-009  0.9562042E+02  0.7561462E-02  0.1289785E+00
         -2   -1    0    0    0  501 -0.00000000000E+00  0.00000000000E+00  0.14400097006E+02  0.14400097006E+02  0.00000000000E+00 0.  1.
          2   -1    0    0  501    0  0.00000000000E+00 -0.00000000000E+00 -0.97743951650E+03  0.97743951650E+03  0.00000000000E+00 0. -1.
         25    2    1    2    0    0 -0.36049786209E+02 -0.14326328042E+02 -0.61469656708E+03  0.62849338003E+03  0.12508888198E+03 0.  0.
          5    1    3    3  502    0 -0.60641997464E+02  0.77251902190E+01 -0.56713946972E+03  0.57043998890E+03  0.41800000000E+01 0.  1.
         -5    1    3    3    0  502  0.24592211255E+02 -0.22051518261E+02 -0.47557097358E+02  0.58053391125E+02  0.41800000000E+01 0.  1.
        -11    1    1    2    0    0  0.49286777336E+02  0.42796755192E+02 -0.16696422198E+03  0.17927018742E+03  0.00000000000E+00 0.  1.
         11    1    1    2    0    0 -0.13236991127E+02 -0.28470427150E+02 -0.18137863044E+03  0.18407604607E+03  0.00000000000E+00 0. -1.
</event>
<event>
 7    1  0.2612321E-009  0.8205736E+02  0.7561462E-02  0.1323312E+00
         -1   -1    0    0    0  501 -0.00000000000E+00  0.00000000000E+00  0.53640165464E+02  0.53640165464E+02  0.00000000000E+00 0.  1.
          1   -1    0    0  501    0  0.00000000000E+00 -0.00000000000E+00 -0.21686031775E+03  0.21686031775E+03  0.00000000000E+00 0. -1.
         25    2    1    2    0    0 -0.54590726702E+01  0.40607365660E+01 -0.97777169749E+02  0.15891542828E+03  0.12508975724E+03 0.  0.
          5    1    3    3  502    0  0.57737134169E+02  0.13211132140E+00 -0.66511196313E+02  0.88174858948E+02  0.41800000000E+01 0. -1.
         -5    1    3    3    0  502 -0.63196206839E+02  0.39286252446E+01 -0.31265973436E+02  0.70740569337E+02  0.41800000000E+01 0. -1.
        -11    1    1    2    0    0  0.56255087749E+01  0.18945711905E+02  0.16952396105E+02  0.26037858635E+02  0.00000000000E+00 0.  1.
         11    1    1    2    0    0 -0.16643610475E+00 -0.23006448471E+02 -0.82395378641E+02  0.85547196293E+02  0.00000000000E+00 0. -1.
</event>
<event>
 7    1  0.2612321E-009  0.1385221E+03  0.7561462E-02  0.1215331E+00
          2   -1    0    0  501    0  0.00000000000E+00  0.00000000000E+00  0.12572234815E+04  0.12572234815E+04  0.00000000000E+00 0. -1.
         -2   -1    0    0    0  501 -0.00000000000E+00 -0.00000000000E+00 -0.17019501651E+02  0.17019501651E+02  0.00000000000E+00 0.  1.
         25    2    1    2    0    0  0.49942266926E+02  0.81484016386E+02  0.57726037607E+03  0.59833942262E+03  0.12508656177E+03 0.  0.
          5    1    3    3  502    0  0.89310796921E+01 -0.27334552760E+02  0.45439085567E+02  0.53936303695E+02  0.41800000000E+01 0.  1.
         -5    1    3    3    0  502  0.41011187234E+02  0.10881856915E+03  0.53182129050E+03  0.54440311893E+03  0.41800000000E+01 0.  1.
        -11    1    1    2    0    0  0.16464720178E+02 -0.59396577253E+02  0.29705188898E+03  0.30337907829E+03  0.00000000000E+00 0.  1.
         11    1    1    2    0    0 -0.66406987104E+02 -0.22087439133E+02  0.36589171477E+03  0.37252448220E+03  0.00000000000E+00 0. -1.
</event>
<event>
 7    1  0.2612321E-009  0.1426411E+03  0.7561462E-02  0.1209819E+00
         -2   -1    0    0    0  501 -0.00000000000E+00  0.00000000000E+00  0.10757120691E+03  0.10757120691E+03  0.00000000000E+00 0.  1.
          2   -1    0    0  501    0  0.00000000000E+00 -0.00000000000E+00 -0.24977581054E+03  0.24977581054E+03  0.00000000000E+00 0. -1.
         25    2    1    2    0    0 -0.54400213580E+01  0.99945830186E+02 -0.15263214669E+03  0.22127676486E+03  0.12509225259E+03 0.  0.
          5    1    3    3  502    0 -0.12422509289E+02  0.12536056362E+03 -0.14764460975E+03  0.19412880475E+03  0.41800000000E+01 0.  1.
         -5    1    3    3    0  502  0.69824879314E+01 -0.25414733434E+02 -0.49875369487E+01  0.27147960108E+02  0.41800000000E+01 0.  1.
        -11    1    1    2    0    0  0.33289557680E+02 -0.50697438057E+01 -0.99512369132E+01  0.35113018510E+02  0.00000000000E+00 0.  1.
         11    1    1    2    0    0 -0.27849536322E+02 -0.94876086381E+02  0.20378779978E+02  0.10095723408E+03  0.00000000000E+00 0. -1.
</event>
<event>
 7    1  0.2612321E-009  0.1656453E+03  0.7561462E-02  0.1182467E+00
         -1   -1    0    0    0  501 -0.00000000000E+00  0.00000000000E+00  0.10196402717E+03  0.10196402717E+03  0.00000000000E+00 0.  1.
          1   -1    0    0  501    0  0.00000000000E+00 -0.00000000000E+00 -0.44548466016E+03  0.44548466016E+03  0.00000000000E+00 0. -1.
         25    2    1    2    0    0  0.13083265700E+03 -0.51819055080E+02 -0.27857290507E+02  0.19033636057E+03  0.12509797326E+03 0.  0.
          5    1    3    3  502    0  0.15394999627E+03 -0.31634581219E+02 -0.21056172994E+02  0.15862592128E+03  0.41800000000E+01 0. -1.
         -5    1    3    3    0  502 -0.23117339278E+02 -0.20184473861E+02 -0.68011175130E+01  0.31710439287E+02  0.41800000000E+01 0. -1.
        -11    1    1    2    0    0 -0.55341621542E+02  0.83038841959E+01 -0.42162093309E+02  0.70066337708E+02  0.00000000000E+00 0.  1.
         11    1    1    2    0    0 -0.75491035453E+02  0.43515170884E+02 -0.27350124918E+03  0.28704598905E+03  0.00000000000E+00 0. -1.
</event>
<event>
 7    1  0.2612321E-009  0.1133786E+03  0.7561462E-02  0.1254438E+00
         -1   -1    0    0    0  501 -0.00000000000E+00  0.00000000000E+00  0.21594984445E+03  0.21594984445E+03  0.00000000000E+00 0.  1.
          1   -1    0    0  501    0  0.00000000000E+00 -0.00000000000E+00 -0.94439627309E+02  0.94439627309E+02  0.00000000000E+00 0. -1.
         25    2    1    2    0    0  0.12730030302E+02  0.73869999684E+02  0.76670692459E+01  0.14602959729E+03  0.12508808420E+03 0.  0.
          5    1    3    3  502    0 -0.45219791041E+02  0.44470898910E+02 -0.30556942772E+02  0.70524389422E+02  0.41800000000E+01 0. -1.
         -5    1    3    3    0  502  0.57949821343E+02  0.29399100774E+02  0.38224012018E+02  0.75505207866E+02  0.41800000000E+01 0. -1.
        -11    1    1    2    0    0  0.22137322329E+02 -0.53019612850E+02  0.17915171133E+02  0.60183832907E+02  0.00000000000E+00 0. -1.
         11    1    1    2    0    0 -0.34867352631E+02 -0.20850386834E+02  0.95927976762E+02  0.10417604157E+03  0.00000000000E+00 0.  1.
</event>
<event>
 7    1  0.2612321E-009  0.1201200E+03  0.7561462E-02  0.1242899E+00
          4   -1    0    0  501    0  0.00000000000E+00  0.00000000000E+00  0.20598915604E+03  0.20598915604E+03  0.00000000000E+00 0. -1.
         -4   -1    0    0    0  501 -0.00000000000E+00 -0.00000000000E+00 -0.99721273087E+02  0.99721273087E+02  0.00000000000E+00 0.  1.
         25    2    1    2    0    0 -0.54752976903E+02  0.15168220406E+02 -0.19449231727E+02  0.13875202436E+03  0.12508352513E+03 0.  0.
          5    1    3    3  502    0  0.39208816836E+02 -0.59589012741E+00 -0.18062590366E+02  0.43375292200E+02  0.41800000000E+01 0.  1.
         -5    1    3    3    0  502 -0.93961793739E+02  0.15764110534E+02 -0.13866413615E+01  0.95376732161E+02  0.41800000000E+01 0.  1.
        -11    1    1    2    0    0  0.78054729296E+02 -0.79298086301E+00  0.11149976087E+03  0.13610792137E+03  0.00000000000E+00 0.  1.
         11    1    1    2    0    0 -0.23301752393E+02 -0.14375239543E+02  0.14217353805E+02  0.30850483395E+02  0.00000000000E+00 0. -1.
</event>
<event>
 7    1  0.2612321E-009  0.1209481E+03  0.7561462E-02  0.1241541E+00
          3   -1    0    0  501    0  0.00000000000E+00  0.00000000000E+00  0.12120676590E+03  0.12120676590E+03  0.00000000000E+00 0. -1.
         -3   -1    0    0    0  501 -0.00000000000E+00 -0.00000000000E+00 -0.15952624586E+03  0.15952624586E+03  0.00000000000E+00 0.  1.
         25    2    1    2    0    0  0.30040437606E+02 -0.80113061104E+02 -0.85391656981E+01  0.15179263724E+03  0.12509019513E+03 0.  0.
          5    1    3    3  502    0  0.79135956256E+02 -0.47372465929E+02 -0.74065769779E+01  0.92622782745E+02  0.41800000000E+01 0.  1.
         -5    1    3    3    0  502 -0.49095518650E+02 -0.32740595175E+02 -0.11325887202E+01  0.59169854496E+02  0.41800000000E+01 0.  1.
        -11    1    1    2    0    0 -0.29020937790E+02  0.35795800479E+02  0.29651333536E+02  0.54797406349E+02  0.00000000000E+00 0. -1.
         11    1    1    2    0    0 -0.10194998166E+01  0.44317260624E+02 -0.59431647802E+02  0.74142968174E+02  0.00000000000E+00 0.  1.
</event>
<event>
 7    1  0.2612321E-009  0.1063015E+03  0.7561462E-02  0.1267576E+00
         -2   -1    0    0    0  501 -0.00000000000E+00  0.00000000000E+00  0.51020153528E+02  0.51020153528E+02  0.00000000000E+00 0.  1.
          2   -1    0    0  501    0  0.00000000000E+00 -0.00000000000E+00 -0.28531933952E+03  0.28531933952E+03  0.00000000000E+00 0. -1.
         25    2    1    2    0    0 -0.43942746017E+02 -0.29473646891E+02 -0.13953961929E+03  0.19472567674E+03  0.12508846087E+03 0.  0.
          5    1    3    3  502    0  0.77560532395E+01 -0.53663149703E+02 -0.12403347399E+03  0.13543140355E+03  0.41800000000E+01 0. -1.
         -5    1    3    3    0  502 -0.51698799257E+02  0.24189502812E+02 -0.15506145299E+02  0.59294273188E+02  0.41800000000E+01 0. -1.
        -11    1    1    2    0    0  0.44696959561E+02 -0.21787061993E+02 -0.26801564742E+02  0.56487327223E+02  0.00000000000E+00 0.  1.
         11    1    1    2    0    0 -0.75421354357E+00  0.51260708884E+02 -0.67958001961E+02  0.85126489084E+02  0.00000000000E+00 0. -1.
</event>
<event>
 7    1  0.2612321E-009  0.9970487E+02  0.7561462E-02  0.1280918E+00
          1   -1    0    0  501    0  0.00000000000E+00  0.00000000000E+00  0.20305120102E+04  0.20305120102E+04  0.00000000000E+00 0. -1.
         -1   -1    0    0    0  501 -0.00000000000E+00 -0.00000000000E+00 -0.10448051740E+02  0.10448051740E+02  0.00000000000E+00 0.  1.
         25    2    1    2    0    0  0.54419090092E+02  0.18035213148E+02  0.16227596227E+04  0.16285833192E+04  0.12509247850E+03 0.  0.
          5    1    3    3  502    0  0.56278542848E+02  0.43233906659E+02  0.15465974038E+04  0.15482304243E+04  0.41800000000E+01 0.  1.
         -5    1    3    3    0  502 -0.18594527557E+01 -0.25198693511E+02  0.76162218944E+02  0.80352894868E+02  0.41800000000E+01 0.  1.
        -11    1    1    2    0    0 -0.21933834406E+02 -0.51556815075E+02  0.28993715824E+03  0.29530112428E+03  0.00000000000E+00 0. -1.
         11    1    1    2    0    0 -0.32485255686E+02  0.33521601928E+02  0.10736717750E+03  0.11707561846E+03  0.00000000000E+00 0.  1.
</event>
<event>
 7    1  0.2612321E-009  0.1277020E+03  0.7561462E-02  0.1230906E+00
          2   -1    0    0  501    0  0.00000000000E+00  0.00000000000E+00  0.51659131109E+03  0.51659131109E+03  0.00000000000E+00 0.  1.
         -2   -1    0    0    0  501 -0.00000000000E+00 -0.00000000000E+00 -0.48060027994E+02  0.48060027994E+02  0.00000000000E+00 0. -1.
         25    2    1    2    0    0  0.10268637265E+03 -0.34258394794E+02  0.32967924057E+03  0.36885236147E+03  0.12508210966E+03 0.  0.
          5    1    3    3  502    0 -0.94253950955E+01 -0.43611964427E+01 -0.66674215816E+01  0.13030158006E+02  0.41800000000E+01 0.  1.
         -5    1    3    3    0  502  0.11211176774E+03 -0.29897198351E+02  0.33634666215E+03  0.35582220346E+03  0.41800000000E+01 0.  1.
        -11    1    1    2    0    0 -0.95175463975E+01  0.33611289559E+02  0.91685547877E+01  0.36115991917E+02  0.00000000000E+00 0. -1.
         11    1    1    2    0    0 -0.93168826249E+02  0.64710523459E+00  0.12968348774E+03  0.15968298570E+03  0.00000000000E+00 0.  1.
</event>
<event>
 7    1  0.2612321E-009  0.1236155E+03  0.7561462E-02  0.1237249E+00
         -1   -1    0    0    0  501 -0.00000000000E+00  0.00000000000E+00  0.80472243111E+02  0.80472243111E+02  0.00000000000E+00 0.  1.
          1   -1    0    0  501    0  0.00000000000E+00 -0.00000000000E+00 -0.30697663202E+03  0.30697663202E+03  0.00000000000E+00 0. -1.
         25    2    1    2    0    0  0.57354338818E+02 -0.63842480750E+02 -0.51862349734E+02  0.16031120148E+03  0.12507835733E+03 0.  0.
          5    1    3    3  502    0  0.87996609430E+02 -0.14302280056E+02 -0.13071504993E+02  0.90201414228E+02  0.41800000000E+01 0.  1.
         -5    1    3    3    0  502 -0.30642270612E+02 -0.49540200694E+02 -0.38790844741E+02  0.70109787254E+02  0.41800000000E+01 0.  1.
        -11    1    1    2    0    0 -0.62561101450E+02  0.37953490957E+02 -0.28337352490E+02  0.78468875592E+02  0.00000000000E+00 0.  1.
         11    1    1    2    0    0  0.52067626323E+01  0.25888989793E+02 -0.14630468668E+03  0.14866879805E+03  0.00000000000E+00 0. -1.
</event>
<event>
 7    1  0.2612321E-009  0.1950732E+03  0.7561462E-02  0.1153964E+00
          1   -1    0    0  501    0  0.00000000000E+00  0.00000000000E+00  0.24842716875E+03  0.24842716875E+03  0.00000000000E+00 0. -1.
         -1   -1    0    0    0  501 -0.00000000000E+00 -0.00000000000E+00 -0.20956413325E+03  0.20956413325E+03  0.00000000000E+00 0.  1.
         25    2    1    2    0    0  0.11364870562E+03  0.14394497745E+03 -0.58765384162E+02  0.22964397614E+03  0.12508717192E+03 0.  0.
          5    1    3    3  502    0  0.64802955616E+02  0.14188124848E+03 -0.39647733346E+01  0.15608620553E+03  0.41800000000E+01 0.  1.
         -5    1    3    3    0  502  0.48845750000E+02  0.20637289669E+01 -0.54800610827E+02  0.73557770612E+02  0.41800000000E+01 0.  1.
        -11    1    1    2    0    0 -0.56111601545E+02 -0.51545965052E+02 -0.80738293694E+01  0.76620395860E+02  0.00000000000E+00 0.  1.
         11    1    1    2    0    0 -0.57537104071E+02 -0.92399012398E+02  0.10570224903E+03  0.15172693000E+03  0.00000000000E+00 0. -1.
</event>
<event>
 7    1  0.2612321E-009  0.1097541E+03  0.7561462E-02  0.1261026E+00
         -2   -1    0    0    0  501 -0.00000000000E+00  0.00000000000E+00  0.59792216503E+02  0.59792216503E+02  0.00000000000E+00 0. -1.
          2   -1    0    0  501    0  0.00000000000E+00 -0.00000000000E+00 -0.65966641574E+03  0.65966641574E+03  0.00000000000E+00 0.  1.
         25    2    1    2    0    0 -0.71006450673E+02  0.29769796829E+02 -0.57987568280E+03  0.59819324982E+03  0.12510475525E+03 0.  0.
          5    1    3    3  502    0  0.24245979082E+02  0.27510544465E+02 -0.30536840733E+03  0.30759069257E+03  0.41800000000E+01 0. -1.
         -5    1    3    3    0  502 -0.95252429756E+02  0.22592523638E+01 -0.27450727547E+03  0.29060255725E+03  0.41800000000E+01 0. -1.
        -11    1    1    2    0    0  0.58472434878E+02 -0.40171367828E+02 -0.50230795483E+02  0.86924664213E+02  0.00000000000E+00 0.  1.
         11    1    1    2    0    0  0.12534015795E+02  0.10401570999E+02  0.30232279044E+02  0.34340718213E+02  0.00000000000E+00 0. -1.
</event>
<event>
 7    1  0.2612321E-009  0.1762286E+03  0.7561462E-02  0.1171504E+00
          1   -1    0    0  501    0  0.00000000000E+00  0.00000000000E+00  0.96130416602E+02  0.96130416602E+02  0.00000000000E+00 0. -1.
         -1   -1    0    0    0  501 -0.00000000000E+00 -0.00000000000E+00 -0.46819709248E+03  0.46819709248E+03  0.00000000000E+00 0.  1.
         25    2    1    2    0    0 -0.14699102587E+03  0.11871016611E+02 -0.33464106352E+03  0.38649647429E+03  0.12509036941E+03 0.  0.
          5    1    3    3  502    0 -0.33082647671E+02 -0.41116431401E+02 -0.40600212884E+02  0.66714857374E+02  0.41800000000E+01 0.  1.
         -5    1    3    3    0  502 -0.11390837820E+03  0.52987448012E+02 -0.29404085064E+03  0.31978161691E+03  0.41800000000E+01 0.  1.
        -11    1    1    2    0    0  0.98757022128E+02 -0.51513827921E+02 -0.25529698974E+02  0.11427331017E+03  0.00000000000E+00 0. -1.
         11    1    1    2    0    0  0.48234003740E+02  0.39642811311E+02 -0.11895913383E+02  0.63557724633E+02  0.00000000000E+00 0.  1.
</event>
<event>
 7    1  0.2612321E-009  0.8636480E+02  0.7561462E-02  0.1311902E+00
          1   -1    0    0  501    0  0.00000000000E+00  0.00000000000E+00  0.10610608820E+03  0.10610608820E+03  0.00000000000E+00 0. -1.
         -1   -1    0    0    0  501 -0.00000000000E+00 -0.00000000000E+00 -0.14275527413E+03  0.14275527413E+03  0.00000000000E+00 0.  1.
         25    2    1    2    0    0  0.25856969808E+02 -0.49312793431E+01  0.30908669142E+02  0.13150543363E+03  0.12508170467E+03 0.  0.
          5    1    3    3  502    0 -0.27134427483E+02  0.18420141355E+02  0.58521376733E+02  0.67214601815E+02  0.41800000000E+01 0. -1.
         -5    1    3    3    0  502  0.52991397291E+02 -0.23351420698E+02 -0.27612707591E+02  0.64290831819E+02  0.41800000000E+01 0. -1.
        -11    1    1    2    0    0 -0.37700116299E+02 -0.27773675476E+02 -0.67602416721E+01  0.47311485771E+02  0.00000000000E+00 0. -1.
         11    1    1    2    0    0  0.11843146491E+02  0.32704954819E+02 -0.60797613407E+02  0.70044442924E+02  0.00000000000E+00 0.  1.
</event>
<event>
 7    1  0.2612321E-009  0.5236101E+02  0.7561462E-02  0.1433008E+00
         -2   -1    0    0    0  501 -0.00000000000E+00  0.00000000000E+00  0.48435711012E+02  0.48435711012E+02  0.00000000000E+00 0.  1.
          2   -1    0    0  501    0  0.00000000000E+00 -0.00000000000E+00 -0.25763772381E+03  0.25763772381E+03  0.00000000000E+00 0. -1.
         25    2    1    2    0    0 -0.82868361426E+01  0.56441858954E+01 -0.94300120132E+02  0.15697351612E+03  0.12509054168E+03 0.  0.
          5    1    3    3  502    0 -0.13585552968E+02 -0.97720148468E+01 -0.12272997793E+03  0.12393619087E+03  0.41800000000E+01 0.  1.
         -5    1    3    3    0  502  0.52987168254E+01  0.15416200742E+02  0.28429857799E+02  0.33037325252E+02  0.41800000000E+01 0.  1.
        -11    1    1    2    0    0  0.77743492498E+01  0.32033268122E+02 -0.10512415532E+03  0.11017104341E+03  0.00000000000E+00 0. -1.
         11    1    1    2    0    0  0.51248689280E+00 -0.37677454018E+02 -0.97777373403E+01  0.38928875293E+02  0.00000000000E+00 0.  1.
</event>
<event>
 7    1  0.2612321E-009  0.1160075E+03  0.7561462E-02  0.1249833E+00
         -2   -1    0    0    0  501 -0.00000000000E+00  0.00000000000E+00  0.15758367708E+02  0.15758367708E+02  0.00000000000E+00 0.  1.
          2   -1    0    0  501    0  0.00000000000E+00 -0.00000000000E+00 -0.90053286550E+03  0.90053286550E+03  0.00000000000E+00 0. -1.
         25    2    1    2    0    0 -0.28894894069E+02  0.28669663801E+02 -0.46244620422E+03  0.48078985960E+03  0.12508210410E+03 0.  0.
          5    1    3    3  502    0 -0.54174883745E+02 -0.33817060007E+02 -0.22648343926E+03  0.23535235762E+03  0.41800000000E+01 0.  1.
         -5    1    3    3    0  502  0.25279989676E+02  0.62486723809E+02 -0.23596276496E+03  0.24543750198E+03  0.41800000000E+01 0.  1.
        -11    1    1    2    0    0  0.51179160568E+02  0.13371339036E+02 -0.15014886324E+03  0.15919415918E+03  0.00000000000E+00 0. -1.
         11    1    1    2    0    0 -0.22284266498E+02 -0.42041002837E+02 -0.27217943033E+03  0.27630721443E+03  0.00000000000E+00 0.  1.
</event>
<event>
 7    1  0.2656564E-009  0.1556231E+03  0.7561462E-02  0.1193729E+00
          3   -1    0    0  501    0  0.00000000000E+00  0.00000000000E+00  0.54187194086E+03  0.54187194086E+03  0.00000000000E+00 0. -1.
         -3   -1    0    0    0  501 -0.00000000000E+00 -0.00000000000E+00 -0.55415970238E+02  0.55415970238E+02  0.00000000000E+00 0.  1.
         25    2    1    2    0    0 -0.46292407255E+02 -0.12370880610E+03  0.21358817304E+03  0.28056370207E+03  0.12509687277E+03 0.  0.
          5    1    3    3  502    0 -0.44181929712E+02 -0.23634734332E+02  0.15839225116E+03  0.16618129019E+03  0.41800000000E+01 0.  1.
         -5    1    3    3    0  502 -0.21104775430E+01 -0.10007407176E+03  0.55195921882E+02  0.11438241188E+03  0.41800000000E+01 0.  1.
        -11    1    1    2    0    0 -0.25299202734E+02  0.59340473578E+02  0.11193961739E+03  0.12919682428E+03  0.00000000000E+00 0. -1.
         11    1    1    2    0    0  0.71591609989E+02  0.64368332518E+02  0.16092818018E+03  0.18752738475E+03  0.00000000000E+00 0.  1.
</event>
<event>
 7    1  0.2612321E-009  0.1074799E+03  0.7561462E-02  0.1265309E+00
          1   -1    0    0  501    0  0.00000000000E+00  0.00000000000E+00  0.46258563110E+03  0.46258563110E+03  0.00000000000E+00 0. -1.
         -1   -1    0    0    0  501 -0.00000000000E+00 -0.00000000000E+00 -0.40295782591E+02  0.40295782591E+02  0.00000000000E+00 0.  1.
         25    2    1    2    0    0 -0.61001042916E+02  0.46224735908E+02  0.18631077371E+03  0.23710335309E+03  0.12509373365E+03 0.  0.
          5    1    3    3  502    0  0.23880082276E+02  0.42177584755E+02  0.24919760163E+02  0.54659617926E+02  0.41800000000E+01 0. -1.
         -5    1    3    3    0  502 -0.84881125192E+02  0.40471511532E+01  0.16139101355E+03  0.18244373517E+03  0.41800000000E+01 0. -1.
        -11    1    1    2    0    0  0.33912506702E+02 -0.41729799692E+02  0.23185788254E+03  0.23801157952E+03  0.00000000000E+00 0. -1.
         11    1    1    2    0    0  0.27088536213E+02 -0.44949362164E+01  0.41211922607E+01  0.27766481077E+02  0.00000000000E+00 0.  1.
</event>
<event>
 7    1  0.2612321E-009  0.9695872E+02  0.7561462E-02  0.1286825E+00
          1   -1    0    0  501    0  0.00000000000E+00  0.00000000000E+00  0.83941094837E+03  0.83941094837E+03  0.00000000000E+00 0. -1.
         -1   -1    0    0    0  501 -0.00000000000E+00 -0.00000000000E+00 -0.25786990006E+02  0.25786990006E+02  0.00000000000E+00 0.  1.
         25    2    1    2    0    0 -0.36940065660E+02  0.50525510355E+02  0.66532035044E+03  0.67986483214E+03  0.12509046976E+03 0.  0.
          5    1    3    3  502    0 -0.53366175543E+02 -0.30006485267E+01  0.53861792788E+03  0.54127968484E+03  0.41800000000E+01 0.  1.
         -5    1    3    3    0  502  0.16426109884E+02  0.53526158882E+02  0.12670242256E+03  0.13858514730E+03  0.41800000000E+01 0.  1.
        -11    1    1    2    0    0  0.99277722168E+00 -0.48120170392E+02  0.14043826253E+03  0.14845686911E+03  0.00000000000E+00 0.  1.
         11    1    1    2    0    0  0.35947288438E+02 -0.24053399628E+01  0.78653454015E+01  0.36876237127E+02  0.00000000000E+00 0. -1.
</event>
<event>
 7    1  0.3482628E-009  0.9182219E+02  0.7561462E-02  0.1298498E+00
          2   -1    0    0  501    0  0.00000000000E+00  0.00000000000E+00  0.82971639865E+03  0.82971639865E+03  0.00000000000E+00 0. -1.
         -2   -1    0    0    0  501 -0.00000000000E+00 -0.00000000000E+00 -0.20618701353E+02  0.20618701353E+02  0.00000000000E+00 0.  1.
         25    2    1    2    0    0 -0.18371648908E+02  0.68099297236E+02  0.49916540206E+03  0.51941252034E+03  0.12509290910E+03 0.  0.
          5    1    3    3  502    0 -0.15492301348E+01  0.12323472992E+02  0.42409265760E+03  0.42429508922E+03  0.41800000000E+01 0. -1.
         -5    1    3    3    0  502 -0.16822418773E+02  0.55775824243E+02  0.75072744451E+02  0.95117431120E+02  0.41800000000E+01 0. -1.
        -11    1    1    2    0    0  0.47452157932E+02 -0.12003878353E+02  0.94618298564E+02  0.10652897639E+03  0.00000000000E+00 0.  1.
         11    1    1    2    0    0 -0.29080509024E+02 -0.56095418883E+02  0.21531399668E+03  0.22439360327E+03  0.00000000000E+00 0. -1.
</event>
<event>
 7    1  0.2612321E-009  0.9745957E+02  0.7561462E-02  0.1285731E+00
          3   -1    0    0  501    0  0.00000000000E+00  0.00000000000E+00  0.25963903897E+02  0.25963903897E+02  0.00000000000E+00 0. -1.
         -3   -1    0    0    0  501 -0.00000000000E+00 -0.00000000000E+00 -0.51007819661E+03  0.51007819661E+03  0.00000000000E+00 0.  1.
         25    2    1    2    0    0 -0.23891470777E+02  0.29593199094E+02 -0.29169975911E+03  0.31965617360E+03  0.12507901522E+03 0.  0.
          5    1    3    3  502    0  0.36050414453E+02 -0.17320247194E+02 -0.17990006355E+03  0.18433970980E+03  0.41800000000E+01 0. -1.
         -5    1    3    3    0  502 -0.59941885230E+02  0.46913446287E+02 -0.11179969556E+03  0.13531646380E+03  0.41800000000E+01 0. -1.
        -11    1    1    2    0    0  0.14707349647E+02 -0.52115378715E+02 -0.56300166156E+02  0.78115475685E+02  0.00000000000E+00 0. -1.
         11    1    1    2    0    0  0.91841211298E+01  0.22522179621E+02 -0.13611436745E+03  0.13827045122E+03  0.00000000000E+00 0.  1.
</event>
<event>
 7    1  0.2612321E-009  0.1902417E+03  0.7561462E-02  0.1158244E+00
         -2   -1    0    0    0  501 -0.00000000000E+00  0.00000000000E+00  0.23602220843E+03  0.23602220843E+03  0.00000000000E+00 0.  1.
          2   -1    0    0  501    0  0.00000000000E+00 -0.00000000000E+00 -0.21980375808E+03  0.21980375808E+03  0.00000000000E+00 0. -1.
         25    2    1    2    0    0  0.17392906416E+03 -0.73439735023E+02 -0.57675597225E+02  0.23370632541E+03  0.12508979968E+03 0.  0.
          5    1    3    3  502    0  0.57985613618E+02 -0.20713537956E+02  0.39649516258E+02  0.73354881097E+02  0.41800000000E+01 0.  1.
         -5    1    3    3    0  502  0.11594345054E+03 -0.52726197067E+02 -0.97325113483E+02  0.16035144432E+03  0.41800000000E+01 0.  1.
        -11    1    1    2    0    0 -0.80492990604E+02  0.50823727127E+02  0.82001723601E+02  0.12564416202E+03  0.00000000000E+00 0.  1.
         11    1    1    2    0    0 -0.93436073552E+02  0.22616007896E+02 -0.81076760284E+01  0.96475479085E+02  0.00000000000E+00 0. -1.
</event>
<event>
 7    1  0.2612321E-009  0.8506127E+02  0.7561462E-02  0.1315272E+00
          1   -1    0    0  501    0  0.00000000000E+00  0.00000000000E+00  0.13937310328E+03  0.13937310328E+03  0.00000000000E+00 0. -1.
         -1   -1    0    0    0  501 -0.00000000000E+00 -0.00000000000E+00 -0.15802381618E+03  0.15802381618E+03  0.00000000000E+00 0.  1.
         25    2    1    2    0    0  0.60413689789E+02 -0.53990270480E+02  0.49456968173E+02  0.15698648054E+03  0.12503599542E+03 0.  0.
          5    1    3    3  502    0  0.62971031134E+02 -0.55372517107E+02 -0.20839696044E+02  0.86505674635E+02  0.41800000000E+01 0. -1.
         -5    1    3    3    0  502 -0.25573413457E+01  0.13822466273E+01  0.70296664216E+02  0.70480805901E+02  0.41800000000E+01 0. -1.
        -11    1    1    2    0    0 -0.50413739586E+02  0.43595722799E+02  0.41008940683E+01  0.66775366099E+02  0.00000000000E+00 0. -1.
         11    1    1    2    0    0 -0.99999502026E+01  0.10394547681E+02 -0.72208575144E+02  0.73635072824E+02  0.00000000000E+00 0.  1.
</event>
<event>
 7    1  0.2612321E-009  0.1066849E+03  0.7561462E-02  0.1266835E+00
          2   -1    0    0  501    0  0.00000000000E+00  0.00000000000E+00  0.43760230803E+03  0.43760230803E+03  0.00000000000E+00 0.  1.
         -2   -1    0    0    0  501 -0.00000000000E+00 -0.00000000000E+00 -0.33014475928E+02  0.33014475928E+02  0.00000000000E+00 0. -1.
         25    2    1    2    0    0 -0.38536338650E+02 -0.29661222219E+02  0.18606504561E+03  0.22941684611E+03  0.12508817122E+03 0.  0.
          5    1    3    3  502    0 -0.63941939131E+02  0.23013666565E+02  0.13691625871E+03  0.15291087185E+03  0.41800000000E+01 0. -1.
         -5    1    3    3    0  502  0.25405600481E+02 -0.52674888784E+02  0.49148786895E+02  0.76505974260E+02  0.41800000000E+01 0. -1.
        -11    1    1    2    0    0 -0.21438906471E+02  0.74083658238E+01  0.13010413069E+03  0.13206663249E+03  0.00000000000E+00 0.  1.
         11    1    1    2    0    0  0.59975245120E+02  0.22252856395E+02  0.88418655806E+02  0.10913330536E+03  0.00000000000E+00 0. -1.
</event>
<event>
 7    1  0.2612321E-009  0.1422624E+03  0.7561462E-02  0.1210317E+00
         -1   -1    0    0    0  501 -0.00000000000E+00  0.00000000000E+00  0.66545218639E+02  0.66545218639E+02  0.00000000000E+00 0.  1.
          1   -1    0    0  501    0  0.00000000000E+00 -0.00000000000E+00 -0.47580547241E+03  0.47580547241E+03  0.00000000000E+00 0. -1.
         25    2    1    2    0    0  0.48694473573E+02  0.11486403549E+03 -0.12209329433E+03  0.21474138614E+03  0.12506874907E+03 0.  0.
          5    1    3    3  502    0 -0.22810747721E+01  0.10766689106E+03 -0.12240702449E+03  0.16308989784E+03  0.41800000000E+01 0. -1.
         -5    1    3    3    0  502  0.50975548345E+02  0.71971444240E+01  0.31373015587E+00  0.51651488299E+02  0.41800000000E+01 0. -1.
        -11    1    1    2    0    0 -0.33075983744E+02 -0.66372903633E+02 -0.25897749345E+03  0.26938582953E+03  0.00000000000E+00 0.  1.
         11    1    1    2    0    0 -0.15618489829E+02 -0.48491131853E+02 -0.28189465992E+02  0.58223475384E+02  0.00000000000E+00 0. -1.
</event>
<event>
 7    1  0.2612321E-009  0.1276262E+03  0.7561462E-02  0.1231021E+00
         -1   -1    0    0    0  501 -0.00000000000E+00  0.00000000000E+00  0.90734369083E+02  0.90734369083E+02  0.00000000000E+00 0.  1.
          1   -1    0    0  501    0  0.00000000000E+00 -0.00000000000E+00 -0.27189635227E+03  0.27189635227E+03  0.00000000000E+00 0. -1.
         25    2    1    2    0    0 -0.76942267728E+02  0.25709978631E+02 -0.18935210730E+03  0.24100386449E+03  0.12509007394E+03 0.  0.
          5    1    3    3  502    0 -0.10961993763E+03  0.27655983007E+02 -0.16469628738E+03  0.19980921800E+03  0.41800000000E+01 0. -1.
         -5    1    3    3    0  502  0.32677669906E+02 -0.19460043760E+01 -0.24655819921E+02  0.41194646491E+02  0.41800000000E+01 0. -1.
        -11    1    1    2    0    0  0.81102498378E+02 -0.42679507627E+02 -0.14712745490E+02  0.92820366808E+02  0.00000000000E+00 0. -1.
         11    1    1    2    0    0 -0.41602306499E+01  0.16969528996E+02  0.22902869600E+02  0.28806490055E+02  0.00000000000E+00 0.  1.
</event>
<event>
 7    1  0.2612321E-009  0.1563445E+03  0.7561462E-02  0.1192887E+00
         -2   -1    0    0    0  501 -0.00000000000E+00  0.00000000000E+00  0.24708299619E+03  0.24708299619E+03  0.00000000000E+00 0.  1.
          2   -1    0    0  501    0  0.00000000000E+00 -0.00000000000E+00 -0.17488585844E+03  0.17488585844E+03  0.00000000000E+00 0. -1.
         25    2    1    2    0    0 -0.53172241329E+02  0.12265371342E+03 -0.79836674464E+02  0.19973259593E+03  0.12509194468E+03 0.  0.
          5    1    3    3  502    0  0.36052301938E+02  0.22732406141E+02  0.16905357714E+01  0.42858617281E+02  0.41800000000E+01 0.  1.
         -5    1    3    3    0  502 -0.89224543267E+02  0.99921307276E+02 -0.81527210235E+02  0.15687397865E+03  0.41800000000E+01 0.  1.
        -11    1    1    2    0    0  0.35469900280E+02 -0.51616494836E+02  0.13235973037E+03  0.14642907699E+03  0.00000000000E+00 0.  1.
         11    1    1    2    0    0  0.17702341049E+02 -0.71037218581E+02  0.19674081843E+02  0.75807181710E+02  0.00000000000E+00 0. -1.
</event>
<event>
 7    1  0.2612321E-009  0.1802602E+03  0.7561462E-02  0.1167551E+00
          3   -1    0    0  501    0  0.00000000000E+00  0.00000000000E+00  0.43191285935E+03  0.43191285935E+03  0.00000000000E+00 0. -1.
         -3   -1    0    0    0  501 -0.00000000000E+00 -0.00000000000E+00 -0.10237250661E+03  0.10237250661E+03  0.00000000000E+00 0.  1.
         25    2    1    2    0    0  0.15185359823E+02 -0.14371921448E+03  0.35483850690E+02  0.19440172505E+03  0.12508844582E+03 0.  0.
          5    1    3    3  502    0  0.19079601039E+02  0.19607522871E+02  0.64206578176E+01  0.28410972806E+02  0.41800000000E+01 0.  1.
         -5    1    3    3    0  502 -0.38942412156E+01 -0.16332673735E+03  0.29063192872E+02  0.16599075224E+03  0.41800000000E+01 0.  1.
        -11    1    1    2    0    0 -0.37972000711E+02  0.18677495865E+02  0.58169565234E+02  0.71933441522E+02  0.00000000000E+00 0.  1.
         11    1    1    2    0    0  0.22786640888E+02  0.12504171862E+03  0.23588693682E+03  0.26795019940E+03  0.00000000000E+00 0. -1.
</event>
<event>
 7    1  0.2612321E-009  0.1252979E+03  0.7561462E-02  0.1234604E+00
         -1   -1    0    0    0  501 -0.00000000000E+00  0.00000000000E+00  0.36762720484E+03  0.36762720484E+03  0.00000000000E+00 0.  1.
          1   -1    0    0  501    0  0.00000000000E+00 -0.00000000000E+00 -0.55391959718E+02  0.55391959718E+02  0.00000000000E+00 0. -1.
         25    2    1    2    0    0 -0.88702750300E+02 -0.31982542218E+02  0.13216377945E+03  0.20495278782E+03  0.12508924702E+03 0.  0.
          5    1    3    3  502    0 -0.90751794134E+02  0.21538003089E+02  0.47683816474E+02  0.10483793430E+03  0.41800000000E+01 0.  1.
         -5    1    3    3    0  502  0.20490438335E+01 -0.53520545307E+02  0.84479962978E+02  0.10011485352E+03  0.41800000000E+01 0.  1.
        -11    1    1    2    0    0  0.72823134866E+01  0.19905518355E+02  0.12761273295E+01  0.21234176501E+02  0.00000000000E+00 0. -1.
         11    1    1    2    0    0  0.81420436814E+02  0.12077023863E+02  0.17879533834E+03  0.19683220023E+03  0.00000000000E+00 0.  1.
</event>
<event>
 7    1  0.2612321E-009  0.1235141E+03  0.7561462E-02  0.1237410E+00
          2   -1    0    0  501    0  0.00000000000E+00  0.00000000000E+00  0.68990867274E+02  0.68990867274E+02  0.00000000000E+00 0.  1.
         -2   -1    0    0    0  501 -0.00000000000E+00 -0.00000000000E+00 -0.31390869571E+03  0.31390869571E+03  0.00000000000E+00 0. -1.
         25    2    1    2    0    0  0.80487447851E+01  0.75294149452E+02 -0.21644170184E+03  0.26120371294E+03  0.12508548328E+03 0.  0.
          5    1    3    3  502    0  0.51507486815E+02  0.95947308081E+01 -0.34428916884E+02  0.62832338609E+02  0.41800000000E+01 0.  1.
         -5    1    3    3    0  502 -0.43458742030E+02  0.65699418644E+02 -0.18201278495E+03  0.19837137433E+03  0.41800000000E+01 0.  1.
        -11    1    1    2    0    0 -0.42295735911E+02 -0.12575802666E+02  0.16243722543E+01  0.44155618829E+02  0.00000000000E+00 0.  1.
         11    1    1    2    0    0  0.34246991126E+02 -0.62718346786E+02 -0.30100498850E+02  0.77540231208E+02  0.00000000000E+00 0. -1.
</event>
<event>
 7    1  0.2612321E-009  0.1114455E+03  0.7561462E-02  0.1257916E+00
         -1   -1    0    0    0  501 -0.00000000000E+00  0.00000000000E+00  0.64445067166E+03  0.64445067166E+03  0.00000000000E+00 0.  1.
          1   -1    0    0  501    0  0.00000000000E+00 -0.00000000000E+00 -0.25364460736E+02  0.25364460736E+02  0.00000000000E+00 0. -1.
         25    2    1    2    0    0 -0.30082642199E+02  0.31333541446E+02  0.20854397475E+03  0.24703238867E+03  0.12509058904E+03 0.  0.
          5    1    3    3  502    0 -0.66325203589E+02 -0.13380302292E+02  0.72508471878E+02  0.99262359506E+02  0.41800000000E+01 0. -1.
         -5    1    3    3    0  502  0.36242561389E+02  0.44713843738E+02  0.13603550287E+03  0.14777002916E+03  0.41800000000E+01 0. -1.
        -11    1    1    2    0    0  0.64940389078E+01 -0.59953179296E+02  0.19629709776E+03  0.20535117929E+03  0.00000000000E+00 0. -1.
         11    1    1    2    0    0  0.23588603292E+02  0.28619637850E+02  0.21424513842E+03  0.21743156444E+03  0.00000000000E+00 0.  1.
</event>
<event>
 7    1  0.2612321E-009  0.9928287E+02  0.7561462E-02  0.1281811E+00
         -2   -1    0    0    0  501 -0.00000000000E+00  0.00000000000E+00  0.95796664702E+01  0.95796664702E+01  0.00000000000E+00 0.  1.
          2   -1    0    0  501    0  0.00000000000E+00 -0.00000000000E+00 -0.13988192163E+04  0.13988192163E+04  0.00000000000E+00 0. -1.
         25    2    1    2    0    0  0.16673051866E+02 -0.32866154732E+02 -0.90083795492E+03  0.91022758861E+03  0.12508823789E+03 0.  0.
          5    1    3    3  502    0 -0.39076668277E+02 -0.12681014811E+02 -0.68821797671E+03  0.68945576363E+03  0.41800000000E+01 0.  1.
         -5    1    3    3    0  502  0.55749720143E+02 -0.20185139921E+02 -0.21261997821E+03  0.22077182498E+03  0.41800000000E+01 0.  1.
        -11    1    1    2    0    0  0.67375448591E+01  0.60921236448E+02 -0.32570636798E+03  0.33142333910E+03  0.00000000000E+00 0. -1.
         11    1    1    2    0    0 -0.23410596725E+02 -0.28055081716E+02 -0.16269522692E+03  0.16674795504E+03  0.00000000000E+00 0.  1.
</event>
<event>
 7    1  0.2612321E-009  0.1395514E+03  0.7561462E-02  0.1213934E+00
         -2   -1    0    0    0  501 -0.00000000000E+00  0.00000000000E+00  0.78387528133E+02  0.78387528133E+02  0.00000000000E+00 0.  1.
          2   -1    0    0  501    0  0.00000000000E+00 -0.00000000000E+00 -0.29956083430E+03  0.29956083430E+03  0.00000000000E+00 0. -1.
         25    2    1    2    0    0  0.87824309172E+02 -0.65809528679E+02 -0.11760196848E+03  0.20376900085E+03  0.12509028488E+03 0.  0.
          5    1    3    3  502    0  0.41832864026E+01  0.21868448895E+02 -0.69894758338E+02  0.73474339639E+02  0.41800000000E+01 0.  1.
         -5    1    3    3    0  502  0.83641022770E+02 -0.87677977574E+02 -0.47707210146E+02  0.13029466122E+03  0.41800000000E+01 0.  1.
        -11    1    1    2    0    0 -0.29787825685E+02  0.70939277696E+02 -0.35961507842E+02  0.84928945157E+02  0.00000000000E+00 0.  1.
         11    1    1    2    0    0 -0.58036483487E+02 -0.51297490171E+01 -0.67609829840E+02  0.89250416422E+02  0.00000000000E+00 0. -1.
</event>
<event>
 7    1  0.2612321E-009  0.1242362E+03  0.7561462E-02  0.1236268E+00
          2   -1    0    0  501    0  0.00000000000E+00  0.00000000000E+00  0.23038646251E+03  0.23038646251E+03  0.00000000000E+00 0. -1.
         -2   -1    0    0    0  501 -0.00000000000E+00 -0.00000000000E+00 -0.79380629185E+02  0.79380629185E+02  0.00000000000E+00 0.  1.
         25    2    1    2    0    0  0.18714605792E+02  0.66021857130E+02  0.33877380736E+02  0.14665038859E+03  0.12509811134E+03 0.  0.
          5    1    3    3  502    0  0.65802134754E+02  0.59221266642E+02  0.42218727152E+02  0.98168083832E+02  0.41800000000E+01 0.  1.
         -5    1    3    3    0  502 -0.47087528963E+02  0.68005904876E+01 -0.83413464166E+01  0.48482304760E+02  0.41800000000E+01 0.  1.
        -11    1    1    2    0    0  0.35177878716E+02 -0.36272231360E+02  0.40067368293E+02  0.64486835251E+02  0.00000000000E+00 0. -1.
         11    1    1    2    0    0 -0.53892484508E+02 -0.29749625770E+02  0.77061084298E+02  0.98629867855E+02  0.00000000000E+00 0.  1.
</event>
<event>
 7    1  0.2612321E-009  0.1248259E+03  0.7561462E-02  0.1235342E+00
         -1   -1    0    0    0  501 -0.00000000000E+00  0.00000000000E+00  0.19965128599E+03  0.19965128599E+03  0.00000000000E+00 0.  1.
          1   -1    0    0  501    0  0.00000000000E+00 -0.00000000000E+00 -0.85226181523E+02  0.85226181523E+02  0.00000000000E+00 0. -1.
         25    2    1    2    0    0 -0.49155337420E+02 -0.46701154580E+02  0.34509381332E+02  0.14641172749E+03  0.12509297147E+03 0.  0.
          5    1    3    3  502    0  0.71926749596E+01 -0.76435251644E+02  0.29552952931E+02  0.82370696815E+02  0.41800000000E+01 0.  1.
         -5    1    3    3    0  502 -0.56348012379E+02  0.29734097063E+02  0.49564284011E+01  0.64041030674E+02  0.41800000000E+01 0.  1.
        -11    1    1    2    0    0  0.59939698285E+02 -0.10636457828E+01  0.25177620936E+02  0.65021622318E+02  0.00000000000E+00 0.  1.
         11    1    1    2    0    0 -0.10784360865E+02  0.47764800363E+02  0.54738102195E+02  0.73444117701E+02  0.00000000000E+00 0. -1.
</event>
<event>
 7    1  0.2612321E-009  0.1260453E+03  0.7561462E-02  0.1233445E+00
          2   -1    0    0  501    0  0.00000000000E+00  0.00000000000E+00  0.69865502162E+02  0.69865502162E+02  0.00000000000E+00 0. -1.
         -2   -1    0    0    0  501 -0.00000000000E+00 -0.00000000000E+00 -0.30004716195E+03  0.30004716195E+03  0.00000000000E+00 0.  1.
         25    2    1    2    0    0  0.63320959901E+02 -0.44162632966E+02 -0.19812615991E+03  0.24670060865E+03  0.12508929993E+03 0.  0.
          5    1    3    3  502    0  0.98544350150E+02 -0.14329414863E+02 -0.12152657680E+03  0.15717029728E+03  0.41800000000E+01 0. -1.
         -5    1    3    3    0  502 -0.35223390249E+02 -0.29833218102E+02 -0.76599583108E+02  0.89530311377E+02  0.41800000000E+01 0. -1.
        -11    1    1    2    0    0 -0.63717087246E+02  0.61603905110E+02 -0.22264151732E+01  0.88655881116E+02  0.00000000000E+00 0. -1.
         11    1    1    2    0    0  0.39612734493E+00 -0.17441272144E+02 -0.29829084707E+02  0.34556174344E+02  0.00000000000E+00 0.  1.
</event>
<event>
 7    1  0.2612321E-009  0.1383327E+03  0.7561462E-02  0.1215590E+00
          2   -1    0    0  501    0  0.00000000000E+00  0.00000000000E+00  0.14236901276E+04  0.14236901276E+04  0.00000000000E+00 0.  1.
         -2   -1    0    0    0  501 -0.00000000000E+00 -0.00000000000E+00 -0.13592071030E+02  0.13592071030E+02  0.00000000000E+00 0. -1.
         25    2    1    2    0    0  0.20719344803E+02 -0.49529170228E+02  0.62526151407E+03  0.63990750386E+03  0.12508885866E+03 0.  0.
          5    1    3    3  502    0  0.18321173073E+02  0.41191165963E+02  0.20842140780E+03  0.21328228516E+03  0.41800000000E+01 0. -1.
         -5    1    3    3    0  502  0.23981717291E+01 -0.90720336191E+02  0.41684010628E+03  0.42662521870E+03  0.41800000000E+01 0. -1.
        -11    1    1    2    0    0  0.34273170458E+02  0.73080717663E+02  0.47646857346E+03  0.48325742933E+03  0.00000000000E+00 0.  1.
         11    1    1    2    0    0 -0.54992515261E+02 -0.23551547435E+02  0.30836796904E+03  0.31411726544E+03  0.00000000000E+00 0. -1.
</event>
<event>
 7    1  0.2612321E-009  0.8827449E+02  0.7561462E-02  0.1307085E+00
          2   -1    0    0  501    0  0.00000000000E+00  0.00000000000E+00  0.25077389462E+03  0.25077389462E+03  0.00000000000E+00 0. -1.
         -2   -1    0    0    0  501 -0.00000000000E+00 -0.00000000000E+00 -0.63808096159E+02  0.63808096159E+02  0.00000000000E+00 0.  1.
         25    2    1    2    0    0  0.53351326301E+02  0.29125155543E+02  0.74927849809E+02  0.15797415306E+03  0.12508801563E+03 0.  0.
          5    1    3    3  502    0  0.60312552392E+02  0.25018390496E+02 -0.15377054564E+02  0.67211978443E+02  0.41800000000E+01 0.  1.
         -5    1    3    3    0  502 -0.69612260913E+01  0.41067650467E+01  0.90304904373E+02  0.90762174620E+02  0.41800000000E+01 0.  1.
        -11    1    1    2    0    0  0.53090692354E+01  0.22964722353E+02  0.54318686952E+02  0.59212198415E+02  0.00000000000E+00 0. -1.
         11    1    1    2    0    0 -0.58660395536E+02 -0.52089877896E+02  0.57719261700E+02  0.97395639302E+02  0.00000000000E+00 0.  1.
</event>
<event>
 7    1  0.2612321E-009  0.8345606E+02  0.7561462E-02  0.1319520E+00
         -1   -1    0    0    0  501 -0.00000000000E+00  0.00000000000E+00  0.46467713580E+02  0.46467713580E+02  0.00000000000E+00 0.  1.
          1   -1    0    0  501    0  0.00000000000E+00 -0.00000000000E+00 -0.32721155865E+03  0.32721155865E+03  0.00000000000E+00 0. -1.
         25    2    1    2    0    0  0.99559495076E+00 -0.24080816243E+02 -0.25915478936E+03  0.28877180959E+03  0.12508827380E+03 0.  0.
          5    1    3    3  502    0 -0.33590259184E+01  0.36883088081E+02 -0.20824796231E+02  0.42694142216E+02  0.41800000000E+01 0.  1.
         -5    1    3    3    0  502  0.43546208691E+01 -0.60963904324E+02 -0.23832999313E+03  0.24607766737E+03  0.41800000000E+01 0.  1.
        -11    1    1    2    0    0  0.29224386236E+02  0.24531788333E+02  0.11734507453E+02  0.39919569823E+02  0.00000000000E+00 0.  1.
         11    1    1    2    0    0 -0.30219981186E+02 -0.45097209005E+00 -0.33323563163E+02  0.44987892823E+02  0.00000000000E+00 0. -1.
</event>
<event>
 7    1  0.2612321E-009  0.8924097E+02  0.7561462E-02  0.1304700E+00
          2   -1    0    0  501    0  0.00000000000E+00  0.00000000000E+00  0.72430375949E+02  0.72430375949E+02  0.00000000000E+00 0. -1.
         -2   -1    0    0    0  501 -0.00000000000E+00 -0.00000000000E+00 -0.20242523158E+03  0.20242523158E+03  0.00000000000E+00 0.  1.
         25    2    1    2    0    0 -0.15415651195E+02  0.42657102736E+02 -0.10075119833E+03  0.16690086986E+03  0.12509126940E+03 0.  0.
          5    1    3    3  502    0  0.37597021903E+02  0.64767425209E+02 -0.50040071280E+02  0.90165606291E+02  0.41800000000E+01 0.  1.
         -5    1    3    3    0  502 -0.53012673097E+02 -0.22110322473E+02 -0.50711127048E+02  0.76735263571E+02  0.41800000000E+01 0.  1.
        -11    1    1    2    0    0  0.12133349084E+02 -0.23478758155E+02 -0.63376170141E+02  0.68665924492E+02  0.00000000000E+00 0.  1.
         11    1    1    2    0    0  0.32823021103E+01 -0.19178344582E+02  0.34132512839E+02  0.39288813175E+02  0.00000000000E+00 0. -1.
</event>
<event>
 7    1  0.2612321E-009  0.1206100E+03  0.7561462E-02  0.1242094E+00
         -1   -1    0    0    0  501 -0.00000000000E+00  0.00000000000E+00  0.10631588056E+03  0.10631588056E+03  0.00000000000E+00 0.  1.
          1   -1    0    0  501    0  0.00000000000E+00 -0.00000000000E+00 -0.25625546417E+03  0.25625546417E+03  0.00000000000E+00 0. -1.
         25    2    1    2    0    0 -0.56188255309E+02  0.26997419395E+02  0.37540483099E+02  0.14472053303E+03  0.12509502037E+03 0.  0.
          5    1    3    3  502    0  0.34092110416E+02 -0.43424351816E+01 -0.12446857155E+02  0.36790289330E+02  0.41800000000E+01 0.  1.
         -5    1    3    3    0  502 -0.90280365725E+02  0.31339854577E+02  0.49987340255E+02  0.10793024370E+03  0.41800000000E+01 0.  1.
        -11    1    1    2    0    0 -0.22441968726E+02  0.93573576192E+01 -0.42236322228E+02  0.48735090205E+02  0.00000000000E+00 0. -1.
         11    1    1    2    0    0  0.78630224035E+02 -0.36354777014E+02 -0.14524374448E+03  0.16911572149E+03  0.00000000000E+00 0.  1.
</event>
<event>
 7    1  0.2612321E-009  0.9550646E+02  0.7561462E-02  0.1290039E+00
          1   -1    0    0  501    0  0.00000000000E+00  0.00000000000E+00  0.12034272800E+04  0.12034272800E+04  0.00000000000E+00 0. -1.
         -1   -1    0    0    0  501 -0.00000000000E+00 -0.00000000000E+00 -0.21610305372E+02  0.21610305372E+02  0.00000000000E+00 0.  1.
         25    2    1    2    0    0  0.43935906380E+02  0.62433827305E+01  0.10529911504E+04  0.10613232648E+04  0.12508943145E+03 0.  0.
          5    1    3    3  502    0  0.73497947571E+02  0.10946462354E+02  0.35696885645E+03  0.36464504687E+03  0.41800000000E+01 0.  1.
         -5    1    3    3    0  502 -0.29562041191E+02 -0.47030796239E+01  0.69602229400E+03  0.69667821796E+03  0.41800000000E+01 0.  1.
        -11    1    1    2    0    0  0.20979206460E+02  0.12498375473E+01  0.78417163518E+02  0.81184608959E+02  0.00000000000E+00 0. -1.
         11    1    1    2    0    0 -0.64915112840E+02 -0.74932202777E+01  0.50408660687E+02  0.82529711604E+02  0.00000000000E+00 0.  1.
</event>
<event>
 7    1  0.2612321E-009  0.1855253E+03  0.7561462E-02  0.1162560E+00
          2   -1    0    0  501    0  0.00000000000E+00  0.00000000000E+00  0.46067959286E+03  0.46067959286E+03  0.00000000000E+00 0.  1.
         -2   -1    0    0    0  501 -0.00000000000E+00 -0.00000000000E+00 -0.13350308590E+03  0.13350308590E+03  0.00000000000E+00 0. -1.
         25    2    1    2    0    0  0.13588651080E+03  0.82993290650E+02 -0.18115216785E+02  0.20329720450E+03  0.12509421317E+03 0.  0.
          5    1    3    3  502    0  0.14073022821E+03  0.42713887731E+02 -0.45696603897E+02  0.15406208276E+03  0.41800000000E+01 0. -1.
         -5    1    3    3    0  502 -0.48437174117E+01  0.40279402919E+02  0.27581387112E+02  0.49235121741E+02  0.41800000000E+01 0. -1.
        -11    1    1    2    0    0 -0.69747148803E+02 -0.92996674736E+02  0.22435944121E+03  0.25268598129E+03  0.00000000000E+00 0.  1.
         11    1    1    2    0    0 -0.66139361994E+02  0.10003384086E+02  0.12093228253E+03  0.13819949297E+03  0.00000000000E+00 0. -1.
</event>
<event>
 6    1  0.2612321E-009  0.8504014E+02  0.7561462E-02  0.1315328E+00
          2   -1    0    0  501    0  0.00000000000E+00  0.00000000000E+00  0.39260830640E+03  0.39260830640E+03  0.00000000000E+00 0.  1.
         -2   -1    0    0    0  501 -0.00000000000E+00 -0.00000000000E+00 -0.26940345788E+02  0.26940345788E+02  0.00000000000E+00 0. -1.
          5    1    1    2  502    0  0.39688446649E+02  0.63681764866E+01  0.18517302634E+03  0.18953165581E+03  0.41800000000E+01 0.  1.
         -5    1    1    2    0  502 -0.62037329925E+02 -0.12869034128E+02  0.63659516846E+02  0.89912450910E+02  0.41800000000E+01 0.  1.
        -11    1    1    2    0    0  0.12114325287E+02 -0.27827522733E+02  0.18731012035E+02  0.35664810535E+02  0.00000000000E+00 0. -1.
         11    1    1    2    0    0  0.10234557988E+02  0.34328380374E+02  0.98104405383E+02  0.10443973493E+03  0.00000000000E+00 0.  1.
</event>
<event>
 7    1  0.2612321E-009  0.1264457E+03  0.7561462E-02  0.1232827E+00
         -2   -1    0    0    0  501 -0.00000000000E+00  0.00000000000E+00  0.14240425365E+03  0.14240425365E+03  0.00000000000E+00 0.  1.
          2   -1    0    0  501    0  0.00000000000E+00 -0.00000000000E+00 -0.13092724003E+03  0.13092724003E+03  0.00000000000E+00 0. -1.
         25    2    1    2    0    0  0.29442602890E+02 -0.81640554622E+02  0.15136315351E+02  0.15300175929E+03  0.12509349815E+03 0.  0.
          5    1    3    3  502    0  0.61307964043E+02 -0.81617137684E+02  0.42636149809E+02  0.11070382690E+03  0.41800000000E+01 0.  1.
         -5    1    3    3    0  502 -0.31865361154E+02 -0.23416937804E-01 -0.27499834458E+02  0.42297932397E+02  0.41800000000E+01 0.  1.
        -11    1    1    2    0    0 -0.41013249775E+02  0.52740282365E+01 -0.10869888642E+02  0.42755777505E+02  0.00000000000E+00 0. -1.
         11    1    1    2    0    0  0.11570646886E+02  0.76366526385E+02  0.72105869131E+01  0.77573956874E+02  0.00000000000E+00 0.  1.
</event>
<event>
 7    1  0.2612321E-009  0.1157840E+03  0.7561462E-02  0.1250219E+00
         -2   -1    0    0    0  501 -0.00000000000E+00  0.00000000000E+00  0.12430313394E+03  0.12430313394E+03  0.00000000000E+00 0. -1.
          2   -1    0    0  501    0  0.00000000000E+00 -0.00000000000E+00 -0.30758250556E+03  0.30758250556E+03  0.00000000000E+00 0.  1.
         25    2    1    2    0    0 -0.21500695929E+02 -0.11182090481E+03  0.32557670527E+02  0.17225866548E+03  0.12508737445E+03 0.  0.
          5    1    3    3  502    0 -0.20222406110E+02 -0.10663469305E+03  0.73248417108E+02  0.13100651312E+03  0.41800000000E+01 0.  1.
         -5    1    3    3    0  502 -0.12782898192E+01 -0.51862117573E+01 -0.40690746581E+02  0.41252152363E+02  0.41800000000E+01 0.  1.
        -11    1    1    2    0    0 -0.43136658414E+01  0.31720306648E+02 -0.14831434036E+03  0.15172978984E+03  0.00000000000E+00 0.  1.
         11    1    1    2    0    0  0.25814361770E+02  0.80100598159E+02 -0.67522701781E+02  0.10789718418E+03  0.00000000000E+00 0. -1.
</event>
<event>
 7    1  0.2612321E-009  0.1231033E+03  0.7561462E-02  0.1238064E+00
          2   -1    0    0  501    0  0.00000000000E+00  0.00000000000E+00  0.19597590826E+03  0.19597590826E+03  0.00000000000E+00 0. -1.
         -2   -1    0    0    0  501 -0.00000000000E+00 -0.00000000000E+00 -0.79891576080E+02  0.79891576080E+02  0.00000000000E+00 0.  1.
         25    2    1    2    0    0  0.24437412773E+02 -0.57318225699E+02  0.61615981626E+02  0.15272942322E+03  0.12508869408E+03 0.  0.
          5    1    3    3  502    0  0.14207410978E+02  0.37839391905E+02  0.37386917193E+01  0.40805885877E+02  0.41800000000E+01 0.  1.
         -5    1    3    3    0  502  0.10230001795E+02 -0.95157617604E+02  0.57877289907E+02  0.11192353734E+03  0.41800000000E+01 0.  1.
        -11    1    1    2    0    0  0.31718302430E+02  0.33574288414E+01  0.22078566462E+02  0.38791572983E+02  0.00000000000E+00 0.  1.
         11    1    1    2    0    0 -0.56155715203E+02  0.53960796858E+02  0.32389784093E+02  0.84346488137E+02  0.00000000000E+00 0. -1.
</event>
<event>
 7    1  0.2612321E-009  0.2699406E+03  0.7561462E-02  0.1101314E+00
         -2   -1    0    0    0  501 -0.00000000000E+00  0.00000000000E+00  0.37422798708E+02  0.37422798708E+02  0.00000000000E+00 0.  1.
          2   -1    0    0  501    0  0.00000000000E+00 -0.00000000000E+00 -0.20606439307E+04  0.20606439307E+04  0.00000000000E+00 0. -1.
         25    2    1    2    0    0 -0.22957257416E+03 -0.98752800241E+02 -0.12386567900E+04  0.12697927259E+04  0.12508893204E+03 0.  0.
          5    1    3    3  502    0 -0.11418476510E+02 -0.52984214546E+02 -0.18572676594E+03  0.19351902382E+03  0.41800000000E+01 0.  1.
         -5    1    3    3    0  502 -0.21815409765E+03 -0.45768585695E+02 -0.10529300241E+04  0.10762737020E+04  0.41800000000E+01 0.  1.
        -11    1    1    2    0    0  0.61806488708E+02  0.68221065963E+02 -0.21896757937E+03  0.23753095946E+03  0.00000000000E+00 0.  1.
         11    1    1    2    0    0  0.16776608545E+03  0.30531734279E+02 -0.56559676262E+03  0.59074304406E+03  0.00000000000E+00 0. -1.
</event>
<event>
 7    1  0.2612321E-009  0.1138743E+03  0.7561462E-02  0.1253559E+00
         -1   -1    0    0    0  501 -0.00000000000E+00  0.00000000000E+00  0.37411552884E+03  0.37411552884E+03  0.00000000000E+00 0.  1.
          1   -1    0    0  501    0  0.00000000000E+00 -0.00000000000E+00 -0.66457358611E+02  0.66457358611E+02  0.00000000000E+00 0. -1.
         25    2    1    2    0    0  0.10643161405E+03 -0.21801756156E-01  0.22250880488E+03  0.27655658333E+03  0.12508271898E+03 0.  0.
          5    1    3    3  502    0  0.18558843862E+02 -0.12793155700E+02  0.17357778693E+03  0.17508516794E+03  0.41800000000E+01 0.  1.
         -5    1    3    3    0  502  0.87872770190E+02  0.12771353944E+02  0.48931017954E+02  0.10147141539E+03  0.41800000000E+01 0.  1.
        -11    1    1    2    0    0 -0.21847250478E+02  0.19327613062E+02  0.70145710101E+02  0.75968938559E+02  0.00000000000E+00 0.  1.
         11    1    1    2    0    0 -0.84584363575E+02 -0.19305811306E+02  0.15003655240E+02  0.88047365560E+02  0.00000000000E+00 0. -1.
</event>
<event>
 7    1  0.2612321E-009  0.1308790E+03  0.7561462E-02  0.1226157E+00
          1   -1    0    0  501    0  0.00000000000E+00  0.00000000000E+00  0.27548355294E+03  0.27548355294E+03  0.00000000000E+00 0. -1.
         -1   -1    0    0    0  501 -0.00000000000E+00 -0.00000000000E+00 -0.93386406444E+02  0.93386406444E+02  0.00000000000E+00 0.  1.
         25    2    1    2    0    0  0.34180087266E+02  0.67171214787E+02  0.19841822756E+03  0.24636790242E+03  0.12508836818E+03 0.  0.
          5    1    3    3  502    0 -0.36326209837E+02  0.64062316848E+02  0.11931848062E+03  0.14027810299E+03  0.41800000000E+01 0.  1.
         -5    1    3    3    0  502  0.70506297103E+02  0.31088979388E+01  0.79099746940E+02  0.10608979943E+03  0.41800000000E+01 0.  1.
        -11    1    1    2    0    0 -0.62417390745E+02 -0.26561112379E+02 -0.24980769684E+02  0.72287358592E+02  0.00000000000E+00 0. -1.
         11    1    1    2    0    0  0.28237303478E+02 -0.40610102408E+02  0.86596886198E+01  0.50214698369E+02  0.00000000000E+00 0.  1.
</event>
<event>
 6    1  0.2612321E-009  0.1571587E+03  0.7561462E-02  0.1191942E+00
         -2   -1    0    0    0  501 -0.00000000000E+00  0.00000000000E+00  0.64635170931E+02  0.64635170931E+02  0.00000000000E+00 0. -1.
          2   -1    0    0  501    0  0.00000000000E+00 -0.00000000000E+00 -0.46493814916E+03  0.46493814916E+03  0.00000000000E+00 0.  1.
          5    1    1    2  502    0  0.86744036446E+02  0.38451508102E+02 -0.96011580859E+02  0.13505088816E+03  0.41800000000E+01 0. -1.
         -5    1    1    2    0  502 -0.25988422219E+02  0.80621397009E+02 -0.13853056207E+03  0.16242966715E+03  0.41800000000E+01 0. -1.
        -11    1    1    2    0    0 -0.42587550921E+02 -0.67095588442E+02 -0.15750247423E+03  0.17641583509E+03  0.00000000000E+00 0.  1.
         11    1    1    2    0    0 -0.18168063306E+02 -0.51977316670E+02 -0.82583610833E+01  0.55676929695E+02  0.00000000000E+00 0. -1.
</event>
<event>
 7    1  0.2612321E-009  0.9240161E+02  0.7561462E-02  0.1297138E+00
         -2   -1    0    0    0  501 -0.00000000000E+00  0.00000000000E+00  0.22891905083E+02  0.22891905083E+02  0.00000000000E+00 0.  1.
          2   -1    0    0  501    0  0.00000000000E+00 -0.00000000000E+00 -0.70872435315E+03  0.70872435315E+03  0.00000000000E+00 0. -1.
         25    2    1    2    0    0 -0.18751315488E+01  0.48264427711E+02 -0.24836109977E+03  0.28224741937E+03  0.12508956297E+03 0.  0.
          5    1    3    3  502    0 -0.13449703163E+02 -0.13764605549E+02  0.56459630017E+01  0.20486780599E+02  0.41800000000E+01 0. -1.
         -5    1    3    3    0  502  0.11574571614E+02  0.62029033260E+02 -0.25400706277E+03  0.26176063877E+03  0.41800000000E+01 0. -1.
        -11    1    1    2    0    0  0.36048903089E+01  0.26672453314E+02 -0.91823699788E+02  0.95687025467E+02  0.00000000000E+00 0.  1.
         11    1    1    2    0    0 -0.17297587601E+01 -0.74936881024E+02 -0.34564764852E+03  0.35368181340E+03  0.00000000000E+00 0. -1.
</event>
<event>
 7    1  0.2612321E-009  0.1007607E+03  0.7561462E-02  0.1278704E+00
         -1   -1    0    0    0  501 -0.00000000000E+00  0.00000000000E+00  0.34543849328E+02  0.34543849328E+02  0.00000000000E+00 0.  1.
          1   -1    0    0  501    0  0.00000000000E+00 -0.00000000000E+00 -0.46995650404E+03  0.46995650404E+03  0.00000000000E+00 0. -1.
         25    2    1    2    0    0  0.18170757873E+02 -0.17542841119E+02 -0.36413029937E+03  0.38584245925E+03  0.12508237576E+03 0.  0.
          5    1    3    3  502    0  0.59441439190E+02  0.46552967123E+01 -0.92242631674E+02  0.10991420281E+03  0.41800000000E+01 0.  1.
         -5    1    3    3    0  502 -0.41270681318E+02 -0.22198137831E+02 -0.27188766770E+03  0.27592825645E+03  0.41800000000E+01 0.  1.
        -11    1    1    2    0    0 -0.50744429930E+02 -0.10385716825E+02 -0.35580990625E+02  0.62840012546E+02  0.00000000000E+00 0.  1.
         11    1    1    2    0    0  0.32573672058E+02  0.27928557944E+02 -0.35701364713E+02  0.55817881566E+02  0.00000000000E+00 0. -1.
</event>
<event>
 7    1  0.2612321E-009  0.1522183E+03  0.7561462E-02  0.1197773E+00
          2   -1    0    0  501    0  0.00000000000E+00  0.00000000000E+00  0.85072221052E+03  0.85072221052E+03  0.00000000000E+00 0. -1.
         -2   -1    0    0    0  501 -0.00000000000E+00 -0.00000000000E+00 -0.41973046002E+02  0.41973046002E+02  0.00000000000E+00 0.  1.
         25    2    1    2    0    0  0.72248511111E+02 -0.82898635596E+00  0.41284788709E+03  0.43740302293E+03  0.12512990057E+03 0.  0.
          5    1    3    3  502    0  0.19465155333E+02 -0.17087213062E+02  0.61455315524E+01  0.26946337050E+02  0.41800000000E+01 0.  1.
         -5    1    3    3    0  502  0.52783355778E+02  0.16258226706E+02  0.40670235554E+03  0.41045668588E+03  0.41800000000E+01 0.  1.
        -11    1    1    2    0    0 -0.98491085600E+02  0.87814437150E+02  0.26380189792E+03  0.29496323611E+03  0.00000000000E+00 0. -1.
         11    1    1    2    0    0  0.26242574489E+02 -0.86985450794E+02  0.13209937951E+03  0.16032899748E+03  0.00000000000E+00 0.  1.
</event>
<event>
 7    1  0.2612321E-009  0.1268730E+03  0.7561462E-02  0.1232171E+00
          1   -1    0    0  501    0  0.00000000000E+00  0.00000000000E+00  0.74928993962E+03  0.74928993962E+03  0.00000000000E+00 0. -1.
         -1   -1    0    0    0  501 -0.00000000000E+00 -0.00000000000E+00 -0.23750875867E+02  0.23750875867E+02  0.00000000000E+00 0.  1.
         25    2    1    2    0    0 -0.21533697775E+02  0.74032379775E+02  0.37078568986E+03  0.39884009406E+03  0.12508756703E+03 0.  0.
          5    1    3    3  502    0  0.43334404102E+02  0.54472948230E+02  0.25748695615E+03  0.26676239925E+03  0.41800000000E+01 0.  1.
         -5    1    3    3    0  502 -0.64868101878E+02  0.19559431545E+02  0.11329873371E+03  0.13207769480E+03  0.41800000000E+01 0.  1.
        -11    1    1    2    0    0 -0.33845902318E+02 -0.32338153447E+02  0.18519318556E+03  0.19101784537E+03  0.00000000000E+00 0. -1.
         11    1    1    2    0    0  0.55379600093E+02 -0.41694226327E+02  0.16956018833E+03  0.18318287606E+03  0.00000000000E+00 0.  1.
</event>
<event>
 7    1  0.2612321E-009  0.1875604E+03  0.7561462E-02  0.1160680E+00
          2   -1    0    0  501    0  0.00000000000E+00  0.00000000000E+00  0.25333682067E+04  0.25333682067E+04  0.00000000000E+00 0.  1.
         -2   -1    0    0    0  501 -0.00000000000E+00 -0.00000000000E+00 -0.19217286737E+02  0.19217286737E+02  0.00000000000E+00 0. -1.
         25    2    1    2    0    0  0.89566433705E+01  0.16126056883E+03  0.19041871738E+04  0.19151137020E+04  0.12508599583E+03 0.  0.
          5    1    3    3  502    0  0.10247552226E+02  0.17529807759E+03  0.14369737984E+04  0.14476690222E+04  0.41800000000E+01 0.  1.
         -5    1    3    3    0  502 -0.12909088555E+01 -0.14037508758E+02  0.46721337541E+03  0.46744467979E+03  0.41800000000E+01 0.  1.
        -11    1    1    2    0    0  0.38896812532E+02 -0.47766575536E+02  0.18243873926E+03  0.19255778703E+03  0.00000000000E+00 0.  1.
         11    1    1    2    0    0 -0.47853455903E+02 -0.11349399329E+03  0.42752500694E+03  0.44491400440E+03  0.00000000000E+00 0. -1.
</event>
<event>
 7    1  0.2612321E-009  0.1208915E+03  0.7561462E-02  0.1241634E+00
          1   -1    0    0  501    0  0.00000000000E+00  0.00000000000E+00  0.16519090083E+04  0.16519090083E+04  0.00000000000E+00 0. -1.
         -1   -1    0    0    0  501 -0.00000000000E+00 -0.00000000000E+00 -0.11025246331E+02  0.11025246331E+02  0.00000000000E+00 0.  1.
         25    2    1    2    0    0  0.32140078625E+02  0.53243207644E+02  0.12187131390E+04  0.12266937248E+04  0.12509178788E+03 0.  0.
          5    1    3    3  502    0 -0.47078651954E+02  0.22535831518E+02  0.57614617018E+03  0.57852065217E+03  0.41800000000E+01 0.  1.
         -5    1    3    3    0  502  0.79218730579E+02  0.30707376126E+02  0.64256696882E+03  0.64817307260E+03  0.41800000000E+01 0.  1.
        -11    1    1    2    0    0 -0.36245004018E+02  0.12609749214E+02  0.22693814951E+03  0.23016000911E+03  0.00000000000E+00 0. -1.
         11    1    1    2    0    0  0.41049253932E+01 -0.65852956858E+02  0.19523247341E+03  0.20608052071E+03  0.00000000000E+00 0.  1.
</event>
<event>
 7    1  0.2612321E-009  0.8746098E+02  0.7561462E-02  0.1309119E+00
          2   -1    0    0  501    0  0.00000000000E+00  0.00000000000E+00  0.30301441221E+03  0.30301441221E+03  0.00000000000E+00 0. -1.
         -2   -1    0    0    0  501 -0.00000000000E+00 -0.00000000000E+00 -0.54239185791E+02  0.54239185791E+02  0.00000000000E+00 0.  1.
         25    2    1    2    0    0 -0.11527324781E+02 -0.69204225781E+02  0.13300958907E+03  0.19560440920E+03  0.12508968794E+03 0.  0.
          5    1    3    3  502    0 -0.37126095736E+02 -0.51649206191E+02  0.14780528165E+03  0.16096540364E+03  0.41800000000E+01 0. -1.
         -5    1    3    3    0  502  0.25598770955E+02 -0.17555019590E+02 -0.14795692577E+02  0.34639005558E+02  0.41800000000E+01 0. -1.
        -11    1    1    2    0    0  0.25638957670E+02  0.41918562186E+02  0.82428639436E+01  0.49824359626E+02  0.00000000000E+00 0.  1.
         11    1    1    2    0    0 -0.14111632889E+02  0.27285663596E+02  0.10752277340E+03  0.11182482917E+03  0.00000000000E+00 0. -1.
</event>
<event>
 7    1  0.2612321E-009  0.2304726E+03  0.7561462E-02  0.1126308E+00
         -2   -1    0    0    0  501 -0.00000000000E+00  0.00000000000E+00  0.91724989247E+02  0.91724989247E+02  0.00000000000E+00 0.  1.
          2   -1    0    0  501    0  0.00000000000E+00 -0.00000000000E+00 -0.63780617003E+03  0.63780617003E+03  0.00000000000E+00 0. -1.
         25    2    1    2    0    0  0.20571056350E+03 -0.43160528205E+02 -0.35097300056E+03  0.42779656646E+03  0.12509271770E+03 0.  0.
          5    1    3    3  502    0  0.10535832446E+03  0.30441855057E+02 -0.10394484718E+03  0.15115914371E+03  0.41800000000E+01 0. -1.
         -5    1    3    3    0  502  0.10035223905E+03 -0.73602383262E+02 -0.24702815338E+03  0.27663742275E+03  0.41800000000E+01 0. -1.
        -11    1    1    2    0    0 -0.38452745064E+02 -0.25215032571E+02 -0.62543409364E+02  0.77627891414E+02  0.00000000000E+00 0. -1.
         11    1    1    2    0    0 -0.16725781844E+03  0.68375560776E+02 -0.13256477085E+03  0.22410670140E+03  0.00000000000E+00 0.  1.
</event>
<event>
 7    1  0.2612321E-009  0.9311715E+02  0.7561462E-02  0.1295474E+00
          2   -1    0    0  501    0  0.00000000000E+00  0.00000000000E+00  0.21523864506E+02  0.21523864506E+02  0.00000000000E+00 0. -1.
         -2   -1    0    0    0  501 -0.00000000000E+00 -0.00000000000E+00 -0.78533253260E+03  0.78533253260E+03  0.00000000000E+00 0.  1.
         25    2    1    2    0    0  0.83711727368E+01 -0.70067517757E+02 -0.44615519905E+03  0.46870129431E+03  0.12508760162E+03 0.  0.
          5    1    3    3  502    0  0.15604526022E+02 -0.74212255925E+02 -0.11747337520E+03  0.13988719185E+03  0.41800000000E+01 0. -1.
         -5    1    3    3    0  502 -0.72333532857E+01  0.41447381685E+01 -0.32868182385E+03  0.32881410247E+03  0.41800000000E+01 0. -1.
        -11    1    1    2    0    0  0.31978173810E+02  0.26052220805E+02 -0.54706733874E+02  0.68513856556E+02  0.00000000000E+00 0. -1.
         11    1    1    2    0    0 -0.40349346546E+02  0.44015296952E+02 -0.26294673517E+03  0.26964124623E+03  0.00000000000E+00 0.  1.
</event>
<event>
 7    1  0.2612321E-009  0.1076436E+03  0.7561462E-02  0.1264997E+00
         -1   -1    0    0    0  501 -0.00000000000E+00  0.00000000000E+00  0.47728906015E+03  0.47728906015E+03  0.00000000000E+00 0.  1.
          1   -1    0    0  501    0  0.00000000000E+00 -0.00000000000E+00 -0.32673424063E+02  0.32673424063E+02  0.00000000000E+00 0. -1.
         25    2    1    2    0    0  0.51033706648E+02  0.16485775852E+02  0.18728368896E+03  0.23151047043E+03  0.12508276359E+03 0.  0.
          5    1    3    3  502    0 -0.85852238690E+01 -0.31094679151E+02  0.13518650234E+03  0.13904476961E+03  0.41800000000E+01 0.  1.
         -5    1    3    3    0  502  0.59618930517E+02  0.47580455004E+02  0.52097186624E+02  0.92465700822E+02  0.41800000000E+01 0.  1.
        -11    1    1    2    0    0 -0.61170825110E+02 -0.45107252968E+02  0.18546129396E+03  0.20043060064E+03  0.00000000000E+00 0. -1.
         11    1    1    2    0    0  0.10137118462E+02  0.28621477116E+02  0.71870653162E+02  0.78021413144E+02  0.00000000000E+00 0.  1.
</event>
<event>
 7    1  0.2612321E-009  0.9315319E+02  0.7561462E-02  0.1295391E+00
          2   -1    0    0  501    0  0.00000000000E+00  0.00000000000E+00  0.10124243363E+04  0.10124243363E+04  0.00000000000E+00 0.  1.
         -2   -1    0    0    0  501 -0.00000000000E+00 -0.00000000000E+00 -0.21945134938E+02  0.21945134938E+02  0.00000000000E+00 0. -1.
         25    2    1    2    0    0 -0.81318180088E+00 -0.21964121628E+02  0.88506192313E+03  0.89412737977E+03  0.12508428987E+03 0.  0.
          5    1    3    3  502    0  0.34487875376E+02 -0.61919810159E+02  0.41457682438E+03  0.42061252020E+03  0.41800000000E+01 0.  1.
         -5    1    3    3    0  502 -0.35301057177E+02  0.39955688531E+02  0.47048509875E+03  0.47351485957E+03  0.41800000000E+01 0.  1.
        -11    1    1    2    0    0 -0.25835363772E+02 -0.21006881259E+01  0.10075332602E+03  0.10403418484E+03  0.00000000000E+00 0.  1.
         11    1    1    2    0    0  0.26648545573E+02  0.24064809754E+02  0.46639521738E+01  0.36207906588E+02  0.00000000000E+00 0. -1.
</event>
<event>
 7    1  0.2612321E-009  0.9961042E+02  0.7561462E-02  0.1281117E+00
          3   -1    0    0  501    0  0.00000000000E+00  0.00000000000E+00  0.17548268846E+03  0.17548268846E+03  0.00000000000E+00 0.  1.
         -3   -1    0    0    0  501 -0.00000000000E+00 -0.00000000000E+00 -0.99303050261E+02  0.99303050261E+02  0.00000000000E+00 0. -1.
         25    2    1    2    0    0 -0.27622154774E+02  0.17678787042E+02  0.11263679850E+03  0.17149373715E+03  0.12509008977E+03 0.  0.
          5    1    3    3  502    0  0.37331998182E+02  0.24869796975E+01 -0.31725392504E+01  0.37780955012E+02  0.41800000000E+01 0.  1.
         -5    1    3    3    0  502 -0.64954152956E+02  0.15191807345E+02  0.11580933775E+03  0.13371278214E+03  0.41800000000E+01 0.  1.
        -11    1    1    2    0    0 -0.16352185146E+02 -0.41583888808E+02 -0.70378421620E+01  0.45234334191E+02  0.00000000000E+00 0.  1.
         11    1    1    2    0    0  0.43974339920E+02  0.23905101766E+02 -0.29419318140E+02  0.58057667381E+02  0.00000000000E+00 0. -1.
</event>
<event>
 7    1  0.2612321E-009  0.8328497E+02  0.7561462E-02  0.1319979E+00
         -1   -1    0    0    0  501 -0.00000000000E+00  0.00000000000E+00  0.52388178342E+02  0.52388178342E+02  0.00000000000E+00 0.  1.
          1   -1    0    0  501    0  0.00000000000E+00 -0.00000000000E+00 -0.39764989194E+03  0.39764989194E+03  0.00000000000E+00 0. -1.
         25    2    1    2    0    0  0.85628416938E+01 -0.78015361742E+02 -0.27360730221E+03  0.31090376180E+03  0.12506188209E+03 0.  0.
          5    1    3    3  502    0 -0.12650135580E+02 -0.30366045743E+02 -0.84811500554E+00  0.33170986771E+02  0.41800000000E+01 0.  1.
         -5    1    3    3    0  502  0.21212977274E+02 -0.47649315999E+02 -0.27275918721E+03  0.27773277503E+03  0.41800000000E+01 0.  1.
        -11    1    1    2    0    0 -0.14611007368E+02  0.39872457309E+02 -0.87601788074E+02  0.97351772772E+02  0.00000000000E+00 0. -1.
         11    1    1    2    0    0  0.60481656738E+01  0.38142904433E+02  0.15947376692E+02  0.41782535705E+02  0.00000000000E+00 0.  1.
</event>
<event>
 7    1  0.2612321E-009  0.1593549E+03  0.7561462E-02  0.1189427E+00
          2   -1    0    0  501    0  0.00000000000E+00  0.00000000000E+00  0.54998619954E+03  0.54998619954E+03  0.00000000000E+00 0. -1.
         -2   -1    0    0    0  501 -0.00000000000E+00 -0.00000000000E+00 -0.80731029364E+02  0.80731029364E+02  0.00000000000E+00 0.  1.
         25    2    1    2    0    0 -0.31390719688E+02 -0.14241459026E+03  0.82295121391E+02  0.20901474948E+03  0.12508951072E+03 0.  0.
          5    1    3    3  502    0 -0.27767707055E+02 -0.41435527846E+02 -0.29631457206E+02  0.58167380714E+02  0.41800000000E+01 0.  1.
         -5    1    3    3    0  502 -0.36230126335E+01 -0.10097906242E+03  0.11192657860E+03  0.15084736877E+03  0.41800000000E+01 0.  1.
        -11    1    1    2    0    0  0.59736859683E+02  0.10086447882E+03  0.26435299845E+03  0.28917925804E+03  0.00000000000E+00 0. -1.
         11    1    1    2    0    0 -0.28346139995E+02  0.41550111447E+02  0.12260705034E+03  0.13252322139E+03  0.00000000000E+00 0.  1.
</event>
<event>
 7    1  0.2612321E-009  0.1115323E+03  0.7561462E-02  0.1257758E+00
         -2   -1    0    0    0  501 -0.00000000000E+00  0.00000000000E+00  0.20897757957E+03  0.20897757957E+03  0.00000000000E+00 0.  1.
          2   -1    0    0  501    0  0.00000000000E+00 -0.00000000000E+00 -0.83291088734E+02  0.83291088734E+02  0.00000000000E+00 0. -1.
         25    2    1    2    0    0 -0.42927968526E+02  0.61388613969E+02  0.68498188134E+02  0.16109710786E+03  0.12509557936E+03 0.  0.
          5    1    3    3  502    0 -0.36141486886E+02  0.96356319630E+02  0.71075997797E+02  0.12513999069E+03  0.41800000000E+01 0.  1.
         -5    1    3    3    0  502 -0.67864816401E+01 -0.34967705661E+02 -0.25778096625E+01  0.35957117166E+02  0.41800000000E+01 0.  1.
        -11    1    1    2    0    0  0.31192393794E+02 -0.11969132438E+02  0.71056045014E+02  0.78518705382E+02  0.00000000000E+00 0.  1.
         11    1    1    2    0    0  0.11735574733E+02 -0.49419481532E+02 -0.13867742316E+02  0.52652855061E+02  0.00000000000E+00 0. -1.
</event>
<event>
 7    1  0.2612321E-009  0.1094007E+03  0.7561462E-02  0.1261684E+00
          3   -1    0    0  501    0  0.00000000000E+00  0.00000000000E+00  0.19779386781E+03  0.19779386781E+03  0.00000000000E+00 0. -1.
         -3   -1    0    0    0  501 -0.00000000000E+00 -0.00000000000E+00 -0.72585790440E+02  0.72585790440E+02  0.00000000000E+00 0.  1.
         25    2    1    2    0    0  0.12300032233E+02  0.50193825662E+02  0.92559942529E+02  0.16396907861E+03  0.12509118615E+03 0.  0.
          5    1    3    3  502    0  0.53408329182E+02  0.70713486655E+02  0.67444536414E+02  0.11144094720E+03  0.41800000000E+01 0. -1.
         -5    1    3    3    0  502 -0.41108296950E+02 -0.20519660993E+02  0.25115406115E+02  0.52528131413E+02  0.41800000000E+01 0. -1.
        -11    1    1    2    0    0 -0.11622711452E+01  0.16395922141E+02 -0.16199306311E+02  0.23078012524E+02  0.00000000000E+00 0.  1.
         11    1    1    2    0    0 -0.11137761087E+02 -0.66589747803E+02  0.48847441152E+02  0.83332567113E+02  0.00000000000E+00 0. -1.
</event>
<event>
 7    1  0.2612321E-009  0.1017535E+03  0.7561462E-02  0.1276651E+00
          1   -1    0    0  501    0  0.00000000000E+00  0.00000000000E+00  0.31737191572E+03  0.31737191572E+03  0.00000000000E+00 0. -1.
         -1   -1    0    0    0  501 -0.00000000000E+00 -0.00000000000E+00 -0.52978110076E+02  0.52978110076E+02  0.00000000000E+00 0.  1.
         25    2    1    2    0    0  0.20720545254E+02  0.57757676825E+02  0.10244703162E+03  0.17293905472E+03  0.12508889692E+03 0.  0.
          5    1    3    3  502    0  0.38692752083E+02 -0.29988756486E+02  0.43597952723E+02  0.65686440466E+02  0.41800000000E+01 0.  1.
         -5    1    3    3    0  502 -0.17972206829E+02  0.87746433311E+02  0.58849078893E+02  0.10725261425E+03  0.41800000000E+01 0.  1.
        -11    1    1    2    0    0 -0.97970647954E+01 -0.50850441034E+02  0.17288819737E+03  0.18047736318E+03  0.00000000000E+00 0. -1.
         11    1    1    2    0    0 -0.10923480458E+02 -0.69072357913E+01 -0.10941423342E+02  0.16933607896E+02  0.00000000000E+00 0.  1.
</event>
<event>
 7    1  0.2612321E-009  0.8362723E+02  0.7561462E-02  0.1319062E+00
         -4   -1    0    0    0  501 -0.00000000000E+00  0.00000000000E+00  0.87423494278E+02  0.87423494278E+02  0.00000000000E+00 0.  1.
          4   -1    0    0  501    0  0.00000000000E+00 -0.00000000000E+00 -0.13799529656E+03  0.13799529656E+03  0.00000000000E+00 0. -1.
         25    2    1    2    0    0 -0.56537561358E+02 -0.10204837823E+01 -0.19519958759E+02  0.13865527135E+03  0.12508684284E+03 0.  0.
          5    1    3    3  502    0  0.69827919325E+01 -0.23088833732E+02 -0.56659678320E+02  0.61722323138E+02  0.41800000000E+01 0. -1.
         -5    1    3    3    0  502 -0.63520353290E+02  0.22068349949E+02  0.37139719561E+02  0.76932948213E+02  0.41800000000E+01 0. -1.
        -11    1    1    2    0    0  0.34240669812E+02  0.25195368599E+02 -0.14819690297E+01  0.42537351824E+02  0.00000000000E+00 0.  1.
         11    1    1    2    0    0  0.22296891546E+02 -0.24174884816E+02 -0.29569874488E+02  0.44226167658E+02  0.00000000000E+00 0. -1.
</event>
<event>
 7    1  0.2612321E-009  0.7901074E+02  0.7561462E-02  0.1331882E+00
         -2   -1    0    0    0  501 -0.00000000000E+00  0.00000000000E+00  0.15672099509E+02  0.15672099509E+02  0.00000000000E+00 0.  1.
          2   -1    0    0  501    0  0.00000000000E+00 -0.00000000000E+00 -0.78988307869E+03  0.78988307869E+03  0.00000000000E+00 0. -1.
         25    2    1    2    0    0 -0.23889490739E+02 -0.46672590993E+01 -0.41012901330E+03  0.42947165473E+03  0.12509038166E+03 0.  0.
          5    1    3    3  502    0  0.14572515071E+02 -0.19906176252E+02 -0.37265943909E+03  0.37349851940E+03  0.41800000000E+01 0. -1.
         -5    1    3    3    0  502 -0.38462005810E+02  0.15238917152E+02 -0.37469574214E+02  0.55973135330E+02  0.41800000000E+01 0. -1.
        -11    1    1    2    0    0  0.57319961174E+02  0.77695816661E+01 -0.27171696542E+03  0.27780578404E+03  0.00000000000E+00 0.  1.
         11    1    1    2    0    0 -0.33430470435E+02 -0.31023225667E+01 -0.92365000449E+02  0.98277739427E+02  0.00000000000E+00 0. -1.
</event>
<event>
 7    1  0.2612321E-009  0.1378672E+03  0.7561462E-02  0.1216228E+00
          1   -1    0    0  501    0  0.00000000000E+00  0.00000000000E+00  0.10650324231E+04  0.10650324231E+04  0.00000000000E+00 0. -1.
         -1   -1    0    0    0  501 -0.00000000000E+00 -0.00000000000E+00 -0.23637166973E+02  0.23637166973E+02  0.00000000000E+00 0.  1.
         25    2    1    2    0    0 -0.17324969351E+02  0.91570807720E+02  0.78338048034E+03  0.79876066182E+03  0.12509296741E+03 0.  0.
          5    1    3    3  502    0 -0.65097953529E+02  0.59832303099E+02  0.32689695660E+03  0.33866907252E+03  0.41800000000E+01 0.  1.
         -5    1    3    3    0  502  0.47772984178E+02  0.31738504621E+02  0.45648352374E+03  0.46009158930E+03  0.41800000000E+01 0.  1.
        -11    1    1    2    0    0 -0.37270235941E+02 -0.36665301737E+02  0.77469967334E+02  0.93461279027E+02  0.00000000000E+00 0.  1.
         11    1    1    2    0    0  0.54595205292E+02 -0.54905505983E+02  0.18054480843E+03  0.19644764920E+03  0.00000000000E+00 0. -1.
</event>
<event>
 7    1  0.2612321E-009  0.9775761E+02  0.7561462E-02  0.1285083E+00
         -2   -1    0    0    0  501 -0.00000000000E+00  0.00000000000E+00  0.16869555428E+03  0.16869555428E+03  0.00000000000E+00 0.  1.
          2   -1    0    0  501    0  0.00000000000E+00 -0.00000000000E+00 -0.12750987874E+03  0.12750987874E+03  0.00000000000E+00 0. -1.
         25    2    1    2    0    0  0.36996316417E+02 -0.89248330639E+02  0.29514528869E+02  0.16078898103E+03  0.12509195440E+03 0.  0.
          5    1    3    3  502    0  0.16954321650E+02 -0.44049238469E+02 -0.48837402547E+02  0.68046665750E+02  0.41800000000E+01 0. -1.
         -5    1    3    3    0  502  0.20041994767E+02 -0.45199092170E+02  0.78351931415E+02  0.92742315282E+02  0.41800000000E+01 0. -1.
        -11    1    1    2    0    0 -0.18105897113E+02  0.66609391383E+02 -0.37145473403E+02  0.78386355478E+02  0.00000000000E+00 0. -1.
         11    1    1    2    0    0 -0.18890419304E+02  0.22638939256E+02  0.48816620075E+02  0.57030096507E+02  0.00000000000E+00 0.  1.
</event>
<event>
 7    1  0.2612321E-009  0.1037154E+03  0.7561462E-02  0.1272671E+00
          2   -1    0    0  501    0  0.00000000000E+00  0.00000000000E+00  0.78118145703E+02  0.78118145703E+02  0.00000000000E+00 0.  1.
         -2   -1    0    0    0  501 -0.00000000000E+00 -0.00000000000E+00 -0.27226491420E+03  0.27226491420E+03  0.00000000000E+00 0. -1.
         25    2    1    2    0    0  0.40922024163E+02 -0.85218667836E+02 -0.81616331199E+02  0.17676434264E+03  0.12509026301E+03 0.  0.
          5    1    3    3  502    0  0.22929664568E+02 -0.69023641911E+02  0.17270597398E+02  0.74871747638E+02  0.41800000000E+01 0.  1.
         -5    1    3    3    0  502  0.17992359595E+02 -0.16195025926E+02 -0.98886928598E+02  0.10189259500E+03  0.41800000000E+01 0.  1.
        -11    1    1    2    0    0  0.10371828387E+02 -0.20268809075E+00 -0.60174234893E+02  0.61061890337E+02  0.00000000000E+00 0. -1.
         11    1    1    2    0    0 -0.51293852551E+02  0.85421355927E+02 -0.52356202406E+02  0.11255682693E+03  0.00000000000E+00 0.  1.
</event>
<event>
 7    1  0.2612321E-009  0.7471017E+02  0.7561462E-02  0.1344771E+00
          1   -1    0    0  501    0  0.00000000000E+00  0.00000000000E+00  0.45022270571E+03  0.45022270571E+03  0.00000000000E+00 0. -1.
         -1   -1    0    0    0  501 -0.00000000000E+00 -0.00000000000E+00 -0.86812640619E+02  0.86812640619E+02  0.00000000000E+00 0.  1.
         25    2    1    2    0    0 -0.32851988706E+02 -0.64623103602E+02 -0.10910406496E+02  0.14498813604E+03  0.12508846446E+03 0.  0.
          5    1    3    3  502    0 -0.10192698224E+02 -0.17969517117E+02 -0.65955920464E+02  0.69241970558E+02  0.41800000000E+01 0.  1.
         -5    1    3    3    0  502 -0.22659290482E+02 -0.46653586484E+02  0.55045513968E+02  0.75746165481E+02  0.41800000000E+01 0.  1.
        -11    1    1    2    0    0  0.10857546543E+02  0.35925299877E+01 -0.69926172647E+00  0.11457816355E+02  0.00000000000E+00 0.  1.
         11    1    1    2    0    0  0.21994442163E+02  0.61030573614E+02  0.37501973331E+03  0.38058939393E+03  0.00000000000E+00 0. -1.
</event>
<event>
 6    1  0.2612321E-009  0.9588679E+02  0.7561462E-02  0.1289191E+00
          1   -1    0    0  501    0  0.00000000000E+00  0.00000000000E+00  0.31927386709E+02  0.31927386709E+02  0.00000000000E+00 0. -1.
         -1   -1    0    0    0  501 -0.00000000000E+00 -0.00000000000E+00 -0.42733337241E+03  0.42733337241E+03  0.00000000000E+00 0.  1.
          5    1    1    2  502    0 -0.65942449757E+02  0.38550491478E+02 -0.61366770959E+02  0.98070892986E+02  0.41800000000E+01 0.  1.
         -5    1    1    2    0  502  0.30522223794E+02 -0.26926986417E+02 -0.11017199176E+03  0.11752450345E+03  0.41800000000E+01 0.  1.
        -11    1    1    2    0    0  0.19058183378E+02 -0.38462685951E+02 -0.19902236108E+03  0.20359885259E+03  0.00000000000E+00 0.  1.
         11    1    1    2    0    0  0.16362042585E+02  0.26839180890E+02 -0.24844861898E+02  0.40066510094E+02  0.00000000000E+00 0. -1.
</event>
<event>
 7    1  0.2612321E-009  0.1102852E+03  0.7561462E-02  0.1260043E+00
          1   -1    0    0  501    0  0.00000000000E+00  0.00000000000E+00  0.51698808356E+02  0.51698808356E+02  0.00000000000E+00 0. -1.
         -1   -1    0    0    0  501 -0.00000000000E+00 -0.00000000000E+00 -0.26836701482E+03  0.26836701482E+03  0.00000000000E+00 0.  1.
         25    2    1    2    0    0  0.17245793013E+02 -0.37559461730E+02 -0.73603397215E+02  0.15090135644E+03  0.12508248779E+03 0.  0.
          5    1    3    3  502    0  0.39155147677E+02 -0.76960191786E+02 -0.47488646302E+02  0.98633871651E+02  0.41800000000E+01 0. -1.
         -5    1    3    3    0  502 -0.21909354664E+02  0.39400730056E+02 -0.26114750914E+02  0.52267484787E+02  0.41800000000E+01 0. -1.
        -11    1    1    2    0    0 -0.45318887210E+02  0.46015791048E+01 -0.58319119648E+02  0.74000647191E+02  0.00000000000E+00 0. -1.
         11    1    1    2    0    0  0.28073094197E+02  0.32957882625E+02 -0.84745689598E+02  0.95163819545E+02  0.00000000000E+00 0.  1.
</event>
<event>
 7    1  0.2612321E-009  0.1398621E+03  0.7561462E-02  0.1213515E+00
         -2   -1    0    0    0  501 -0.00000000000E+00  0.00000000000E+00  0.42817847240E+02  0.42817847240E+02  0.00000000000E+00 0.  1.
          2   -1    0    0  501    0  0.00000000000E+00 -0.00000000000E+00 -0.10491581949E+04  0.10491581949E+04  0.00000000000E+00 0. -1.
         25    2    1    2    0    0  0.51988728459E+02  0.10480613579E+03 -0.88206672873E+03  0.89853927995E+03  0.12507585577E+03 0.  0.
          5    1    3    3  502    0  0.58025132041E+02  0.12596872788E+03 -0.61138676106E+03  0.62693403190E+03  0.41800000000E+01 0.  1.
         -5    1    3    3    0  502 -0.60364035821E+01 -0.21162592092E+02 -0.27067996767E+03  0.27160524806E+03  0.41800000000E+01 0.  1.
        -11    1    1    2    0    0 -0.33890075517E+02 -0.46632407091E+02 -0.30053328886E+01  0.57724783546E+02  0.00000000000E+00 0.  1.
         11    1    1    2    0    0 -0.18098652941E+02 -0.58173728697E+02 -0.12126828609E+03  0.13571197869E+03  0.00000000000E+00 0. -1.
</event>
<event>
 7    1  0.2612321E-009  0.2057325E+03  0.7561462E-02  0.1144991E+00
          2   -1    0    0  501    0  0.00000000000E+00  0.00000000000E+00  0.10333337848E+04  0.10333337848E+04  0.00000000000E+00 0.  1.
         -2   -1    0    0    0  501 -0.00000000000E+00 -0.00000000000E+00 -0.61181608652E+02  0.61181608652E+02  0.00000000000E+00 0. -1.
         25    2    1    2    0    0  0.12345355253E+03  0.14872947115E+03  0.75767790662E+03  0.79188568264E+03  0.12508352791E+03 0.  0.
          5    1    3    3  502    0  0.64205654313E+02  0.44750094922E+02  0.51866750363E+03  0.52455542010E+03  0.41800000000E+01 0.  1.
         -5    1    3    3    0  502  0.59247898219E+02  0.10397937623E+03  0.23901040300E+03  0.26733026253E+03  0.41800000000E+01 0.  1.
        -11    1    1    2    0    0 -0.11971513620E+03 -0.78816495659E+02  0.14960124060E+03  0.20718176805E+03  0.00000000000E+00 0. -1.
         11    1    1    2    0    0 -0.37384163283E+01 -0.69912975495E+02  0.64873028979E+02  0.95447942817E+02  0.00000000000E+00 0.  1.
</event>
<event>
 7    1  0.2612321E-009  0.1025321E+03  0.7561462E-02  0.1275060E+00
          2   -1    0    0  501    0  0.00000000000E+00  0.00000000000E+00  0.55800485544E+03  0.55800485544E+03  0.00000000000E+00 0. -1.
         -2   -1    0    0    0  501 -0.00000000000E+00 -0.00000000000E+00 -0.21801573530E+02  0.21801573530E+02  0.00000000000E+00 0.  1.
         25    2    1    2    0    0 -0.71537541064E+01 -0.23157147185E+02  0.35600815806E+03  0.37812292450E+03  0.12509079805E+03 0.  0.
          5    1    3    3  502    0 -0.63234330031E+02 -0.19618347557E+02  0.14056597367E+03  0.15543399052E+03  0.41800000000E+01 0. -1.
         -5    1    3    3    0  502  0.56080575925E+02 -0.35387996279E+01  0.21544218439E+03  0.22268893397E+03  0.41800000000E+01 0. -1.
        -11    1    1    2    0    0  0.42317644094E+02  0.20750143720E+02  0.59262124355E+02  0.75718893608E+02  0.00000000000E+00 0. -1.
         11    1    1    2    0    0 -0.35163889988E+02  0.24070034646E+01  0.12093299949E+03  0.12596461086E+03  0.00000000000E+00 0.  1.
</event>
<event>
 7    1  0.2612321E-009  0.9186828E+02  0.7561462E-02  0.1298389E+00
         -1   -1    0    0    0  501 -0.00000000000E+00  0.00000000000E+00  0.69075734069E+02  0.69075734069E+02  0.00000000000E+00 0.  1.
          1   -1    0    0  501    0  0.00000000000E+00 -0.00000000000E+00 -0.20582910875E+03  0.20582910875E+03  0.00000000000E+00 0. -1.
         25    2    1    2    0    0  0.46794480146E+02 -0.47899702209E+01 -0.58967953977E+02  0.14607183709E+03  0.12508834801E+03 0.  0.
          5    1    3    3  502    0  0.59041843872E+02 -0.41089809609E+02 -0.75296408193E+02  0.10421772051E+03  0.41800000000E+01 0. -1.
         -5    1    3    3    0  502 -0.12247363726E+02  0.36299839388E+02  0.16328454216E+02  0.41854116582E+02  0.41800000000E+01 0. -1.
        -11    1    1    2    0    0 -0.13143188472E+02 -0.24972717519E+02  0.10228439060E+02  0.30016678516E+02  0.00000000000E+00 0.  1.
         11    1    1    2    0    0 -0.33651291674E+02  0.29762687740E+02 -0.88013859760E+02  0.98816327207E+02  0.00000000000E+00 0. -1.
</event>
<event>
 7    1  0.2612321E-009  0.1612226E+03  0.7561462E-02  0.1187323E+00
         -1   -1    0    0    0  501 -0.00000000000E+00  0.00000000000E+00  0.32669767372E+03  0.32669767372E+03  0.00000000000E+00 0.  1.
          1   -1    0    0  501    0  0.00000000000E+00 -0.00000000000E+00 -0.85890446764E+02  0.85890446764E+02  0.00000000000E+00 0. -1.
         25    2    1    2    0    0 -0.12308972995E+03 -0.34703545519E+02  0.12457613181E+03  0.21799539500E+03  0.12508941576E+03 0.  0.
          5    1    3    3  502    0  0.17574885984E+02  0.13001790245E+02  0.43157004616E+02  0.48558445345E+02  0.41800000000E+01 0.  1.
         -5    1    3    3    0  502 -0.14066461593E+03 -0.47705335764E+02  0.81419127193E+02  0.16943694966E+03  0.41800000000E+01 0.  1.
        -11    1    1    2    0    0 -0.81587652601E+01  0.17390839965E+02  0.33100199440E+02  0.38270484295E+02  0.00000000000E+00 0.  1.
         11    1    1    2    0    0  0.13124849521E+03  0.17312705554E+02  0.83130895704E+02  0.15632224118E+03  0.00000000000E+00 0. -1.
</event>
<event>
 7    1  0.2612321E-009  0.9892783E+02  0.7561462E-02  0.1282567E+00
          2   -1    0    0  501    0  0.00000000000E+00  0.00000000000E+00  0.51035930789E+03  0.51035930789E+03  0.00000000000E+00 0. -1.
         -2   -1    0    0    0  501 -0.00000000000E+00 -0.00000000000E+00 -0.38520229497E+02  0.38520229497E+02  0.00000000000E+00 0.  1.
         25    2    1    2    0    0 -0.56362358589E+02  0.78913581470E-01  0.38400625476E+03  0.40778028237E+03  0.12508890161E+03 0.  0.
          5    1    3    3  502    0  0.37156142036E+02 -0.15693214002E+02  0.87316315470E+02  0.96272878860E+02  0.41800000000E+01 0.  1.
         -5    1    3    3    0  502 -0.93518500626E+02  0.15772127584E+02  0.29668993929E+03  0.31150740351E+03  0.41800000000E+01 0.  1.
        -11    1    1    2    0    0  0.36182479229E+02 -0.12960057352E+02 -0.10542115602E+02  0.39853118963E+02  0.00000000000E+00 0.  1.
         11    1    1    2    0    0  0.20179879361E+02  0.12881143771E+02  0.98374939232E+02  0.10124613605E+03  0.00000000000E+00 0. -1.
</event>
<event>
 7    1  0.2612321E-009  0.1199443E+03  0.7561462E-02  0.1243189E+00
         -2   -1    0    0    0  501 -0.00000000000E+00  0.00000000000E+00  0.20266885042E+02  0.20266885042E+02  0.00000000000E+00 0.  1.
          2   -1    0    0  501    0  0.00000000000E+00 -0.00000000000E+00 -0.13801500631E+04  0.13801500631E+04  0.00000000000E+00 0. -1.
         25    2    1    2    0    0  0.41694097657E+02  0.60831719171E+02 -0.11751007000E+04  0.11840387073E+04  0.12508840606E+03 0.  0.
          5    1    3    3  502    0 -0.11537215432E+02 -0.24101141245E+02 -0.82020934044E+02  0.86364798215E+02  0.41800000000E+01 0. -1.
         -5    1    3    3    0  502  0.53231313089E+02  0.84932860417E+02 -0.10930797660E+04  0.10976739091E+04  0.41800000000E+01 0. -1.
        -11    1    1    2    0    0 -0.26770380986E+02  0.18019251396E+02 -0.49777096177E+02  0.59322053427E+02  0.00000000000E+00 0. -1.
         11    1    1    2    0    0 -0.14923716671E+02 -0.78850970567E+02 -0.13500538187E+03  0.15705618744E+03  0.00000000000E+00 0.  1.
</event>
<event>
 7    1  0.2612321E-009  0.1092865E+03  0.7561462E-02  0.1261897E+00
         -1   -1    0    0    0  501 -0.00000000000E+00  0.00000000000E+00  0.36813287382E+02  0.36813287382E+02  0.00000000000E+00 0. -1.
          1   -1    0    0  501    0  0.00000000000E+00 -0.00000000000E+00 -0.50776640788E+03  0.50776640788E+03  0.00000000000E+00 0.  1.
         25    2    1    2    0    0  0.47688448799E+02  0.56422826351E+02 -0.19092801548E+03  0.23990389923E+03  0.12507058122E+03 0.  0.
          5    1    3    3  502    0 -0.78974084420E+01  0.75571930952E+02 -0.62056297743E+02  0.98193392331E+02  0.41800000000E+01 0.  1.
         -5    1    3    3    0  502  0.55585857241E+02 -0.19149104601E+02 -0.12887171774E+03  0.14171050690E+03  0.41800000000E+01 0.  1.
        -11    1    1    2    0    0 -0.74921599484E+01 -0.39019737419E+02 -0.27358668187E+02  0.48240741017E+02  0.00000000000E+00 0. -1.
         11    1    1    2    0    0 -0.40196288851E+02 -0.17403088932E+02 -0.25266643683E+03  0.25643505502E+03  0.00000000000E+00 0.  1.
</event>
<event>
 7    1  0.2612321E-009  0.1066582E+03  0.7561462E-02  0.1266887E+00
         -2   -1    0    0    0  501 -0.00000000000E+00  0.00000000000E+00  0.68664955827E+02  0.68664955827E+02  0.00000000000E+00 0.  1.
          2   -1    0    0  501    0  0.00000000000E+00 -0.00000000000E+00 -0.35164453075E+03  0.35164453075E+03  0.00000000000E+00 0. -1.
         25    2    1    2    0    0 -0.27895505299E+02 -0.43059997640E+02 -0.19439352771E+02  0.13660971506E+03  0.12510796617E+03 0.  0.
          5    1    3    3  502    0 -0.18738464938E+02 -0.78297066206E+02  0.19703377248E+02  0.82989494032E+02  0.41800000000E+01 0. -1.
         -5    1    3    3    0  502 -0.91570403607E+01  0.35237068566E+02 -0.39142730019E+02  0.53620221023E+02  0.41800000000E+01 0. -1.
        -11    1    1    2    0    0 -0.24701309168E+02  0.35005455158E+02 -0.17698773514E+03  0.18209940954E+03  0.00000000000E+00 0.  1.
         11    1    1    2    0    0  0.52596814466E+02  0.80545424819E+01 -0.86552487014E+02  0.10160036198E+03  0.00000000000E+00 0. -1.
</event>
<event>
 7    1  0.2612321E-009  0.1022253E+03  0.7561462E-02  0.1275685E+00
          3   -1    0    0  501    0  0.00000000000E+00  0.00000000000E+00  0.81975031923E+02  0.81975031923E+02  0.00000000000E+00 0. -1.
         -3   -1    0    0    0  501 -0.00000000000E+00 -0.00000000000E+00 -0.14626535802E+03  0.14626535802E+03  0.00000000000E+00 0.  1.
         25    2    1    2    0    0 -0.96066332712E+01 -0.14690241808E+02 -0.55137847893E+02  0.13782749631E+03  0.12509254919E+03 0.  0.
          5    1    3    3  502    0 -0.51078972735E+02 -0.50065456540E+02 -0.31679752631E+02  0.78337031607E+02  0.41800000000E+01 0.  1.
         -5    1    3    3    0  502  0.41472339464E+02  0.35375214731E+02 -0.23458095262E+02  0.59490464708E+02  0.41800000000E+01 0.  1.
        -11    1    1    2    0    0  0.24977557446E+02 -0.25141847119E+02  0.18066816451E+02  0.39779400564E+02  0.00000000000E+00 0. -1.
         11    1    1    2    0    0 -0.15370924175E+02  0.39832088928E+02 -0.27219294653E+02  0.50633493063E+02  0.00000000000E+00 0.  1.
</event>
<event>
 7    1  0.2612321E-009  0.1102465E+03  0.7561462E-02  0.1260114E+00
          1   -1    0    0  501    0  0.00000000000E+00  0.00000000000E+00  0.95073688005E+02  0.95073688005E+02  0.00000000000E+00 0. -1.
         -1   -1    0    0    0  501 -0.00000000000E+00 -0.00000000000E+00 -0.28640147018E+03  0.28640147018E+03  0.00000000000E+00 0.  1.
         25    2    1    2    0    0  0.50968717447E+02 -0.76744909198E+02 -0.31329284333E+01  0.15537917797E+03  0.12508110353E+03 0.  0.
          5    1    3    3  502    0 -0.14271259531E+02 -0.52654285899E+01  0.44659986820E+02  0.47364336896E+02  0.41800000000E+01 0.  1.
         -5    1    3    3    0  502  0.65239976978E+02 -0.71479480608E+02 -0.47792915253E+02  0.10801484108E+03  0.41800000000E+01 0.  1.
        -11    1    1    2    0    0 -0.26428216057E+02 -0.87681135778E+00 -0.11029519401E+03  0.11342067370E+03  0.00000000000E+00 0.  1.
         11    1    1    2    0    0 -0.24540501390E+02  0.77621720556E+02 -0.77899659732E+02  0.11267530651E+03  0.00000000000E+00 0. -1.
</event>
<event>
 7    1  0.2612321E-009  0.2430591E+03  0.7561462E-02  0.1117772E+00
         -1   -1    0    0    0  501 -0.00000000000E+00  0.00000000000E+00  0.23884293976E+03  0.23884293976E+03  0.00000000000E+00 0.  1.
          1   -1    0    0  501    0  0.00000000000E+00 -0.00000000000E+00 -0.29875416430E+03  0.29875416430E+03  0.00000000000E+00 0. -1.
         25    2    1    2    0    0  0.22894943079E+03  0.45962823363E+02 -0.10289012197E+03  0.28418702110E+03  0.12508182431E+03 0.  0.
          5    1    3    3  502    0  0.13203810184E+03 -0.21177935401E+02 -0.98490982390E+02  0.16613401608E+03  0.41800000000E+01 0. -1.
         -5    1    3    3    0  502  0.96911328944E+02  0.67140758764E+02 -0.43991395753E+01  0.11805300502E+03  0.41800000000E+01 0. -1.
        -11    1    1    2    0    0 -0.19662274549E+03 -0.32288411920E+02  0.67739115973E+02  0.21045577545E+03  0.00000000000E+00 0.  1.
         11    1    1    2    0    0 -0.32326685298E+02 -0.13674411442E+02 -0.24760218547E+02  0.42954307504E+02  0.00000000000E+00 0. -1.
</event>
<event>
 7    1  0.2612321E-009  0.1753307E+03  0.7561462E-02  0.1172400E+00
         -1   -1    0    0    0  501 -0.00000000000E+00  0.00000000000E+00  0.29595636315E+03  0.29595636315E+03  0.00000000000E+00 0.  1.
          1   -1    0    0  501    0  0.00000000000E+00 -0.00000000000E+00 -0.12489505531E+03  0.12489505531E+03  0.00000000000E+00 0. -1.
         25    2    1    2    0    0 -0.13098747187E+03  0.81696416961E+02  0.53963461233E+02  0.20589071066E+03  0.12508759834E+03 0.  0.
          5    1    3    3  502    0 -0.85746062358E+02  0.90490934279E+02 -0.12003755987E+02  0.12530985178E+03  0.41800000000E+01 0. -1.
         -5    1    3    3    0  502 -0.45241409509E+02 -0.87945173180E+01  0.65967217220E+02  0.80580858875E+02  0.41800000000E+01 0. -1.
        -11    1    1    2    0    0  0.63136817615E+02 -0.91423684224E+02  0.80956447984E+02  0.13747179436E+03  0.00000000000E+00 0.  1.
         11    1    1    2    0    0  0.67850654251E+02  0.97272672630E+01  0.36141398628E+02  0.77488913436E+02  0.00000000000E+00 0. -1.
</event>
<event>
 7    1  0.2612321E-009  0.2338548E+03  0.7561462E-02  0.1123956E+00
          1   -1    0    0  501    0  0.00000000000E+00  0.00000000000E+00  0.89904656070E+03  0.89904656070E+03  0.00000000000E+00 0. -1.
         -1   -1    0    0    0  501 -0.00000000000E+00 -0.00000000000E+00 -0.11901803979E+03  0.11901803979E+03  0.00000000000E+00 0.  1.
         25    2    1    2    0    0  0.15307239192E+03  0.16440631152E+03  0.68044249439E+02  0.26596750189E+03  0.12509236484E+03 0.  0.
          5    1    3    3  502    0  0.11816827815E+03  0.14138991314E+03  0.10314819889E+03  0.21121522870E+03  0.41800000000E+01 0.  1.
         -5    1    3    3    0  502  0.34904113765E+02  0.23016398385E+02 -0.35103949452E+02  0.54752273190E+02  0.41800000000E+01 0.  1.
        -11    1    1    2    0    0 -0.48104305472E+02 -0.11640469205E+03  0.33792352522E+03  0.36063331160E+03  0.00000000000E+00 0.  1.
         11    1    1    2    0    0 -0.10496808645E+03 -0.48001619475E+02  0.37406074626E+03  0.39146378701E+03  0.00000000000E+00 0. -1.
</event>
<event>
 7    1  0.2612321E-009  0.1977387E+03  0.7561462E-02  0.1151661E+00
          1   -1    0    0  501    0  0.00000000000E+00  0.00000000000E+00  0.34717731744E+03  0.34717731744E+03  0.00000000000E+00 0.  1.
         -1   -1    0    0    0  501 -0.00000000000E+00 -0.00000000000E+00 -0.18441663993E+03  0.18441663993E+03  0.00000000000E+00 0. -1.
         25    2    1    2    0    0 -0.91524500084E+01 -0.19113148559E+03 -0.46273572119E+02  0.23324728341E+03  0.12509212452E+03 0.  0.
          5    1    3    3  502    0 -0.10664701879E+02 -0.66320981692E+02 -0.79353184415E+02  0.10405099113E+03  0.41800000000E+01 0.  1.
         -5    1    3    3    0  502  0.15122518704E+01 -0.12481050390E+03  0.33079612296E+02  0.12919629228E+03  0.41800000000E+01 0.  1.
        -11    1    1    2    0    0 -0.20468858556E+02  0.15597805930E+03  0.11899340545E+03  0.19724999289E+03  0.00000000000E+00 0.  1.
         11    1    1    2    0    0  0.29621308565E+02  0.35153426290E+02  0.90040844177E+02  0.10109668106E+03  0.00000000000E+00 0. -1.
</event>
<event>
 7    1  0.2612321E-009  0.6575891E+02  0.7561462E-02  0.1375139E+00
         -2   -1    0    0    0  501 -0.00000000000E+00  0.00000000000E+00  0.27095131408E+03  0.27095131408E+03  0.00000000000E+00 0.  1.
          2   -1    0    0  501    0  0.00000000000E+00 -0.00000000000E+00 -0.45718949332E+02  0.45718949332E+02  0.00000000000E+00 0. -1.
         25    2    1    2    0    0 -0.13878807968E+02  0.26860301847E+02  0.12056732122E+03  0.17634715141E+03  0.12509093389E+03 0.  0.
          5    1    3    3  502    0  0.21349261529E+02 -0.94324960077E+01  0.12326470834E+03  0.12552459388E+03  0.41800000000E+01 0.  1.
         -5    1    3    3    0  502 -0.35228069497E+02  0.36292797855E+02 -0.26973871181E+01  0.50822557530E+02  0.41800000000E+01 0.  1.
        -11    1    1    2    0    0 -0.94020913288E+01 -0.31881665905E+02  0.11084223560E+03  0.11571880199E+03  0.00000000000E+00 0.  1.
         11    1    1    2    0    0  0.23280899297E+02  0.50213640579E+01 -0.61771920671E+01  0.24604310007E+02  0.00000000000E+00 0. -1.
</event>
<event>
 7    1  0.2612321E-009  0.1944986E+03  0.7561462E-02  0.1154465E+00
         -3   -1    0    0    0  501 -0.00000000000E+00  0.00000000000E+00  0.13943900042E+03  0.13943900042E+03  0.00000000000E+00 0.  1.
          3   -1    0    0  501    0  0.00000000000E+00 -0.00000000000E+00 -0.29756406338E+03  0.29756406338E+03  0.00000000000E+00 0. -1.
         25    2    1    2    0    0 -0.13262385506E+03  0.10816820231E+03 -0.61745908382E+02  0.22079205301E+03  0.12508847489E+03 0.  0.
          5    1    3    3  502    0 -0.33952663444E+02  0.10717024196E+03 -0.23793451586E+02  0.11498628116E+03  0.41800000000E+01 0. -1.
         -5    1    3    3    0  502 -0.98671191618E+02  0.99796034637E+00 -0.37952456796E+02  0.10580577185E+03  0.41800000000E+01 0. -1.
        -11    1    1    2    0    0  0.51295408474E+02 -0.13724707081E+02 -0.71592561775E+02  0.89135186186E+02  0.00000000000E+00 0. -1.
         11    1    1    2    0    0  0.81328446589E+02 -0.94443495228E+02 -0.24786592796E+02  0.12707582460E+03  0.00000000000E+00 0.  1.
</event>
<event>
 7    1  0.2612321E-009  0.1287492E+03  0.7561462E-02  0.1229324E+00
         -2   -1    0    0    0  501 -0.00000000000E+00  0.00000000000E+00  0.57117576991E+03  0.57117576991E+03  0.00000000000E+00 0.  1.
          2   -1    0    0  501    0  0.00000000000E+00 -0.00000000000E+00 -0.56288267782E+02  0.56288267782E+02  0.00000000000E+00 0. -1.
         25    2    1    2    0    0  0.13792552698E+02  0.94323775352E+02  0.46890368276E+03  0.49457657861E+03  0.12509244300E+03 0.  0.
          5    1    3    3  502    0 -0.11442152588E+02  0.10737918720E+03  0.23195681557E+03  0.25589577837E+03  0.41800000000E+01 0. -1.
         -5    1    3    3    0  502  0.25234705286E+02 -0.13055411853E+02  0.23694686719E+03  0.23868080024E+03  0.41800000000E+01 0. -1.
        -11    1    1    2    0    0 -0.38197444579E+02 -0.87341378510E+02  0.21719214209E+02  0.97771598321E+02  0.00000000000E+00 0.  1.
         11    1    1    2    0    0  0.24404891881E+02 -0.69823968418E+01  0.24264605153E+02  0.35115860756E+02  0.00000000000E+00 0. -1.
</event>
<event>
 7    1  0.2612321E-009  0.9564417E+02  0.7561462E-02  0.1289732E+00
         -2   -1    0    0    0  501 -0.00000000000E+00  0.00000000000E+00  0.26327577524E+02  0.26327577524E+02  0.00000000000E+00 0.  1.
          2   -1    0    0  501    0  0.00000000000E+00 -0.00000000000E+00 -0.38997643531E+03  0.38997643531E+03  0.00000000000E+00 0. -1.
         25    2    1    2    0    0  0.11593742260E+02 -0.22731153615E+00 -0.20057676218E+03  0.23666327680E+03  0.12507598701E+03 0.  0.
          5    1    3    3  502    0  0.30516558577E+02 -0.52747634792E+02 -0.61211979173E+02  0.86475153182E+02  0.41800000000E+01 0.  1.
         -5    1    3    3    0  502 -0.18922816317E+02  0.52520323255E+02 -0.13936478301E+03  0.15018812362E+03  0.41800000000E+01 0.  1.
        -11    1    1    2    0    0 -0.41196639844E+02  0.11136759545E+02 -0.10872050668E+03  0.11679614343E+03  0.00000000000E+00 0. -1.
         11    1    1    2    0    0  0.29602897584E+02 -0.10909448009E+02 -0.54351588917E+02  0.62844592600E+02  0.00000000000E+00 0.  1.
</event>
<event>
 7    1  0.2612321E-009  0.1268550E+03  0.7561462E-02  0.1232198E+00
          1   -1    0    0  501    0  0.00000000000E+00  0.00000000000E+00  0.15509591184E+04  0.15509591184E+04  0.00000000000E+00 0. -1.
         -1   -1    0    0    0  501 -0.00000000000E+00 -0.00000000000E+00 -0.14267681683E+02  0.14267681683E+02  0.00000000000E+00 0.  1.
         25    2    1    2    0    0 -0.29894067227E+02 -0.74914896984E+02  0.11853334158E+04  0.11946416848E+04  0.12509017284E+03 0.  0.
          5    1    3    3  502    0 -0.71508765317E+02 -0.48173000667E+02  0.96161042880E+03  0.96547720361E+03  0.41800000000E+01 0. -1.
         -5    1    3    3    0  502  0.41614698090E+02 -0.26741896317E+02  0.22372298701E+03  0.22916448118E+03  0.41800000000E+01 0. -1.
        -11    1    1    2    0    0  0.60190418221E+02  0.44851722079E+02  0.21769016578E+03  0.23026847743E+03  0.00000000000E+00 0.  1.
         11    1    1    2    0    0 -0.30296350995E+02  0.30063174905E+02  0.13366785509E+03  0.14031663783E+03  0.00000000000E+00 0. -1.
</event>
<event>
 7    1  0.2612321E-009  0.1501773E+03  0.7561462E-02  0.1200255E+00
          1   -1    0    0  501    0  0.00000000000E+00  0.00000000000E+00  0.93122711231E+03  0.93122711231E+03  0.00000000000E+00 0. -1.
         -1   -1    0    0    0  501 -0.00000000000E+00 -0.00000000000E+00 -0.38294408744E+02  0.38294408744E+02  0.00000000000E+00 0.  1.
         25    2    1    2    0    0  0.98564005925E+02  0.11232652999E+03  0.37002399659E+03  0.41820957492E+03  0.12509747358E+03 0.  0.
          5    1    3    3  502    0  0.46937252684E+02  0.40139479651E+02  0.29648008495E+03  0.30287323534E+03  0.41800000000E+01 0.  1.
         -5    1    3    3    0  502  0.51626753241E+02  0.72187050334E+02  0.73543911642E+02  0.11533633957E+03  0.41800000000E+01 0.  1.
        -11    1    1    2    0    0 -0.79479574111E+02 -0.94639114476E+02  0.50455406788E+03  0.51946931777E+03  0.00000000000E+00 0.  1.
         11    1    1    2    0    0 -0.19084431814E+02 -0.17687415509E+02  0.18354639091E+02  0.31842628365E+02  0.00000000000E+00 0. -1.
</event>
<event>
 7    1  0.2612321E-009  0.3208151E+03  0.7561462E-02  0.1075275E+00
         -2   -1    0    0    0  501 -0.00000000000E+00  0.00000000000E+00  0.15323546929E+03  0.15323546929E+03  0.00000000000E+00 0.  1.
          2   -1    0    0  501    0  0.00000000000E+00 -0.00000000000E+00 -0.75761006975E+03  0.75761006975E+03  0.00000000000E+00 0. -1.
         25    2    1    2    0    0  0.38765757630E+02  0.31141950047E+03 -0.20636636658E+03  0.39587856600E+03  0.12509145666E+03 0.  0.
          5    1    3    3  502    0  0.69556258505E+02  0.23808384521E+03 -0.11140683188E+03  0.27193923041E+03  0.41800000000E+01 0. -1.
         -5    1    3    3    0  502 -0.30790500875E+02  0.73335655259E+02 -0.94959534701E+02  0.12393933559E+03  0.41800000000E+01 0. -1.
        -11    1    1    2    0    0 -0.11247050962E+02 -0.11972139168E+03 -0.22575168441E+03  0.25578023926E+03  0.00000000000E+00 0.  1.
         11    1    1    2    0    0 -0.27518706668E+02 -0.19169810878E+03 -0.17225654948E+03  0.25918673377E+03  0.00000000000E+00 0. -1.
</event>
<event>
 7    1  0.2612321E-009  0.1547180E+03  0.7561462E-02  0.1194793E+00
         -1   -1    0    0    0  501 -0.00000000000E+00  0.00000000000E+00  0.53165623686E+03  0.53165623686E+03  0.00000000000E+00 0.  1.
          1   -1    0    0  501    0  0.00000000000E+00 -0.00000000000E+00 -0.50981158916E+02  0.50981158916E+02  0.00000000000E+00 0. -1.
         25    2    1    2    0    0  0.12419215043E+03 -0.20071013924E+01  0.22836610538E+03  0.28848943501E+03  0.12508939740E+03 0.  0.
          5    1    3    3  502    0  0.13204859990E+03 -0.31443726911E+02  0.14053638325E+03  0.19543154329E+03  0.41800000000E+01 0.  1.
         -5    1    3    3    0  502 -0.78564494753E+01  0.29436625519E+02  0.87829722130E+02  0.93057891712E+02  0.41800000000E+01 0.  1.
        -11    1    1    2    0    0 -0.12924758238E+03  0.13863825818E+02  0.18802048260E+03  0.22858006276E+03  0.00000000000E+00 0. -1.
         11    1    1    2    0    0  0.50554319511E+01 -0.11856724425E+02  0.64288489972E+02  0.65567898009E+02  0.00000000000E+00 0.  1.
</event>
<event>
 7    1  0.2612321E-009  0.1138549E+03  0.7561462E-02  0.1253593E+00
         -3   -1    0    0    0  501 -0.00000000000E+00  0.00000000000E+00  0.14515342143E+03  0.14515342143E+03  0.00000000000E+00 0.  1.
          3   -1    0    0  501    0  0.00000000000E+00 -0.00000000000E+00 -0.14727918659E+03  0.14727918659E+03  0.00000000000E+00 0. -1.
         25    2    1    2    0    0 -0.81623761080E+02  0.10236264245E+02 -0.52414022553E+02  0.15862273611E+03  0.12508686251E+03 0.  0.
          5    1    3    3  502    0 -0.33136940128E+02  0.56942868758E+02  0.99458493683E+01  0.66760313234E+02  0.41800000000E+01 0. -1.
         -5    1    3    3    0  502 -0.48486820952E+02 -0.46706604513E+02 -0.62359871922E+02  0.91862422879E+02  0.41800000000E+01 0. -1.
        -11    1    1    2    0    0  0.35336941802E+02 -0.27565388492E+02 -0.19018532512E+02  0.48685261400E+02  0.00000000000E+00 0. -1.
         11    1    1    2    0    0  0.46286819278E+02  0.17329124248E+02  0.69306789905E+02  0.85124610501E+02  0.00000000000E+00 0.  1.
</event>
<event>
 7    1  0.2612321E-009  0.7138716E+02  0.7561462E-02  0.1355438E+00
          3   -1    0    0  501    0  0.00000000000E+00  0.00000000000E+00  0.56164378788E+02  0.56164378788E+02  0.00000000000E+00 0. -1.
         -3   -1    0    0    0  501 -0.00000000000E+00 -0.00000000000E+00 -0.28023677653E+03  0.28023677653E+03  0.00000000000E+00 0.  1.
         25    2    1    2    0    0 -0.41197954690E+02  0.66062970065E+01 -0.19282479326E+03  0.23360125223E+03  0.12508888648E+03 0.  0.
          5    1    3    3  502    0 -0.35016707521E+02 -0.16573603415E+02  0.28039489277E+00  0.38966718582E+02  0.41800000000E+01 0. -1.
         -5    1    3    3    0  502 -0.61812471687E+01  0.23179900421E+02 -0.19310518815E+03  0.19463453365E+03  0.41800000000E+01 0. -1.
        -11    1    1    2    0    0  0.57860873685E+02 -0.16386076263E+02  0.64080145595E+01  0.60476829030E+02  0.00000000000E+00 0. -1.
         11    1    1    2    0    0 -0.16662918995E+02  0.97797792565E+01 -0.37655619047E+02  0.42323074056E+02  0.00000000000E+00 0.  1.
</event>
<event>
 7    1  0.2673818E-009  0.1046572E+03  0.7561462E-02  0.1270796E+00
          4   -1    0    0  501    0  0.00000000000E+00  0.00000000000E+00  0.20026595608E+03  0.20026595608E+03  0.00000000000E+00 0. -1.
         -4   -1    0    0    0  501 -0.00000000000E+00 -0.00000000000E+00 -0.88506475515E+02  0.88506475515E+02  0.00000000000E+00 0.  1.
         25    2    1    2    0    0 -0.31908076942E+02 -0.37716300008E+02 -0.25154221507E+01  0.13451883754E+03  0.12509334773E+03 0.  0.
          5    1    3    3  502    0 -0.77423303129E+02 -0.38933018852E+01 -0.17313483053E+01  0.77653046521E+02  0.41800000000E+01 0.  1.
         -5    1    3    3    0  502  0.45515226187E+02 -0.33822998123E+02 -0.78407384538E+00  0.56865791023E+02  0.41800000000E+01 0.  1.
        -11    1    1    2    0    0  0.40787856767E+02  0.52055017733E+01  0.11330788156E+03  0.12053805429E+03  0.00000000000E+00 0. -1.
         11    1    1    2    0    0 -0.88797798249E+01  0.32510798235E+02  0.96702115594E+00  0.33715539763E+02  0.00000000000E+00 0.  1.
</event>
<event>
 7    1  0.2806453E-009  0.1501745E+03  0.7561462E-02  0.1200259E+00
         -1   -1    0    0    0  501 -0.00000000000E+00  0.00000000000E+00  0.51065743889E+02  0.51065743889E+02  0.00000000000E+00 0.  1.
          1   -1    0    0  501    0  0.00000000000E+00 -0.00000000000E+00 -0.56008762963E+03  0.56008762963E+03  0.00000000000E+00 0. -1.
         25    2    1    2    0    0 -0.90322563798E+02 -0.92326717957E+02 -0.25247328649E+03  0.30995497768E+03  0.12508772687E+03 0.  0.
          5    1    3    3  502    0 -0.10545334227E+03 -0.10172379393E+03 -0.16550257448E+03  0.22108078209E+03  0.41800000000E+01 0.  1.
         -5    1    3    3    0  502  0.15130778470E+02  0.93970759760E+01 -0.86970712011E+02  0.88874195590E+02  0.41800000000E+01 0.  1.
        -11    1    1    2    0    0  0.73659773338E+02  0.47491061782E+02 -0.81317081718E+02  0.11955597407E+03  0.00000000000E+00 0.  1.
         11    1    1    2    0    0  0.16662790460E+02  0.44835656175E+02 -0.17523151753E+03  0.18164242177E+03  0.00000000000E+00 0. -1.
</event>
<event>
 7    1  0.2612321E-009  0.1420858E+03  0.7561462E-02  0.1210550E+00
         -1   -1    0    0    0  501 -0.00000000000E+00  0.00000000000E+00  0.38210815172E+02  0.38210815172E+02  0.00000000000E+00 0.  1.
          1   -1    0    0  501    0  0.00000000000E+00 -0.00000000000E+00 -0.66543411723E+03  0.66543411723E+03  0.00000000000E+00 0. -1.
         25    2    1    2    0    0 -0.65420336185E+02  0.89645548868E+02 -0.41310622914E+03  0.44567218252E+03  0.12510312906E+03 0.  0.
          5    1    3    3  502    0 -0.74806616095E+00  0.75632809785E+02 -0.99069965323E+02  0.12471251721E+03  0.41800000000E+01 0.  1.
         -5    1    3    3    0  502 -0.64672270024E+02  0.14012739083E+02 -0.31403626382E+03  0.32095966532E+03  0.41800000000E+01 0.  1.
        -11    1    1    2    0    0 -0.18420938486E+02  0.12416992453E+01 -0.15983056109E+02  0.24419886861E+02  0.00000000000E+00 0. -1.
         11    1    1    2    0    0  0.83841274670E+02 -0.90887248114E+02 -0.19813401681E+03  0.23355286302E+03  0.00000000000E+00 0.  1.
</event>
<event>
 7    1  0.2612321E-009  0.1154094E+03  0.7561462E-02  0.1250868E+00
         -1   -1    0    0    0  501 -0.00000000000E+00  0.00000000000E+00  0.15827167804E+03  0.15827167804E+03  0.00000000000E+00 0.  1.
          1   -1    0    0  501    0  0.00000000000E+00 -0.00000000000E+00 -0.87676977123E+02  0.87676977123E+02  0.00000000000E+00 0. -1.
         25    2    1    2    0    0 -0.59825088075E+01 -0.45589139522E+02  0.41309113637E+02  0.13956435763E+03  0.12513036001E+03 0.  0.
          5    1    3    3  502    0  0.55885831800E+02 -0.33949713628E+02  0.26639454314E+01  0.65577269360E+02  0.41800000000E+01 0. -1.
         -5    1    3    3    0  502 -0.61868340608E+02 -0.11639425895E+02  0.38645168206E+02  0.73987088268E+02  0.41800000000E+01 0. -1.
        -11    1    1    2    0    0 -0.42742720723E+02  0.21797945860E+02  0.15721674798E+02  0.50490213675E+02  0.00000000000E+00 0.  1.
         11    1    1    2    0    0  0.48725229530E+02  0.23791193662E+02  0.13563912482E+02  0.55894083859E+02  0.00000000000E+00 0. -1.
</event>
<event>
 7    1  0.2612321E-009  0.2534489E+03  0.7561462E-02  0.1111144E+00
         -1   -1    0    0    0  501 -0.00000000000E+00  0.00000000000E+00  0.14851133791E+03  0.14851133791E+03  0.00000000000E+00 0.  1.
          1   -1    0    0  501    0  0.00000000000E+00 -0.00000000000E+00 -0.46590335012E+03  0.46590335012E+03  0.00000000000E+00 0. -1.
         25    2    1    2    0    0 -0.17490002512E+03  0.16212057925E+03 -0.17980720750E+03  0.32381414621E+03  0.12510742750E+03 0.  0.
          5    1    3    3  502    0 -0.16235946252E+03  0.98877841657E+02 -0.17599405057E+03  0.25909226325E+03  0.41800000000E+01 0.  1.
         -5    1    3    3    0  502 -0.12540562600E+02  0.63242737592E+02 -0.38131569281E+01  0.64721882962E+02  0.41800000000E+01 0.  1.
        -11    1    1    2    0    0  0.37344333324E+02  0.27265226169E+01 -0.38160896224E+01  0.37637689847E+02  0.00000000000E+00 0.  1.
         11    1    1    2    0    0  0.13755569179E+03 -0.16484710187E+03 -0.13376871509E+03  0.25296285197E+03  0.00000000000E+00 0. -1.
</event>
<event>
 7    1  0.2612321E-009  0.2291532E+03  0.7561462E-02  0.1127237E+00
          2   -1    0    0  501    0  0.00000000000E+00  0.00000000000E+00  0.82525432464E+03  0.82525432464E+03  0.00000000000E+00 0. -1.
         -2   -1    0    0    0  501 -0.00000000000E+00 -0.00000000000E+00 -0.80694136504E+02  0.80694136504E+02  0.00000000000E+00 0.  1.
         25    2    1    2    0    0  0.18635414411E+02 -0.21298712393E+03  0.22585175282E+03  0.33521302230E+03  0.12509181604E+03 0.  0.
          5    1    3    3  502    0  0.36886541454E+02 -0.18320263072E+02  0.83910170846E+02  0.93566223344E+02  0.41800000000E+01 0.  1.
         -5    1    3    3    0  502 -0.18251127043E+02 -0.19466686085E+03  0.14194158198E+03  0.24164679896E+03  0.41800000000E+01 0.  1.
        -11    1    1    2    0    0  0.20475349690E+02  0.89459987402E+02  0.32483275262E+03  0.33754799135E+03  0.00000000000E+00 0. -1.
         11    1    1    2    0    0 -0.39110764101E+02  0.12352713652E+03  0.19387568270E+03  0.23318744749E+03  0.00000000000E+00 0.  1.
</event>
<event>
 7    1  0.2612321E-009  0.9983032E+02  0.7561462E-02  0.1280653E+00
         -1   -1    0    0    0  501 -0.00000000000E+00  0.00000000000E+00  0.87874964546E+03  0.87874964546E+03  0.00000000000E+00 0.  1.
          1   -1    0    0  501    0  0.00000000000E+00 -0.00000000000E+00 -0.17585612264E+02  0.17585612264E+02  0.00000000000E+00 0. -1.
         25    2    1    2    0    0 -0.48627484412E+01 -0.41292903840E+02  0.63747443624E+03  0.65096108951E+03  0.12509169819E+03 0.  0.
          5    1    3    3  502    0 -0.42941505150E+02  0.22593419128E+01  0.49849649384E+03  0.50036517091E+03  0.41800000000E+01 0.  1.
         -5    1    3    3    0  502  0.38078756709E+02 -0.43552245753E+02  0.13897794240E+03  0.15059591860E+03  0.41800000000E+01 0.  1.
        -11    1    1    2    0    0 -0.38435324631E+02  0.39508686345E+02  0.15102037938E+03  0.16076493854E+03  0.00000000000E+00 0.  1.
         11    1    1    2    0    0  0.43298073073E+02  0.17842174949E+01  0.72669217568E+02  0.84609229673E+02  0.00000000000E+00 0. -1.
</event>
<event>
 7    1  0.2612321E-009  0.1043911E+03  0.7561462E-02  0.1271324E+00
          2   -1    0    0  501    0  0.00000000000E+00  0.00000000000E+00  0.56746799379E+03  0.56746799379E+03  0.00000000000E+00 0.  1.
         -2   -1    0    0    0  501 -0.00000000000E+00 -0.00000000000E+00 -0.37858770726E+02  0.37858770726E+02  0.00000000000E+00 0. -1.
         25    2    1    2    0    0  0.63574177990E+02 -0.15873422505E+02  0.13444782696E+03  0.19497952082E+03  0.12508858348E+03 0.  0.
          5    1    3    3  502    0  0.51493638576E+02 -0.43720000459E+02  0.14702784374E+03  0.16185701248E+03  0.41800000000E+01 0. -1.
         -5    1    3    3    0  502  0.12080539414E+02  0.27846577954E+02 -0.12580016785E+02  0.33122508338E+02  0.41800000000E+01 0. -1.
        -11    1    1    2    0    0 -0.76130116752E+01  0.46192383045E+02  0.17766702725E+03  0.18373150729E+03  0.00000000000E+00 0.  1.
         11    1    1    2    0    0 -0.55961166315E+02 -0.30318960540E+02  0.21749436885E+03  0.22661573640E+03  0.00000000000E+00 0. -1.
</event>
<event>
 7    1  0.2612321E-009  0.9966628E+02  0.7561462E-02  0.1280999E+00
         -1   -1    0    0    0  501 -0.00000000000E+00  0.00000000000E+00  0.83630554860E+02  0.83630554860E+02  0.00000000000E+00 0.  1.
          1   -1    0    0  501    0  0.00000000000E+00 -0.00000000000E+00 -0.16142981674E+03  0.16142981674E+03  0.00000000000E+00 0. -1.
         25    2    1    2    0    0 -0.52240560798E+01  0.44529613151E+02 -0.54790907525E+02  0.14373528230E+03  0.12509040979E+03 0.  0.
          5    1    3    3  502    0 -0.61851393852E+02  0.17065627660E+02 -0.48116099119E+02  0.80308542281E+02  0.41800000000E+01 0. -1.
         -5    1    3    3    0  502  0.56627337772E+02  0.27463985491E+02 -0.66748084060E+01  0.63426740019E+02  0.41800000000E+01 0. -1.
        -11    1    1    2    0    0  0.12925935767E+02  0.10339465556E+02 -0.40067069820E+02  0.43351521858E+02  0.00000000000E+00 0. -1.
         11    1    1    2    0    0 -0.77018796877E+01 -0.54869078707E+02  0.17058715463E+02  0.57973567443E+02  0.00000000000E+00 0.  1.
</event>
<event>
 7    1  0.2612321E-009  0.2147071E+03  0.7561462E-02  0.1137892E+00
         -1   -1    0    0    0  501 -0.00000000000E+00  0.00000000000E+00  0.56056798319E+03  0.56056798319E+03  0.00000000000E+00 0.  1.
          1   -1    0    0  501    0  0.00000000000E+00 -0.00000000000E+00 -0.85462793675E+02  0.85462793675E+02  0.00000000000E+00 0. -1.
         25    2    1    2    0    0 -0.12060381599E+03  0.14318722982E+03  0.29710178266E+03  0.37278125031E+03  0.12509407703E+03 0.  0.
          5    1    3    3  502    0 -0.63440811893E+02  0.15309095356E+03  0.23621638532E+03  0.28857794401E+03  0.41800000000E+01 0. -1.
         -5    1    3    3    0  502 -0.57163004102E+02 -0.99037237481E+01  0.60885397338E+02  0.84203306295E+02  0.41800000000E+01 0. -1.
        -11    1    1    2    0    0 -0.73099762224E+01 -0.41318100334E+02  0.51970149436E+02  0.66794592596E+02  0.00000000000E+00 0.  1.
         11    1    1    2    0    0  0.12791379222E+03 -0.10186912948E+03  0.12603325742E+03  0.20645493396E+03  0.00000000000E+00 0. -1.
</event>
<event>
 7    1  0.2612321E-009  0.1843508E+03  0.7561462E-02  0.1163658E+00
         -4   -1    0    0    0  501 -0.00000000000E+00  0.00000000000E+00  0.15711320021E+03  0.15711320021E+03  0.00000000000E+00 0.  1.
          4   -1    0    0  501    0  0.00000000000E+00 -0.00000000000E+00 -0.22995065203E+03  0.22995065203E+03  0.00000000000E+00 0. -1.
         25    2    1    2    0    0 -0.12992382164E+03 -0.80373205346E+02 -0.17259420130E+02  0.19820516256E+03  0.12508935732E+03 0.  0.
          5    1    3    3  502    0 -0.34878351314E+02  0.29711380884E+02 -0.25261694088E+02  0.52487056810E+02  0.41800000000E+01 0. -1.
         -5    1    3    3    0  502 -0.95045470330E+02 -0.11008458623E+03  0.80022739582E+01  0.14571810575E+03  0.41800000000E+01 0. -1.
        -11    1    1    2    0    0  0.90997249853E+00  0.42816536847E+02 -0.29444471343E+02  0.51971730491E+02  0.00000000000E+00 0.  1.
         11    1    1    2    0    0  0.12901384914E+03  0.37556668498E+02 -0.26133560351E+02  0.13688695919E+03  0.00000000000E+00 0. -1.
</event>
<event>
 7    1  0.2612321E-009  0.1467745E+03  0.7561462E-02  0.1204493E+00
          2   -1    0    0  501    0  0.00000000000E+00  0.00000000000E+00  0.39816480324E+03  0.39816480324E+03  0.00000000000E+00 0. -1.
         -2   -1    0    0    0  501 -0.00000000000E+00 -0.00000000000E+00 -0.62140806965E+02  0.62140806965E+02  0.00000000000E+00 0.  1.
         25    2    1    2    0    0 -0.72768496383E+02  0.74120097037E+02  0.11041108472E+03  0.19653731292E+03  0.12508902786E+03 0.  0.
          5    1    3    3  502    0 -0.98351907343E+02  0.21815556255E+02  0.50056861655E+02  0.11257076873E+03  0.41800000000E+01 0.  1.
         -5    1    3    3    0  502  0.25583410960E+02  0.52304540781E+02  0.60354223064E+02  0.83966544197E+02  0.41800000000E+01 0.  1.
        -11    1    1    2    0    0  0.38841921630E+02  0.12913006364E+02  0.47948991377E+02  0.63044003547E+02  0.00000000000E+00 0. -1.
         11    1    1    2    0    0  0.33926574753E+02 -0.87033103401E+02  0.17766392018E+03  0.20072429373E+03  0.00000000000E+00 0.  1.
</event>
<event>
 7    1  0.2612321E-009  0.1250924E+03  0.7561462E-02  0.1234925E+00
          3   -1    0    0  501    0  0.00000000000E+00  0.00000000000E+00  0.44015417942E+03  0.44015417942E+03  0.00000000000E+00 0. -1.
         -3   -1    0    0    0  501 -0.00000000000E+00 -0.00000000000E+00 -0.60556403395E+02  0.60556403395E+02  0.00000000000E+00 0.  1.
         25    2    1    2    0    0 -0.63133979951E+02 -0.18416423043E+02  0.36097291258E+03  0.38765346612E+03  0.12509477255E+03 0.  0.
          5    1    3    3  502    0 -0.20182271422E+02  0.53497881609E+02  0.15475565306E+03  0.16503372980E+03  0.41800000000E+01 0.  1.
         -5    1    3    3    0  502 -0.42951708529E+02 -0.71914304652E+02  0.20621725951E+03  0.22261973632E+03  0.41800000000E+01 0.  1.
        -11    1    1    2    0    0  0.11182365737E+02  0.47942515793E+02 -0.34598659310E+01  0.49350793270E+02  0.00000000000E+00 0.  1.
         11    1    1    2    0    0  0.51951614215E+02 -0.29526092750E+02  0.22084729383E+02  0.63706323427E+02  0.00000000000E+00 0. -1.
</event>
<event>
 7    1  0.2612321E-009  0.1153633E+03  0.7561462E-02  0.1250948E+00
         -1   -1    0    0    0  501 -0.00000000000E+00  0.00000000000E+00  0.21856364803E+03  0.21856364803E+03  0.00000000000E+00 0.  1.
          1   -1    0    0  501    0  0.00000000000E+00 -0.00000000000E+00 -0.84822370248E+02  0.84822370248E+02  0.00000000000E+00 0. -1.
         25    2    1    2    0    0 -0.72737892768E+02  0.29972631696E+02  0.95692216302E+02  0.17604954122E+03  0.12508909228E+03 0.  0.
          5    1    3    3  502    0  0.21993381417E+02  0.41032360149E+02  0.55251249564E+02  0.72370825503E+02  0.41800000000E+01 0.  1.
         -5    1    3    3    0  502 -0.94731274185E+02 -0.11059728454E+02  0.40440966738E+02  0.10367871572E+03  0.41800000000E+01 0.  1.
        -11    1    1    2    0    0  0.57119191050E+02 -0.28137790627E+01  0.64594771579E+02  0.86272845404E+02  0.00000000000E+00 0.  1.
         11    1    1    2    0    0  0.15618701719E+02 -0.27158852633E+02 -0.26545710100E+02  0.41063631652E+02  0.00000000000E+00 0. -1.
</event>
<event>
 7    1  0.2612321E-009  0.1171062E+03  0.7561462E-02  0.1247949E+00
          1   -1    0    0  501    0  0.00000000000E+00  0.00000000000E+00  0.16932718273E+03  0.16932718273E+03  0.00000000000E+00 0. -1.
         -1   -1    0    0    0  501 -0.00000000000E+00 -0.00000000000E+00 -0.11038988709E+03  0.11038988709E+03  0.00000000000E+00 0.  1.
         25    2    1    2    0    0  0.45720266653E+02  0.37777527635E+01  0.10359233820E+03  0.16876332335E+03  0.12508026453E+03 0.  0.
          5    1    3    3  502    0 -0.21200271530E+02 -0.44871739288E+02  0.31365655913E+02  0.58857465716E+02  0.41800000000E+01 0. -1.
         -5    1    3    3    0  502  0.66920538183E+02  0.48649492052E+02  0.72226682291E+02  0.10990585763E+03  0.41800000000E+01 0. -1.
        -11    1    1    2    0    0 -0.53520753800E+01  0.40960835712E+02 -0.18586057308E+02  0.45297641211E+02  0.00000000000E+00 0.  1.
         11    1    1    2    0    0 -0.40368191273E+02 -0.44738588475E+02 -0.26068985252E+02  0.65656105257E+02  0.00000000000E+00 0. -1.
</event>
<event>
 7    1  0.2612321E-009  0.1226420E+03  0.7561462E-02  0.1238801E+00
         -1   -1    0    0    0  501 -0.00000000000E+00  0.00000000000E+00  0.16898686605E+03  0.16898686605E+03  0.00000000000E+00 0.  1.
          1   -1    0    0  501    0  0.00000000000E+00 -0.00000000000E+00 -0.10551921447E+03  0.10551921447E+03  0.00000000000E+00 0. -1.
         25    2    1    2    0    0  0.21025928728E+02 -0.75287867602E+02  0.48269894540E+02  0.15520335950E+03  0.12509095649E+03 0.  0.
          5    1    3    3  502    0 -0.41170520183E+02 -0.45255627107E+02 -0.13109350746E+02  0.62708938708E+02  0.41800000000E+01 0. -1.
         -5    1    3    3    0  502  0.62196448911E+02 -0.30032240495E+02  0.61379245285E+02  0.92494420794E+02  0.41800000000E+01 0. -1.
        -11    1    1    2    0    0  0.32236258976E+02  0.19693132807E+02 -0.85523403081E+01  0.38731620122E+02  0.00000000000E+00 0. -1.
         11    1    1    2    0    0 -0.53262187704E+02  0.55594734794E+02  0.23750097342E+02  0.80571100896E+02  0.00000000000E+00 0.  1.
</event>
<event>
 7    1  0.2666774E-009  0.1343970E+03  0.7561462E-02  0.1221073E+00
         -2   -1    0    0    0  501 -0.00000000000E+00  0.00000000000E+00  0.17863205344E+02  0.17863205344E+02  0.00000000000E+00 0.  1.
          2   -1    0    0  501    0  0.00000000000E+00 -0.00000000000E+00 -0.12535592335E+04  0.12535592335E+04  0.00000000000E+00 0. -1.
         25    2    1    2    0    0  0.65711314867E+02 -0.78782613066E+02 -0.70269968235E+03  0.72108165930E+03  0.12508892353E+03 0.  0.
          5    1    3    3  502    0  0.21823124503E+02 -0.10709435359E+03 -0.47835782597E+03  0.49070269146E+03  0.41800000000E+01 0.  1.
         -5    1    3    3    0  502  0.43888190364E+02  0.28311740521E+02 -0.22434185637E+03  0.23037896784E+03  0.41800000000E+01 0.  1.
        -11    1    1    2    0    0 -0.63770863664E+02  0.58156407215E+02 -0.51703228377E+03  0.52418629628E+03  0.00000000000E+00 0. -1.
         11    1    1    2    0    0 -0.19404512035E+01  0.20626205852E+02 -0.15964062093E+02  0.26154483310E+02  0.00000000000E+00 0.  1.
</event>
<event>
 7    1  0.2612321E-009  0.2266072E+03  0.7561462E-02  0.1129051E+00
         -1   -1    0    0    0  501 -0.00000000000E+00  0.00000000000E+00  0.30113096685E+03  0.30113096685E+03  0.00000000000E+00 0.  1.
          1   -1    0    0  501    0  0.00000000000E+00 -0.00000000000E+00 -0.23018421055E+03  0.23018421055E+03  0.00000000000E+00 0. -1.
         25    2    1    2    0    0 -0.10274109455E+03 -0.19742062888E+03  0.12540736364E+03  0.28443922476E+03  0.12509208012E+03 0.  0.
          5    1    3    3  502    0 -0.57542994653E+02 -0.12222569881E+03  0.48061509205E+01  0.13524381379E+03  0.41800000000E+01 0. -1.
         -5    1    3    3    0  502 -0.45198099898E+02 -0.75194930073E+02  0.12060121272E+03  0.14919541097E+03  0.41800000000E+01 0. -1.
        -11    1    1    2    0    0 -0.76152531170E+01  0.18503199758E+02 -0.28847039046E+02  0.35107152306E+02  0.00000000000E+00 0.  1.
         11    1    1    2    0    0  0.11035634767E+03  0.17891742912E+03 -0.25613568290E+02  0.21176880033E+03  0.00000000000E+00 0. -1.
</event>
<event>
 7    1  0.2612321E-009  0.1108691E+03  0.7561462E-02  0.1258969E+00
         -2   -1    0    0    0  501 -0.00000000000E+00  0.00000000000E+00  0.13806554377E+03  0.13806554377E+03  0.00000000000E+00 0.  1.
          2   -1    0    0  501    0  0.00000000000E+00 -0.00000000000E+00 -0.10726248138E+03  0.10726248138E+03  0.00000000000E+00 0. -1.
         25    2    1    2    0    0 -0.44385599822E+02  0.31364593903E+02  0.10635947644E+02  0.13680451163E+03  0.12509409178E+03 0.  0.
          5    1    3    3  502    0  0.92724875962E+01 -0.37360212801E+02 -0.20888761190E+02  0.43995195997E+02  0.41800000000E+01 0. -1.
         -5    1    3    3    0  502 -0.53658087418E+02  0.68724806704E+02  0.31524708834E+02  0.92809315636E+02  0.41800000000E+01 0. -1.
        -11    1    1    2    0    0 -0.65017637175E+01 -0.43031001580E+02  0.33172215933E+02  0.54720525750E+02  0.00000000000E+00 0.  1.
         11    1    1    2    0    0  0.50887363540E+02  0.11666407677E+02 -0.13005101179E+02  0.53802987768E+02  0.00000000000E+00 0. -1.
</event>
<event>
 7    1  0.2612321E-009  0.1521140E+03  0.7561462E-02  0.1197899E+00
          2   -1    0    0  501    0  0.00000000000E+00  0.00000000000E+00  0.25505039231E+03  0.25505039231E+03  0.00000000000E+00 0. -1.
         -2   -1    0    0    0  501 -0.00000000000E+00 -0.00000000000E+00 -0.10803605398E+03  0.10803605398E+03  0.00000000000E+00 0.  1.
         25    2    1    2    0    0 -0.87917491788E+02  0.77937727266E+02  0.98225055132E+02  0.19773539994E+03  0.12508937701E+03 0.  0.
          5    1    3    3  502    0 -0.77207015263E+02 -0.10076576035E+02  0.69469889293E+02  0.10443178879E+03  0.41800000000E+01 0. -1.
         -5    1    3    3    0  502 -0.10710476525E+02  0.88014303301E+02  0.28755165839E+02  0.93303611160E+02  0.41800000000E+01 0. -1.
        -11    1    1    2    0    0  0.92610905871E+02 -0.42765949321E+02  0.70272667109E+02  0.12387071506E+03  0.00000000000E+00 0.  1.
         11    1    1    2    0    0 -0.46934140829E+01 -0.35171777946E+02 -0.21483383913E+02  0.41480331290E+02  0.00000000000E+00 0. -1.
</event>
<event>
 7    1  0.2612321E-009  0.1148992E+03  0.7561462E-02  0.1251757E+00
         -2   -1    0    0    0  501 -0.00000000000E+00  0.00000000000E+00  0.12178992243E+02  0.12178992243E+02  0.00000000000E+00 0.  1.
          2   -1    0    0  501    0  0.00000000000E+00 -0.00000000000E+00 -0.11976875116E+04  0.11976875116E+04  0.00000000000E+00 0. -1.
         25    2    1    2    0    0  0.47084277037E+02 -0.98096324677E+01 -0.81403337944E+03  0.82499202241E+03  0.12509330985E+03 0.  0.
          5    1    3    3  502    0 -0.24074840403E+02  0.38125220087E+02 -0.20582582644E+03  0.21074836554E+03  0.41800000000E+01 0. -1.
         -5    1    3    3    0  502  0.71159117440E+02 -0.47934852555E+02 -0.60820755300E+03  0.61424365687E+03  0.41800000000E+01 0. -1.
        -11    1    1    2    0    0  0.22800406628E+02  0.16886258606E+02 -0.14525417872E+03  0.14799925915E+03  0.00000000000E+00 0. -1.
         11    1    1    2    0    0 -0.69884683665E+02 -0.70766261385E+01 -0.22622096123E+03  0.23687522232E+03  0.00000000000E+00 0.  1.
</event>
<event>
 7    1  0.2612321E-009  0.9722014E+02  0.7561462E-02  0.1286253E+00
          1   -1    0    0  501    0  0.00000000000E+00  0.00000000000E+00  0.78880983095E+03  0.78880983095E+03  0.00000000000E+00 0. -1.
         -1   -1    0    0    0  501 -0.00000000000E+00 -0.00000000000E+00 -0.31497848565E+02  0.31497848565E+02  0.00000000000E+00 0.  1.
         25    2    1    2    0    0 -0.52260193214E+02  0.76634998626E+02  0.57701606294E+03  0.59765943498E+03  0.12508082394E+03 0.  0.
          5    1    3    3  502    0 -0.37246777414E+02  0.46138415131E+02  0.81048019780E+02  0.10051034618E+03  0.41800000000E+01 0.  1.
         -5    1    3    3    0  502 -0.15013415799E+02  0.30496583495E+02  0.49596804316E+03  0.49714908880E+03  0.41800000000E+01 0.  1.
        -11    1    1    2    0    0  0.52411407341E+02 -0.44902417322E+02  0.42071790988E+02  0.80828326085E+02  0.00000000000E+00 0.  1.
         11    1    1    2    0    0 -0.15121412686E+00 -0.31732581304E+02  0.13822412845E+03  0.14181991845E+03  0.00000000000E+00 0. -1.
</event>
<event>
 7    1  0.2612321E-009  0.1590342E+03  0.7561462E-02  0.1189792E+00
          2   -1    0    0  501    0  0.00000000000E+00  0.00000000000E+00  0.57135279477E+03  0.57135279477E+03  0.00000000000E+00 0. -1.
         -2   -1    0    0    0  501 -0.00000000000E+00 -0.00000000000E+00 -0.60382471388E+02  0.60382471388E+02  0.00000000000E+00 0.  1.
         25    2    1    2    0    0 -0.30148438959E+02  0.13286339711E+03  0.37671592168E+03  0.41967136121E+03  0.12509018792E+03 0.  0.
          5    1    3    3  502    0  0.21077921745E+02  0.67794266625E+02  0.62435072856E+02  0.94635892212E+02  0.41800000000E+01 0. -1.
         -5    1    3    3    0  502 -0.51226360704E+02  0.65069130488E+02  0.31428084882E+03  0.32503546900E+03  0.41800000000E+01 0. -1.
        -11    1    1    2    0    0  0.63128710124E+02 -0.83947647890E+02  0.81981367027E+02  0.13324183340E+03  0.00000000000E+00 0.  1.
         11    1    1    2    0    0 -0.32980271165E+02 -0.48915749224E+02  0.52273034682E+02  0.78822071548E+02  0.00000000000E+00 0. -1.
</event>
<event>
 7    1  0.2612321E-009  0.9380120E+02  0.7561462E-02  0.1293899E+00
         -2   -1    0    0    0  501 -0.00000000000E+00  0.00000000000E+00  0.37548673086E+03  0.37548673086E+03  0.00000000000E+00 0.  1.
          2   -1    0    0  501    0  0.00000000000E+00 -0.00000000000E+00 -0.61388055050E+02  0.61388055050E+02  0.00000000000E+00 0. -1.
         25    2    1    2    0    0 -0.82621900368E+02 -0.23739587478E+02  0.80143087608E+02  0.17164361651E+03  0.12509464483E+03 0.  0.
          5    1    3    3  502    0 -0.53830349575E+02  0.11388115713E+02  0.10578997924E+03  0.11931633511E+03  0.41800000000E+01 0. -1.
         -5    1    3    3    0  502 -0.28791550793E+02 -0.35127703191E+02 -0.25646891637E+02  0.52327281405E+02  0.41800000000E+01 0. -1.
        -11    1    1    2    0    0  0.43348967550E+02  0.18720433327E+02  0.21714195436E+03  0.22221659694E+03  0.00000000000E+00 0.  1.
         11    1    1    2    0    0  0.39272932818E+02  0.50191541516E+01  0.16813633835E+02  0.43014572453E+02  0.00000000000E+00 0. -1.
</event>
<event>
 7    1  0.2612321E-009  0.8610083E+02  0.7561462E-02  0.1312579E+00
         -3   -1    0    0    0  501 -0.00000000000E+00  0.00000000000E+00  0.10892679508E+03  0.10892679508E+03  0.00000000000E+00 0.  1.
          3   -1    0    0  501    0  0.00000000000E+00 -0.00000000000E+00 -0.13275352953E+03  0.13275352953E+03  0.00000000000E+00 0. -1.
         25    2    1    2    0    0  0.34618885300E+02 -0.33548668586E+02  0.68938376257E+01  0.13423368756E+03  0.12508867853E+03 0.  0.
          5    1    3    3  502    0 -0.27160719972E+02 -0.38703429193E+02 -0.35276097404E+02  0.59139966087E+02  0.41800000000E+01 0.  1.
         -5    1    3    3    0  502  0.61779605272E+02  0.51547606076E+01  0.42169935030E+02  0.75093721475E+02  0.41800000000E+01 0.  1.
        -11    1    1    2    0    0 -0.21222463556E+02 -0.49879262709E+01  0.28283853203E+02  0.35710624748E+02  0.00000000000E+00 0.  1.
         11    1    1    2    0    0 -0.13396421744E+02  0.38536594857E+02 -0.59004425279E+02  0.71736012304E+02  0.00000000000E+00 0. -1.
</event>
<event>
 7    1  0.2612321E-009  0.9475074E+02  0.7561462E-02  0.1291738E+00
         -2   -1    0    0    0  501 -0.00000000000E+00  0.00000000000E+00  0.72733761108E+02  0.72733761108E+02  0.00000000000E+00 0.  1.
          2   -1    0    0  501    0  0.00000000000E+00 -0.00000000000E+00 -0.23955173356E+03  0.23955173356E+03  0.00000000000E+00 0. -1.
         25    2    1    2    0    0  0.51575319968E+02 -0.23546780061E+02 -0.49355841381E+02  0.14592743566E+03  0.12507738773E+03 0.  0.
          5    1    3    3  502    0  0.36142591679E+02  0.37826455617E+02 -0.62026914267E+02  0.81252311791E+02  0.41800000000E+01 0. -1.
         -5    1    3    3    0  502  0.15432728289E+02 -0.61373235678E+02  0.12671072886E+02  0.64675123874E+02  0.41800000000E+01 0. -1.
        -11    1    1    2    0    0  0.59099251302E+00  0.21375841469E+02 -0.11181575762E+03  0.11384216936E+03  0.00000000000E+00 0. -1.
         11    1    1    2    0    0 -0.52166312481E+02  0.21709385919E+01 -0.56463734458E+01  0.52515889646E+02  0.00000000000E+00 0.  1.
</event>
<event>
 6    1  0.2612321E-009  0.9156003E+02  0.7561462E-02  0.1299117E+00
         -1   -1    0    0    0  501 -0.00000000000E+00  0.00000000000E+00  0.71467455634E+03  0.71467455634E+03  0.00000000000E+00 0.  1.
          1   -1    0    0  501    0  0.00000000000E+00 -0.00000000000E+00 -0.26125088917E+02  0.26125088917E+02  0.00000000000E+00 0. -1.
          5    1    1    2  502    0  0.32111882157E+01  0.15077755229E+02 -0.11787678930E+02  0.19851252028E+02  0.41800000000E+01 0.  1.
         -5    1    1    2    0  502  0.56110972118E+01  0.46171133527E+02  0.26630689529E+03  0.27037028842E+03  0.41800000000E+01 0.  1.
        -11    1    1    2    0    0  0.31620674541E+02 -0.71969341451E+02  0.30292827693E+03  0.31296164962E+03  0.00000000000E+00 0.  1.
         11    1    1    2    0    0 -0.40442959969E+02  0.10720452695E+02  0.13110197414E+03  0.13761645519E+03  0.00000000000E+00 0. -1.
</event>
<event>
 7    1  0.2612321E-009  0.1026240E+03  0.7561462E-02  0.1274873E+00
         -3   -1    0    0    0  501 -0.00000000000E+00  0.00000000000E+00  0.12541811171E+02  0.12541811171E+02  0.00000000000E+00 0.  1.
          3   -1    0    0  501    0  0.00000000000E+00 -0.00000000000E+00 -0.97440428261E+03  0.97440428261E+03  0.00000000000E+00 0. -1.
         25    2    1    2    0    0  0.24852205158E+01  0.19262177959E+02 -0.62108306083E+03  0.63385246859E+03  0.12509027007E+03 0.  0.
          5    1    3    3  502    0  0.45602203666E+02  0.43571324903E+02 -0.48275878113E+03  0.48687938393E+03  0.41800000000E+01 0.  1.
         -5    1    3    3    0  502 -0.43116983150E+02 -0.24309146944E+02 -0.13832427970E+03  0.14697308466E+03  0.41800000000E+01 0.  1.
        -11    1    1    2    0    0 -0.17334248716E+02 -0.52860949854E+02 -0.19836829536E+03  0.20602120474E+03  0.00000000000E+00 0.  1.
         11    1    1    2    0    0  0.14849028200E+02  0.33598771895E+02 -0.14241111524E+03  0.14707242045E+03  0.00000000000E+00 0. -1.
</event>
<event>
 7    1  0.2612321E-009  0.1017328E+03  0.7561462E-02  0.1276694E+00
          1   -1    0    0  501    0  0.00000000000E+00  0.00000000000E+00  0.49245470908E+03  0.49245470908E+03  0.00000000000E+00 0. -1.
         -1   -1    0    0    0  501 -0.00000000000E+00 -0.00000000000E+00 -0.35580396792E+02  0.35580396792E+02  0.00000000000E+00 0.  1.
         25    2    1    2    0    0 -0.41155855746E+02  0.36691767042E+02  0.35964183463E+03  0.38474615019E+03  0.12508901085E+03 0.  0.
          5    1    3    3  502    0 -0.51744551555E+02 -0.15798985444E+02  0.62416087200E+02  0.82706389705E+02  0.41800000000E+01 0. -1.
         -5    1    3    3    0  502  0.10588695809E+02  0.52490752486E+02  0.29722574743E+03  0.30203976048E+03  0.41800000000E+01 0. -1.
        -11    1    1    2    0    0  0.56907788258E+02 -0.14923871345E+01  0.26644987783E+02  0.62854426716E+02  0.00000000000E+00 0.  1.
         11    1    1    2    0    0 -0.15751932512E+02 -0.35199379908E+02  0.70587489876E+02  0.80434528971E+02  0.00000000000E+00 0. -1.
</event>
<event>
 7    1  0.2612321E-009  0.1405384E+03  0.7561462E-02  0.1212606E+00
          2   -1    0    0  501    0  0.00000000000E+00  0.00000000000E+00  0.53726078616E+03  0.53726078616E+03  0.00000000000E+00 0.  1.
         -2   -1    0    0    0  501 -0.00000000000E+00 -0.00000000000E+00 -0.42577855875E+02  0.42577855875E+02  0.00000000000E+00 0. -1.
         25    2    1    2    0    0 -0.46634689517E+02 -0.84550734927E+02  0.18871124782E+03  0.24613982669E+03  0.12509699511E+03 0.  0.
          5    1    3    3  502    0 -0.85204777328E+02 -0.57385317119E+02  0.89938229008E+02  0.13659899757E+03  0.41800000000E+01 0.  1.
         -5    1    3    3    0  502  0.38570087811E+02 -0.27165417809E+02  0.98773018817E+02  0.10954082912E+03  0.41800000000E+01 0.  1.
        -11    1    1    2    0    0  0.72998193339E+02  0.55704040307E+02  0.24073418075E+03  0.25765213393E+03  0.00000000000E+00 0.  1.
         11    1    1    2    0    0 -0.26363503822E+02  0.28846694621E+02  0.65237501709E+02  0.76046681410E+02  0.00000000000E+00 0. -1.
</event>
<event>
 7    1  0.2612321E-009  0.2394083E+03  0.7561462E-02  0.1120188E+00
         -1   -1    0    0    0  501 -0.00000000000E+00  0.00000000000E+00  0.68203388859E+02  0.68203388859E+02  0.00000000000E+00 0.  1.
          1   -1    0    0  501    0  0.00000000000E+00 -0.00000000000E+00 -0.10404084046E+04  0.10404084046E+04  0.00000000000E+00 0. -1.
         25    2    1    2    0    0 -0.12789213414E+03  0.19364759847E+03 -0.35004931946E+03  0.43822539092E+03  0.12510466348E+03 0.  0.
          5    1    3    3  502    0 -0.32599828231E+01  0.85551593350E+01 -0.10998250246E+03  0.11044202772E+03  0.41800000000E+01 0.  1.
         -5    1    3    3    0  502 -0.12463215132E+03  0.18509243913E+03 -0.24006681700E+03  0.32778336320E+03  0.41800000000E+01 0.  1.
        -11    1    1    2    0    0  0.48105483482E+02 -0.15779318412E+02 -0.84811420254E+02  0.98772979281E+02  0.00000000000E+00 0.  1.
         11    1    1    2    0    0  0.79786650657E+02 -0.17786828005E+03 -0.53734427601E+03  0.57161342325E+03  0.00000000000E+00 0. -1.
</event>
<event>
 7    1  0.2612321E-009  0.1081047E+03  0.7561462E-02  0.1264120E+00
          2   -1    0    0  501    0  0.00000000000E+00  0.00000000000E+00  0.53583709437E+02  0.53583709437E+02  0.00000000000E+00 0.  1.
         -2   -1    0    0    0  501 -0.00000000000E+00 -0.00000000000E+00 -0.38941794222E+03  0.38941794222E+03  0.00000000000E+00 0. -1.
         25    2    1    2    0    0 -0.44496237138E+02 -0.21514981756E+02 -0.59995584073E+02  0.14727423691E+03  0.12508965261E+03 0.  0.
          5    1    3    3  502    0 -0.63300575966E+02  0.35879926795E+02 -0.41986816087E+02  0.84111219166E+02  0.41800000000E+01 0.  1.
         -5    1    3    3    0  502  0.18804338828E+02 -0.57394908551E+02 -0.18008767985E+02  0.63163017745E+02  0.41800000000E+01 0.  1.
        -11    1    1    2    0    0  0.14823194446E+02  0.43434862081E+02 -0.23980806574E+03  0.24416023987E+03  0.00000000000E+00 0. -1.
         11    1    1    2    0    0  0.29673042691E+02 -0.21919880325E+02 -0.36030582971E+02  0.51567174881E+02  0.00000000000E+00 0.  1.
</event>
<event>
 7    1  0.2790531E-009  0.1467305E+03  0.7561462E-02  0.1204549E+00
          2   -1    0    0  501    0  0.00000000000E+00  0.00000000000E+00  0.12361691125E+04  0.12361691125E+04  0.00000000000E+00 0.  1.
         -2   -1    0    0    0  501 -0.00000000000E+00 -0.00000000000E+00 -0.23364498198E+02  0.23364498198E+02  0.00000000000E+00 0. -1.
         25    2    1    2    0    0 -0.83348253327E+02 -0.77556322462E+02  0.88195253300E+03  0.89802496296E+03  0.12508656656E+03 0.  0.
          5    1    3    3  502    0 -0.10065781750E+03 -0.43622916131E+02  0.40756216678E+03  0.42208926452E+03  0.41800000000E+01 0.  1.
         -5    1    3    3    0  502  0.17309564171E+02 -0.33933406330E+02  0.47439036623E+03  0.47593569844E+03  0.41800000000E+01 0.  1.
        -11    1    1    2    0    0  0.56168223842E+02 -0.69400225351E+01  0.14091414050E+03  0.15185462876E+03  0.00000000000E+00 0.  1.
         11    1    1    2    0    0  0.27180029485E+02  0.84496344997E+02  0.18993794078E+03  0.20965401896E+03  0.00000000000E+00 0. -1.
</event>
<event>
 7    1  0.2612321E-009  0.1216429E+03  0.7561462E-02  0.1240411E+00
         -2   -1    0    0    0  501 -0.00000000000E+00  0.00000000000E+00  0.18448955647E+02  0.18448955647E+02  0.00000000000E+00 0. -1.
          2   -1    0    0  501    0  0.00000000000E+00 -0.00000000000E+00 -0.84074381813E+03  0.84074381813E+03  0.00000000000E+00 0.  1.
         25    2    1    2    0    0 -0.22750750313E+02 -0.55971420108E+02 -0.50248093578E+03  0.52133032742E+03  0.12509125853E+03 0.  0.
          5    1    3    3  502    0 -0.55254070612E+02 -0.77468821395E+02 -0.40942072233E+03  0.42035369735E+03  0.41800000000E+01 0. -1.
         -5    1    3    3    0  502  0.32503320299E+02  0.21497401288E+02 -0.93060213453E+02  0.10097663007E+03  0.41800000000E+01 0. -1.
        -11    1    1    2    0    0  0.45374584243E+02  0.69117416729E+02 -0.23648224336E+03  0.25051930388E+03  0.00000000000E+00 0.  1.
         11    1    1    2    0    0 -0.22623833930E+02 -0.13145996621E+02 -0.83331683349E+02  0.87343142482E+02  0.00000000000E+00 0. -1.
</event>
<event>
 7    1  0.2612321E-009  0.1382122E+03  0.7561462E-02  0.1215755E+00
          3   -1    0    0  501    0  0.00000000000E+00  0.00000000000E+00  0.90629531530E+02  0.90629531530E+02  0.00000000000E+00 0. -1.
         -3   -1    0    0    0  501 -0.00000000000E+00 -0.00000000000E+00 -0.32868578720E+03  0.32868578720E+03  0.00000000000E+00 0.  1.
         25    2    1    2    0    0  0.11475042187E+03 -0.60390461383E+02 -0.89761614231E+02  0.20131233338E+03  0.12511930720E+03 0.  0.
          5    1    3    3  502    0  0.99094125370E+02 -0.17723302600E+02 -0.11190907373E+03  0.15058178616E+03  0.41800000000E+01 0.  1.
         -5    1    3    3    0  502  0.15656296500E+02 -0.42667158783E+02  0.22147459503E+02  0.50730547219E+02  0.41800000000E+01 0.  1.
        -11    1    1    2    0    0 -0.30581030896E+02  0.11368032796E+02  0.82281163835E+01  0.33647191853E+02  0.00000000000E+00 0. -1.
         11    1    1    2    0    0 -0.84169390974E+02  0.49022428586E+02 -0.15652275783E+03  0.18435579350E+03  0.00000000000E+00 0.  1.
</event>
<event>
 7    1  0.2612321E-009  0.7587280E+02  0.7561462E-02  0.1341189E+00
         -1   -1    0    0    0  501 -0.00000000000E+00  0.00000000000E+00  0.76879225080E+02  0.76879225080E+02  0.00000000000E+00 0.  1.
          1   -1    0    0  501    0  0.00000000000E+00 -0.00000000000E+00 -0.26284636565E+03  0.26284636565E+03  0.00000000000E+00 0. -1.
         25    2    1    2    0    0 -0.12885621446E+02  0.31914516525E+02 -0.20071890635E+03  0.23899678022E+03  0.12508719353E+03 0.  0.
          5    1    3    3  502    0  0.27277812111E+02  0.21979723519E+02 -0.19362334399E+03  0.19681122686E+03  0.41800000000E+01 0. -1.
         -5    1    3    3    0  502 -0.40163433557E+02  0.99347930063E+01 -0.70955623582E+01  0.42185553360E+02  0.41800000000E+01 0. -1.
        -11    1    1    2    0    0  0.27658284673E+02  0.10794130314E+02  0.39336197664E+02  0.49283165553E+02  0.00000000000E+00 0.  1.
         11    1    1    2    0    0 -0.14772663228E+02 -0.42708646840E+02 -0.24584431877E+02  0.51445644951E+02  0.00000000000E+00 0. -1.
</event>
<event>
 7    1  0.2612321E-009  0.1406000E+03  0.7561462E-02  0.1212524E+00
         -2   -1    0    0    0  501 -0.00000000000E+00  0.00000000000E+00  0.49386401034E+02  0.49386401034E+02  0.00000000000E+00 0.  1.
          2   -1    0    0  501    0  0.00000000000E+00 -0.00000000000E+00 -0.71521215652E+03  0.71521215652E+03  0.00000000000E+00 0. -1.
         25    2    1    2    0    0  0.14608155205E+01 -0.10272443177E+03 -0.57931427453E+03  0.60150451557E+03  0.12509280839E+03 0.  0.
          5    1    3    3  502    0  0.44901947594E+02 -0.84588312947E+02 -0.50057772812E+03  0.50967332859E+03  0.41800000000E+01 0. -1.
         -5    1    3    3    0  502 -0.43441132074E+02 -0.18136118822E+02 -0.78736546414E+02  0.91831186985E+02  0.41800000000E+01 0. -1.
        -11    1    1    2    0    0 -0.33331917017E+02  0.10078219691E+03 -0.69928837024E+02  0.12711455524E+03  0.00000000000E+00 0. -1.
         11    1    1    2    0    0  0.31871101496E+02  0.19422348597E+01 -0.16582643931E+02  0.35979486747E+02  0.00000000000E+00 0.  1.
</event>
<event>
 7    1  0.2612321E-009  0.1893276E+03  0.7561462E-02  0.1159069E+00
          2   -1    0    0  501    0  0.00000000000E+00  0.00000000000E+00  0.22744323433E+04  0.22744323433E+04  0.00000000000E+00 0. -1.
         -2   -1    0    0    0  501 -0.00000000000E+00 -0.00000000000E+00 -0.21528164167E+02  0.21528164167E+02  0.00000000000E+00 0.  1.
         25    2    1    2    0    0 -0.10480989657E+03  0.12373266931E+03  0.17039998854E+04  0.17162629076E+04  0.12509144821E+03 0.  0.
          5    1    3    3  502    0 -0.11768527065E+03  0.63917884461E+02  0.13816039743E+04  0.13880858522E+04  0.41800000000E+01 0. -1.
         -5    1    3    3    0  502  0.12875374078E+02  0.59814784848E+02  0.32239591115E+03  0.32817705537E+03  0.41800000000E+01 0. -1.
        -11    1    1    2    0    0  0.41314619654E+02 -0.11119008058E+03  0.30223310430E+03  0.32467673330E+03  0.00000000000E+00 0.  1.
         11    1    1    2    0    0  0.63495276917E+02 -0.12542588727E+02  0.24667118936E+03  0.25502086657E+03  0.00000000000E+00 0. -1.
</event>
<event>
 7    1  0.2985043E-009  0.1624421E+03  0.7561462E-02  0.1185967E+00
          1   -1    0    0  501    0  0.00000000000E+00  0.00000000000E+00  0.12076252932E+04  0.12076252932E+04  0.00000000000E+00 0. -1.
         -1   -1    0    0    0  501 -0.00000000000E+00 -0.00000000000E+00 -0.25005276413E+02  0.25005276413E+02  0.00000000000E+00 0.  1.
         25    2    1    2    0    0 -0.13488866965E+03 -0.13053569491E+02  0.63194420173E+03  0.65830639911E+03  0.12509393321E+03 0.  0.
          5    1    3    3  502    0 -0.13680314089E+03 -0.34402210437E+02  0.37901128844E+03  0.40443249202E+03  0.41800000000E+01 0.  1.
         -5    1    3    3    0  502  0.19144712429E+01  0.21348640947E+02  0.25293291329E+03  0.25387390708E+03  0.41800000000E+01 0.  1.
        -11    1    1    2    0    0  0.98772739959E+02  0.49611910884E+02  0.34222368011E+03  0.35963098183E+03  0.00000000000E+00 0.  1.
         11    1    1    2    0    0  0.36115929688E+02 -0.36558341393E+02  0.20845213493E+03  0.21469318867E+03  0.00000000000E+00 0. -1.
</event>
<event>
 7    1  0.2612321E-009  0.6699041E+02  0.7561462E-02  0.1370637E+00
          1   -1    0    0  501    0  0.00000000000E+00  0.00000000000E+00  0.51802194562E+03  0.51802194562E+03  0.00000000000E+00 0. -1.
         -1   -1    0    0    0  501 -0.00000000000E+00 -0.00000000000E+00 -0.26420838300E+02  0.26420838300E+02  0.00000000000E+00 0.  1.
         25    2    1    2    0    0 -0.27850180952E+02 -0.11224652434E+02  0.36883121938E+03  0.39061620056E+03  0.12507166886E+03 0.  0.
          5    1    3    3  502    0 -0.29398622643E+02 -0.39644822333E+02  0.35545721606E+03  0.35889176056E+03  0.41800000000E+01 0. -1.
         -5    1    3    3    0  502  0.15484416909E+01  0.28420169899E+02  0.13374003326E+02  0.31724440006E+02  0.41800000000E+01 0. -1.
        -11    1    1    2    0    0  0.30719146081E+02 -0.11481041547E+02  0.12646150862E+03  0.13064453074E+03  0.00000000000E+00 0.  1.
         11    1    1    2    0    0 -0.28689651289E+01  0.22705693981E+02 -0.36916206802E+01  0.23182052612E+02  0.00000000000E+00 0. -1.
</event>
<event>
 7    1  0.2612321E-009  0.7733350E+02  0.7561462E-02  0.1336794E+00
          1   -1    0    0  501    0  0.00000000000E+00  0.00000000000E+00  0.11395477296E+03  0.11395477296E+03  0.00000000000E+00 0. -1.
         -1   -1    0    0    0  501 -0.00000000000E+00 -0.00000000000E+00 -0.73851913771E+02  0.73851913771E+02  0.00000000000E+00 0.  1.
         25    2    1    2    0    0  0.26668314363E+02  0.35344916324E+02  0.13647412476E+02  0.13339607886E+03  0.12509116630E+03 0.  0.
          5    1    3    3  502    0  0.63364226848E+02  0.13903439349E+02  0.46155269547E+02  0.79725229236E+02  0.41800000000E+01 0. -1.
         -5    1    3    3    0  502 -0.36695912485E+02  0.21441476975E+02 -0.32507857070E+02  0.53670849623E+02  0.41800000000E+01 0. -1.
        -11    1    1    2    0    0 -0.34122862658E+01 -0.16986697023E+02  0.57164892054E+01  0.18244720391E+02  0.00000000000E+00 0.  1.
         11    1    1    2    0    0 -0.23256028097E+02 -0.18358219300E+02  0.20738957509E+02  0.36165887481E+02  0.00000000000E+00 0. -1.
</event>
<event>
 7    1  0.2612321E-009  0.8293852E+02  0.7561462E-02  0.1320913E+00
          2   -1    0    0  501    0  0.00000000000E+00  0.00000000000E+00  0.16100639577E+03  0.16100639577E+03  0.00000000000E+00 0. -1.
         -2   -1    0    0    0  501 -0.00000000000E+00 -0.00000000000E+00 -0.88035286873E+02  0.88035286873E+02  0.00000000000E+00 0.  1.
         25    2    1    2    0    0  0.87480621420E+01  0.10470986529E+02  0.90654512262E+02  0.15509049338E+03  0.12509456580E+03 0.  0.
          5    1    3    3  502    0  0.25911758462E+02  0.52820509994E+02  0.66308245809E+01  0.59353733979E+02  0.41800000000E+01 0. -1.
         -5    1    3    3    0  502 -0.17163696320E+02 -0.42349523464E+02  0.84023687681E+02  0.95736759401E+02  0.41800000000E+01 0. -1.
        -11    1    1    2    0    0  0.24800115393E+02 -0.11735530664E+02 -0.43617270373E+02  0.51528969311E+02  0.00000000000E+00 0.  1.
         11    1    1    2    0    0 -0.33548177535E+02  0.12645441349E+01  0.25933867006E+02  0.42422219952E+02  0.00000000000E+00 0. -1.
</event>
<event>
 7    1  0.2612321E-009  0.1618248E+03  0.7561462E-02  0.1186652E+00
          2   -1    0    0  501    0  0.00000000000E+00  0.00000000000E+00  0.20433656596E+03  0.20433656596E+03  0.00000000000E+00 0. -1.
         -2   -1    0    0    0  501 -0.00000000000E+00 -0.00000000000E+00 -0.14680921261E+03  0.14680921261E+03  0.00000000000E+00 0.  1.
         25    2    1    2    0    0 -0.54880076557E+02 -0.11342316471E+03 -0.19263578823E+02  0.17859416964E+03  0.12509258516E+03 0.  0.
          5    1    3    3  502    0 -0.41746912727E+02  0.14451721972E+02 -0.22883460307E+02  0.49927769285E+02  0.41800000000E+01 0. -1.
         -5    1    3    3    0  502 -0.13133163831E+02 -0.12787488669E+03  0.36198814842E+01  0.12866640035E+03  0.41800000000E+01 0. -1.
        -11    1    1    2    0    0  0.64220018358E+02  0.37918287360E+02  0.18861129586E+02  0.76926910009E+02  0.00000000000E+00 0.  1.
         11    1    1    2    0    0 -0.93399418012E+01  0.75504877354E+02  0.57929802581E+02  0.95624698924E+02  0.00000000000E+00 0. -1.
</event>
<event>
 7    1  0.2612321E-009  0.1068499E+03  0.7561462E-02  0.1266517E+00
          2   -1    0    0  501    0  0.00000000000E+00  0.00000000000E+00  0.24429972139E+03  0.24429972139E+03  0.00000000000E+00 0.  1.
         -2   -1    0    0    0  501 -0.00000000000E+00 -0.00000000000E+00 -0.62550244301E+02  0.62550244301E+02  0.00000000000E+00 0. -1.
         25    2    1    2    0    0  0.69848831000E+01  0.53942135848E+02  0.11841212359E+03  0.18062882620E+03  0.12508716653E+03 0.  0.
          5    1    3    3  502    0  0.63057524127E+02  0.46262742628E+02  0.80907305961E+02  0.11260531631E+03  0.41800000000E+01 0.  1.
         -5    1    3    3    0  502 -0.56072641027E+02  0.76793932206E+01  0.37504817631E+02  0.68023509888E+02  0.41800000000E+01 0.  1.
        -11    1    1    2    0    0 -0.25895314189E+02 -0.53812641720E+02  0.80804641753E+02  0.10047764843E+03  0.00000000000E+00 0.  1.
         11    1    1    2    0    0  0.18910431089E+02 -0.12949412824E+00 -0.17467288255E+02  0.25743491055E+02  0.00000000000E+00 0. -1.
</event>
<event>
 7    1  0.2612321E-009  0.2178989E+03  0.7561462E-02  0.1135459E+00
          2   -1    0    0  501    0  0.00000000000E+00  0.00000000000E+00  0.35710475024E+03  0.35710475024E+03  0.00000000000E+00 0. -1.
         -2   -1    0    0    0  501 -0.00000000000E+00 -0.00000000000E+00 -0.15534973908E+03  0.15534973908E+03  0.00000000000E+00 0.  1.
         25    2    1    2    0    0  0.17034787601E+03 -0.11751779938E+03  0.13428890189E+03  0.27660429811E+03  0.12509035346E+03 0.  0.
          5    1    3    3  502    0  0.38856027914E+02 -0.49916688068E+02 -0.16370441030E+02  0.65474654580E+02  0.41800000000E+01 0.  1.
         -5    1    3    3    0  502  0.13149184809E+03 -0.67601111312E+02  0.15065934292E+03  0.21112964353E+03  0.41800000000E+01 0.  1.
        -11    1    1    2    0    0 -0.42254839526E+02 -0.10346456335E+02  0.25734688809E+01  0.43579162040E+02  0.00000000000E+00 0.  1.
         11    1    1    2    0    0 -0.12809303648E+03  0.12786425571E+03  0.64892640381E+02  0.19227102917E+03  0.00000000000E+00 0. -1.
</event>
<event>
 7    1  0.2612321E-009  0.1246489E+03  0.7561462E-02  0.1235619E+00
         -1   -1    0    0    0  501 -0.00000000000E+00  0.00000000000E+00  0.13859911393E+02  0.13859911393E+02  0.00000000000E+00 0.  1.
          1   -1    0    0  501    0  0.00000000000E+00 -0.00000000000E+00 -0.12541225227E+04  0.12541225227E+04  0.00000000000E+00 0. -1.
         25    2    1    2    0    0  0.64612309836E+02 -0.29935094658E+02 -0.87504018786E+03  0.88679964239E+03  0.12508962747E+03 0.  0.
          5    1    3    3  502    0  0.93406304147E+02  0.95737830579E+01 -0.61982652742E+03  0.62691210825E+03  0.41800000000E+01 0.  1.
         -5    1    3    3    0  502 -0.28793994311E+02 -0.39508877716E+02 -0.25521366044E+03  0.25988753414E+03  0.41800000000E+01 0.  1.
        -11    1    1    2    0    0 -0.42186837448E+02  0.57114791008E+02 -0.19960675899E+03  0.21186006429E+03  0.00000000000E+00 0.  1.
         11    1    1    2    0    0 -0.22425472388E+02 -0.27179696350E+02 -0.16561566445E+03  0.16932272741E+03  0.00000000000E+00 0. -1.
</event>
<event>
 7    1  0.2612321E-009  0.9906535E+02  0.7561462E-02  0.1282274E+00
          1   -1    0    0  501    0  0.00000000000E+00  0.00000000000E+00  0.35709584628E+03  0.35709584628E+03  0.00000000000E+00 0. -1.
         -1   -1    0    0    0  501 -0.00000000000E+00 -0.00000000000E+00 -0.49505483207E+02  0.49505483207E+02  0.00000000000E+00 0.  1.
         25    2    1    2    0    0 -0.67431823150E+02  0.11985129466E+02  0.19419015886E+03  0.24093081657E+03  0.12508855453E+03 0.  0.
          5    1    3    3  502    0  0.25846708021E+02  0.22104551619E+02  0.10854515417E+03  0.11382524506E+03  0.41800000000E+01 0. -1.
         -5    1    3    3    0  502 -0.93278531171E+02 -0.10119422153E+02  0.85645004681E+02  0.12710557151E+03  0.41800000000E+01 0. -1.
        -11    1    1    2    0    0  0.52798797662E+02 -0.32378932143E+01  0.13093347983E+03  0.14121534310E+03  0.00000000000E+00 0. -1.
         11    1    1    2    0    0  0.14633025489E+02 -0.87472362518E+01 -0.17533275613E+02  0.24455169815E+02  0.00000000000E+00 0.  1.
</event>
<event>
 7    1  0.2612321E-009  0.1010452E+03  0.7561462E-02  0.1278113E+00
         -1   -1    0    0    0  501 -0.00000000000E+00  0.00000000000E+00  0.16215100734E+03  0.16215100734E+03  0.00000000000E+00 0.  1.
          1   -1    0    0  501    0  0.00000000000E+00 -0.00000000000E+00 -0.11067125831E+03  0.11067125831E+03  0.00000000000E+00 0. -1.
         25    2    1    2    0    0 -0.57885613820E+02  0.52615188422E+02  0.18081292100E+02  0.14864091029E+03  0.12509230491E+03 0.  0.
          5    1    3    3  502    0  0.33636156738E+01 -0.77724684737E+01  0.54376540707E+02  0.55190631051E+02  0.41800000000E+01 0. -1.
         -5    1    3    3    0  502 -0.61249229494E+02  0.60387656896E+02 -0.36295248607E+02  0.93450279242E+02  0.41800000000E+01 0. -1.
        -11    1    1    2    0    0 -0.11262575350E+02 -0.32681838823E+02  0.38860462363E+02  0.52010419412E+02  0.00000000000E+00 0.  1.
         11    1    1    2    0    0  0.69148189171E+02 -0.19933349599E+02 -0.54620054271E+01  0.72170935945E+02  0.00000000000E+00 0. -1.
</event>
<event>
 7    1  0.2612321E-009  0.1102882E+03  0.7561462E-02  0.1260037E+00
          2   -1    0    0  501    0  0.00000000000E+00  0.00000000000E+00  0.39829526944E+03  0.39829526944E+03  0.00000000000E+00 0. -1.
         -2   -1    0    0    0  501 -0.00000000000E+00 -0.00000000000E+00 -0.72559974728E+02  0.72559974728E+02  0.00000000000E+00 0.  1.
         25    2    1    2    0    0 -0.58506241012E+02  0.60792822932E+02  0.35217939432E+02  0.15494119726E+03  0.12509086215E+03 0.  0.
          5    1    3    3  502    0 -0.60712696841E+02  0.23691688921E+02 -0.35948058485E+02  0.74545710745E+02  0.41800000000E+01 0. -1.
         -5    1    3    3    0  502  0.22064558292E+01  0.37101134011E+02  0.71165997918E+02  0.80395486514E+02  0.41800000000E+01 0. -1.
        -11    1    1    2    0    0  0.40122451354E+02  0.12722170164E+02  0.15537962798E+03  0.16097979223E+03  0.00000000000E+00 0.  1.
         11    1    1    2    0    0  0.18383789658E+02 -0.73514993096E+02  0.13513772730E+03  0.15493425468E+03  0.00000000000E+00 0. -1.
</event>
<event>
 7    1  0.2612321E-009  0.1693020E+03  0.7561462E-02  0.1178578E+00
          1   -1    0    0  501    0  0.00000000000E+00  0.00000000000E+00  0.11036385256E+04  0.11036385256E+04  0.00000000000E+00 0. -1.
         -1   -1    0    0    0  501 -0.00000000000E+00 -0.00000000000E+00 -0.39152578311E+02  0.39152578311E+02  0.00000000000E+00 0.  1.
         25    2    1    2    0    0  0.94266189247E+02  0.12699769839E+03  0.33803455231E+03  0.39361158588E+03  0.12509273421E+03 0.  0.
          5    1    3    3  502    0 -0.59533911386E+01  0.52402713580E+02  0.20222444715E+03  0.20903034871E+03  0.41800000000E+01 0. -1.
         -5    1    3    3    0  502  0.10021958039E+03  0.74594984812E+02  0.13581010516E+03  0.18458123717E+03  0.41800000000E+01 0. -1.
        -11    1    1    2    0    0 -0.94261452870E+02 -0.11498804315E+03  0.72067446794E+03  0.73585267568E+03  0.00000000000E+00 0. -1.
         11    1    1    2    0    0 -0.47363767053E-02 -0.12009655239E+02  0.57769270614E+01  0.13326842374E+02  0.00000000000E+00 0.  1.
</event>
<event>
 7    1  0.2612321E-009  0.1238364E+03  0.7561462E-02  0.1236899E+00
          3   -1    0    0  501    0  0.00000000000E+00  0.00000000000E+00  0.82825044122E+03  0.82825044122E+03  0.00000000000E+00 0. -1.
         -3   -1    0    0    0  501 -0.00000000000E+00 -0.00000000000E+00 -0.28423176493E+02  0.28423176493E+02  0.00000000000E+00 0.  1.
         25    2    1    2    0    0  0.11134784843E+02  0.10739121042E+03  0.40550816304E+03  0.43788317349E+03  0.12509175764E+03 0.  0.
          5    1    3    3  502    0  0.12201094159E+02  0.96276200569E+02  0.41268790091E+03  0.42396550503E+03  0.41800000000E+01 0. -1.
         -5    1    3    3    0  502 -0.10663093167E+01  0.11115009848E+02 -0.71797378751E+01  0.13917668462E+02  0.41800000000E+01 0. -1.
        -11    1    1    2    0    0 -0.10030453375E+02  0.13997352223E+02  0.27902809468E+02  0.32788757835E+02  0.00000000000E+00 0.  1.
         11    1    1    2    0    0 -0.11043314675E+01 -0.12138856264E+03  0.36641629222E+03  0.38600168639E+03  0.00000000000E+00 0. -1.
</event>
<event>
 7    1  0.2612321E-009  0.1306274E+03  0.7561462E-02  0.1226528E+00
          2   -1    0    0  501    0  0.00000000000E+00  0.00000000000E+00  0.45301755455E+03  0.45301755455E+03  0.00000000000E+00 0. -1.
         -2   -1    0    0    0  501 -0.00000000000E+00 -0.00000000000E+00 -0.52337982241E+02  0.52337982241E+02  0.00000000000E+00 0.  1.
         25    2    1    2    0    0 -0.94583031399E+02  0.31030649224E+02  0.28638910939E+03  0.32798758905E+03  0.12509310763E+03 0.  0.
          5    1    3    3  502    0 -0.75174532408E+02  0.63468695306E+02  0.11040061808E+03  0.14793665698E+03  0.41800000000E+01 0. -1.
         -5    1    3    3    0  502 -0.19408498991E+02 -0.32438046082E+02  0.17598849131E+03  0.18005093207E+03  0.41800000000E+01 0. -1.
        -11    1    1    2    0    0  0.17994279561E+02 -0.43572118357E+02  0.79259569269E+02  0.92219319645E+02  0.00000000000E+00 0. -1.
         11    1    1    2    0    0  0.76588751838E+02  0.12541469133E+02  0.35030893650E+02  0.85148628092E+02  0.00000000000E+00 0.  1.
</event>
<event>
 7    1  0.2612321E-009  0.1072555E+03  0.7561462E-02  0.1265738E+00
         -1   -1    0    0    0  501 -0.00000000000E+00  0.00000000000E+00  0.19593517527E+03  0.19593517527E+03  0.00000000000E+00 0.  1.
          1   -1    0    0  501    0  0.00000000000E+00 -0.00000000000E+00 -0.76862068752E+02  0.76862068752E+02  0.00000000000E+00 0. -1.
         25    2    1    2    0    0  0.45974398234E+02  0.35519134418E+02  0.71175168511E+02  0.15520479524E+03  0.12508944659E+03 0.  0.
          5    1    3    3  502    0 -0.73055468641E+01  0.71871346391E+02  0.46525603182E+02  0.86028864914E+02  0.41800000000E+01 0.  1.
         -5    1    3    3    0  502  0.53279945098E+02 -0.36352211973E+02  0.24649565329E+02  0.69175930322E+02  0.41800000000E+01 0.  1.
        -11    1    1    2    0    0 -0.38833075431E+02 -0.48841282127E+02  0.68098436271E+02  0.92362739293E+02  0.00000000000E+00 0.  1.
         11    1    1    2    0    0 -0.71413228035E+01  0.13322147708E+02 -0.20200498264E+02  0.25229709493E+02  0.00000000000E+00 0. -1.
</event>
<event>
 7    1  0.2612321E-009  0.9685974E+02  0.7561462E-02  0.1287042E+00
          2   -1    0    0  501    0  0.00000000000E+00  0.00000000000E+00  0.56566901631E+02  0.56566901631E+02  0.00000000000E+00 0.  1.
         -2   -1    0    0    0  501 -0.00000000000E+00 -0.00000000000E+00 -0.33009468418E+03  0.33009468418E+03  0.00000000000E+00 0. -1.
         25    2    1    2    0    0 -0.39470363006E+02  0.35701302266E+02 -0.24163782909E+03  0.27725279719E+03  0.12509108908E+03 0.  0.
          5    1    3    3  502    0  0.40991893924E+02  0.20608148521E+02 -0.13567873969E+03  0.14328720793E+03  0.41800000000E+01 0. -1.
         -5    1    3    3    0  502 -0.80462256930E+02  0.15093153744E+02 -0.10595908940E+03  0.13396558926E+03  0.41800000000E+01 0. -1.
        -11    1    1    2    0    0  0.41615539589E+01 -0.29543112906E+02  0.27151333819E+02  0.40339917943E+02  0.00000000000E+00 0.  1.
         11    1    1    2    0    0  0.35308809047E+02 -0.61581893594E+01 -0.59041287279E+02  0.69068870673E+02  0.00000000000E+00 0. -1.
</event>
<event>
 7    1  0.2612321E-009  0.1115529E+03  0.7561462E-02  0.1257721E+00
          2   -1    0    0  501    0  0.00000000000E+00  0.00000000000E+00  0.21113382719E+03  0.21113382719E+03  0.00000000000E+00 0. -1.
         -2   -1    0    0    0  501 -0.00000000000E+00 -0.00000000000E+00 -0.67268545258E+02  0.67268545258E+02  0.00000000000E+00 0.  1.
         25    2    1    2    0    0  0.44700009900E+02 -0.12611930919E+02  0.68936709384E+02  0.15019107230E+03  0.12509171280E+03 0.  0.
          5    1    3    3  502    0  0.77526801123E+02  0.23833574018E+02  0.57900693508E+02  0.99741700665E+02  0.41800000000E+01 0. -1.
         -5    1    3    3    0  502 -0.32826791223E+02 -0.36445504938E+02  0.11036015876E+02  0.50449371637E+02  0.41800000000E+01 0. -1.
        -11    1    1    2    0    0 -0.45178434071E+02  0.42941197254E+02  0.19993573629E+02  0.65458233349E+02  0.00000000000E+00 0.  1.
         11    1    1    2    0    0  0.47842417085E+00 -0.30329266335E+02  0.54934998918E+02  0.62753066796E+02  0.00000000000E+00 0. -1.
</event>
<event>
 7    1  0.2612321E-009  0.8325392E+02  0.7561462E-02  0.1320063E+00
         -2   -1    0    0    0  501 -0.00000000000E+00  0.00000000000E+00  0.95257805791E+01  0.95257805791E+01  0.00000000000E+00 0.  1.
          2   -1    0    0  501    0  0.00000000000E+00 -0.00000000000E+00 -0.16205192310E+04  0.16205192310E+04  0.00000000000E+00 0. -1.
         25    2    1    2    0    0 -0.94892256586E+00 -0.25350443927E+02 -0.12711079808E+04  0.12774997992E+04  0.12508674093E+03 0.  0.
          5    1    3    3  502    0  0.24994058771E+02  0.14967733453E+02 -0.10808136701E+04  0.10812143163E+04  0.41800000000E+01 0. -1.
         -5    1    3    3    0  502 -0.25942981337E+02 -0.40318177380E+02 -0.19029431069E+03  0.19628548288E+03  0.41800000000E+01 0. -1.
        -11    1    1    2    0    0  0.52406904749E+01 -0.31502884050E+02 -0.73694550554E+02  0.80316768620E+02  0.00000000000E+00 0.  1.
         11    1    1    2    0    0 -0.42917679090E+01  0.56853327977E+02 -0.26619091909E+03  0.27222844374E+03  0.00000000000E+00 0. -1.
</event>
<event>
 7    1  0.2787203E-009  0.1264047E+03  0.7561462E-02  0.1232890E+00
          2   -1    0    0  501    0  0.00000000000E+00  0.00000000000E+00  0.10462448622E+03  0.10462448622E+03  0.00000000000E+00 0. -1.
         -2   -1    0    0    0  501 -0.00000000000E+00 -0.00000000000E+00 -0.25813205231E+03  0.25813205231E+03  0.00000000000E+00 0.  1.
         25    2    1    2    0    0 -0.11511616793E+03 -0.40323615536E+02 -0.10234755963E+03  0.20248668973E+03  0.12509240771E+03 0.  0.
          5    1    3    3  502    0 -0.10091621825E+03 -0.43643702124E+02 -0.11780177075E+02  0.11065758362E+03  0.41800000000E+01 0.  1.
         -5    1    3    3    0  502 -0.14199949675E+02  0.33200865880E+01 -0.90567382551E+02  0.91829106104E+02  0.41800000000E+01 0.  1.
        -11    1    1    2    0    0  0.81216271116E+02  0.94597533020E+01 -0.72887934874E+02  0.10953638974E+03  0.00000000000E+00 0.  1.
         11    1    1    2    0    0  0.33899896810E+02  0.30863862234E+02  0.21727928405E+02  0.50733459063E+02  0.00000000000E+00 0. -1.
</event>
<event>
 7    1  0.2612321E-009  0.1002479E+03  0.7561462E-02  0.1279775E+00
          1   -1    0    0  501    0  0.00000000000E+00  0.00000000000E+00  0.16401682389E+04  0.16401682389E+04  0.00000000000E+00 0. -1.
         -1   -1    0    0    0  501 -0.00000000000E+00 -0.00000000000E+00 -0.22988561322E+02  0.22988561322E+02  0.00000000000E+00 0.  1.
         25    2    1    2    0    0 -0.88195648022E+02  0.48551101683E+01  0.14235653859E+04  0.14317763283E+04  0.12507198649E+03 0.  0.
          5    1    3    3  502    0 -0.50557603698E+02  0.17569654757E+02  0.18668900746E+03  0.19425504360E+03  0.41800000000E+01 0.  1.
         -5    1    3    3    0  502 -0.37638044324E+02 -0.12714544589E+02  0.12368763785E+04  0.12375212847E+04  0.41800000000E+01 0.  1.
        -11    1    1    2    0    0  0.95868194491E+00 -0.18534730853E+02 -0.22834563307E-01  0.18559521553E+02  0.00000000000E+00 0.  1.
         11    1    1    2    0    0  0.87236966077E+02  0.13679620685E+02  0.19363712617E+03  0.21282095034E+03  0.00000000000E+00 0. -1.
</event>
<event>
 7    1  0.2612321E-009  0.8293250E+02  0.7561462E-02  0.1320930E+00
         -2   -1    0    0    0  501 -0.00000000000E+00  0.00000000000E+00  0.35538095950E+03  0.35538095950E+03  0.00000000000E+00 0.  1.
          2   -1    0    0  501    0  0.00000000000E+00 -0.00000000000E+00 -0.38298504347E+02  0.38298504347E+02  0.00000000000E+00 0. -1.
         25    2    1    2    0    0  0.40409823836E+02 -0.98378401865E+01  0.19406654443E+03  0.23460405151E+03  0.12508996904E+03 0.  0.
          5    1    3    3  502    0  0.61580121534E+02 -0.23478737557E+02  0.19804712910E+03  0.20876661666E+03  0.41800000000E+01 0.  1.
         -5    1    3    3    0  502 -0.21170297698E+02  0.13640897370E+02 -0.39805846663E+01  0.25837434856E+02  0.41800000000E+01 0.  1.
        -11    1    1    2    0    0 -0.22203916136E+02  0.36077296924E+02  0.11969018018E+03  0.12696583980E+03  0.00000000000E+00 0.  1.
         11    1    1    2    0    0 -0.18205907700E+02 -0.26239456737E+02  0.33257305482E+01  0.32109572541E+02  0.00000000000E+00 0. -1.
</event>
<event>
 7    1  0.2612321E-009  0.1210954E+03  0.7561462E-02  0.1241301E+00
         -1   -1    0    0    0  501 -0.00000000000E+00  0.00000000000E+00  0.23824640004E+02  0.23824640004E+02  0.00000000000E+00 0.  1.
          1   -1    0    0  501    0  0.00000000000E+00 -0.00000000000E+00 -0.77216977361E+03  0.77216977361E+03  0.00000000000E+00 0. -1.
         25    2    1    2    0    0 -0.42923723277E+02 -0.42093539095E+02 -0.25054175615E+03  0.28641845872E+03  0.12510015935E+03 0.  0.
          5    1    3    3  502    0  0.55471924385E+01 -0.75940769375E+02 -0.10956645567E+03  0.13349176905E+03  0.41800000000E+01 0.  1.
         -5    1    3    3    0  502 -0.48470915716E+02  0.33847230280E+02 -0.14097530048E+03  0.15292668967E+03  0.41800000000E+01 0.  1.
        -11    1    1    2    0    0 -0.57825192632E+01  0.55775902911E+02 -0.31246280830E+03  0.31745455651E+03  0.00000000000E+00 0. -1.
         11    1    1    2    0    0  0.48706242540E+02 -0.13682363817E+02 -0.18534056915E+03  0.19212139838E+03  0.00000000000E+00 0.  1.
</event>
<event>
 7    1  0.2612321E-009  0.1374526E+03  0.7561462E-02  0.1216798E+00
          1   -1    0    0  501    0  0.00000000000E+00  0.00000000000E+00  0.16958517901E+03  0.16958517901E+03  0.00000000000E+00 0. -1.
         -1   -1    0    0    0  501 -0.00000000000E+00 -0.00000000000E+00 -0.14307023811E+03  0.14307023811E+03  0.00000000000E+00 0.  1.
         25    2    1    2    0    0  0.85682071806E+02  0.50998802320E+02  0.63903244300E+02  0.17225980583E+03  0.12509005078E+03 0.  0.
          5    1    3    3  502    0  0.86948232833E+02 -0.19516468024E+02  0.38801027871E+02  0.97282474684E+02  0.41800000000E+01 0. -1.
         -5    1    3    3    0  502 -0.12661610269E+01  0.70515270344E+02  0.25102216429E+02  0.74977331141E+02  0.41800000000E+01 0. -1.
        -11    1    1    2    0    0 -0.39032565107E+01  0.11483448697E+02 -0.35442924678E+02  0.37460724968E+02  0.00000000000E+00 0.  1.
         11    1    1    2    0    0 -0.81778815295E+02 -0.62482251017E+02 -0.19453787214E+01  0.10293488632E+03  0.00000000000E+00 0. -1.
</event>
<event>
 7    1  0.2612321E-009  0.1496938E+03  0.7561462E-02  0.1200850E+00
         -1   -1    0    0    0  501 -0.00000000000E+00  0.00000000000E+00  0.48581596207E+03  0.48581596207E+03  0.00000000000E+00 0.  1.
          1   -1    0    0  501    0  0.00000000000E+00 -0.00000000000E+00 -0.58342108047E+02  0.58342108047E+02  0.00000000000E+00 0. -1.
         25    2    1    2    0    0  0.32817079117E+02  0.11643094784E+03  0.15767702614E+03  0.23482209097E+03  0.12508494530E+03 0.  0.
          5    1    3    3  502    0  0.62311200121E+02  0.66710967877E+02  0.32694398169E+02  0.97053773586E+02  0.41800000000E+01 0. -1.
         -5    1    3    3    0  502 -0.29494121004E+02  0.49719979966E+02  0.12498262797E+03  0.13776831738E+03  0.41800000000E+01 0. -1.
        -11    1    1    2    0    0 -0.58918512478E+02 -0.10726564564E+03  0.23425874441E+03  0.26429996062E+03  0.00000000000E+00 0.  1.
         11    1    1    2    0    0  0.26101433361E+02 -0.91653022027E+01  0.35538083469E+02  0.45036018525E+02  0.00000000000E+00 0. -1.
</event>
<event>
 7    1  0.2612321E-009  0.1240548E+03  0.7561462E-02  0.1236554E+00
         -1   -1    0    0    0  501 -0.00000000000E+00  0.00000000000E+00  0.21133446631E+02  0.21133446631E+02  0.00000000000E+00 0.  1.
          1   -1    0    0  501    0  0.00000000000E+00 -0.00000000000E+00 -0.89012709351E+03  0.89012709351E+03  0.00000000000E+00 0. -1.
         25    2    1    2    0    0 -0.14005699602E+02 -0.83124138351E+02 -0.50187566646E+03  0.52405259502E+03  0.12508459441E+03 0.  0.
          5    1    3    3  502    0  0.39986482749E+02 -0.41903920200E+02 -0.38043836123E+03  0.38484500312E+03  0.41800000000E+01 0. -1.
         -5    1    3    3    0  502 -0.53992182351E+02 -0.41220218151E+02 -0.12143730524E+03  0.13920759190E+03  0.41800000000E+01 0. -1.
        -11    1    1    2    0    0 -0.34128789095E+02  0.12155905703E+02 -0.13426493062E+03  0.13906693311E+03  0.00000000000E+00 0. -1.
         11    1    1    2    0    0  0.48134488697E+02  0.70968232648E+02 -0.23285304980E+03  0.24814101202E+03  0.00000000000E+00 0.  1.
</event>
<event>
 7    1  0.2612321E-009  0.1058513E+03  0.7561462E-02  0.1268451E+00
          3   -1    0    0  501    0  0.00000000000E+00  0.00000000000E+00  0.14258941382E+03  0.14258941382E+03  0.00000000000E+00 0. -1.
         -3   -1    0    0    0  501 -0.00000000000E+00 -0.00000000000E+00 -0.13390389811E+03  0.13390389811E+03  0.00000000000E+00 0.  1.
         25    2    1    2    0    0  0.83355537312E+02 -0.10301392067E+02  0.19726687711E+00  0.15067326786E+03  0.12509248760E+03 0.  0.
          5    1    3    3  502    0  0.40790539534E+02  0.96152561503E+01 -0.60549823842E+02  0.73756862959E+02  0.41800000000E+01 0. -1.
         -5    1    3    3    0  502  0.42564997778E+02 -0.19916648217E+02  0.60747090719E+02  0.76916404901E+02  0.41800000000E+01 0. -1.
        -11    1    1    2    0    0 -0.93409642850E+02  0.31799096412E+02  0.17909069773E+02  0.10028598451E+03  0.00000000000E+00 0. -1.
         11    1    1    2    0    0  0.10054105537E+02 -0.21497704345E+02 -0.94208209440E+01  0.25534059558E+02  0.00000000000E+00 0.  1.
</event>
<event>
 7    1  0.2612321E-009  0.9038452E+02  0.7561462E-02  0.1301923E+00
          1   -1    0    0  501    0  0.00000000000E+00  0.00000000000E+00  0.11216495211E+03  0.11216495211E+03  0.00000000000E+00 0. -1.
         -1   -1    0    0    0  501 -0.00000000000E+00 -0.00000000000E+00 -0.13189240090E+03  0.13189240090E+03  0.00000000000E+00 0.  1.
         25    2    1    2    0    0 -0.47647261985E+02  0.17601724812E+02 -0.33406776864E+02  0.13908013721E+03  0.12508872665E+03 0.  0.
          5    1    3    3  502    0  0.11817771566E+02 -0.26340751523E+02 -0.54725831278E+02  0.62015191079E+02  0.41800000000E+01 0.  1.
         -5    1    3    3    0  502 -0.59465033551E+02  0.43942476335E+02  0.21319054413E+02  0.77064946135E+02  0.41800000000E+01 0.  1.
        -11    1    1    2    0    0  0.33622030245E+02  0.18806280640E+02 -0.28197830690E+02  0.47741331830E+02  0.00000000000E+00 0.  1.
         11    1    1    2    0    0  0.14025231740E+02 -0.36408005452E+02  0.41877158764E+02  0.57235883959E+02  0.00000000000E+00 0. -1.
</event>
<event>
 7    1  0.2612321E-009  0.9409738E+02  0.7561462E-02  0.1293222E+00
         -1   -1    0    0    0  501 -0.00000000000E+00  0.00000000000E+00  0.80811518688E+03  0.80811518688E+03  0.00000000000E+00 0.  1.
          1   -1    0    0  501    0  0.00000000000E+00 -0.00000000000E+00 -0.28254774282E+02  0.28254774282E+02  0.00000000000E+00 0. -1.
         25    2    1    2    0    0 -0.46017426841E+02 -0.57070734373E+02  0.62392510111E+03  0.64055062128E+03  0.12509154379E+03 0.  0.
          5    1    3    3  502    0 -0.23124606970E+02 -0.68662935751E+02  0.15765962619E+03  0.17356087210E+03  0.41800000000E+01 0. -1.
         -5    1    3    3    0  502 -0.22892819871E+02  0.11592201377E+02  0.46626547492E+03  0.46698974918E+03  0.41800000000E+01 0. -1.
        -11    1    1    2    0    0  0.34262937626E+02  0.66332104955E+02  0.16298989272E+03  0.17927521349E+03  0.00000000000E+00 0.  1.
         11    1    1    2    0    0  0.11754489215E+02 -0.92613705816E+01 -0.70545812358E+01  0.16544126394E+02  0.00000000000E+00 0. -1.
</event>
<event>
 7    1  0.2915796E-009  0.1580354E+03  0.7561462E-02  0.1190933E+00
          2   -1    0    0  501    0  0.00000000000E+00  0.00000000000E+00  0.20757221333E+03  0.20757221333E+03  0.00000000000E+00 0. -1.
         -2   -1    0    0    0  501 -0.00000000000E+00 -0.00000000000E+00 -0.20673862307E+03  0.20673862307E+03  0.00000000000E+00 0.  1.
         25    2    1    2    0    0  0.75097164239E+02  0.10628367205E+03 -0.11806652768E+03  0.21569708255E+03  0.12509885468E+03 0.  0.
          5    1    3    3  502    0  0.96993637102E+02  0.41041746981E+02 -0.43175117811E+02  0.11390238730E+03  0.41800000000E+01 0. -1.
         -5    1    3    3    0  502 -0.21896472863E+02  0.65241925069E+02 -0.74891409871E+02  0.10179469526E+03  0.41800000000E+01 0. -1.
        -11    1    1    2    0    0 -0.69554016286E+02 -0.51213116444E+02  0.11403111509E+03  0.14305117855E+03  0.00000000000E+00 0. -1.
         11    1    1    2    0    0 -0.55431479525E+01 -0.55070555607E+02  0.48690028562E+01  0.55562575290E+02  0.00000000000E+00 0.  1.
</event>
<event>
 7    1  0.2612321E-009  0.8275017E+02  0.7561462E-02  0.1321423E+00
         -2   -1    0    0    0  501 -0.00000000000E+00  0.00000000000E+00  0.52528289886E+03  0.52528289886E+03  0.00000000000E+00 0.  1.
          2   -1    0    0  501    0  0.00000000000E+00 -0.00000000000E+00 -0.41058943993E+02  0.41058943993E+02  0.00000000000E+00 0. -1.
         25    2    1    2    0    0 -0.29792405349E+02 -0.27155482040E+02  0.43485803677E+03  0.45428431858E+03  0.12509085633E+03 0.  0.
          5    1    3    3  502    0 -0.52878135197E+02  0.73763649947E+01  0.38737147581E+03  0.39105580243E+03  0.41800000000E+01 0. -1.
         -5    1    3    3    0  502  0.23085729848E+02 -0.34531847035E+02  0.47486560964E+02  0.63228516150E+02  0.41800000000E+01 0. -1.
        -11    1    1    2    0    0  0.31113588785E+02 -0.10259006622E+02 -0.16206246825E+02  0.36550582213E+02  0.00000000000E+00 0. -1.
         11    1    1    2    0    0 -0.13211834368E+01  0.37414488662E+02  0.65572164923E+02  0.75506942066E+02  0.00000000000E+00 0.  1.
</event>
<event>
 6    1  0.2612321E-009  0.1207400E+03  0.7561462E-02  0.1241881E+00
          1   -1    0    0  501    0  0.00000000000E+00  0.00000000000E+00  0.10668861604E+03  0.10668861604E+03  0.00000000000E+00 0. -1.
         -1   -1    0    0    0  501 -0.00000000000E+00 -0.00000000000E+00 -0.16532762733E+03  0.16532762733E+03  0.00000000000E+00 0.  1.
          5    1    1    2  502    0 -0.23138268389E+02 -0.24634154192E+02 -0.47955672377E+02  0.58817003748E+02  0.41800000000E+01 0.  1.
         -5    1    1    2    0  502 -0.21338113003E+02  0.86645053601E+02  0.18435033187E+02  0.91214051706E+02  0.41800000000E+01 0.  1.
        -11    1    1    2    0    0  0.58212986358E+02 -0.38579320408E+01 -0.96030740125E+01  0.59125751165E+02  0.00000000000E+00 0.  1.
         11    1    1    2    0    0 -0.13736604966E+02 -0.58152967369E+02 -0.19515298088E+02  0.62859436756E+02  0.00000000000E+00 0. -1.
</event>
<event>
 7    1  0.2612321E-009  0.5325563E+03  0.7561462E-02  0.1005614E+00
          2   -1    0    0  501    0  0.00000000000E+00  0.00000000000E+00  0.87082063522E+03  0.87082063522E+03  0.00000000000E+00 0. -1.
         -2   -1    0    0    0  501 -0.00000000000E+00 -0.00000000000E+00 -0.33574351243E+03  0.33574351243E+03  0.00000000000E+00 0.  1.
         25    2    1    2    0    0  0.50883505148E+03 -0.10838207719E+03  0.36360399463E+03  0.64692762764E+03  0.12509079191E+03 0.  0.
          5    1    3    3  502    0  0.48345000496E+03 -0.12946243334E+03  0.35121000438E+03  0.61143304501E+03  0.41800000000E+01 0.  1.
         -5    1    3    3    0  502  0.25385046519E+02  0.21080356151E+02  0.12393990245E+02  0.35494582635E+02  0.41800000000E+01 0.  1.
        -11    1    1    2    0    0 -0.39541626084E+03  0.12929812825E+03  0.15055359070E+03  0.44242333684E+03  0.00000000000E+00 0.  1.
         11    1    1    2    0    0 -0.11341879064E+03 -0.20916051057E+02  0.20919537457E+02  0.11721318317E+03  0.00000000000E+00 0. -1.
</event>
<event>
 7    1  0.2612321E-009  0.1475666E+03  0.7561462E-02  0.1203495E+00
         -3   -1    0    0    0  501 -0.00000000000E+00  0.00000000000E+00  0.39215242895E+02  0.39215242895E+02  0.00000000000E+00 0.  1.
          3   -1    0    0  501    0  0.00000000000E+00 -0.00000000000E+00 -0.67003983133E+03  0.67003983133E+03  0.00000000000E+00 0. -1.
         25    2    1    2    0    0  0.11422308752E+03  0.32867018906E+02 -0.41686002170E+03  0.45116119870E+03  0.12508794852E+03 0.  0.
          5    1    3    3  502    0  0.14151945283E+03  0.29262226202E+02 -0.35575420611E+03  0.38400854284E+03  0.41800000000E+01 0. -1.
         -5    1    3    3    0  502 -0.27296365308E+02  0.36047927039E+01 -0.61105815592E+02  0.67152655856E+02  0.41800000000E+01 0. -1.
        -11    1    1    2    0    0 -0.36728347412E+02 -0.25820762142E+02 -0.15238503322E+03  0.15886120235E+03  0.00000000000E+00 0. -1.
         11    1    1    2    0    0 -0.77494740110E+02 -0.70462567640E+01 -0.61579533515E+02  0.99232673183E+02  0.00000000000E+00 0.  1.
</event>
<event>
 7    1  0.2612321E-009  0.1021946E+03  0.7561462E-02  0.1275747E+00
         -1   -1    0    0    0  501 -0.00000000000E+00  0.00000000000E+00  0.35518850654E+02  0.35518850654E+02  0.00000000000E+00 0.  1.
          1   -1    0    0  501    0  0.00000000000E+00 -0.00000000000E+00 -0.76068850222E+03  0.76068850222E+03  0.00000000000E+00 0. -1.
         25    2    1    2    0    0  0.45411040627E+02 -0.10465472533E+02 -0.65971524375E+03  0.67308557124E+03  0.12509314387E+03 0.  0.
          5    1    3    3  502    0 -0.67361348673E+00  0.38569809347E+02 -0.47266928440E+03  0.47425922106E+03  0.41800000000E+01 0.  1.
         -5    1    3    3    0  502  0.46084654113E+02 -0.49035281879E+02 -0.18704595935E+03  0.19882635018E+03  0.41800000000E+01 0.  1.
        -11    1    1    2    0    0  0.24661500191E+02 -0.75925639677E+01 -0.38541582266E+00  0.25806688370E+02  0.00000000000E+00 0. -1.
         11    1    1    2    0    0 -0.70072540817E+02  0.18058036500E+02 -0.65068991990E+02  0.97315093266E+02  0.00000000000E+00 0.  1.
</event>
<event>
 7    1  0.2612321E-009  0.2025952E+03  0.7561462E-02  0.1147568E+00
         -2   -1    0    0    0  501 -0.00000000000E+00  0.00000000000E+00  0.46184263166E+02  0.46184263166E+02  0.00000000000E+00 0.  1.
          2   -1    0    0  501    0  0.00000000000E+00 -0.00000000000E+00 -0.92230966032E+03  0.92230966032E+03  0.00000000000E+00 0. -1.
         25    2    1    2    0    0 -0.14153357560E+03  0.97371910767E+02 -0.37798466389E+03  0.43362770757E+03  0.12509012994E+03 0.  0.
          5    1    3    3  502    0 -0.16226321327E+03  0.97452900108E+02 -0.35543731887E+03  0.40271525693E+03  0.41800000000E+01 0. -1.
         -5    1    3    3    0  502  0.20729637667E+02 -0.80989341526E-01 -0.22547345024E+02  0.30912450642E+02  0.41800000000E+01 0. -1.
        -11    1    1    2    0    0  0.13904346668E+03 -0.50728035416E+02 -0.37301711128E+03  0.40130809176E+03  0.00000000000E+00 0. -1.
         11    1    1    2    0    0  0.24901089222E+01 -0.46643875351E+02 -0.12512362198E+03  0.13355812416E+03  0.00000000000E+00 0.  1.
</event>
<event>
 7    1  0.2612321E-009  0.1102512E+03  0.7561462E-02  0.1260105E+00
         -2   -1    0    0    0  501 -0.00000000000E+00  0.00000000000E+00  0.42215167547E+03  0.42215167547E+03  0.00000000000E+00 0.  1.
          2   -1    0    0  501    0  0.00000000000E+00 -0.00000000000E+00 -0.55367837945E+02  0.55367837945E+02  0.00000000000E+00 0. -1.
         25    2    1    2    0    0  0.84906530660E+02  0.40071641720E+02  0.11479520629E+03  0.19401322641E+03  0.12509331403E+03 0.  0.
          5    1    3    3  502    0  0.30127863385E+01 -0.14349922573E+02 -0.21218161645E+02  0.26128144652E+02  0.41800000000E+01 0. -1.
         -5    1    3    3    0  502  0.81893744321E+02  0.54421564293E+02  0.13601336793E+03  0.16788508175E+03  0.41800000000E+01 0. -1.
        -11    1    1    2    0    0 -0.86796602025E+02 -0.23175244328E+02  0.25086691361E+03  0.26646754102E+03  0.00000000000E+00 0.  1.
         11    1    1    2    0    0  0.18900713651E+01 -0.16896397393E+02  0.11217176319E+01  0.17038745994E+02  0.00000000000E+00 0. -1.
</event>
<event>
 7    1  0.2612321E-009  0.7203769E+02  0.7561462E-02  0.1353298E+00
          1   -1    0    0  501    0  0.00000000000E+00  0.00000000000E+00  0.12833951472E+03  0.12833951472E+03  0.00000000000E+00 0. -1.
         -1   -1    0    0    0  501 -0.00000000000E+00 -0.00000000000E+00 -0.12301403520E+03  0.12301403520E+03  0.00000000000E+00 0.  1.
         25    2    1    2    0    0 -0.16084780264E+02 -0.21794339540E+02 -0.51075892284E+02  0.13780878366E+03  0.12509516653E+03 0.  0.
          5    1    3    3  502    0 -0.43687033168E+02 -0.49235577745E+02  0.85225109270E+01  0.66504169610E+02  0.41800000000E+01 0.  1.
         -5    1    3    3    0  502  0.27602252904E+02  0.27441238205E+02 -0.59598403211E+02  0.71304614051E+02  0.41800000000E+01 0.  1.
        -11    1    1    2    0    0  0.20417930607E+02  0.41890136924E+01 -0.23616307915E+02  0.31498725776E+02  0.00000000000E+00 0.  1.
         11    1    1    2    0    0 -0.43331503428E+01  0.17605325848E+02  0.80017679723E+02  0.82046040479E+02  0.00000000000E+00 0. -1.
</event>
<event>
 7    1  0.2612321E-009  0.1698131E+03  0.7561462E-02  0.1178043E+00
          1   -1    0    0  501    0  0.00000000000E+00  0.00000000000E+00  0.11195783590E+03  0.11195783590E+03  0.00000000000E+00 0. -1.
         -1   -1    0    0    0  501 -0.00000000000E+00 -0.00000000000E+00 -0.44602159479E+03  0.44602159479E+03  0.00000000000E+00 0.  1.
         25    2    1    2    0    0 -0.11670156879E+03  0.92549170038E+02 -0.32976948356E+03  0.38285518924E+03  0.12508228737E+03 0.  0.
          5    1    3    3  502    0  0.16724320285E+02  0.17233025295E+02 -0.67127705190E+01  0.25282676636E+02  0.41800000000E+01 0. -1.
         -5    1    3    3    0  502 -0.13342588907E+03  0.75316144743E+02 -0.32305671304E+03  0.35757251261E+03  0.41800000000E+01 0. -1.
        -11    1    1    2    0    0  0.45761436972E+02 -0.76661609915E+02 -0.35411188463E+02  0.96047195778E+02  0.00000000000E+00 0.  1.
         11    1    1    2    0    0  0.70940131816E+02 -0.15887560123E+02  0.31116913124E+02  0.79077045665E+02  0.00000000000E+00 0. -1.
</event>
<event>
 7    1  0.2612321E-009  0.1402430E+03  0.7561462E-02  0.1213002E+00
         -1   -1    0    0    0  501 -0.00000000000E+00  0.00000000000E+00  0.87080163945E+02  0.87080163945E+02  0.00000000000E+00 0.  1.
          1   -1    0    0  501    0  0.00000000000E+00 -0.00000000000E+00 -0.29401632927E+03  0.29401632927E+03  0.00000000000E+00 0. -1.
         25    2    1    2    0    0  0.31093709111E+02  0.88895054485E+02 -0.19460366428E+03  0.24977571001E+03  0.12509264448E+03 0.  0.
          5    1    3    3  502    0 -0.19600571842E+02  0.98591990546E+02 -0.15409634995E+03  0.18403184638E+03  0.41800000000E+01 0. -1.
         -5    1    3    3    0  502  0.50694280953E+02 -0.96969360603E+01 -0.40507314330E+02  0.65743863626E+02  0.41800000000E+01 0. -1.
        -11    1    1    2    0    0 -0.45638801634E+02 -0.85355311375E+01  0.81165852550E+01  0.47134217534E+02  0.00000000000E+00 0.  1.
         11    1    1    2    0    0  0.14545092523E+02 -0.80359523348E+02 -0.20449086304E+02  0.84186565673E+02  0.00000000000E+00 0. -1.
</event>
<event>
 7    1  0.2612321E-009  0.3563064E+03  0.7561462E-02  0.1060056E+00
         -2   -1    0    0    0  501 -0.00000000000E+00  0.00000000000E+00  0.12517780894E+04  0.12517780894E+04  0.00000000000E+00 0.  1.
          2   -1    0    0  501    0  0.00000000000E+00 -0.00000000000E+00 -0.12085731416E+03  0.12085731416E+03  0.00000000000E+00 0. -1.
         25    2    1    2    0    0  0.17241875588E+03  0.29276804574E+03  0.84496097599E+03  0.91926535016E+03  0.12509347338E+03 0.  0.
          5    1    3    3  502    0  0.15636366421E+03  0.30329390672E+03  0.81344699498E+03  0.88212826470E+03  0.41800000000E+01 0.  1.
         -5    1    3    3    0  502  0.16055091676E+02 -0.10525860976E+02  0.31513981009E+02  0.37137085468E+02  0.41800000000E+01 0.  1.
        -11    1    1    2    0    0 -0.21013793260E+02 -0.12069731726E+03  0.94471840681E+02  0.15470730617E+03  0.00000000000E+00 0.  1.
         11    1    1    2    0    0 -0.15140496262E+03 -0.17207072848E+03  0.19148795861E+03  0.29866274726E+03  0.00000000000E+00 0. -1.
</event>
<event>
 7    1  0.5702358E-009  0.1963330E+03  0.7561462E-02  0.1152870E+00
          1   -1    0    0  501    0  0.00000000000E+00  0.00000000000E+00  0.10665680790E+04  0.10665680790E+04  0.00000000000E+00 0. -1.
         -1   -1    0    0    0  501 -0.00000000000E+00 -0.00000000000E+00 -0.42865618519E+02  0.42865618519E+02  0.00000000000E+00 0.  1.
         25    2    1    2    0    0 -0.14457557016E+03 -0.11343365385E+03  0.53518098763E+03  0.57951274413E+03  0.12508813603E+03 0.  0.
          5    1    3    3  502    0 -0.81204788907E+02 -0.11046377180E+03  0.23012516370E+03  0.26790208284E+03  0.41800000000E+01 0.  1.
         -5    1    3    3    0  502 -0.63370781256E+02 -0.29698820470E+01  0.30505582392E+03  0.31161066128E+03  0.41800000000E+01 0.  1.
        -11    1    1    2    0    0  0.40973770289E+02  0.39041138550E+01  0.42746005559E+02  0.59340651732E+02  0.00000000000E+00 0.  1.
         11    1    1    2    0    0  0.10360179987E+03  0.10952953999E+03  0.44577546728E+03  0.47058030165E+03  0.00000000000E+00 0. -1.
</event>
<event>
 7    1  0.2612321E-009  0.8876523E+02  0.7561462E-02  0.1305870E+00
         -1   -1    0    0    0  501 -0.00000000000E+00  0.00000000000E+00  0.29115593078E+02  0.29115593078E+02  0.00000000000E+00 0.  1.
          1   -1    0    0  501    0  0.00000000000E+00 -0.00000000000E+00 -0.41875505989E+03  0.41875505989E+03  0.00000000000E+00 0. -1.
         25    2    1    2    0    0 -0.79029716145E+01  0.14985703512E+01 -0.27359947559E+03  0.30094696093E+03  0.12509075736E+03 0.  0.
          5    1    3    3  502    0  0.45639773021E+02  0.15033516361E+02 -0.45809534075E+02  0.66520532979E+02  0.41800000000E+01 0. -1.
         -5    1    3    3    0  502 -0.53542744636E+02 -0.13534946010E+02 -0.22778994152E+03  0.23442642795E+03  0.41800000000E+01 0. -1.
        -11    1    1    2    0    0  0.27446275262E+02  0.27558363906E+02 -0.10205725318E+03  0.10921741790E+03  0.00000000000E+00 0. -1.
         11    1    1    2    0    0 -0.19543303648E+02 -0.29056934257E+02 -0.13982738041E+02  0.37706274133E+02  0.00000000000E+00 0.  1.
</event>
<event>
 7    1  0.2612321E-009  0.1089944E+03  0.7561462E-02  0.1262444E+00
         -1   -1    0    0    0  501 -0.00000000000E+00  0.00000000000E+00  0.11677726365E+03  0.11677726365E+03  0.00000000000E+00 0.  1.
          1   -1    0    0  501    0  0.00000000000E+00 -0.00000000000E+00 -0.10936785618E+03  0.10936785618E+03  0.00000000000E+00 0. -1.
         25    2    1    2    0    0  0.16570955474E+02 -0.32380563125E+02  0.13073889907E+02  0.13092817825E+03  0.12509262100E+03 0.  0.
          5    1    3    3  502    0 -0.13961886393E+02 -0.75677984073E+02  0.57806899297E+01  0.77285058848E+02  0.41800000000E+01 0.  1.
         -5    1    3    3    0  502  0.30532841867E+02  0.43297420949E+02  0.72931999771E+01  0.53643119402E+02  0.41800000000E+01 0.  1.
        -11    1    1    2    0    0 -0.32997278126E+02 -0.16007405877E+02  0.15618063771E+02  0.39862028581E+02  0.00000000000E+00 0.  1.
         11    1    1    2    0    0  0.16426322653E+02  0.48387969002E+02 -0.21282546201E+02  0.55354912996E+02  0.00000000000E+00 0. -1.
</event>
<event>
 7    1  0.2612321E-009  0.9572446E+02  0.7561462E-02  0.1289553E+00
         -2   -1    0    0    0  501 -0.00000000000E+00  0.00000000000E+00  0.42454456867E+02  0.42454456867E+02  0.00000000000E+00 0. -1.
          2   -1    0    0  501    0  0.00000000000E+00 -0.00000000000E+00 -0.30892580642E+03  0.30892580642E+03  0.00000000000E+00 0.  1.
         25    2    1    2    0    0 -0.36355790101E+02  0.12505766824E+02 -0.14475753327E+03  0.19514399223E+03  0.12509315164E+03 0.  0.
          5    1    3    3  502    0  0.35249616997E+02  0.98584773475E+01 -0.10879363487E+03  0.11486188429E+03  0.41800000000E+01 0.  1.
         -5    1    3    3    0  502 -0.71605407098E+02  0.26472894769E+01 -0.35963898393E+02  0.80282107937E+02  0.41800000000E+01 0.  1.
        -11    1    1    2    0    0  0.35623807548E+02 -0.41008298024E+02 -0.11464224755E+03  0.12686047885E+03  0.00000000000E+00 0.  1.
         11    1    1    2    0    0  0.73198255273E+00  0.28502531199E+02 -0.70715687347E+01  0.29375792204E+02  0.00000000000E+00 0. -1.
</event>
<event>
 7    1  0.2612321E-009  0.1089146E+03  0.7561462E-02  0.1262593E+00
          1   -1    0    0  501    0  0.00000000000E+00  0.00000000000E+00  0.59764122034E+03  0.59764122034E+03  0.00000000000E+00 0. -1.
         -1   -1    0    0    0  501 -0.00000000000E+00 -0.00000000000E+00 -0.21430697804E+02  0.21430697804E+02  0.00000000000E+00 0.  1.
         25    2    1    2    0    0 -0.28767377169E+02 -0.34568362748E+02  0.27235141626E+03  0.30305480134E+03  0.12507751590E+03 0.  0.
          5    1    3    3  502    0  0.38651864555E+02 -0.49916184402E+02  0.14143580954E+03  0.15494241743E+03  0.41800000000E+01 0. -1.
         -5    1    3    3    0  502 -0.67419241724E+02  0.15347821653E+02  0.13091560671E+03  0.14811238390E+03  0.41800000000E+01 0. -1.
        -11    1    1    2    0    0 -0.19495889347E+02  0.31351171257E+02  0.10302256968E+03  0.10943781570E+03  0.00000000000E+00 0.  1.
         11    1    1    2    0    0  0.48263266517E+02  0.32171914914E+01  0.20083653660E+03  0.20657930111E+03  0.00000000000E+00 0. -1.
</event>
<event>
 7    1  0.2612321E-009  0.1597235E+03  0.7561462E-02  0.1189009E+00
         -2   -1    0    0    0  501 -0.00000000000E+00  0.00000000000E+00  0.47330501803E+02  0.47330501803E+02  0.00000000000E+00 0. -1.
          2   -1    0    0  501    0  0.00000000000E+00 -0.00000000000E+00 -0.72190449851E+03  0.72190449851E+03  0.00000000000E+00 0.  1.
         25    2    1    2    0    0  0.35273866404E+01  0.13846627658E+03 -0.46784579382E+03  0.50369873512E+03  0.12508947502E+03 0.  0.
          5    1    3    3  502    0 -0.25514732067E+02  0.14681998677E+03 -0.42987064545E+03  0.45498720233E+03  0.41800000000E+01 0.  1.
         -5    1    3    3    0  502  0.29042118708E+02 -0.83537101857E+01 -0.37975148372E+02  0.48711532790E+02  0.41800000000E+01 0.  1.
        -11    1    1    2    0    0  0.77893597978E+01 -0.73968932266E+02 -0.18008634606E+03  0.19484139474E+03  0.00000000000E+00 0.  1.
         11    1    1    2    0    0 -0.11316746438E+02 -0.64497344314E+02 -0.26641856830E+02  0.70694870456E+02  0.00000000000E+00 0. -1.
</event>
<event>
 7    1  0.2612321E-009  0.1204082E+03  0.7561462E-02  0.1242425E+00
          1   -1    0    0  501    0  0.00000000000E+00  0.00000000000E+00  0.68527311535E+03  0.68527311535E+03  0.00000000000E+00 0. -1.
         -1   -1    0    0    0  501 -0.00000000000E+00 -0.00000000000E+00 -0.50801641902E+02  0.50801641902E+02  0.00000000000E+00 0.  1.
         25    2    1    2    0    0  0.48891743119E+02 -0.89479632004E+02  0.55677667967E+03  0.57969649658E+03  0.12510295770E+03 0.  0.
          5    1    3    3  502    0  0.27506190100E+02 -0.22082582388E+02  0.25517367794E+02  0.43736019456E+02  0.41800000000E+01 0.  1.
         -5    1    3    3    0  502  0.21385553019E+02 -0.67397049616E+02  0.53125931188E+03  0.53596047712E+03  0.41800000000E+01 0.  1.
        -11    1    1    2    0    0 -0.21004420865E+02  0.10182309284E+03  0.68579196055E+02  0.12454811947E+03  0.00000000000E+00 0. -1.
         11    1    1    2    0    0 -0.27887322254E+02 -0.12343460833E+02  0.91155977193E+01  0.31830141212E+02  0.00000000000E+00 0.  1.
</event>
<event>
 7    1  0.2612321E-009  0.2250604E+03  0.7561462E-02  0.1130166E+00
          2   -1    0    0  501    0  0.00000000000E+00  0.00000000000E+00  0.12571356885E+04  0.12571356885E+04  0.00000000000E+00 0. -1.
         -2   -1    0    0    0  501 -0.00000000000E+00 -0.00000000000E+00 -0.10088813428E+03  0.10088813428E+03  0.00000000000E+00 0.  1.
         25    2    1    2    0    0  0.20476020008E+03  0.64938119703E+01  0.11009194968E+04  0.11267834757E+04  0.12509337981E+03 0.  0.
          5    1    3    3  502    0  0.55252645086E+02  0.53555702036E+02  0.49211166765E+03  0.49810885742E+03  0.41800000000E+01 0.  1.
         -5    1    3    3    0  502  0.14950755500E+03 -0.47061890066E+02  0.60880782910E+03  0.62867461829E+03  0.41800000000E+01 0.  1.
        -11    1    1    2    0    0 -0.59593320362E+02 -0.33858150897E+02 -0.10809690125E+02  0.69387229477E+02  0.00000000000E+00 0.  1.
         11    1    1    2    0    0 -0.14516687972E+03  0.27364338927E+02  0.66137747568E+02  0.16185311757E+03  0.00000000000E+00 0. -1.
</event>
<event>
 7    1  0.2612321E-009  0.1005411E+03  0.7561462E-02  0.1279162E+00
          2   -1    0    0  501    0  0.00000000000E+00  0.00000000000E+00  0.81979045093E+03  0.81979045093E+03  0.00000000000E+00 0.  1.
         -2   -1    0    0    0  501 -0.00000000000E+00 -0.00000000000E+00 -0.13297855359E+02  0.13297855359E+02  0.00000000000E+00 0. -1.
         25    2    1    2    0    0 -0.39185147655E+01  0.93636680500E+01  0.45464156853E+03  0.47164645168E+03  0.12509351109E+03 0.  0.
          5    1    3    3  502    0 -0.61906331579E+02  0.37149585475E+01  0.16839472196E+03  0.17950055596E+03  0.41800000000E+01 0. -1.
         -5    1    3    3    0  502  0.57987816813E+02  0.56487095025E+01  0.28624684656E+03  0.29214589572E+03  0.41800000000E+01 0. -1.
        -11    1    1    2    0    0  0.39900801133E+02  0.77832239350E+01  0.21896148420E+03  0.22270335441E+03  0.00000000000E+00 0.  1.
         11    1    1    2    0    0 -0.35982286368E+02 -0.17146891985E+02  0.13288954285E+03  0.13873850019E+03  0.00000000000E+00 0. -1.
</event>
<event>
 7    1  0.2612321E-009  0.1020164E+03  0.7561462E-02  0.1276112E+00
         -2   -1    0    0    0  501 -0.00000000000E+00  0.00000000000E+00  0.31667206857E+02  0.31667206857E+02  0.00000000000E+00 0.  1.
          2   -1    0    0  501    0  0.00000000000E+00 -0.00000000000E+00 -0.49509740552E+03  0.49509740552E+03  0.00000000000E+00 0. -1.
         25    2    1    2    0    0 -0.13032014419E+02  0.56716826165E+02 -0.31100953500E+03  0.34023628739E+03  0.12508864308E+03 0.  0.
          5    1    3    3  502    0 -0.34215357249E+02 -0.23968294331E+02 -0.18026760313E+03  0.18509200670E+03  0.41800000000E+01 0.  1.
         -5    1    3    3    0  502  0.21183342830E+02  0.80685120496E+02 -0.13074193186E+03  0.15514428069E+03  0.41800000000E+01 0.  1.
        -11    1    1    2    0    0  0.32777213504E+02 -0.44632291020E+02 -0.15367218712E+03  0.16334481388E+03  0.00000000000E+00 0. -1.
         11    1    1    2    0    0 -0.19745199085E+02 -0.12084535145E+02  0.12515234511E+01  0.23183511113E+02  0.00000000000E+00 0.  1.
</event>
<event>
 7    1  0.2612321E-009  0.1579293E+03  0.7561462E-02  0.1191055E+00
          2   -1    0    0  501    0  0.00000000000E+00  0.00000000000E+00  0.71560595334E+03  0.71560595334E+03  0.00000000000E+00 0. -1.
         -2   -1    0    0    0  501 -0.00000000000E+00 -0.00000000000E+00 -0.40873176110E+02  0.40873176110E+02  0.00000000000E+00 0.  1.
         25    2    1    2    0    0  0.11331847605E+03 -0.43768744617E+02  0.25763049244E+03  0.31109166775E+03  0.12509106719E+03 0.  0.
          5    1    3    3  502    0  0.92768444247E+02 -0.83493767249E+02  0.15489748510E+03  0.19896707443E+03  0.41800000000E+01 0.  1.
         -5    1    3    3    0  502  0.20550031799E+02  0.39725022632E+02  0.10273300734E+03  0.11212459332E+03  0.41800000000E+01 0.  1.
        -11    1    1    2    0    0 -0.10047768254E+03  0.66120588310E+02  0.26373167420E+03  0.28986564623E+03  0.00000000000E+00 0.  1.
         11    1    1    2    0    0 -0.12840793507E+02 -0.22351843693E+02  0.15337061059E+03  0.15552181547E+03  0.00000000000E+00 0. -1.
</event>
<event>
 7    1  0.2612321E-009  0.1041401E+03  0.7561462E-02  0.1271823E+00
          3   -1    0    0  501    0  0.00000000000E+00  0.00000000000E+00  0.20459665297E+03  0.20459665297E+03  0.00000000000E+00 0. -1.
         -3   -1    0    0    0  501 -0.00000000000E+00 -0.00000000000E+00 -0.86381357091E+02  0.86381357091E+02  0.00000000000E+00 0.  1.
         25    2    1    2    0    0 -0.61780371494E+02 -0.11639171014E+02  0.15471975803E+02  0.14085001112E+03  0.12508820485E+03 0.  0.
          5    1    3    3  502    0 -0.90547046475E+02  0.14004104357E+02  0.34087914233E+02  0.97848560853E+02  0.41800000000E+01 0.  1.
         -5    1    3    3    0  502  0.28766674981E+02 -0.25643275371E+02 -0.18615938430E+02  0.43001450265E+02  0.41800000000E+01 0.  1.
        -11    1    1    2    0    0  0.22704716087E+02 -0.17819490633E+02 -0.72336103802E+01  0.29755058362E+02  0.00000000000E+00 0.  1.
         11    1    1    2    0    0  0.39075655407E+02  0.29458661647E+02  0.10997693046E+03  0.12037294058E+03  0.00000000000E+00 0. -1.
</event>
<event>
 7    1  0.2612321E-009  0.2600921E+03  0.7561462E-02  0.1107088E+00
         -1   -1    0    0    0  501 -0.00000000000E+00  0.00000000000E+00  0.41403681242E+02  0.41403681242E+02  0.00000000000E+00 0.  1.
          1   -1    0    0  501    0  0.00000000000E+00 -0.00000000000E+00 -0.21251175021E+04  0.21251175021E+04  0.00000000000E+00 0. -1.
         25    2    1    2    0    0  0.17333473444E+03  0.18577882480E+03 -0.14567611096E+04  0.14840345904E+04  0.12508810227E+03 0.  0.
          5    1    3    3  502    0  0.97814207779E+02  0.13100434613E+03 -0.58969044097E+03  0.61194938232E+03  0.41800000000E+01 0. -1.
         -5    1    3    3    0  502  0.75520526665E+02  0.54774478671E+02 -0.86707066861E+03  0.87208520812E+03  0.41800000000E+01 0. -1.
        -11    1    1    2    0    0 -0.73959054848E+02 -0.12927354686E+03 -0.42611842760E+03  0.45139617417E+03  0.00000000000E+00 0. -1.
         11    1    1    2    0    0 -0.99375679596E+02 -0.56505277936E+02 -0.20083428366E+03  0.23109041872E+03  0.00000000000E+00 0.  1.
</event>
<event>
 7    1  0.2612321E-009  0.9787520E+02  0.7561462E-02  0.1284829E+00
          1   -1    0    0  501    0  0.00000000000E+00  0.00000000000E+00  0.56781125015E+03  0.56781125015E+03  0.00000000000E+00 0. -1.
         -1   -1    0    0    0  501 -0.00000000000E+00 -0.00000000000E+00 -0.28068293068E+02  0.28068293068E+02  0.00000000000E+00 0.  1.
         25    2    1    2    0    0  0.46994156641E+02 -0.16966012013E+02  0.41112816988E+03  0.43263067709E+03  0.12508650756E+03 0.  0.
          5    1    3    3  502    0  0.48738142012E+02  0.48599431781E+02  0.20685975413E+03  0.21804986021E+03  0.41800000000E+01 0. -1.
         -5    1    3    3    0  502 -0.17439853711E+01 -0.65565443794E+02  0.20426841575E+03  0.21458081689E+03  0.41800000000E+01 0. -1.
        -11    1    1    2    0    0 -0.30940349111E+02 -0.74762928791E+01  0.13013019054E+03  0.13396666245E+03  0.00000000000E+00 0. -1.
         11    1    1    2    0    0 -0.16053807529E+02  0.24442304892E+02 -0.15154033361E+01  0.29282203672E+02  0.00000000000E+00 0.  1.
</event>
<event>
 7    1  0.2612321E-009  0.9072139E+02  0.7561462E-02  0.1301114E+00
         -2   -1    0    0    0  501 -0.00000000000E+00  0.00000000000E+00  0.62302086773E+02  0.62302086773E+02  0.00000000000E+00 0.  1.
          2   -1    0    0  501    0  0.00000000000E+00 -0.00000000000E+00 -0.23653866159E+03  0.23653866159E+03  0.00000000000E+00 0. -1.
         25    2    1    2    0    0  0.42694172031E+02 -0.52057747704E+00 -0.56348374524E+02  0.14368758535E+03  0.12509164459E+03 0.  0.
          5    1    3    3  502    0 -0.14885851993E+02 -0.27318906785E+02  0.25190384082E+02  0.40248467147E+02  0.41800000000E+01 0. -1.
         -5    1    3    3    0  502  0.57580024024E+02  0.26798329308E+02 -0.81538758606E+02  0.10343911821E+03  0.41800000000E+01 0. -1.
        -11    1    1    2    0    0 -0.19085328928E+02  0.37761221377E+02 -0.18027264714E+02  0.45990671807E+02  0.00000000000E+00 0.  1.
         11    1    1    2    0    0 -0.23608843103E+02 -0.37240643900E+02 -0.99860935575E+02  0.10916249120E+03  0.00000000000E+00 0. -1.
</event>
<event>
 7    1  0.2612321E-009  0.1492014E+03  0.7561462E-02  0.1201458E+00
         -1   -1    0    0    0  501 -0.00000000000E+00  0.00000000000E+00  0.33550541844E+03  0.33550541844E+03  0.00000000000E+00 0.  1.
          1   -1    0    0  501    0  0.00000000000E+00 -0.00000000000E+00 -0.11105648117E+03  0.11105648117E+03  0.00000000000E+00 0. -1.
         25    2    1    2    0    0 -0.10575899592E+03  0.92404893871E+02  0.20229468938E+03  0.27622008307E+03  0.12510301079E+03 0.  0.
          5    1    3    3  502    0 -0.90795131592E+02  0.10432802357E+03  0.96661816775E+02  0.16878706006E+03  0.41800000000E+01 0. -1.
         -5    1    3    3    0  502 -0.14963864333E+02 -0.11923129697E+02  0.10563287261E+03  0.10743302301E+03  0.41800000000E+01 0. -1.
        -11    1    1    2    0    0  0.29957715438E+02 -0.27184895338E+02 -0.36436671192E+02  0.54443679673E+02  0.00000000000E+00 0. -1.
         11    1    1    2    0    0  0.75801280486E+02 -0.65219998533E+02  0.58590919074E+02  0.11589813687E+03  0.00000000000E+00 0.  1.
</event>
<event>
 7    1  0.2969553E-009  0.3039979E+03  0.7561462E-02  0.1083259E+00
         -2   -1    0    0    0  501 -0.00000000000E+00  0.00000000000E+00  0.87221438026E+02  0.87221438026E+02  0.00000000000E+00 0.  1.
          2   -1    0    0  501    0  0.00000000000E+00 -0.00000000000E+00 -0.11155224411E+04  0.11155224411E+04  0.00000000000E+00 0. -1.
         25    2    1    2    0    0  0.21529896135E+03  0.18724707839E+03 -0.40484179119E+03  0.51084246992E+03  0.12509213427E+03 0.  0.
          5    1    3    3  502    0  0.57068306189E+02 -0.69832877132E+01 -0.49116009292E+02  0.75732507203E+02  0.41800000000E+01 0.  1.
         -5    1    3    3    0  502  0.15823065516E+03  0.19423036610E+03 -0.35572578190E+03  0.43510996272E+03  0.41800000000E+01 0.  1.
        -11    1    1    2    0    0 -0.40113231676E+02 -0.92050316631E+02 -0.19559385243E+03  0.21986197319E+03  0.00000000000E+00 0.  1.
         11    1    1    2    0    0 -0.17518572967E+03 -0.95196761757E+02 -0.42786535944E+03  0.47203943600E+03  0.00000000000E+00 0. -1.
</event>
<event>
 7    1  0.2612321E-009  0.8385075E+02  0.7561462E-02  0.1318466E+00
         -1   -1    0    0    0  501 -0.00000000000E+00  0.00000000000E+00  0.46227565146E+03  0.46227565146E+03  0.00000000000E+00 0.  1.
          1   -1    0    0  501    0  0.00000000000E+00 -0.00000000000E+00 -0.40624634669E+02  0.40624634669E+02  0.00000000000E+00 0. -1.
         25    2    1    2    0    0 -0.21218550784E+02  0.46775634709E+01  0.37728136206E+03  0.39807086243E+03  0.12508828429E+03 0.  0.
          5    1    3    3  502    0 -0.22434969434E+02 -0.38202847731E+02  0.46016605555E+02  0.64013950159E+02  0.41800000000E+01 0.  1.
         -5    1    3    3    0  502  0.12164186497E+01  0.42880411201E+02  0.33126475650E+03  0.33405691227E+03  0.41800000000E+01 0.  1.
        -11    1    1    2    0    0  0.92512638536E+01 -0.40909979700E+02 -0.52110666850E+01  0.42265441414E+02  0.00000000000E+00 0. -1.
         11    1    1    2    0    0  0.11967286930E+02  0.36232416229E+02  0.49580721425E+02  0.62563982284E+02  0.00000000000E+00 0.  1.
</event>
<event>
 7    1  0.2612321E-009  0.6680177E+02  0.7561462E-02  0.1371319E+00
          2   -1    0    0  501    0  0.00000000000E+00  0.00000000000E+00  0.84167660410E+03  0.84167660410E+03  0.00000000000E+00 0. -1.
         -2   -1    0    0    0  501 -0.00000000000E+00 -0.00000000000E+00 -0.14133286361E+02  0.14133286361E+02  0.00000000000E+00 0.  1.
         25    2    1    2    0    0 -0.96309792026E+01  0.13803184995E+02  0.48779446774E+03  0.50385907232E+03  0.12508892169E+03 0.  0.
          5    1    3    3  502    0 -0.16359130005E+02 -0.95927164881E+01  0.47615992230E+03  0.47655575262E+03  0.41800000000E+01 0. -1.
         -5    1    3    3    0  502  0.67281508023E+01  0.23395901483E+02  0.11634545433E+02  0.27303319704E+02  0.41800000000E+01 0. -1.
        -11    1    1    2    0    0  0.42722842488E+02 -0.30427609034E+02  0.23692478727E+03  0.24266115364E+03  0.00000000000E+00 0. -1.
         11    1    1    2    0    0 -0.33091863285E+02  0.16624424039E+02  0.10282406273E+03  0.10928966450E+03  0.00000000000E+00 0.  1.
</event>
<event>
 7    1  0.2612321E-009  0.1107173E+03  0.7561462E-02  0.1259247E+00
         -1   -1    0    0    0  501 -0.00000000000E+00  0.00000000000E+00  0.13611879557E+03  0.13611879557E+03  0.00000000000E+00 0.  1.
          1   -1    0    0  501    0  0.00000000000E+00 -0.00000000000E+00 -0.12528147436E+03  0.12528147436E+03  0.00000000000E+00 0. -1.
         25    2    1    2    0    0 -0.25555219582E+02  0.18080202765E+02  0.70979085231E+02  0.14719300661E+03  0.12509111749E+03 0.  0.
          5    1    3    3  502    0  0.50544026459E+02  0.44602740002E+00  0.27456551054E+02  0.57673496052E+02  0.41800000000E+01 0.  1.
         -5    1    3    3    0  502 -0.76099246041E+02  0.17634175365E+02  0.43522534177E+02  0.89519510555E+02  0.41800000000E+01 0.  1.
        -11    1    1    2    0    0 -0.28134465398E+02 -0.25889746813E+02 -0.82125915458E+01  0.39105930409E+02  0.00000000000E+00 0. -1.
         11    1    1    2    0    0  0.53689684980E+02  0.78095440472E+01 -0.51929172479E+02  0.75101332916E+02  0.00000000000E+00 0.  1.
</event>
<event>
 7    1  0.2612321E-009  0.1298257E+03  0.7561462E-02  0.1227715E+00
          1   -1    0    0  501    0  0.00000000000E+00  0.00000000000E+00  0.23029195282E+02  0.23029195282E+02  0.00000000000E+00 0. -1.
         -1   -1    0    0    0  501 -0.00000000000E+00 -0.00000000000E+00 -0.12310708757E+04  0.12310708757E+04  0.00000000000E+00 0.  1.
         25    2    1    2    0    0 -0.67360177564E+02 -0.70590192042E+02 -0.95318781039E+03  0.96629953612E+03  0.12508965942E+03 0.  0.
          5    1    3    3  502    0  0.18125320530E+02 -0.19973125159E+02 -0.44611372314E+02  0.52298182690E+02  0.41800000000E+01 0.  1.
         -5    1    3    3    0  502 -0.85485498094E+02 -0.50617066882E+02 -0.90857643807E+03  0.91400135343E+03  0.41800000000E+01 0.  1.
        -11    1    1    2    0    0 -0.22554514703E+02  0.11369458405E+02 -0.61640836770E+02  0.66615039410E+02  0.00000000000E+00 0. -1.
         11    1    1    2    0    0  0.89914692267E+02  0.59220733637E+02 -0.19321303326E+03  0.22118549546E+03  0.00000000000E+00 0.  1.
</event>
<event>
 7    1  0.2612321E-009  0.4944569E+02  0.7561462E-02  0.1448354E+00
         -1   -1    0    0    0  501 -0.00000000000E+00  0.00000000000E+00  0.67432308112E+02  0.67432308112E+02  0.00000000000E+00 0.  1.
          1   -1    0    0  501    0  0.00000000000E+00 -0.00000000000E+00 -0.21794128355E+03  0.21794128355E+03  0.00000000000E+00 0. -1.
         25    2    1    2    0    0 -0.51889498878E+01  0.43406263719E+01 -0.14790573232E+03  0.19382663396E+03  0.12508753791E+03 0.  0.
          5    1    3    3  502    0  0.15680240889E+02 -0.21242990335E+02 -0.15705397072E+03  0.15931276381E+03  0.41800000000E+01 0.  1.
         -5    1    3    3    0  502 -0.20869190777E+02  0.25583616707E+02  0.91482383938E+01  0.34513870157E+02  0.41800000000E+01 0.  1.
        -11    1    1    2    0    0 -0.15662378117E+02  0.44029998175E+01  0.40073735515E+02  0.43250442469E+02  0.00000000000E+00 0.  1.
         11    1    1    2    0    0  0.20851328005E+02 -0.87436261894E+01 -0.42676978625E+02  0.48296515227E+02  0.00000000000E+00 0. -1.
</event>
<event>
 7    1  0.2612321E-009  0.1915409E+03  0.7561462E-02  0.1157079E+00
         -1   -1    0    0    0  501 -0.00000000000E+00  0.00000000000E+00  0.38178410711E+03  0.38178410711E+03  0.00000000000E+00 0.  1.
          1   -1    0    0  501    0  0.00000000000E+00 -0.00000000000E+00 -0.11105675554E+03  0.11105675554E+03  0.00000000000E+00 0. -1.
         25    2    1    2    0    0 -0.17312151516E+03  0.11887756878E+02  0.16933249321E+03  0.27282488756E+03  0.12509016045E+03 0.  0.
          5    1    3    3  502    0 -0.12666235744E+02 -0.24815379926E+02 -0.95055944963E+01  0.29733236210E+02  0.41800000000E+01 0.  1.
         -5    1    3    3    0  502 -0.16045527942E+03  0.36703136804E+02  0.17883808770E+03  0.24309165135E+03  0.41800000000E+01 0.  1.
        -11    1    1    2    0    0  0.56864454967E+02  0.32870246732E+02  0.59387611628E+02  0.88548900466E+02  0.00000000000E+00 0.  1.
         11    1    1    2    0    0  0.11625706020E+03 -0.44758003610E+02  0.42007246731E+02  0.13146707462E+03  0.00000000000E+00 0. -1.
</event>
<event>
 7    1  0.2612321E-009  0.1779910E+03  0.7561462E-02  0.1169762E+00
          1   -1    0    0  501    0  0.00000000000E+00  0.00000000000E+00  0.22718367588E+04  0.22718367588E+04  0.00000000000E+00 0. -1.
         -1   -1    0    0    0  501 -0.00000000000E+00 -0.00000000000E+00 -0.21404863021E+02  0.21404863021E+02  0.00000000000E+00 0.  1.
         25    2    1    2    0    0  0.36003009115E+02 -0.14146859108E+03  0.18050628183E+04  0.18152706100E+04  0.12508409370E+03 0.  0.
          5    1    3    3  502    0  0.73573367799E+02 -0.12894116193E+03  0.12524126872E+04  0.12611874861E+04  0.41800000000E+01 0. -1.
         -5    1    3    3    0  502 -0.37570358684E+02 -0.12527429145E+02  0.55265013113E+03  0.55408312388E+03  0.41800000000E+01 0. -1.
        -11    1    1    2    0    0  0.26631234105E+02  0.33169917216E+02  0.66135911620E+02  0.78634755954E+02  0.00000000000E+00 0.  1.
         11    1    1    2    0    0 -0.62634243220E+02  0.10829867386E+03  0.37923316586E+03  0.39933625589E+03  0.00000000000E+00 0. -1.
</event>
<event>
 7    1  0.2612321E-009  0.2510712E+03  0.7561462E-02  0.1112630E+00
          2   -1    0    0  501    0  0.00000000000E+00  0.00000000000E+00  0.17459375197E+04  0.17459375197E+04  0.00000000000E+00 0. -1.
         -2   -1    0    0    0  501 -0.00000000000E+00 -0.00000000000E+00 -0.44992623917E+02  0.44992623917E+02  0.00000000000E+00 0.  1.
         25    2    1    2    0    0 -0.23734796289E+03  0.49143450530E+02  0.11510590058E+04  0.11829344056E+04  0.12509132177E+03 0.  0.
          5    1    3    3  502    0 -0.93542033402E+02 -0.24344603477E+02  0.26145970445E+03  0.27878561868E+03  0.41800000000E+01 0. -1.
         -5    1    3    3    0  502 -0.14380592949E+03  0.73488054007E+02  0.88959930135E+03  0.90414878687E+03  0.41800000000E+01 0. -1.
        -11    1    1    2    0    0  0.20252705225E+03 -0.32023902676E+02  0.36101362561E+03  0.41517896757E+03  0.00000000000E+00 0. -1.
         11    1    1    2    0    0  0.34820910639E+02 -0.17119547854E+02  0.18887226442E+03  0.19281677054E+03  0.00000000000E+00 0.  1.
</event>
<event>
 7    1  0.2612321E-009  0.2567316E+03  0.7561462E-02  0.1109123E+00
          2   -1    0    0  501    0  0.00000000000E+00  0.00000000000E+00  0.87223950248E+03  0.87223950248E+03  0.00000000000E+00 0. -1.
         -2   -1    0    0    0  501 -0.00000000000E+00 -0.00000000000E+00 -0.87110640107E+02  0.87110640107E+02  0.00000000000E+00 0.  1.
         25    2    1    2    0    0 -0.10796208331E+03 -0.22421593222E+03  0.31770724128E+03  0.42250859182E+03  0.12508806220E+03 0.  0.
          5    1    3    3  502    0  0.38516776996E+01 -0.42147077473E+02  0.37119016961E+01  0.42690305396E+02  0.41800000000E+01 0.  1.
         -5    1    3    3    0  502 -0.11181376101E+03 -0.18206885475E+03  0.31399533959E+03  0.37981828642E+03  0.41800000000E+01 0.  1.
        -11    1    1    2    0    0  0.59791221267E+02  0.18709701191E+03  0.29869188359E+03  0.35748723520E+03  0.00000000000E+00 0.  1.
         11    1    1    2    0    0  0.48170862046E+02  0.37118920306E+02  0.16872973750E+03  0.17935431556E+03  0.00000000000E+00 0. -1.
</event>
<event>
 7    1  0.2612321E-009  0.7775104E+02  0.7561462E-02  0.1335558E+00
          2   -1    0    0  501    0  0.00000000000E+00  0.00000000000E+00  0.95479943643E+02  0.95479943643E+02  0.00000000000E+00 0. -1.
         -2   -1    0    0    0  501 -0.00000000000E+00 -0.00000000000E+00 -0.15615758445E+03  0.15615758445E+03  0.00000000000E+00 0.  1.
         25    2    1    2    0    0 -0.26271852981E+02 -0.49828124542E+01  0.17979355749E+02  0.12918324416E+03  0.12510001862E+03 0.  0.
          5    1    3    3  502    0 -0.61461644031E+02 -0.74475320025E+01 -0.30451571221E+02  0.69121414986E+02  0.41800000000E+01 0.  1.
         -5    1    3    3    0  502  0.35189791050E+02  0.24647195484E+01  0.48430926969E+02  0.60061829174E+02  0.41800000000E+01 0.  1.
        -11    1    1    2    0    0 -0.18779707026E+01 -0.20121667785E+02  0.12527301172E+02  0.23776912396E+02  0.00000000000E+00 0. -1.
         11    1    1    2    0    0  0.28149823683E+02  0.25104480239E+02 -0.91184297731E+02  0.98677371541E+02  0.00000000000E+00 0.  1.
</event>
<event>
 7    1  0.2612321E-009  0.9091661E+02  0.7561462E-02  0.1300647E+00
          2   -1    0    0  501    0  0.00000000000E+00  0.00000000000E+00  0.57990237961E+03  0.57990237961E+03  0.00000000000E+00 0. -1.
         -2   -1    0    0    0  501 -0.00000000000E+00 -0.00000000000E+00 -0.20952622598E+02  0.20952622598E+02  0.00000000000E+00 0.  1.
         25    2    1    2    0    0 -0.69146181650E+01  0.98241278025E+01  0.37828541725E+03  0.39861274301E+03  0.12509171258E+03 0.  0.
          5    1    3    3  502    0  0.11603001494E+02  0.47352215726E+02  0.33390256985E+03  0.33746890306E+03  0.41800000000E+01 0. -1.
         -5    1    3    3    0  502 -0.18517619659E+02 -0.37528087923E+02  0.44382847395E+02  0.61143839950E+02  0.41800000000E+01 0. -1.
        -11    1    1    2    0    0 -0.34886277330E+02 -0.28513436778E+02  0.93036572109E+02  0.10337249234E+03  0.00000000000E+00 0.  1.
         11    1    1    2    0    0  0.41800895495E+02  0.18689308975E+02  0.87627767652E+02  0.98869766854E+02  0.00000000000E+00 0. -1.
</event>
<event>
 7    1  0.2612321E-009  0.1175529E+03  0.7561462E-02  0.1247189E+00
         -2   -1    0    0    0  501 -0.00000000000E+00  0.00000000000E+00  0.69320776560E+02  0.69320776560E+02  0.00000000000E+00 0.  1.
          2   -1    0    0  501    0  0.00000000000E+00 -0.00000000000E+00 -0.24272969534E+03  0.24272969534E+03  0.00000000000E+00 0. -1.
         25    2    1    2    0    0 -0.17768298409E+02 -0.53386687386E+02 -0.44423801422E+02  0.14417295136E+03  0.12508603021E+03 0.  0.
          5    1    3    3  502    0 -0.29827219249E+02  0.31372804048E+02  0.72448816245E+01  0.44089415415E+02  0.41800000000E+01 0.  1.
         -5    1    3    3    0  502  0.12058920840E+02 -0.84759491434E+02 -0.51668683046E+02  0.10008353595E+03  0.41800000000E+01 0.  1.
        -11    1    1    2    0    0  0.70655197643E+01 -0.25413322236E+02 -0.45401248056E+02  0.52507445583E+02  0.00000000000E+00 0. -1.
         11    1    1    2    0    0  0.10702778644E+02  0.78800009623E+02 -0.83583869303E+02  0.11537007495E+03  0.00000000000E+00 0.  1.
</event>
<event>
 7    1  0.2612321E-009  0.1440705E+03  0.7561462E-02  0.1207954E+00
          1   -1    0    0  501    0  0.00000000000E+00  0.00000000000E+00  0.28082772047E+03  0.28082772047E+03  0.00000000000E+00 0. -1.
         -1   -1    0    0    0  501 -0.00000000000E+00 -0.00000000000E+00 -0.10474665255E+03  0.10474665255E+03  0.00000000000E+00 0.  1.
         25    2    1    2    0    0 -0.21200272934E+02  0.12172253521E+03  0.43004111039E+02  0.18100779990E+03  0.12509453588E+03 0.  0.
          5    1    3    3  502    0 -0.20254166454E+01 -0.13750428610E+02 -0.24426980681E+02  0.28413489485E+02  0.41800000000E+01 0.  1.
         -5    1    3    3    0  502 -0.19174856289E+02  0.13547296382E+03  0.67431091720E+02  0.15259431041E+03  0.41800000000E+01 0.  1.
        -11    1    1    2    0    0  0.39558320280E+02 -0.56420291855E+02  0.18386270691E+02  0.71317354033E+02  0.00000000000E+00 0.  1.
         11    1    1    2    0    0 -0.18358047346E+02 -0.65302243352E+02  0.11469068619E+03  0.13324921909E+03  0.00000000000E+00 0. -1.
</event>
<event>
 7    1  0.2612321E-009  0.9749225E+02  0.7561462E-02  0.1285660E+00
          1   -1    0    0  501    0  0.00000000000E+00  0.00000000000E+00  0.52044095331E+03  0.52044095331E+03  0.00000000000E+00 0. -1.
         -1   -1    0    0    0  501 -0.00000000000E+00 -0.00000000000E+00 -0.21940997164E+02  0.21940997164E+02  0.00000000000E+00 0.  1.
         25    2    1    2    0    0 -0.46167225809E+01 -0.19106739908E+01  0.31821851463E+03  0.34195957648E+03  0.12509342146E+03 0.  0.
          5    1    3    3  502    0 -0.88695819207E+01  0.52482569618E+02  0.71435509213E+02  0.89182924227E+02  0.41800000000E+01 0.  1.
         -5    1    3    3    0  502  0.42528593398E+01 -0.54393243609E+02  0.24678300542E+03  0.25277665226E+03  0.41800000000E+01 0.  1.
        -11    1    1    2    0    0  0.45715730519E+02  0.23052299992E+01  0.82367794568E+02  0.94232137216E+02  0.00000000000E+00 0.  1.
         11    1    1    2    0    0 -0.41099007938E+02 -0.39455600848E+00  0.97913646948E+02  0.10619023678E+03  0.00000000000E+00 0. -1.
</event>
<event>
 7    1  0.2612321E-009  0.1328416E+03  0.7561462E-02  0.1223299E+00
         -2   -1    0    0    0  501 -0.00000000000E+00  0.00000000000E+00  0.25478190147E+02  0.25478190147E+02  0.00000000000E+00 0.  1.
          2   -1    0    0  501    0  0.00000000000E+00 -0.00000000000E+00 -0.94297263113E+03  0.94297263113E+03  0.00000000000E+00 0. -1.
         25    2    1    2    0    0  0.57634817817E+02 -0.77601717986E+02 -0.32643778615E+03  0.36270664403E+03  0.12510268797E+03 0.  0.
          5    1    3    3  502    0  0.82090434882E+02 -0.87112135239E+02 -0.30771551311E+03  0.33020247275E+03  0.41800000000E+01 0. -1.
         -5    1    3    3    0  502 -0.24455617065E+02  0.95104172529E+01 -0.18722273036E+02  0.32504171271E+02  0.41800000000E+01 0. -1.
        -11    1    1    2    0    0 -0.65058988410E+01 -0.13436934083E+02 -0.18635308023E+02  0.23877868883E+02  0.00000000000E+00 0.  1.
         11    1    1    2    0    0 -0.51128918976E+02  0.91038652069E+02 -0.57242134682E+03  0.58186630837E+03  0.00000000000E+00 0. -1.
</event>
<event>
 7    1  0.2612321E-009  0.1217632E+03  0.7561462E-02  0.1240216E+00
          2   -1    0    0  501    0  0.00000000000E+00  0.00000000000E+00  0.32780506428E+03  0.32780506428E+03  0.00000000000E+00 0. -1.
         -2   -1    0    0    0  501 -0.00000000000E+00 -0.00000000000E+00 -0.19913404654E+03  0.19913404654E+03  0.00000000000E+00 0.  1.
         25    2    1    2    0    0  0.85687203726E+02  0.75850944943E+02  0.27337410596E+03  0.32167742932E+03  0.12508918415E+03 0.  0.
          5    1    3    3  502    0  0.30194415731E+02  0.20582023825E+02 -0.51044400699E+00  0.36783901358E+02  0.41800000000E+01 0.  1.
         -5    1    3    3    0  502  0.55492787996E+02  0.55268921118E+02  0.27388454997E+03  0.28489352796E+03  0.41800000000E+01 0.  1.
        -11    1    1    2    0    0 -0.18824610395E+02 -0.55220587423E+02 -0.11558058238E+03  0.12947026785E+03  0.00000000000E+00 0.  1.
         11    1    1    2    0    0 -0.66862593332E+02 -0.20630357520E+02 -0.29122505835E+02  0.75791413660E+02  0.00000000000E+00 0. -1.
</event>
<event>
 6    1  0.2612321E-009  0.9184293E+02  0.7561462E-02  0.1298449E+00
         -1   -1    0    0    0  501 -0.00000000000E+00  0.00000000000E+00  0.50965380485E+02  0.50965380485E+02  0.00000000000E+00 0.  1.
          1   -1    0    0  501    0  0.00000000000E+00 -0.00000000000E+00 -0.34255131985E+03  0.34255131985E+03  0.00000000000E+00 0. -1.
          5    1    1    2  502    0  0.12842571520E+02 -0.22551787322E+02 -0.80772572794E+02  0.84942307895E+02  0.41800000000E+01 0.  1.
         -5    1    1    2    0  502 -0.56563154047E+02  0.30997373318E+02  0.10281378433E+02  0.65447740150E+02  0.41800000000E+01 0.  1.
        -11    1    1    2    0    0  0.55786548868E+02  0.22036164535E+02 -0.18445187331E+03  0.19395933891E+03  0.00000000000E+00 0.  1.
         11    1    1    2    0    0 -0.12065966341E+02 -0.30481750531E+02 -0.36642871691E+02  0.49167313379E+02  0.00000000000E+00 0. -1.
</event>
<event>
 7    1  0.2612321E-009  0.1142839E+03  0.7561462E-02  0.1252836E+00
          1   -1    0    0  501    0  0.00000000000E+00  0.00000000000E+00  0.43357398752E+03  0.43357398752E+03  0.00000000000E+00 0. -1.
         -1   -1    0    0    0  501 -0.00000000000E+00 -0.00000000000E+00 -0.33750172086E+02  0.33750172086E+02  0.00000000000E+00 0.  1.
         25    2    1    2    0    0 -0.89840558479E+01  0.33655281619E+02  0.17311674340E+03  0.21640227220E+03  0.12508854994E+03 0.  0.
          5    1    3    3  502    0 -0.43803252040E+02  0.62519749020E+02  0.69718645299E+02  0.10346789748E+03  0.41800000000E+01 0.  1.
         -5    1    3    3    0  502  0.34819196192E+02 -0.28864467401E+02  0.10339809810E+03  0.11293437472E+03  0.41800000000E+01 0.  1.
        -11    1    1    2    0    0  0.18556630922E+02  0.33802861216E+02  0.67306201196E+02  0.77570011584E+02  0.00000000000E+00 0.  1.
         11    1    1    2    0    0 -0.95725750746E+01 -0.67458142835E+02  0.15940087083E+03  0.17335187582E+03  0.00000000000E+00 0. -1.
</event>
<event>
 7    1  0.2612321E-009  0.9067979E+02  0.7561462E-02  0.1301214E+00
          1   -1    0    0  501    0  0.00000000000E+00  0.00000000000E+00  0.30222886003E+03  0.30222886003E+03  0.00000000000E+00 0. -1.
         -1   -1    0    0    0  501 -0.00000000000E+00 -0.00000000000E+00 -0.57719478835E+02  0.57719478835E+02  0.00000000000E+00 0.  1.
         25    2    1    2    0    0  0.58740963722E+02  0.12756745934E+02  0.75459043687E+02  0.15797047539E+03  0.12508944174E+03 0.  0.
          5    1    3    3  502    0  0.58492597524E+02 -0.28161679829E+02  0.92801642921E+02  0.11333173212E+03  0.41800000000E+01 0.  1.
         -5    1    3    3    0  502  0.24836619842E+00  0.40918425763E+02 -0.17342599235E+02  0.44638743272E+02  0.41800000000E+01 0.  1.
        -11    1    1    2    0    0 -0.29565645410E+02 -0.29308519110E+02  0.16256804083E+03  0.16781383906E+03  0.00000000000E+00 0. -1.
         11    1    1    2    0    0 -0.29175318312E+02  0.16551773176E+02  0.64822966768E+01  0.34164024413E+02  0.00000000000E+00 0.  1.
</event>
<event>
 7    1  0.2612321E-009  0.1066288E+03  0.7561462E-02  0.1266943E+00
         -1   -1    0    0    0  501 -0.00000000000E+00  0.00000000000E+00  0.77201705701E+02  0.77201705701E+02  0.00000000000E+00 0. -1.
          1   -1    0    0  501    0  0.00000000000E+00 -0.00000000000E+00 -0.23100417048E+03  0.23100417048E+03  0.00000000000E+00 0.  1.
         25    2    1    2    0    0  0.73769510649E+02 -0.10384222318E+02 -0.48042359361E+02  0.15331631162E+03  0.12509216738E+03 0.  0.
          5    1    3    3  502    0  0.15587605799E+02 -0.58846661787E+02  0.42988117357E+01  0.61170705737E+02  0.41800000000E+01 0. -1.
         -5    1    3    3    0  502  0.58181904851E+02  0.48462439469E+02 -0.52341171097E+02  0.92145605881E+02  0.41800000000E+01 0. -1.
        -11    1    1    2    0    0 -0.49093593611E+02  0.14922863093E+02 -0.11672735281E+03  0.12750744162E+03  0.00000000000E+00 0.  1.
         11    1    1    2    0    0 -0.24675917039E+02 -0.45386407754E+01  0.10967247383E+02  0.27382122945E+02  0.00000000000E+00 0. -1.
</event>
<event>
 7    1  0.2612321E-009  0.1775298E+03  0.7561462E-02  0.1170215E+00
         -2   -1    0    0    0  501 -0.00000000000E+00  0.00000000000E+00  0.78730011037E+02  0.78730011037E+02  0.00000000000E+00 0.  1.
          2   -1    0    0  501    0  0.00000000000E+00 -0.00000000000E+00 -0.55394662926E+03  0.55394662926E+03  0.00000000000E+00 0. -1.
         25    2    1    2    0    0 -0.84734689662E+02  0.11601013342E+03 -0.40240359803E+03  0.44521243089E+03  0.12508850558E+03 0.  0.
          5    1    3    3  502    0 -0.19199063633E+02 -0.22444029415E+02 -0.29063298616E+02  0.41647163495E+02  0.41800000000E+01 0.  1.
         -5    1    3    3    0  502 -0.65535626029E+02  0.13845416284E+03 -0.37334029941E+03  0.40356526740E+03  0.41800000000E+01 0.  1.
        -11    1    1    2    0    0 -0.73464506751E+01 -0.67529304287E+02 -0.20269676791E+02  0.70887495881E+02  0.00000000000E+00 0. -1.
         11    1    1    2    0    0  0.92081140337E+02 -0.48480829136E+02 -0.52543343405E+02  0.11657671352E+03  0.00000000000E+00 0.  1.
</event>
<event>
 7    1  0.2612321E-009  0.1647135E+03  0.7561462E-02  0.1183476E+00
         -2   -1    0    0    0  501 -0.00000000000E+00  0.00000000000E+00  0.13977455881E+02  0.13977455881E+02  0.00000000000E+00 0.  1.
          2   -1    0    0  501    0  0.00000000000E+00 -0.00000000000E+00 -0.36020241198E+04  0.36020241198E+04  0.00000000000E+00 0. -1.
         25    2    1    2    0    0  0.53580482866E+02 -0.11771230545E+03 -0.30439598563E+04  0.30492726313E+04  0.12507964881E+03 0.  0.
          5    1    3    3  502    0  0.78426655435E+02 -0.12357741671E+03 -0.28246136846E+04  0.28284062753E+04  0.41800000000E+01 0. -1.
         -5    1    3    3    0  502 -0.24846172569E+02  0.58651112556E+01 -0.21934617164E+03  0.22086635605E+03  0.41800000000E+01 0. -1.
        -11    1    1    2    0    0  0.17365859027E+01 -0.14089384061E+02 -0.75599053355E+02  0.76920370137E+02  0.00000000000E+00 0. -1.
         11    1    1    2    0    0 -0.55317068769E+02  0.13180168951E+03 -0.46848775426E+03  0.48980857418E+03  0.00000000000E+00 0.  1.
</event>
<event>
 7    1  0.2612321E-009  0.1034302E+03  0.7561462E-02  0.1273244E+00
         -1   -1    0    0    0  501 -0.00000000000E+00  0.00000000000E+00  0.26316932237E+02  0.26316932237E+02  0.00000000000E+00 0.  1.
          1   -1    0    0  501    0  0.00000000000E+00 -0.00000000000E+00 -0.66845180756E+03  0.66845180756E+03  0.00000000000E+00 0. -1.
         25    2    1    2    0    0  0.24643924276E+02 -0.70212935136E+02 -0.34797764724E+03  0.37719117265E+03  0.12509020137E+03 0.  0.
          5    1    3    3  502    0 -0.31249069916E+02 -0.41682481933E+02 -0.48900683620E+02  0.71572920362E+02  0.41800000000E+01 0. -1.
         -5    1    3    3    0  502  0.55892994192E+02 -0.28530453203E+02 -0.29907696362E+03  0.30561825229E+03  0.41800000000E+01 0. -1.
        -11    1    1    2    0    0 -0.41605354697E+02  0.54653087743E+02 -0.28440081756E+03  0.29257783677E+03  0.00000000000E+00 0. -1.
         11    1    1    2    0    0  0.16961430420E+02  0.15559847393E+02 -0.97564105178E+01  0.24999730378E+02  0.00000000000E+00 0.  1.
</event>
<event>
 7    1  0.3054658E-009  0.1247424E+03  0.7561462E-02  0.1235472E+00
         -2   -1    0    0    0  501 -0.00000000000E+00  0.00000000000E+00  0.13293731155E+03  0.13293731155E+03  0.00000000000E+00 0.  1.
          2   -1    0    0  501    0  0.00000000000E+00 -0.00000000000E+00 -0.19719969888E+03  0.19719969888E+03  0.00000000000E+00 0. -1.
         25    2    1    2    0    0  0.67837463092E+02 -0.50365140427E+02 -0.12135641318E+03  0.19368116369E+03  0.12508575210E+03 0.  0.
          5    1    3    3  502    0  0.30942698283E+02 -0.80672074238E+02 -0.31908038374E+02  0.92201027390E+02  0.41800000000E+01 0. -1.
         -5    1    3    3    0  502  0.36894764810E+02  0.30306933811E+02 -0.89448374804E+02  0.10148013630E+03  0.41800000000E+01 0. -1.
        -11    1    1    2    0    0  0.13420316830E+01  0.45695169855E+02 -0.14071234182E+01  0.45736523626E+02  0.00000000000E+00 0. -1.
         11    1    1    2    0    0 -0.69179494775E+02  0.46699705719E+01  0.58501149258E+02  0.90719323119E+02  0.00000000000E+00 0.  1.
</event>
<event>
 7    1  0.2612321E-009  0.1473707E+03  0.7561462E-02  0.1203742E+00
          2   -1    0    0  501    0  0.00000000000E+00  0.00000000000E+00  0.48161709496E+02  0.48161709496E+02  0.00000000000E+00 0.  1.
         -2   -1    0    0    0  501 -0.00000000000E+00 -0.00000000000E+00 -0.59055846160E+03  0.59055846160E+03  0.00000000000E+00 0. -1.
         25    2    1    2    0    0 -0.54525115852E+02 -0.11303146306E+03 -0.19929074276E+03  0.26666997007E+03  0.12508786068E+03 0.  0.
          5    1    3    3  502    0  0.10380755917E+02 -0.76513774740E+02 -0.16958226767E+03  0.18638062058E+03  0.41800000000E+01 0.  1.
         -5    1    3    3    0  502 -0.64905871769E+02 -0.36517688320E+02 -0.29708475088E+02  0.80289349496E+02  0.41800000000E+01 0.  1.
        -11    1    1    2    0    0 -0.64114865284E+00  0.76843983972E+02 -0.16204207511E+03  0.17934057837E+03  0.00000000000E+00 0.  1.
         11    1    1    2    0    0  0.55166264505E+02  0.36187479089E+02 -0.18106393424E+03  0.19270962265E+03  0.00000000000E+00 0. -1.
</event>
<event>
 7    1  0.2612321E-009  0.1500237E+03  0.7561462E-02  0.1200444E+00
         -2   -1    0    0    0  501 -0.00000000000E+00  0.00000000000E+00  0.11690372842E+03  0.11690372842E+03  0.00000000000E+00 0.  1.
          2   -1    0    0  501    0  0.00000000000E+00 -0.00000000000E+00 -0.25476865026E+03  0.25476865026E+03  0.00000000000E+00 0. -1.
         25    2    1    2    0    0 -0.13217124624E+03 -0.12995126034E+02 -0.61011961524E+02  0.19240085096E+03  0.12512999787E+03 0.  0.
          5    1    3    3  502    0 -0.87645574474E+02 -0.33954841882E+02  0.21245712343E+02  0.96454811726E+02  0.41800000000E+01 0.  1.
         -5    1    3    3    0  502 -0.44525671770E+02  0.20959715847E+02 -0.82257673866E+02  0.95946039235E+02  0.41800000000E+01 0.  1.
        -11    1    1    2    0    0 -0.78678692011E+01 -0.11970841572E+02  0.49791420152E+01  0.15165627877E+02  0.00000000000E+00 0.  1.
         11    1    1    2    0    0  0.14003911544E+03  0.24965967607E+02 -0.81832102330E+02  0.16410589985E+03  0.00000000000E+00 0. -1.
</event>
<event>
 7    1  0.2612321E-009  0.9671146E+02  0.7561462E-02  0.1287367E+00
         -1   -1    0    0    0  501 -0.00000000000E+00  0.00000000000E+00  0.33916417376E+02  0.33916417376E+02  0.00000000000E+00 0.  1.
          1   -1    0    0  501    0  0.00000000000E+00 -0.00000000000E+00 -0.53692398672E+03  0.53692398672E+03  0.00000000000E+00 0. -1.
         25    2    1    2    0    0 -0.47685486822E+02  0.24962484367E+02 -0.15171542113E+03  0.20387144172E+03  0.12509582112E+03 0.  0.
          5    1    3    3  502    0 -0.43780459577E+02  0.55117599329E+02 -0.15756736206E+03  0.17262567706E+03  0.41800000000E+01 0.  1.
         -5    1    3    3    0  502 -0.39050272452E+01 -0.30155114962E+02  0.58519409298E+01  0.31245764654E+02  0.41800000000E+01 0.  1.
        -11    1    1    2    0    0  0.20786137121E+02  0.26779610199E+02 -0.52180879510E+02  0.62225840334E+02  0.00000000000E+00 0.  1.
         11    1    1    2    0    0  0.26899349702E+02 -0.51742094566E+02 -0.29911126870E+03  0.30474312204E+03  0.00000000000E+00 0. -1.
</event>
<event>
 7    1  0.2612321E-009  0.1313238E+03  0.7561462E-02  0.1225505E+00
         -2   -1    0    0    0  501 -0.00000000000E+00  0.00000000000E+00  0.55452572832E+02  0.55452572832E+02  0.00000000000E+00 0. -1.
          2   -1    0    0  501    0  0.00000000000E+00 -0.00000000000E+00 -0.46889366396E+03  0.46889366396E+03  0.00000000000E+00 0.  1.
         25    2    1    2    0    0  0.69204310693E+01  0.97098528982E+02 -0.33161346053E+03  0.36754743681E+03  0.12509042490E+03 0.  0.
          5    1    3    3  502    0 -0.48557625585E+01 -0.22543378238E+02 -0.12601897689E+02  0.26609444898E+02  0.41800000000E+01 0.  1.
         -5    1    3    3    0  502  0.11776193628E+02  0.11964190722E+03 -0.31901156284E+03  0.34093799191E+03  0.41800000000E+01 0.  1.
        -11    1    1    2    0    0 -0.10014404689E+02  0.85845772383E+01 -0.41658518632E+02  0.43696858494E+02  0.00000000000E+00 0.  1.
         11    1    1    2    0    0  0.30939736194E+01 -0.10568310622E+03 -0.40169111965E+02  0.11310194149E+03  0.00000000000E+00 0. -1.
</event>
<event>
 7    1  0.2612321E-009  0.1089945E+03  0.7561462E-02  0.1262443E+00
          2   -1    0    0  501    0  0.00000000000E+00  0.00000000000E+00  0.11198824429E+04  0.11198824429E+04  0.00000000000E+00 0. -1.
         -2   -1    0    0    0  501 -0.00000000000E+00 -0.00000000000E+00 -0.12788098581E+02  0.12788098581E+02  0.00000000000E+00 0.  1.
         25    2    1    2    0    0  0.59826484916E+01  0.49262730048E+02  0.63369368973E+03  0.64782475892E+03  0.12508643895E+03 0.  0.
          5    1    3    3  502    0 -0.70618150335E+01  0.79691874616E+02  0.24641295682E+03  0.25910901528E+03  0.41800000000E+01 0. -1.
         -5    1    3    3    0  502  0.13044463525E+02 -0.30429144568E+02  0.38728073291E+03  0.38871574363E+03  0.41800000000E+01 0. -1.
        -11    1    1    2    0    0  0.16727744722E+01 -0.76344372759E+02  0.35937222325E+03  0.36739577606E+03  0.00000000000E+00 0. -1.
         11    1    1    2    0    0 -0.76554229638E+01  0.27081642711E+02  0.11402843135E+03  0.11745000651E+03  0.00000000000E+00 0.  1.
</event>
<event>
 7    1  0.2612321E-009  0.1064529E+03  0.7561462E-02  0.1267283E+00
          2   -1    0    0  501    0  0.00000000000E+00  0.00000000000E+00  0.42476716589E+03  0.42476716589E+03  0.00000000000E+00 0. -1.
         -2   -1    0    0    0  501 -0.00000000000E+00 -0.00000000000E+00 -0.43592220417E+02  0.43592220417E+02  0.00000000000E+00 0.  1.
         25    2    1    2    0    0  0.88640167981E+01  0.76740391721E+02  0.26245905493E+03  0.30083220992E+03  0.12509038530E+03 0.  0.
          5    1    3    3  502    0 -0.24317202310E+02  0.31625547168E+02  0.88460795115E+01  0.41075869858E+02  0.41800000000E+01 0.  1.
         -5    1    3    3    0  502  0.33181219109E+02  0.45114844552E+02  0.25361297542E+03  0.25975634006E+03  0.41800000000E+01 0.  1.
        -11    1    1    2    0    0 -0.31910912162E+02  0.44655071886E+01  0.21296147424E+02  0.38623476858E+02  0.00000000000E+00 0. -1.
         11    1    1    2    0    0  0.23046895364E+02 -0.81205898909E+02  0.97419743122E+02  0.12890369953E+03  0.00000000000E+00 0.  1.
</event>
<event>
 7    1  0.2612321E-009  0.1339409E+03  0.7561462E-02  0.1221723E+00
          2   -1    0    0  501    0  0.00000000000E+00  0.00000000000E+00  0.73925086962E+03  0.73925086962E+03  0.00000000000E+00 0.  1.
         -2   -1    0    0    0  501 -0.00000000000E+00 -0.00000000000E+00 -0.26118844933E+02  0.26118844933E+02  0.00000000000E+00 0. -1.
         25    2    1    2    0    0  0.41570437468E+01  0.82996882710E+02  0.41220291164E+03  0.43870757521E+03  0.12508929861E+03 0.  0.
          5    1    3    3  502    0 -0.54327038303E+02  0.56246318764E+02  0.29198934427E+03  0.30230832776E+03  0.41800000000E+01 0.  1.
         -5    1    3    3    0  502  0.58484082049E+02  0.26750563946E+02  0.12021356737E+03  0.13639924745E+03  0.41800000000E+01 0.  1.
        -11    1    1    2    0    0 -0.23669781411E+02 -0.97805041485E+02  0.26208511231E+03  0.28073954261E+03  0.00000000000E+00 0.  1.
         11    1    1    2    0    0  0.19512737665E+02  0.14808158775E+02  0.38844000737E+02  0.45922596733E+02  0.00000000000E+00 0. -1.
</event>
<event>
 7    1  0.2612321E-009  0.1149018E+03  0.7561462E-02  0.1251753E+00
         -3   -1    0    0    0  501 -0.00000000000E+00  0.00000000000E+00  0.58228672314E+03  0.58228672314E+03  0.00000000000E+00 0.  1.
          3   -1    0    0  501    0  0.00000000000E+00 -0.00000000000E+00 -0.33856185579E+02  0.33856185579E+02  0.00000000000E+00 0. -1.
         25    2    1    2    0    0 -0.16005005022E+02  0.73959579263E+02  0.39670633541E+03  0.42278778624E+03  0.12508963221E+03 0.  0.
          5    1    3    3  502    0 -0.70484849858E+02  0.43979642868E+02  0.24679013730E+03  0.26043265409E+03  0.41800000000E+01 0.  1.
         -5    1    3    3    0  502  0.54479844837E+02  0.29979936395E+02  0.14991619811E+03  0.16235513215E+03  0.41800000000E+01 0.  1.
        -11    1    1    2    0    0  0.56134516731E+01 -0.73685186973E+02  0.16241926461E+03  0.17844056471E+03  0.00000000000E+00 0.  1.
         11    1    1    2    0    0  0.10391553349E+02 -0.27439228993E+00 -0.10695062465E+02  0.14914557763E+02  0.00000000000E+00 0. -1.
</event>
<event>
 7    1  0.2612321E-009  0.1066967E+03  0.7561462E-02  0.1266812E+00
         -2   -1    0    0    0  501 -0.00000000000E+00  0.00000000000E+00  0.24838714879E+02  0.24838714879E+02  0.00000000000E+00 0.  1.
          2   -1    0    0  501    0  0.00000000000E+00 -0.00000000000E+00 -0.78506939874E+03  0.78506939874E+03  0.00000000000E+00 0. -1.
         25    2    1    2    0    0 -0.75100708094E+02 -0.67937401985E+01 -0.55853217459E+03  0.57731442906E+03  0.12508992242E+03 0.  0.
          5    1    3    3  502    0 -0.79392852669E+01  0.34383349681E+02 -0.38564268491E+03  0.38727638685E+03  0.41800000000E+01 0. -1.
         -5    1    3    3    0  502 -0.67161422827E+02 -0.41177089879E+02 -0.17288948967E+03  0.19003804221E+03  0.41800000000E+01 0. -1.
        -11    1    1    2    0    0  0.77433237646E+02 -0.13448274994E+02 -0.19639820114E+03  0.21153963176E+03  0.00000000000E+00 0. -1.
         11    1    1    2    0    0 -0.23325295519E+01  0.20242015192E+02 -0.53003081367E+01  0.21054052804E+02  0.00000000000E+00 0.  1.
</event>
<event>
 7    1  0.2612321E-009  0.1009970E+03  0.7561462E-02  0.1278213E+00
          1   -1    0    0  501    0  0.00000000000E+00  0.00000000000E+00  0.83290608080E+02  0.83290608080E+02  0.00000000000E+00 0. -1.
         -1   -1    0    0    0  501 -0.00000000000E+00 -0.00000000000E+00 -0.19535871632E+03  0.19535871632E+03  0.00000000000E+00 0.  1.
         25    2    1    2    0    0  0.51843650101E+01  0.73453868043E+02 -0.79264655027E+02  0.16537980195E+03  0.12508095372E+03 0.  0.
          5    1    3    3  502    0  0.31244900104E+02  0.90320692663E+02 -0.19102789382E+02  0.97552346296E+02  0.41800000000E+01 0. -1.
         -5    1    3    3    0  502 -0.26060535094E+02 -0.16866824620E+02 -0.60161865645E+02  0.67827455651E+02  0.41800000000E+01 0. -1.
        -11    1    1    2    0    0  0.45595924123E+01 -0.13067481544E+02 -0.48238477871E+02  0.50184656063E+02  0.00000000000E+00 0.  1.
         11    1    1    2    0    0 -0.97439574224E+01 -0.60386386499E+02  0.15435024661E+02  0.63084866386E+02  0.00000000000E+00 0. -1.
</event>
<event>
 7    1  0.2612321E-009  0.1188933E+03  0.7561462E-02  0.1244934E+00
          2   -1    0    0  501    0  0.00000000000E+00  0.00000000000E+00  0.59758365455E+03  0.59758365455E+03  0.00000000000E+00 0. -1.
         -2   -1    0    0    0  501 -0.00000000000E+00 -0.00000000000E+00 -0.25793613625E+02  0.25793613625E+02  0.00000000000E+00 0.  1.
         25    2    1    2    0    0  0.48152351257E+02  0.29546464816E+02  0.26716705734E+03  0.30036163063E+03  0.12508888883E+03 0.  0.
          5    1    3    3  502    0  0.61950036115E+02 -0.30644789719E+02  0.96135988883E+02  0.11847578179E+03  0.41800000000E+01 0.  1.
         -5    1    3    3    0  502 -0.13797684858E+02  0.60191254535E+02  0.17103106846E+03  0.18188584884E+03  0.41800000000E+01 0.  1.
        -11    1    1    2    0    0  0.24499687507E+02  0.67846148990E+01  0.90499031740E+02  0.94001810797E+02  0.00000000000E+00 0. -1.
         11    1    1    2    0    0 -0.72652038764E+02 -0.36331079715E+02  0.21412395184E+03  0.22901382675E+03  0.00000000000E+00 0.  1.
</event>
<event>
 7    1  0.2612321E-009  0.1032720E+03  0.7561462E-02  0.1273562E+00
          2   -1    0    0  501    0  0.00000000000E+00  0.00000000000E+00  0.74329370049E+03  0.74329370049E+03  0.00000000000E+00 0. -1.
         -2   -1    0    0    0  501 -0.00000000000E+00 -0.00000000000E+00 -0.29618234171E+02  0.29618234171E+02  0.00000000000E+00 0.  1.
         25    2    1    2    0    0 -0.72239211291E+02  0.69710172225E+02  0.44128984585E+03  0.46953440731E+03  0.12509124608E+03 0.  0.
          5    1    3    3  502    0 -0.38075822662E+02  0.24282880227E+02  0.39071033208E+03  0.39333378006E+03  0.41800000000E+01 0.  1.
         -5    1    3    3    0  502 -0.34163388629E+02  0.45427291999E+02  0.50579513769E+02  0.76200627255E+02  0.41800000000E+01 0.  1.
        -11    1    1    2    0    0  0.35002364180E+02 -0.52686839877E+02  0.24752056941E+03  0.25547504942E+03  0.00000000000E+00 0. -1.
         11    1    1    2    0    0  0.37236847111E+02 -0.17023332348E+02  0.24865051057E+02  0.47902477921E+02  0.00000000000E+00 0.  1.
</event>
<event>
 7    1  0.2612321E-009  0.8431349E+02  0.7561462E-02  0.1317238E+00
          2   -1    0    0  501    0  0.00000000000E+00  0.00000000000E+00  0.71919477131E+03  0.71919477131E+03  0.00000000000E+00 0. -1.
         -2   -1    0    0    0  501 -0.00000000000E+00 -0.00000000000E+00 -0.20801225866E+02  0.20801225866E+02  0.00000000000E+00 0.  1.
         25    2    1    2    0    0  0.21576487657E+02  0.13835143359E+02  0.54712432797E+03  0.56182665687E+03  0.12508879288E+03 0.  0.
          5    1    3    3  502    0  0.51139266906E+02 -0.12350837631E+02  0.48649204807E+03  0.48934625067E+03  0.41800000000E+01 0.  1.
         -5    1    3    3    0  502 -0.29562779249E+02  0.26185980990E+02  0.60632279899E+02  0.72480406201E+02  0.41800000000E+01 0.  1.
        -11    1    1    2    0    0  0.21129683708E+02 -0.24266763985E+02  0.15998952998E+02  0.35934744537E+02  0.00000000000E+00 0.  1.
         11    1    1    2    0    0 -0.42706171365E+02  0.10431620626E+02  0.13527026447E+03  0.14223459576E+03  0.00000000000E+00 0. -1.
</event>
<event>
 7    1  0.2612321E-009  0.1295780E+03  0.7561462E-02  0.1228083E+00
          2   -1    0    0  501    0  0.00000000000E+00  0.00000000000E+00  0.52327195994E+03  0.52327195994E+03  0.00000000000E+00 0. -1.
         -2   -1    0    0    0  501 -0.00000000000E+00 -0.00000000000E+00 -0.64295597525E+02  0.64295597525E+02  0.00000000000E+00 0.  1.
         25    2    1    2    0    0  0.94275909751E+02 -0.37272366470E+02  0.41636419013E+03  0.44641064599E+03  0.12508456969E+03 0.  0.
          5    1    3    3  502    0  0.21999372352E+02 -0.73025048396E+02  0.25137551776E+03  0.26272372067E+03  0.41800000000E+01 0. -1.
         -5    1    3    3    0  502  0.72276537399E+02  0.35752681926E+02  0.16498867237E+03  0.18368692532E+03  0.41800000000E+01 0. -1.
        -11    1    1    2    0    0 -0.81603698096E+02  0.27799503967E+02  0.68978161474E+02  0.11040816421E+03  0.00000000000E+00 0. -1.
         11    1    1    2    0    0 -0.12672211654E+02  0.94728625030E+01 -0.26365989187E+02  0.30748747260E+02  0.00000000000E+00 0.  1.
</event>
<event>
 7    1  0.2612321E-009  0.9250307E+02  0.7561462E-02  0.1296901E+00
          1   -1    0    0  501    0  0.00000000000E+00  0.00000000000E+00  0.66855058441E+02  0.66855058441E+02  0.00000000000E+00 0. -1.
         -1   -1    0    0    0  501 -0.00000000000E+00 -0.00000000000E+00 -0.24163425027E+03  0.24163425027E+03  0.00000000000E+00 0.  1.
         25    2    1    2    0    0  0.24555596232E+02 -0.53817507021E+02 -0.13331446831E+03  0.19213525960E+03  0.12507561374E+03 0.  0.
          5    1    3    3  502    0  0.43667329912E+02 -0.44287838230E+02 -0.56071993995E+01  0.62587230341E+02  0.41800000000E+01 0. -1.
         -5    1    3    3    0  502 -0.19111733679E+02 -0.95296687905E+01 -0.12770726891E+03  0.12954802926E+03  0.41800000000E+01 0. -1.
        -11    1    1    2    0    0 -0.67126032533E+01  0.73808859163E+02 -0.96197156844E+01  0.74735170189E+02  0.00000000000E+00 0. -1.
         11    1    1    2    0    0 -0.17842992979E+02 -0.19991352142E+02 -0.31845007835E+02  0.41618878924E+02  0.00000000000E+00 0.  1.
</event>
<event>
 7    1  0.2612321E-009  0.1203672E+03  0.7561462E-02  0.1242493E+00
         -1   -1    0    0    0  501 -0.00000000000E+00  0.00000000000E+00  0.14673506071E+03  0.14673506071E+03  0.00000000000E+00 0.  1.
          1   -1    0    0  501    0  0.00000000000E+00 -0.00000000000E+00 -0.26899418004E+03  0.26899418004E+03  0.00000000000E+00 0. -1.
         25    2    1    2    0    0 -0.13772279034E+02  0.10972088602E+03 -0.19396910129E+03  0.25592952741E+03  0.12509021642E+03 0.  0.
          5    1    3    3  502    0 -0.29570749201E+02  0.15661935234E+02  0.60818605935E+01  0.34266409965E+02  0.41800000000E+01 0. -1.
         -5    1    3    3    0  502  0.15798470168E+02  0.94058950789E+02 -0.20005096188E+03  0.22166311744E+03  0.41800000000E+01 0. -1.
        -11    1    1    2    0    0  0.16016067827E+02 -0.72158820683E+02  0.91224993973E+02  0.11741128292E+03  0.00000000000E+00 0.  1.
         11    1    1    2    0    0 -0.22437887933E+01 -0.37562065340E+02 -0.19515012010E+02  0.42388430432E+02  0.00000000000E+00 0. -1.
</event>
<event>
 7    1  0.2612321E-009  0.1453175E+03  0.7561462E-02  0.1206348E+00
          1   -1    0    0  501    0  0.00000000000E+00  0.00000000000E+00  0.75762079680E+03  0.75762079680E+03  0.00000000000E+00 0. -1.
         -1   -1    0    0    0  501 -0.00000000000E+00 -0.00000000000E+00 -0.44530646481E+02  0.44530646481E+02  0.00000000000E+00 0.  1.
         25    2    1    2    0    0 -0.60300597892E+02 -0.85466131435E+02  0.60750477909E+03  0.62900939520E+03  0.12510052316E+03 0.  0.
          5    1    3    3  502    0 -0.61767641328E+02  0.10642780091E+02  0.31117696968E+03  0.31745407407E+03  0.41800000000E+01 0. -1.
         -5    1    3    3    0  502  0.14670434363E+01 -0.96108911526E+02  0.29632780941E+03  0.31155532113E+03  0.41800000000E+01 0. -1.
        -11    1    1    2    0    0  0.80736409696E+01  0.78503984927E+02  0.86529973037E+02  0.11711317416E+03  0.00000000000E+00 0.  1.
         11    1    1    2    0    0  0.52226956923E+02  0.69621465077E+01  0.19055398190E+02  0.56028873927E+02  0.00000000000E+00 0. -1.
</event>
<event>
 7    1  0.2612321E-009  0.1024023E+03  0.7561462E-02  0.1275324E+00
          2   -1    0    0  501    0  0.00000000000E+00  0.00000000000E+00  0.37857642234E+03  0.37857642234E+03  0.00000000000E+00 0. -1.
         -2   -1    0    0    0  501 -0.00000000000E+00 -0.00000000000E+00 -0.32931525129E+02  0.32931525129E+02  0.00000000000E+00 0.  1.
         25    2    1    2    0    0 -0.10278634295E+02 -0.21587758958E+02  0.13277641049E+03  0.18398109270E+03  0.12509110932E+03 0.  0.
          5    1    3    3  502    0 -0.39853528821E+02 -0.63953554128E+02  0.76207317444E+02  0.10725385064E+03  0.41800000000E+01 0. -1.
         -5    1    3    3    0  502  0.29574894527E+02  0.42365795170E+02  0.56569093046E+02  0.76727242063E+02  0.41800000000E+01 0. -1.
        -11    1    1    2    0    0 -0.80898246951E+01 -0.25606850564E+02  0.10471545130E+03  0.10810403230E+03  0.00000000000E+00 0.  1.
         11    1    1    2    0    0  0.18368458990E+02  0.47194609523E+02  0.10815303542E+03  0.11942282246E+03  0.00000000000E+00 0. -1.
</event>
<event>
 7    1  0.2612321E-009  0.1122390E+03  0.7561462E-02  0.1256479E+00
          2   -1    0    0  501    0  0.00000000000E+00  0.00000000000E+00  0.48984987558E+03  0.48984987558E+03  0.00000000000E+00 0. -1.
         -2   -1    0    0    0  501 -0.00000000000E+00 -0.00000000000E+00 -0.40747871128E+02  0.40747871128E+02  0.00000000000E+00 0.  1.
         25    2    1    2    0    0 -0.77419339767E+02 -0.23617847498E+02  0.32019489583E+03  0.35316501779E+03  0.12509676888E+03 0.  0.
          5    1    3    3  502    0 -0.50740483955E+02 -0.70138976912E+02  0.13593198201E+03  0.16121119356E+03  0.41800000000E+01 0. -1.
         -5    1    3    3    0  502 -0.26678855812E+02  0.46521129414E+02  0.18426291381E+03  0.19195382423E+03  0.41800000000E+01 0. -1.
        -11    1    1    2    0    0  0.35220736154E+02  0.22520411864E+02  0.16002509786E-01  0.41805136787E+02  0.00000000000E+00 0.  1.
         11    1    1    2    0    0  0.42198603614E+02  0.10974356335E+01  0.12889110612E+03  0.13562759214E+03  0.00000000000E+00 0. -1.
</event>
<event>
 7    1  0.2612321E-009  0.9976066E+02  0.7561462E-02  0.1280800E+00
         -1   -1    0    0    0  501 -0.00000000000E+00  0.00000000000E+00  0.98370255269E+03  0.98370255269E+03  0.00000000000E+00 0.  1.
          1   -1    0    0  501    0  0.00000000000E+00 -0.00000000000E+00 -0.13824113285E+02  0.13824113285E+02  0.00000000000E+00 0. -1.
         25    2    1    2    0    0 -0.12616170476E+02 -0.12444350104E+02  0.71288902909E+03  0.72399824273E+03  0.12509459650E+03 0.  0.
          5    1    3    3  502    0 -0.63490095756E+02 -0.26781355805E+02  0.30732373140E+03  0.31498187497E+03  0.41800000000E+01 0.  1.
         -5    1    3    3    0  502  0.50873925280E+02  0.14337005701E+02  0.40556529770E+03  0.40901636777E+03  0.41800000000E+01 0.  1.
        -11    1    1    2    0    0  0.16437824740E+02  0.43331191524E+02  0.22162876833E+03  0.22642240435E+03  0.00000000000E+00 0.  1.
         11    1    1    2    0    0 -0.38216542647E+01 -0.30886841420E+02  0.35360641980E+02  0.47106018888E+02  0.00000000000E+00 0. -1.
</event>
<event>
 7    1  0.3402725E-009  0.1487912E+03  0.7561462E-02  0.1201966E+00
          2   -1    0    0  501    0  0.00000000000E+00  0.00000000000E+00  0.11042289422E+03  0.11042289422E+03  0.00000000000E+00 0. -1.
         -2   -1    0    0    0  501 -0.00000000000E+00 -0.00000000000E+00 -0.23484410957E+03  0.23484410957E+03  0.00000000000E+00 0.  1.
         25    2    1    2    0    0 -0.18183678605E+00  0.11791171864E+03 -0.78498120297E+02  0.18899177561E+03  0.12511087043E+03 0.  0.
          5    1    3    3  502    0 -0.22134092536E+02 -0.12063546916E+02  0.12812152856E+02  0.28584451672E+02  0.41800000000E+01 0.  1.
         -5    1    3    3    0  502  0.21952255750E+02  0.12997526556E+03 -0.91310273153E+02  0.16040732394E+03  0.41800000000E+01 0.  1.
        -11    1    1    2    0    0  0.34975100128E+02 -0.31791951594E+02 -0.42128579173E+02  0.63315108767E+02  0.00000000000E+00 0.  1.
         11    1    1    2    0    0 -0.34793263342E+02 -0.86119767046E+02 -0.37945158822E+01  0.92960119411E+02  0.00000000000E+00 0. -1.
</event>
<event>
 7    1  0.2612321E-009  0.1674298E+03  0.7561462E-02  0.1180555E+00
          2   -1    0    0  501    0  0.00000000000E+00  0.00000000000E+00  0.74554436716E+03  0.74554436716E+03  0.00000000000E+00 0. -1.
         -2   -1    0    0    0  501 -0.00000000000E+00 -0.00000000000E+00 -0.41936675572E+02  0.41936675572E+02  0.00000000000E+00 0.  1.
         25    2    1    2    0    0  0.12910326405E+03  0.21860327009E+02  0.49917023938E+03  0.53100284195E+03  0.12509022183E+03 0.  0.
          5    1    3    3  502    0 -0.77950152039E+01 -0.32433959675E+02  0.84885447081E+02  0.91300249334E+02  0.41800000000E+01 0. -1.
         -5    1    3    3    0  502  0.13689827925E+03  0.54294286684E+02  0.41428479230E+03  0.43970259262E+03  0.41800000000E+01 0. -1.
        -11    1    1    2    0    0 -0.11628130721E+03  0.12771746796E+02  0.16696198605E+03  0.20386457443E+03  0.00000000000E+00 0.  1.
         11    1    1    2    0    0 -0.12821956837E+02 -0.34632073805E+02  0.37475466167E+02  0.52613626349E+02  0.00000000000E+00 0. -1.
</event>
<event>
 7    1  0.2612321E-009  0.8504147E+02  0.7561462E-02  0.1315324E+00
         -1   -1    0    0    0  501 -0.00000000000E+00  0.00000000000E+00  0.45675018294E+02  0.45675018294E+02  0.00000000000E+00 0.  1.
          1   -1    0    0  501    0  0.00000000000E+00 -0.00000000000E+00 -0.31451836411E+03  0.31451836411E+03  0.00000000000E+00 0. -1.
         25    2    1    2    0    0 -0.28449445702E+02 -0.12640520864E+02 -0.20794466497E+03  0.24465802124E+03  0.12508960764E+03 0.  0.
          5    1    3    3  502    0 -0.53200141142E+02 -0.25724919178E+02 -0.20808228851E+03  0.21635095950E+03  0.41800000000E+01 0.  1.
         -5    1    3    3    0  502  0.24750695440E+02  0.13084398314E+02  0.13762354297E+00  0.28307061738E+02  0.41800000000E+01 0.  1.
        -11    1    1    2    0    0  0.56576161336E+01 -0.31955535163E+02  0.49257844686E+01  0.32824201445E+02  0.00000000000E+00 0.  1.
         11    1    1    2    0    0  0.22791829568E+02  0.44596056027E+02 -0.65824465316E+02  0.82711159720E+02  0.00000000000E+00 0. -1.
</event>
<event>
 7    1  0.2612321E-009  0.2063224E+03  0.7561462E-02  0.1144512E+00
         -1   -1    0    0    0  501 -0.00000000000E+00  0.00000000000E+00  0.42813770425E+02  0.42813770425E+02  0.00000000000E+00 0.  1.
          1   -1    0    0  501    0  0.00000000000E+00 -0.00000000000E+00 -0.13940230980E+04  0.13940230980E+04  0.00000000000E+00 0. -1.
         25    2    1    2    0    0 -0.17707406909E+03  0.62975367014E+02 -0.10224340943E+04  0.10470630622E+04  0.12509378951E+03 0.  0.
          5    1    3    3  502    0 -0.90714179892E+02  0.84501360763E+02 -0.75642428153E+03  0.76652769585E+03  0.41800000000E+01 0.  1.
         -5    1    3    3    0  502 -0.86359889201E+02 -0.21525993749E+02 -0.26600981275E+03  0.28053536631E+03  0.41800000000E+01 0.  1.
        -11    1    1    2    0    0  0.10734975725E+03 -0.71904800987E+02 -0.15175997569E+03  0.19931221992E+03  0.00000000000E+00 0.  1.
         11    1    1    2    0    0  0.69724311841E+02  0.89294339731E+01 -0.17701525757E+03  0.19046158633E+03  0.00000000000E+00 0. -1.
</event>
<event>
 7    1  0.2612321E-009  0.1526950E+03  0.7561462E-02  0.1197200E+00
         -2   -1    0    0    0  501 -0.00000000000E+00  0.00000000000E+00  0.15390788433E+03  0.15390788433E+03  0.00000000000E+00 0.  1.
          2   -1    0    0  501    0  0.00000000000E+00 -0.00000000000E+00 -0.16218948617E+03  0.16218948617E+03  0.00000000000E+00 0. -1.
         25    2    1    2    0    0  0.74096770857E+02 -0.93231083231E+02  0.13302198544E+02  0.17322441091E+03  0.12508949483E+03 0.  0.
          5    1    3    3  502    0  0.26179099238E+02  0.29564519423E+02 -0.52144619619E+01  0.40050830942E+02  0.41800000000E+01 0.  1.
         -5    1    3    3    0  502  0.47917671619E+02 -0.12279560265E+03  0.18516660506E+02  0.13317357997E+03  0.41800000000E+01 0.  1.
        -11    1    1    2    0    0 -0.84237141895E+02  0.89724299907E+02 -0.50641394169E+01  0.12317463853E+03  0.00000000000E+00 0.  1.
         11    1    1    2    0    0  0.10140371038E+02  0.35067833242E+01 -0.16519660975E+02  0.19698321066E+02  0.00000000000E+00 0. -1.
</event>
<event>
 7    1  0.2612321E-009  0.9994269E+02  0.7561462E-02  0.1280417E+00
          1   -1    0    0  501    0  0.00000000000E+00  0.00000000000E+00  0.42769829274E+03  0.42769829274E+03  0.00000000000E+00 0. -1.
         -1   -1    0    0    0  501 -0.00000000000E+00 -0.00000000000E+00 -0.37569280600E+02  0.37569280600E+02  0.00000000000E+00 0.  1.
         25    2    1    2    0    0 -0.33881530625E+02  0.54748312369E+01  0.31874407517E+03  0.34412532485E+03  0.12508605776E+03 0.  0.
          5    1    3    3  502    0 -0.62548674707E+02  0.43054265009E+02  0.24413674469E+03  0.25570731110E+03  0.41800000000E+01 0. -1.
         -5    1    3    3    0  502  0.28667144082E+02 -0.37579433772E+02  0.74607330487E+02  0.88418013746E+02  0.41800000000E+01 0. -1.
        -11    1    1    2    0    0  0.45116055723E+02 -0.26661638559E+02  0.75435185432E+01  0.52945312603E+02  0.00000000000E+00 0.  1.
         11    1    1    2    0    0 -0.11234525098E+02  0.21186807322E+02  0.63841418422E+02  0.68196935890E+02  0.00000000000E+00 0. -1.
</event>
<event>
 7    1  0.2612321E-009  0.7268316E+02  0.7561462E-02  0.1351199E+00
         -2   -1    0    0    0  501 -0.00000000000E+00  0.00000000000E+00  0.46495654690E+02  0.46495654690E+02  0.00000000000E+00 0.  1.
          2   -1    0    0  501    0  0.00000000000E+00 -0.00000000000E+00 -0.29994199091E+03  0.29994199091E+03  0.00000000000E+00 0. -1.
         25    2    1    2    0    0  0.33374227969E+02 -0.22245334753E+02 -0.18387672516E+03  0.22598249064E+03  0.12509493200E+03 0.  0.
          5    1    3    3  502    0  0.13305179375E+02  0.52771541712E+01 -0.19045655174E+03  0.19103938509E+03  0.41800000000E+01 0. -1.
         -5    1    3    3    0  502  0.20069048594E+02 -0.27522488924E+02  0.65798265812E+01  0.34943105556E+02  0.41800000000E+01 0. -1.
        -11    1    1    2    0    0  0.27006302600E+02  0.23417237703E+02 -0.14005711011E+02  0.38390979965E+02  0.00000000000E+00 0.  1.
         11    1    1    2    0    0 -0.60380530569E+02 -0.11719029503E+01 -0.55563900053E+02  0.82064174993E+02  0.00000000000E+00 0. -1.
</event>
<event>
 7    1  0.2612321E-009  0.1102533E+03  0.7561462E-02  0.1260102E+00
          1   -1    0    0  501    0  0.00000000000E+00  0.00000000000E+00  0.31785071069E+03  0.31785071069E+03  0.00000000000E+00 0. -1.
         -1   -1    0    0    0  501 -0.00000000000E+00 -0.00000000000E+00 -0.42577800126E+02  0.42577800126E+02  0.00000000000E+00 0.  1.
         25    2    1    2    0    0 -0.22902589556E+02  0.14255123152E+02  0.10638012828E+03  0.16640991659E+03  0.12509113278E+03 0.  0.
          5    1    3    3  502    0 -0.28486626296E+02 -0.52426092991E+02  0.61127608579E+02  0.85522161073E+02  0.41800000000E+01 0. -1.
         -5    1    3    3    0  502  0.55840367401E+01  0.66681216143E+02  0.45252519702E+02  0.80887755513E+02  0.41800000000E+01 0. -1.
        -11    1    1    2    0    0  0.31450206451E+02  0.33024250336E+02  0.63378620880E+02  0.78080510889E+02  0.00000000000E+00 0.  1.
         11    1    1    2    0    0 -0.85476168952E+01 -0.47279373487E+02  0.10551416140E+03  0.11593808334E+03  0.00000000000E+00 0. -1.
</event>
<event>
 7    1  0.2612321E-009  0.3992787E+03  0.7561462E-02  0.1044030E+00
         -2   -1    0    0    0  501 -0.00000000000E+00  0.00000000000E+00  0.16998055514E+03  0.16998055514E+03  0.00000000000E+00 0. -1.
          2   -1    0    0  501    0  0.00000000000E+00 -0.00000000000E+00 -0.10028552789E+04  0.10028552789E+04  0.00000000000E+00 0.  1.
         25    2    1    2    0    0  0.96540595545E+02  0.38172826150E+03 -0.50486904892E+03  0.65236255506E+03  0.12509034523E+03 0.  0.
          5    1    3    3  502    0  0.32201107304E+02  0.89829894264E+02 -0.21818432890E+03  0.23817681455E+03  0.41800000000E+01 0.  1.
         -5    1    3    3    0  502  0.64339488241E+02  0.29189836724E+03 -0.28668472003E+03  0.41418574051E+03  0.41800000000E+01 0.  1.
        -11    1    1    2    0    0 -0.10523271916E+03 -0.23935777189E+03 -0.21097521033E+03  0.33597114090E+03  0.00000000000E+00 0.  1.
         11    1    1    2    0    0  0.86921236121E+01 -0.14237048961E+03 -0.11703046446E+03  0.18450213802E+03  0.00000000000E+00 0. -1.
</event>
<event>
 7    1  0.2875927E-009  0.9856304E+02  0.7561462E-02  0.1283347E+00
         -2   -1    0    0    0  501 -0.00000000000E+00  0.00000000000E+00  0.99775593603E+02  0.99775593603E+02  0.00000000000E+00 0.  1.
          2   -1    0    0  501    0  0.00000000000E+00 -0.00000000000E+00 -0.17668335390E+03  0.17668335390E+03  0.00000000000E+00 0. -1.
         25    2    1    2    0    0  0.74443794448E+02 -0.14274339082E+02 -0.51606992205E+02  0.15509969526E+03  0.12508796320E+03 0.  0.
          5    1    3    3  502    0 -0.16127639549E+02 -0.23790283262E+02  0.23198449539E+02  0.37171478261E+02  0.41800000000E+01 0. -1.
         -5    1    3    3    0  502  0.90571433997E+02  0.95159441803E+01 -0.74805441744E+02  0.11792821700E+03  0.41800000000E+01 0. -1.
        -11    1    1    2    0    0 -0.47264351299E+02  0.26003817800E+01 -0.59571239332E+02  0.76088195173E+02  0.00000000000E+00 0. -1.
         11    1    1    2    0    0 -0.27179443149E+02  0.11673957302E+02  0.34270471242E+02  0.45271057068E+02  0.00000000000E+00 0.  1.
</event>
<event>
 7    1  0.2612321E-009  0.3061565E+03  0.7561462E-02  0.1082203E+00
          1   -1    0    0  501    0  0.00000000000E+00  0.00000000000E+00  0.11805027572E+04  0.11805027572E+04  0.00000000000E+00 0. -1.
         -1   -1    0    0    0  501 -0.00000000000E+00 -0.00000000000E+00 -0.87854119498E+02  0.87854119498E+02  0.00000000000E+00 0.  1.
         25    2    1    2    0    0  0.29565958706E+03  0.53052368654E+02  0.63247120239E+03  0.71126625411E+03  0.12510282625E+03 0.  0.
          5    1    3    3  502    0 -0.24930576792E+01 -0.58713126348E+01  0.82843140239E+02  0.83193424820E+02  0.41800000000E+01 0.  1.
         -5    1    3    3    0  502  0.29815264474E+03  0.58923681289E+02  0.54962806215E+03  0.62807282929E+03  0.41800000000E+01 0.  1.
        -11    1    1    2    0    0 -0.10015942910E+03 -0.10949728438E+02  0.84492560943E+02  0.13149448903E+03  0.00000000000E+00 0.  1.
         11    1    1    2    0    0 -0.19550015796E+03 -0.42102640216E+02  0.37568487441E+03  0.42559613360E+03  0.00000000000E+00 0. -1.
</event>
<event>
 7    1  0.2612321E-009  0.6505518E+02  0.7561462E-02  0.1377764E+00
         -2   -1    0    0    0  501 -0.00000000000E+00  0.00000000000E+00  0.36344188037E+02  0.36344188037E+02  0.00000000000E+00 0.  1.
          2   -1    0    0  501    0  0.00000000000E+00 -0.00000000000E+00 -0.33350688823E+03  0.33350688823E+03  0.00000000000E+00 0. -1.
         25    2    1    2    0    0 -0.15379261294E+02 -0.93179804412E+01 -0.15176753993E+03  0.19749492732E+03  0.12509002239E+03 0.  0.
          5    1    3    3  502    0 -0.15518471529E+02 -0.21364222974E+02  0.14720579166E+02  0.30519187946E+02  0.41800000000E+01 0.  1.
         -5    1    3    3    0  502  0.13921023505E+00  0.12046242533E+02 -0.16648811909E+03  0.16697573937E+03  0.41800000000E+01 0.  1.
        -11    1    1    2    0    0 -0.26479219968E+02 -0.25060483743E+02 -0.41882034269E+02  0.55527306166E+02  0.00000000000E+00 0. -1.
         11    1    1    2    0    0  0.41858481262E+02  0.34378464184E+02 -0.10351312599E+03  0.11682884278E+03  0.00000000000E+00 0.  1.
</event>
<event>
 7    1  0.2612321E-009  0.1159723E+03  0.7561462E-02  0.1249893E+00
         -4   -1    0    0    0  501 -0.00000000000E+00  0.00000000000E+00  0.11886763055E+03  0.11886763055E+03  0.00000000000E+00 0.  1.
          4   -1    0    0  501    0  0.00000000000E+00 -0.00000000000E+00 -0.17043127224E+03  0.17043127224E+03  0.00000000000E+00 0. -1.
         25    2    1    2    0    0  0.27953814398E+02 -0.85817665797E+02 -0.13452534806E+02  0.15483620821E+03  0.12508874121E+03 0.  0.
          5    1    3    3  502    0  0.32398120888E+02 -0.10674413062E+03 -0.41692274814E+02  0.11916235075E+03  0.41800000000E+01 0.  1.
         -5    1    3    3    0  502 -0.44443064903E+01  0.20926464819E+02  0.28239740008E+02  0.35673857455E+02  0.41800000000E+01 0.  1.
        -11    1    1    2    0    0 -0.37480399574E+02  0.57482477791E+02  0.17948472679E+02  0.70930693474E+02  0.00000000000E+00 0. -1.
         11    1    1    2    0    0  0.95265851761E+01  0.28335188006E+02 -0.56059579558E+02  0.63532001108E+02  0.00000000000E+00 0.  1.
</event>
<event>
 7    1  0.2612321E-009  0.1288612E+03  0.7561462E-02  0.1229155E+00
         -1   -1    0    0    0  501 -0.00000000000E+00  0.00000000000E+00  0.12843098221E+03  0.12843098221E+03  0.00000000000E+00 0.  1.
          1   -1    0    0  501    0  0.00000000000E+00 -0.00000000000E+00 -0.13112873902E+03  0.13112873902E+03  0.00000000000E+00 0. -1.
         25    2    1    2    0    0 -0.57199683037E+02  0.41030283047E+02 -0.96988227033E+01  0.14386092796E+03  0.12508641639E+03 0.  0.
          5    1    3    3  502    0 -0.39762982444E+02 -0.41598551701E+02 -0.13380852351E+02  0.59228826479E+02  0.41800000000E+01 0.  1.
         -5    1    3    3    0  502 -0.17436700593E+02  0.82628834748E+02  0.36820296472E+01  0.84632101484E+02  0.41800000000E+01 0.  1.
        -11    1    1    2    0    0 -0.28084960663E+01  0.25628772538E+02  0.23122648912E+01  0.25885675592E+02  0.00000000000E+00 0. -1.
         11    1    1    2    0    0  0.60008179104E+02 -0.66659055585E+02  0.46888010051E+01  0.89813117670E+02  0.00000000000E+00 0.  1.
</event>
<event>
 7    1  0.2612321E-009  0.1088688E+03  0.7561462E-02  0.1262679E+00
          2   -1    0    0  501    0  0.00000000000E+00  0.00000000000E+00  0.40995885807E+03  0.40995885807E+03  0.00000000000E+00 0.  1.
         -2   -1    0    0    0  501 -0.00000000000E+00 -0.00000000000E+00 -0.29838305063E+02  0.29838305063E+02  0.00000000000E+00 0. -1.
         25    2    1    2    0    0  0.15872176704E+02 -0.18071229414E+02  0.21151538363E+03  0.24693252762E+03  0.12513361003E+03 0.  0.
          5    1    3    3  502    0  0.45595463110E+02 -0.59365894566E+02  0.10745426822E+03  0.13102346298E+03  0.41800000000E+01 0. -1.
         -5    1    3    3    0  502 -0.29723286406E+02  0.41294665153E+02  0.10406111541E+03  0.11590906464E+03  0.41800000000E+01 0. -1.
        -11    1    1    2    0    0 -0.21061032785E+02  0.52672426663E+02  0.12240651175E+03  0.13491221499E+03  0.00000000000E+00 0.  1.
         11    1    1    2    0    0  0.51888560813E+01 -0.34601197249E+02  0.46198657630E+02  0.57952420531E+02  0.00000000000E+00 0. -1.
</event>
<event>
 7    1  0.2612321E-009  0.1142934E+03  0.7561462E-02  0.1252820E+00
          4   -1    0    0  501    0  0.00000000000E+00  0.00000000000E+00  0.19528481882E+02  0.19528481882E+02  0.00000000000E+00 0.  1.
         -4   -1    0    0    0  501 -0.00000000000E+00 -0.00000000000E+00 -0.90062787652E+03  0.90062787652E+03  0.00000000000E+00 0. -1.
         25    2    1    2    0    0 -0.51806636585E+02 -0.34707191121E+02 -0.72719128725E+03  0.74050190476E+03  0.12508951191E+03 0.  0.
          5    1    3    3  502    0 -0.91367197108E+02 -0.28483690081E+02 -0.58199011673E+03  0.58982137439E+03  0.41800000000E+01 0.  1.
         -5    1    3    3    0  502  0.39560560523E+02 -0.62235010391E+01 -0.14520117052E+03  0.15068053037E+03  0.41800000000E+01 0.  1.
        -11    1    1    2    0    0  0.32744223281E+02 -0.17372987745E+02 -0.56785837051E+02  0.67813244658E+02  0.00000000000E+00 0.  1.
         11    1    1    2    0    0  0.19062413304E+02  0.52080178866E+02 -0.97122270339E+02  0.11184120899E+03  0.00000000000E+00 0. -1.
</event>
<event>
 7    1  0.2612321E-009  0.1259514E+03  0.7561462E-02  0.1233590E+00
         -2   -1    0    0    0  501 -0.00000000000E+00  0.00000000000E+00  0.90196874314E+02  0.90196874314E+02  0.00000000000E+00 0.  1.
          2   -1    0    0  501    0  0.00000000000E+00 -0.00000000000E+00 -0.27907143307E+03  0.27907143307E+03  0.00000000000E+00 0. -1.
         25    2    1    2    0    0 -0.38720472928E+02 -0.92340369202E+02 -0.16874286852E+03  0.23269814388E+03  0.12509297215E+03 0.  0.
          5    1    3    3  502    0 -0.64240183910E+02 -0.10239771926E+03 -0.16517199512E+03  0.20472262823E+03  0.41800000000E+01 0.  1.
         -5    1    3    3    0  502  0.25519710982E+02  0.10057350056E+02 -0.35708733924E+01  0.27975515644E+02  0.41800000000E+01 0.  1.
        -11    1    1    2    0    0  0.63919835111E+01  0.47477563158E+02  0.34345490065E+02  0.58945645678E+02  0.00000000000E+00 0.  1.
         11    1    1    2    0    0  0.32328489417E+02  0.44862806044E+02 -0.54477180310E+02  0.77624517832E+02  0.00000000000E+00 0. -1.
</event>
<event>
 6    1  0.2612321E-009  0.6185657E+02  0.7561462E-02  0.1390202E+00
         -2   -1    0    0    0  501 -0.00000000000E+00  0.00000000000E+00  0.99978486511E+02  0.99978486511E+02  0.00000000000E+00 0.  1.
          2   -1    0    0  501    0  0.00000000000E+00 -0.00000000000E+00 -0.22986166089E+03  0.22986166089E+03  0.00000000000E+00 0. -1.
          5    1    1    2  502    0  0.11933697229E+01  0.35370966650E+02 -0.40427088622E+02  0.53892033804E+02  0.41800000000E+01 0.  1.
         -5    1    1    2    0  502 -0.84853666271E+01 -0.52247667920E+01  0.80759679773E+02  0.81479432447E+02  0.41800000000E+01 0.  1.
        -11    1    1    2    0    0  0.16123306631E+02  0.20374972006E+02 -0.11967642955E+03  0.12246447766E+03  0.00000000000E+00 0. -1.
         11    1    1    2    0    0 -0.88313097272E+01 -0.50521171864E+02 -0.50539335989E+02  0.72004203490E+02  0.00000000000E+00 0.  1.
</event>
<event>
 7    1  0.2612321E-009  0.1751135E+03  0.7561462E-02  0.1172618E+00
         -3   -1    0    0    0  501 -0.00000000000E+00  0.00000000000E+00  0.11881721785E+03  0.11881721785E+03  0.00000000000E+00 0.  1.
          3   -1    0    0  501    0  0.00000000000E+00 -0.00000000000E+00 -0.35848046977E+03  0.35848046977E+03  0.00000000000E+00 0. -1.
         25    2    1    2    0    0 -0.15851500986E+03  0.24335217753E+02 -0.43399385174E+02  0.20796765610E+03  0.12509127938E+03 0.  0.
          5    1    3    3  502    0 -0.17068389835E+03  0.15970617023E+02 -0.10661873194E+02  0.17181152961E+03  0.41800000000E+01 0.  1.
         -5    1    3    3    0  502  0.12168888495E+02  0.83646007304E+01 -0.32737511980E+02  0.36156126497E+02  0.41800000000E+01 0.  1.
        -11    1    1    2    0    0  0.36920067687E+02  0.75715086069E+01 -0.17500040310E+01  0.37729055842E+02  0.00000000000E+00 0.  1.
         11    1    1    2    0    0  0.12159494217E+03 -0.31906726360E+02 -0.19451386272E+03  0.23160097568E+03  0.00000000000E+00 0. -1.
</event>
<event>
 7    1  0.2612321E-009  0.8131312E+02  0.7561462E-02  0.1325366E+00
         -1   -1    0    0    0  501 -0.00000000000E+00  0.00000000000E+00  0.11991949858E+02  0.11991949858E+02  0.00000000000E+00 0.  1.
          1   -1    0    0  501    0  0.00000000000E+00 -0.00000000000E+00 -0.13307692333E+04  0.13307692333E+04  0.00000000000E+00 0. -1.
         25    2    1    2    0    0  0.46747316781E+02 -0.37503384817E+02 -0.91632129468E+03  0.92675971714E+03  0.12508813988E+03 0.  0.
          5    1    3    3  502    0  0.82471071415E+01 -0.55501834445E+01 -0.18864733833E+01  0.10947625053E+02  0.41800000000E+01 0. -1.
         -5    1    3    3    0  502  0.38500209640E+02 -0.31953201373E+02 -0.91443482130E+03  0.91581209209E+03  0.41800000000E+01 0. -1.
        -11    1    1    2    0    0  0.14243542747E+02  0.38064246895E+02 -0.11036904621E+03  0.11761416481E+03  0.00000000000E+00 0.  1.
         11    1    1    2    0    0 -0.60990859528E+02 -0.56086207782E+00 -0.29208694253E+03  0.29838730119E+03  0.00000000000E+00 0. -1.
</event>
<event>
 7    1  0.2612321E-009  0.1036404E+03  0.7561462E-02  0.1272822E+00
          1   -1    0    0  501    0  0.00000000000E+00  0.00000000000E+00  0.22818909943E+03  0.22818909943E+03  0.00000000000E+00 0. -1.
         -1   -1    0    0    0  501 -0.00000000000E+00 -0.00000000000E+00 -0.74657916067E+02  0.74657916067E+02  0.00000000000E+00 0.  1.
         25    2    1    2    0    0  0.63681730514E+02 -0.25959674312E+02  0.68601280591E+02  0.15837437189E+03  0.12508812287E+03 0.  0.
          5    1    3    3  502    0  0.60600777027E+02  0.11395941164E+02 -0.17618505594E+02  0.64266677141E+02  0.41800000000E+01 0. -1.
         -5    1    3    3    0  502  0.30809534862E+01 -0.37355615477E+02  0.86219786185E+02  0.94107694753E+02  0.41800000000E+01 0. -1.
        -11    1    1    2    0    0 -0.36599817631E+02  0.56263194619E+02  0.78570759791E+02  0.10333662474E+03  0.00000000000E+00 0.  1.
         11    1    1    2    0    0 -0.27081912882E+02 -0.30303520306E+02  0.63591429848E+01  0.41136018862E+02  0.00000000000E+00 0. -1.
</event>
<event>
 7    1  0.2612321E-009  0.2299664E+03  0.7561462E-02  0.1126663E+00
         -2   -1    0    0    0  501 -0.00000000000E+00  0.00000000000E+00  0.18184003650E+03  0.18184003650E+03  0.00000000000E+00 0.  1.
          2   -1    0    0  501    0  0.00000000000E+00 -0.00000000000E+00 -0.34776435159E+03  0.34776435159E+03  0.00000000000E+00 0. -1.
         25    2    1    2    0    0 -0.18990021833E+03  0.70129396148E+02 -0.19241640396E+03  0.30602465228E+03  0.12508713028E+03 0.  0.
          5    1    3    3  502    0 -0.11970236663E+03 -0.22258094584E+02 -0.96005279240E+02  0.15510823767E+03  0.41800000000E+01 0. -1.
         -5    1    3    3    0  502 -0.70197851701E+02  0.92387490732E+02 -0.96411124718E+02  0.15091641460E+03  0.41800000000E+01 0. -1.
        -11    1    1    2    0    0  0.98779860265E+02 -0.84204787069E+02  0.14819380595E+02  0.13064272272E+03  0.00000000000E+00 0.  1.
         11    1    1    2    0    0  0.91120358070E+02  0.14075390921E+02  0.11672708272E+02  0.92937013093E+02  0.00000000000E+00 0. -1.
</event>
<event>
 7    1  0.2612321E-009  0.1326002E+03  0.7561462E-02  0.1223648E+00
          1   -1    0    0  501    0  0.00000000000E+00  0.00000000000E+00  0.76444660212E+02  0.76444660212E+02  0.00000000000E+00 0. -1.
         -1   -1    0    0    0  501 -0.00000000000E+00 -0.00000000000E+00 -0.35321099446E+03  0.35321099446E+03  0.00000000000E+00 0.  1.
         25    2    1    2    0    0  0.95598413410E+02 -0.38981390059E+02 -0.23627616815E+03  0.28658726140E+03  0.12508886977E+03 0.  0.
          5    1    3    3  502    0  0.11600290899E+03  0.13899233050E+01 -0.15762083270E+03  0.19575598607E+03  0.41800000000E+01 0.  1.
         -5    1    3    3    0  502 -0.20404495579E+02 -0.40371313364E+02 -0.78655335458E+02  0.90831275333E+02  0.41800000000E+01 0.  1.
        -11    1    1    2    0    0 -0.27240580409E+02  0.15875679749E+02  0.29038578402E+02  0.42864034623E+02  0.00000000000E+00 0. -1.
         11    1    1    2    0    0 -0.68357833001E+02  0.23105710310E+02 -0.69528744499E+02  0.10020435865E+03  0.00000000000E+00 0.  1.
</event>
<event>
 7    1  0.2612321E-009  0.1134500E+03  0.7561462E-02  0.1254311E+00
          2   -1    0    0  501    0  0.00000000000E+00  0.00000000000E+00  0.51919327937E+03  0.51919327937E+03  0.00000000000E+00 0. -1.
         -2   -1    0    0    0  501 -0.00000000000E+00 -0.00000000000E+00 -0.34594662675E+02  0.34594662675E+02  0.00000000000E+00 0.  1.
         25    2    1    2    0    0  0.14099175067E+02  0.32637065244E+02  0.21425916374E+03  0.25063980081E+03  0.12509738502E+03 0.  0.
          5    1    3    3  502    0 -0.46916299527E+01  0.63843589411E+02  0.20205694840E+03  0.21199645775E+03  0.41800000000E+01 0.  1.
         -5    1    3    3    0  502  0.18790805019E+02 -0.31206524167E+02  0.12202215339E+02  0.38643343063E+02  0.41800000000E+01 0.  1.
        -11    1    1    2    0    0 -0.67331175205E+00  0.46151961097E+02  0.46721520145E+02  0.65676154779E+02  0.00000000000E+00 0.  1.
         11    1    1    2    0    0 -0.13425863314E+02 -0.78789026341E+02  0.22361793280E+03  0.23747198645E+03  0.00000000000E+00 0. -1.
</event>
<event>
 7    1  0.2612321E-009  0.1996548E+03  0.7561462E-02  0.1150031E+00
         -2   -1    0    0    0  501 -0.00000000000E+00  0.00000000000E+00  0.10541898090E+03  0.10541898090E+03  0.00000000000E+00 0.  1.
          2   -1    0    0  501    0  0.00000000000E+00 -0.00000000000E+00 -0.42969668663E+03  0.42969668663E+03  0.00000000000E+00 0. -1.
         25    2    1    2    0    0 -0.66471774111E+02  0.16401231096E+03 -0.10946157571E+03  0.24279356252E+03  0.12509333534E+03 0.  0.
          5    1    3    3  502    0  0.23207303554E+02  0.18068825461E+02 -0.55845190617E+02  0.63255190355E+02  0.41800000000E+01 0. -1.
         -5    1    3    3    0  502 -0.89679077664E+02  0.14594348550E+03 -0.53616385097E+02  0.17953837217E+03  0.41800000000E+01 0. -1.
        -11    1    1    2    0    0  0.76740989373E+02 -0.70583643303E+02 -0.11353927226E+03  0.15415056438E+03  0.00000000000E+00 0.  1.
         11    1    1    2    0    0 -0.10269215262E+02 -0.93428667654E+02 -0.10127685776E+03  0.13817154063E+03  0.00000000000E+00 0. -1.
</event>
<event>
 7    1  0.2612321E-009  0.1228636E+03  0.7561462E-02  0.1238446E+00
         -4   -1    0    0    0  501 -0.00000000000E+00  0.00000000000E+00  0.44971260158E+03  0.44971260158E+03  0.00000000000E+00 0.  1.
          4   -1    0    0  501    0  0.00000000000E+00 -0.00000000000E+00 -0.52852552897E+02  0.52852552897E+02  0.00000000000E+00 0. -1.
         25    2    1    2    0    0 -0.80433065954E+02 -0.50834722795E+02  0.12159927212E+03  0.19871375487E+03  0.12508847369E+03 0.  0.
          5    1    3    3  502    0 -0.10830661910E+03 -0.23106854798E+02  0.11295478383E+03  0.15824192260E+03  0.41800000000E+01 0.  1.
         -5    1    3    3    0  502  0.27873553146E+02 -0.27727867997E+02  0.86444882944E+01  0.40471832261E+02  0.41800000000E+01 0.  1.
        -11    1    1    2    0    0  0.18124077487E+02  0.14713351906E+02  0.46275594344E+01  0.23798722978E+02  0.00000000000E+00 0. -1.
         11    1    1    2    0    0  0.62308988467E+02  0.36121370889E+02  0.27063321713E+03  0.28005267664E+03  0.00000000000E+00 0.  1.
</event>
<event>
 7    1  0.2612321E-009  0.7347039E+02  0.7561462E-02  0.1348674E+00
          2   -1    0    0  501    0  0.00000000000E+00  0.00000000000E+00  0.13075990394E+03  0.13075990394E+03  0.00000000000E+00 0. -1.
         -2   -1    0    0    0  501 -0.00000000000E+00 -0.00000000000E+00 -0.44694886255E+03  0.44694886255E+03  0.00000000000E+00 0.  1.
         25    2    1    2    0    0 -0.39604213611E+02 -0.32655326543E+02 -0.41316957355E+03  0.43473062615E+03  0.12508699659E+03 0.  0.
          5    1    3    3  502    0 -0.20875417221E+02 -0.22629378231E+02 -0.41187059128E+03  0.41304083111E+03  0.41800000000E+01 0. -1.
         -5    1    3    3    0  502 -0.18728796390E+02 -0.10025948312E+02 -0.12989822688E+01  0.21689795036E+02  0.41800000000E+01 0. -1.
        -11    1    1    2    0    0  0.41080420936E+02  0.56762049051E+02  0.39050873366E+02  0.80215347082E+02  0.00000000000E+00 0.  1.
         11    1    1    2    0    0 -0.14762073250E+01 -0.24106722508E+02  0.57929741577E+02  0.62762793256E+02  0.00000000000E+00 0. -1.
</event>
<event>
 7    1  0.2612321E-009  0.1564250E+03  0.7561462E-02  0.1192793E+00
         -1   -1    0    0    0  501 -0.00000000000E+00  0.00000000000E+00  0.13786076776E+03  0.13786076776E+03  0.00000000000E+00 0.  1.
          1   -1    0    0  501    0  0.00000000000E+00 -0.00000000000E+00 -0.31879067941E+03  0.31879067941E+03  0.00000000000E+00 0. -1.
         25    2    1    2    0    0 -0.72807300380E+02 -0.10222654489E+03 -0.23204108107E+03  0.29194370072E+03  0.12504755741E+03 0.  0.
          5    1    3    3  502    0  0.29445299943E+02 -0.17664915455E+02 -0.95197175804E+02  0.10128696662E+03  0.41800000000E+01 0. -1.
         -5    1    3    3    0  502 -0.10225260032E+03 -0.84561629439E+02 -0.13684390527E+03  0.19065673409E+03  0.41800000000E+01 0. -1.
        -11    1    1    2    0    0  0.11118503304E+02  0.78700295386E+02  0.57902880532E+02  0.98336672628E+02  0.00000000000E+00 0.  1.
         11    1    1    2    0    0  0.61688797076E+02  0.23526249508E+02 -0.67917111116E+01  0.66371073823E+02  0.00000000000E+00 0. -1.
</event>
<event>
 7    1  0.2612321E-009  0.9483621E+02  0.7561462E-02  0.1291545E+00
          1   -1    0    0  501    0  0.00000000000E+00  0.00000000000E+00  0.12326638536E+03  0.12326638536E+03  0.00000000000E+00 0. -1.
         -1   -1    0    0    0  501 -0.00000000000E+00 -0.00000000000E+00 -0.12860882147E+03  0.12860882147E+03  0.00000000000E+00 0.  1.
         25    2    1    2    0    0 -0.19462356257E+02  0.27599373284E+02 -0.53922709933E+02  0.14036081468E+03  0.12511191364E+03 0.  0.
          5    1    3    3  502    0  0.27807469000E+02  0.32961396198E+02 -0.76206105370E+02  0.87661575774E+02  0.41800000000E+01 0.  1.
         -5    1    3    3    0  502 -0.47269825257E+02 -0.53620229144E+01  0.22283395437E+02  0.52699238911E+02  0.41800000000E+01 0.  1.
        -11    1    1    2    0    0  0.24548921015E+02 -0.60503822566E+02  0.21969011289E+02  0.68891215152E+02  0.00000000000E+00 0.  1.
         11    1    1    2    0    0 -0.50865647575E+01  0.32904449283E+02  0.26611262538E+02  0.42623176999E+02  0.00000000000E+00 0. -1.
</event>
<event>
 7    1  0.2612321E-009  0.1148998E+03  0.7561462E-02  0.1251756E+00
          2   -1    0    0  501    0  0.00000000000E+00  0.00000000000E+00  0.28831877814E+03  0.28831877814E+03  0.00000000000E+00 0. -1.
         -2   -1    0    0    0  501 -0.00000000000E+00 -0.00000000000E+00 -0.77142873365E+02  0.77142873365E+02  0.00000000000E+00 0.  1.
         25    2    1    2    0    0 -0.47898018686E+02 -0.89481149618E+02  0.10642131396E+03  0.19306526777E+03  0.12509038821E+03 0.  0.
          5    1    3    3  502    0 -0.64797761111E+02 -0.87828990090E+02  0.28053879478E+02  0.11277044781E+03  0.41800000000E+01 0.  1.
         -5    1    3    3    0  502  0.16899742425E+02 -0.16521595281E+01  0.78367434487E+02  0.80294819965E+02  0.41800000000E+01 0.  1.
        -11    1    1    2    0    0  0.32015769537E+02  0.40685727700E+02 -0.42206412952E+01  0.51943736393E+02  0.00000000000E+00 0.  1.
         11    1    1    2    0    0  0.15882249149E+02  0.48795421918E+02  0.10897523211E+03  0.12045264734E+03  0.00000000000E+00 0. -1.
</event>
<event>
 7    1  0.2612321E-009  0.9848163E+02  0.7561462E-02  0.1283522E+00
         -1   -1    0    0    0  501 -0.00000000000E+00  0.00000000000E+00  0.31355870044E+02  0.31355870044E+02  0.00000000000E+00 0.  1.
          1   -1    0    0  501    0  0.00000000000E+00 -0.00000000000E+00 -0.49779835168E+03  0.49779835168E+03  0.00000000000E+00 0. -1.
         25    2    1    2    0    0  0.46884793282E+02  0.43181710987E+02 -0.26242193251E+03  0.29761061006E+03  0.12507581922E+03 0.  0.
          5    1    3    3  502    0  0.24152633704E+02  0.66696053303E+02 -0.25375842571E+03  0.26351949503E+03  0.41800000000E+01 0.  1.
         -5    1    3    3    0  502  0.22732159578E+02 -0.23514342316E+02 -0.86635067903E+01  0.34091115023E+02  0.41800000000E+01 0.  1.
        -11    1    1    2    0    0 -0.51861579495E+02 -0.24715019617E+01 -0.17154373833E+03  0.17922886461E+03  0.00000000000E+00 0. -1.
         11    1    1    2    0    0  0.49767862131E+01 -0.40710209026E+02 -0.32476810804E+02  0.52314747059E+02  0.00000000000E+00 0.  1.
</event>
<event>
 7    1  0.2612321E-009  0.2106471E+03  0.7561462E-02  0.1141055E+00
         -2   -1    0    0    0  501 -0.00000000000E+00  0.00000000000E+00  0.12456225839E+03  0.12456225839E+03  0.00000000000E+00 0.  1.
          2   -1    0    0  501    0  0.00000000000E+00 -0.00000000000E+00 -0.39352571018E+03  0.39352571018E+03  0.00000000000E+00 0. -1.
         25    2    1    2    0    0 -0.17595331819E+03  0.66820141918E+02 -0.91580071241E+02  0.24384470046E+03  0.12509527147E+03 0.  0.
          5    1    3    3  502    0 -0.88974493994E+02  0.88241104832E+02 -0.15674208742E+02  0.12635705910E+03  0.41800000000E+01 0.  1.
         -5    1    3    3    0  502 -0.86978824197E+02 -0.21420962914E+02 -0.75905862498E+02  0.11748764136E+03  0.41800000000E+01 0.  1.
        -11    1    1    2    0    0  0.21034424718E+02 -0.45151813195E+02 -0.24487198096E+02  0.55504559530E+02  0.00000000000E+00 0.  1.
         11    1    1    2    0    0  0.15491889347E+03 -0.21668328723E+02 -0.15289618245E+03  0.21873870858E+03  0.00000000000E+00 0. -1.
</event>
<event>
 7    1  0.2612321E-009  0.1172076E+03  0.7561462E-02  0.1247776E+00
         -2   -1    0    0    0  501 -0.00000000000E+00  0.00000000000E+00  0.11390060275E+04  0.11390060275E+04  0.00000000000E+00 0. -1.
          2   -1    0    0  501    0  0.00000000000E+00 -0.00000000000E+00 -0.29193872537E+02  0.29193872537E+02  0.00000000000E+00 0.  1.
         25    2    1    2    0    0 -0.73497664638E+02 -0.74197687115E+02  0.91535132094E+03  0.92974158540E+03  0.12507666205E+03 0.  0.
          5    1    3    3  502    0 -0.86604201734E+02 -0.68567699641E+02  0.90476500659E+03  0.91149273543E+03  0.41800000000E+01 0.  1.
         -5    1    3    3    0  502  0.13106537096E+02 -0.56299874744E+01  0.10586314352E+02  0.18248849969E+02  0.41800000000E+01 0.  1.
        -11    1    1    2    0    0  0.54679432908E+02  0.33379635163E+02  0.35450150074E+02  0.73217167161E+02  0.00000000000E+00 0.  1.
         11    1    1    2    0    0  0.18818231731E+02  0.40818051952E+02  0.15901068398E+03  0.16524114751E+03  0.00000000000E+00 0. -1.
</event>
<event>
 7    1  0.3212005E-009  0.1133514E+03  0.7561462E-02  0.1254486E+00
          2   -1    0    0  501    0  0.00000000000E+00  0.00000000000E+00  0.38677743415E+03  0.38677743415E+03  0.00000000000E+00 0. -1.
         -2   -1    0    0    0  501 -0.00000000000E+00 -0.00000000000E+00 -0.61025735899E+02  0.61025735899E+02  0.00000000000E+00 0.  1.
         25    2    1    2    0    0 -0.52601690977E+02  0.79154192751E+02  0.25215269509E+03  0.29708673338E+03  0.12508885397E+03 0.  0.
          5    1    3    3  502    0  0.55687615968E+01  0.18350265143E+02  0.19335001333E+03  0.19434362195E+03  0.41800000000E+01 0.  1.
         -5    1    3    3    0  502 -0.58170452574E+02  0.60803927609E+02  0.58802681755E+02  0.10274311143E+03  0.41800000000E+01 0.  1.
        -11    1    1    2    0    0  0.20668497117E+02  0.13590059343E+02 -0.47381298585E+01  0.25185836507E+02  0.00000000000E+00 0.  1.
         11    1    1    2    0    0  0.31933193860E+02 -0.92744252094E+02  0.78337133027E+02  0.12553060016E+03  0.00000000000E+00 0. -1.
</event>
<event>
 7    1  0.2612321E-009  0.2053738E+03  0.7561462E-02  0.1145283E+00
         -2   -1    0    0    0  501 -0.00000000000E+00  0.00000000000E+00  0.59799261838E+02  0.59799261838E+02  0.00000000000E+00 0.  1.
          2   -1    0    0  501    0  0.00000000000E+00 -0.00000000000E+00 -0.80542654631E+03  0.80542654631E+03  0.00000000000E+00 0. -1.
         25    2    1    2    0    0 -0.14679692162E+03 -0.11341819191E+03 -0.46918936511E+03  0.51980677962E+03  0.12508958930E+03 0.  0.
          5    1    3    3  502    0 -0.20757644747E+02 -0.89633327891E+02 -0.15321821424E+03  0.17876886434E+03  0.41800000000E+01 0.  1.
         -5    1    3    3    0  502 -0.12603927687E+03 -0.23784864018E+02 -0.31597115087E+03  0.34103791527E+03  0.41800000000E+01 0.  1.
        -11    1    1    2    0    0  0.58973845410E+02  0.72417963985E+02 -0.20418133984E+03  0.22452682577E+03  0.00000000000E+00 0. -1.
         11    1    1    2    0    0  0.87823076211E+02  0.41000227924E+02 -0.72256579527E+02  0.12089220277E+03  0.00000000000E+00 0.  1.
</event>
<event>
 7    1  0.2612321E-009  0.1110611E+03  0.7561462E-02  0.1258617E+00
         -3   -1    0    0    0  501 -0.00000000000E+00  0.00000000000E+00  0.23956365420E+03  0.23956365420E+03  0.00000000000E+00 0.  1.
          3   -1    0    0  501    0  0.00000000000E+00 -0.00000000000E+00 -0.12532632440E+03  0.12532632440E+03  0.00000000000E+00 0. -1.
         25    2    1    2    0    0 -0.91842060503E+02  0.58684089914E+02  0.14217574168E+03  0.21849528997E+03  0.12508982265E+03 0.  0.
          5    1    3    3  502    0 -0.63021122069E+02  0.26580978654E+02  0.15810532757E+03  0.17231650316E+03  0.41800000000E+01 0.  1.
         -5    1    3    3    0  502 -0.28820938434E+02  0.32103111260E+02 -0.15929585896E+02  0.46178786814E+02  0.41800000000E+01 0.  1.
        -11    1    1    2    0    0  0.76333565039E+02 -0.55611662624E+02  0.19461822941E+02  0.96427344274E+02  0.00000000000E+00 0.  1.
         11    1    1    2    0    0  0.15508495463E+02 -0.30724272897E+01 -0.47400234823E+02  0.49967344359E+02  0.00000000000E+00 0. -1.
</event>
<event>
 7    1  0.2612321E-009  0.1347017E+03  0.7561462E-02  0.1220641E+00
          1   -1    0    0  501    0  0.00000000000E+00  0.00000000000E+00  0.55404360473E+02  0.55404360473E+02  0.00000000000E+00 0. -1.
         -1   -1    0    0    0  501 -0.00000000000E+00 -0.00000000000E+00 -0.33003063832E+03  0.33003063832E+03  0.00000000000E+00 0.  1.
         25    2    1    2    0    0  0.44172492254E+02 -0.67105022632E+02 -0.14593514988E+03  0.20832296150E+03  0.12508834951E+03 0.  0.
          5    1    3    3  502    0 -0.42994639481E+02 -0.12741113356E+02 -0.54785659261E+02  0.70921194676E+02  0.41800000000E+01 0.  1.
         -5    1    3    3    0  502  0.87167131734E+02 -0.54363909276E+02 -0.91149490615E+02  0.13740176682E+03  0.41800000000E+01 0.  1.
        -11    1    1    2    0    0 -0.69855614993E+02  0.65591666064E+02 -0.10477035248E+03  0.14198204239E+03  0.00000000000E+00 0. -1.
         11    1    1    2    0    0  0.25683122740E+02  0.15133565682E+01 -0.23920775494E+02  0.35129994904E+02  0.00000000000E+00 0.  1.
</event>
<event>
 7    1  0.2612321E-009  0.1389949E+03  0.7561462E-02  0.1214688E+00
          1   -1    0    0  501    0  0.00000000000E+00  0.00000000000E+00  0.39645450049E+03  0.39645450049E+03  0.00000000000E+00 0. -1.
         -1   -1    0    0    0  501 -0.00000000000E+00 -0.00000000000E+00 -0.66151741759E+02  0.66151741759E+02  0.00000000000E+00 0.  1.
         25    2    1    2    0    0  0.10540278121E+03 -0.44299159052E+02  0.12590951151E+03  0.21112327053E+03  0.12509064111E+03 0.  0.
          5    1    3    3  502    0  0.59453959446E+02 -0.58215056672E+02  0.79418468937E+01  0.83691764525E+02  0.41800000000E+01 0. -1.
         -5    1    3    3    0  502  0.45948821763E+02  0.13915897620E+02  0.11796766462E+03  0.12743150601E+03  0.41800000000E+01 0. -1.
        -11    1    1    2    0    0  0.20411600197E+01 -0.20771911846E+02  0.31000488095E+02  0.37372033904E+02  0.00000000000E+00 0. -1.
         11    1    1    2    0    0 -0.10744394123E+03  0.65071070898E+02  0.17339275912E+03  0.21411093781E+03  0.00000000000E+00 0.  1.
</event>
<event>
 7    1  0.2612321E-009  0.3416938E+03  0.7561462E-02  0.1066077E+00
          1   -1    0    0  501    0  0.00000000000E+00  0.00000000000E+00  0.11099289832E+04  0.11099289832E+04  0.00000000000E+00 0. -1.
         -1   -1    0    0    0  501 -0.00000000000E+00 -0.00000000000E+00 -0.11270575823E+03  0.11270575823E+03  0.00000000000E+00 0.  1.
         25    2    1    2    0    0  0.14217241158E+03  0.30298071965E+03  0.55566653081E+03  0.66062276776E+03  0.12508731642E+03 0.  0.
          5    1    3    3  502    0  0.81968232833E+01  0.33729974963E+02  0.80988241744E+01  0.35888194103E+02  0.41800000000E+01 0.  1.
         -5    1    3    3    0  502  0.13397558830E+03  0.26925074469E+03  0.54756770664E+03  0.62473457366E+03  0.41800000000E+01 0.  1.
        -11    1    1    2    0    0 -0.30925094820E+01 -0.10858841283E+03  0.14145735897E+03  0.17835692144E+03  0.00000000000E+00 0.  1.
         11    1    1    2    0    0 -0.13907990210E+03 -0.19439230682E+03  0.30009933517E+03  0.38365505221E+03  0.00000000000E+00 0. -1.
</event>
<event>
 7    1  0.3358262E-009  0.8924285E+02  0.7561462E-02  0.1304696E+00
          2   -1    0    0  501    0  0.00000000000E+00  0.00000000000E+00  0.69113008584E+03  0.69113008584E+03  0.00000000000E+00 0. -1.
         -2   -1    0    0    0  501 -0.00000000000E+00 -0.00000000000E+00 -0.20983802082E+02  0.20983802082E+02  0.00000000000E+00 0.  1.
         25    2    1    2    0    0 -0.23762780703E+02  0.60107403358E+01  0.50922474623E+03  0.52493689054E+03  0.12509235840E+03 0.  0.
          5    1    3    3  502    0 -0.69599492825E+02 -0.16590657413E+02  0.36230716541E+03  0.36932816549E+03  0.41800000000E+01 0.  1.
         -5    1    3    3    0  502  0.45836712122E+02  0.22601397749E+02  0.14691758082E+03  0.15560872505E+03  0.41800000000E+01 0.  1.
        -11    1    1    2    0    0  0.20239932202E+02  0.20491538648E+02  0.15763000551E+03  0.16023974741E+03  0.00000000000E+00 0. -1.
         11    1    1    2    0    0  0.35228485004E+01 -0.26502278983E+02  0.32915320103E+01  0.26937249968E+02  0.00000000000E+00 0.  1.
</event>
<event>
 7    1  0.2612321E-009  0.1255113E+03  0.7561462E-02  0.1234272E+00
          1   -1    0    0  501    0  0.00000000000E+00  0.00000000000E+00  0.23017137444E+02  0.23017137444E+02  0.00000000000E+00 0. -1.
         -1   -1    0    0    0  501 -0.00000000000E+00 -0.00000000000E+00 -0.10173146618E+04  0.10173146618E+04  0.00000000000E+00 0.  1.
         25    2    1    2    0    0  0.16193607373E+02 -0.75408542378E+02 -0.79178500253E+03  0.80530709498E+03  0.12508935129E+03 0.  0.
          5    1    3    3  502    0  0.22669582393E+02 -0.10206858408E+03 -0.43355423523E+03  0.44600297433E+03  0.41800000000E+01 0. -1.
         -5    1    3    3    0  502 -0.64759750196E+01  0.26660041705E+02 -0.35823076730E+03  0.35930412065E+03  0.41800000000E+01 0. -1.
        -11    1    1    2    0    0  0.29171040370E+02 -0.16429420858E+01 -0.39942050101E+02  0.49487536019E+02  0.00000000000E+00 0.  1.
         11    1    1    2    0    0 -0.45364647743E+02  0.77051484464E+02 -0.16257047170E+03  0.18553716822E+03  0.00000000000E+00 0. -1.
</event>
<event>
 7    1  0.2612321E-009  0.9096127E+02  0.7561462E-02  0.1300540E+00
          1   -1    0    0  501    0  0.00000000000E+00  0.00000000000E+00  0.38423918735E+03  0.38423918735E+03  0.00000000000E+00 0. -1.
         -1   -1    0    0    0  501 -0.00000000000E+00 -0.00000000000E+00 -0.34192733574E+02  0.34192733574E+02  0.00000000000E+00 0.  1.
         25    2    1    2    0    0 -0.20090966275E+01  0.31779495101E+02  0.22824682045E+03  0.26221675797E+03  0.12508814627E+03 0.  0.
          5    1    3    3  502    0 -0.45600423292E+02 -0.28627081399E+02  0.10693639095E+03  0.11979888357E+03  0.41800000000E+01 0. -1.
         -5    1    3    3    0  502  0.43591326665E+02  0.60406576500E+02  0.12131042950E+03  0.14241787440E+03  0.41800000000E+01 0. -1.
        -11    1    1    2    0    0  0.20675779488E+02 -0.60901819150E+01 -0.76929647090E+01  0.22885800821E+02  0.00000000000E+00 0.  1.
         11    1    1    2    0    0 -0.18666682860E+02 -0.25689313186E+02  0.12949259804E+03  0.13332936214E+03  0.00000000000E+00 0. -1.
</event>
<event>
 7    1  0.2612321E-009  0.8985536E+02  0.7561462E-02  0.1303202E+00
          1   -1    0    0  501    0  0.00000000000E+00  0.00000000000E+00  0.15265011350E+03  0.15265011350E+03  0.00000000000E+00 0. -1.
         -1   -1    0    0    0  501 -0.00000000000E+00 -0.00000000000E+00 -0.98895083472E+02  0.98895083472E+02  0.00000000000E+00 0.  1.
         25    2    1    2    0    0 -0.42967601617E+02 -0.25470331097E+02  0.25801968394E+01  0.13472917737E+03  0.12510132399E+03 0.  0.
          5    1    3    3  502    0 -0.19534394988E+02 -0.55904111126E+02  0.47100518300E+02  0.75781220975E+02  0.41800000000E+01 0. -1.
         -5    1    3    3    0  502 -0.23433206629E+02  0.30433780029E+02 -0.44520321460E+02  0.58947956391E+02  0.41800000000E+01 0. -1.
        -11    1    1    2    0    0  0.18643650821E+02  0.46154895301E+02  0.65126358273E+02  0.81971352423E+02  0.00000000000E+00 0.  1.
         11    1    1    2    0    0  0.24323950796E+02 -0.20684564204E+02 -0.13951525087E+02  0.34844667180E+02  0.00000000000E+00 0. -1.
</event>
<event>
 7    1  0.2612321E-009  0.1072698E+03  0.7561462E-02  0.1265711E+00
         -1   -1    0    0    0  501 -0.00000000000E+00  0.00000000000E+00  0.42752217715E+02  0.42752217715E+02  0.00000000000E+00 0.  1.
          1   -1    0    0  501    0  0.00000000000E+00 -0.00000000000E+00 -0.29024482242E+03  0.29024482242E+03  0.00000000000E+00 0. -1.
         25    2    1    2    0    0 -0.21432156948E+02  0.34138296487E+02 -0.11826078180E+03  0.17680191029E+03  0.12509413388E+03 0.  0.
          5    1    3    3  502    0  0.30072533001E+02 -0.34158317667E+02 -0.44183464767E+02  0.63567278263E+02  0.41800000000E+01 0.  1.
         -5    1    3    3    0  502 -0.51504689949E+02  0.68296614154E+02 -0.74077317037E+02  0.11323463203E+03  0.41800000000E+01 0.  1.
        -11    1    1    2    0    0 -0.27146404925E+02 -0.97983813287E+01 -0.23113942622E+02  0.36975531376E+02  0.00000000000E+00 0.  1.
         11    1    1    2    0    0  0.48578561873E+02 -0.24339915158E+02 -0.10611788028E+03  0.11921959847E+03  0.00000000000E+00 0. -1.
</event>
<event>
 7    1  0.2612321E-009  0.1301779E+03  0.7561462E-02  0.1227192E+00
         -2   -1    0    0    0  501 -0.00000000000E+00  0.00000000000E+00  0.20219937938E+03  0.20219937938E+03  0.00000000000E+00 0.  1.
          2   -1    0    0  501    0  0.00000000000E+00 -0.00000000000E+00 -0.10857316828E+03  0.10857316828E+03  0.00000000000E+00 0. -1.
         25    2    1    2    0    0  0.31203045299E+02  0.96097700740E+02  0.42667535074E+02  0.16636120248E+03  0.12508850074E+03 0.  0.
          5    1    3    3  502    0 -0.41998860267E+02  0.52229622678E+01  0.21639950604E+02  0.47717328725E+02  0.41800000000E+01 0. -1.
         -5    1    3    3    0  502  0.73201905565E+02  0.90874738472E+02  0.21027584470E+02  0.11864387375E+03  0.41800000000E+01 0. -1.
        -11    1    1    2    0    0 -0.19160411904E+02 -0.62507530617E+02 -0.17089295878E+02  0.67574823728E+02  0.00000000000E+00 0. -1.
         11    1    1    2    0    0 -0.12042633395E+02 -0.33590170122E+02  0.68047971904E+02  0.76836521448E+02  0.00000000000E+00 0.  1.
</event>
<event>
 7    1  0.2612321E-009  0.2163228E+03  0.7561462E-02  0.1136655E+00
         -2   -1    0    0    0  501 -0.00000000000E+00  0.00000000000E+00  0.23099123120E+03  0.23099123120E+03  0.00000000000E+00 0.  1.
          2   -1    0    0  501    0  0.00000000000E+00 -0.00000000000E+00 -0.20466558179E+03  0.20466558179E+03  0.00000000000E+00 0. -1.
         25    2    1    2    0    0 -0.46007862249E+01 -0.18760835464E+03  0.32268086620E+02  0.22782956391E+03  0.12508804424E+03 0.  0.
          5    1    3    3  502    0 -0.62441359340E+02 -0.69807360451E+02  0.20772416264E+02  0.96025812190E+02  0.41800000000E+01 0. -1.
         -5    1    3    3    0  502  0.57840573115E+02 -0.11780099419E+03  0.11495670356E+02  0.13180375172E+03  0.41800000000E+01 0. -1.
        -11    1    1    2    0    0  0.46225481627E+02  0.82960196385E+02  0.12182478126E+01  0.94977226026E+02  0.00000000000E+00 0.  1.
         11    1    1    2    0    0 -0.41624695402E+02  0.10464815825E+03 -0.71606850252E+01  0.11285002305E+03  0.00000000000E+00 0. -1.
</event>
<event>
 7    1  0.2612321E-009  0.1017605E+03  0.7561462E-02  0.1276637E+00
         -2   -1    0    0    0  501 -0.00000000000E+00  0.00000000000E+00  0.24580339658E+03  0.24580339658E+03  0.00000000000E+00 0.  1.
          2   -1    0    0  501    0  0.00000000000E+00 -0.00000000000E+00 -0.53533394483E+02  0.53533394483E+02  0.00000000000E+00 0. -1.
         25    2    1    2    0    0 -0.19025116239E+02 -0.31056684275E+02  0.12704540917E+03  0.18197732370E+03  0.12509491462E+03 0.  0.
          5    1    3    3  502    0  0.37245656929E+02 -0.56672285769E+02  0.73332474247E+02  0.99970551232E+02  0.41800000000E+01 0. -1.
         -5    1    3    3    0  502 -0.56270773169E+02  0.25615601495E+02  0.53712934919E+02  0.82006772468E+02  0.41800000000E+01 0. -1.
        -11    1    1    2    0    0  0.90195007215E+01 -0.19810255396E+02 -0.11611232329E+02  0.24670191088E+02  0.00000000000E+00 0. -1.
         11    1    1    2    0    0  0.10005615518E+02  0.50866939670E+02  0.76835825263E+02  0.92689276279E+02  0.00000000000E+00 0.  1.
</event>
<event>
 7    1  0.2612321E-009  0.1692945E+03  0.7561462E-02  0.1178586E+00
          2   -1    0    0  501    0  0.00000000000E+00  0.00000000000E+00  0.24570393635E+03  0.24570393635E+03  0.00000000000E+00 0. -1.
         -2   -1    0    0    0  501 -0.00000000000E+00 -0.00000000000E+00 -0.15177948543E+03  0.15177948543E+03  0.00000000000E+00 0.  1.
         25    2    1    2    0    0 -0.23187840778E+02 -0.15887163047E+03  0.55447996509E+02  0.21095016565E+03  0.12509045184E+03 0.  0.
          5    1    3    3  502    0 -0.36536697999E+02 -0.10846792612E+03  0.92190694530E+02  0.14702658894E+03  0.41800000000E+01 0.  1.
         -5    1    3    3    0  502  0.13348857222E+02 -0.50403704353E+02 -0.36742698021E+02  0.63923576710E+02  0.41800000000E+01 0.  1.
        -11    1    1    2    0    0  0.43653345920E+02  0.92318382802E+02 -0.86045908176E+01  0.10248091235E+03  0.00000000000E+00 0.  1.
         11    1    1    2    0    0 -0.20465505142E+02  0.66553247667E+02  0.47081045232E+02  0.84052343786E+02  0.00000000000E+00 0. -1.
</event>
<event>
 7    1  0.2612321E-009  0.8396859E+02  0.7561462E-02  0.1318152E+00
         -1   -1    0    0    0  501 -0.00000000000E+00  0.00000000000E+00  0.66695265996E+02  0.66695265996E+02  0.00000000000E+00 0.  1.
          1   -1    0    0  501    0  0.00000000000E+00 -0.00000000000E+00 -0.26419305445E+03  0.26419305445E+03  0.00000000000E+00 0. -1.
         25    2    1    2    0    0 -0.52835005186E+02  0.36907439304E+02 -0.15669539247E+03  0.21061230576E+03  0.12510156061E+03 0.  0.
          5    1    3    3  502    0 -0.26869089790E+02  0.24778072667E+02  0.12578027182E+02  0.38879043700E+02  0.41800000000E+01 0. -1.
         -5    1    3    3    0  502 -0.25965915396E+02  0.12129366637E+02 -0.16927341965E+03  0.17173326206E+03  0.41800000000E+01 0. -1.
        -11    1    1    2    0    0 -0.11233183621E+02  0.15687952729E+02 -0.31397820858E+02  0.36852671949E+02  0.00000000000E+00 0. -1.
         11    1    1    2    0    0  0.64068188807E+02 -0.52595392033E+02 -0.94045751266E+01  0.83423342737E+02  0.00000000000E+00 0.  1.
</event>
<event>
 7    1  0.2612321E-009  0.1303371E+03  0.7561462E-02  0.1226956E+00
         -2   -1    0    0    0  501 -0.00000000000E+00  0.00000000000E+00  0.24554770337E+03  0.24554770337E+03  0.00000000000E+00 0.  1.
          2   -1    0    0  501    0  0.00000000000E+00 -0.00000000000E+00 -0.74881004845E+02  0.74881004845E+02  0.00000000000E+00 0. -1.
         25    2    1    2    0    0  0.29637987977E+02  0.72285127402E+02  0.13196296082E+03  0.19790145542E+03  0.12508882067E+03 0.  0.
          5    1    3    3  502    0  0.77440524928E+02  0.56790681255E+02  0.75728211181E+02  0.12237013830E+03  0.41800000000E+01 0. -1.
         -5    1    3    3    0  502 -0.47802536951E+02  0.15494446147E+02  0.56234749634E+02  0.75531317126E+02  0.41800000000E+01 0. -1.
        -11    1    1    2    0    0  0.12586072454E+02 -0.70764290691E+02  0.12911053736E+02  0.73025265254E+02  0.00000000000E+00 0. -1.
         11    1    1    2    0    0 -0.42224060431E+02 -0.15208367108E+01  0.25792683973E+02  0.49501987537E+02  0.00000000000E+00 0.  1.
</event>
<event>
 7    1  0.2612321E-009  0.1228471E+03  0.7561462E-02  0.1238473E+00
          2   -1    0    0  501    0  0.00000000000E+00  0.00000000000E+00  0.21437807008E+03  0.21437807008E+03  0.00000000000E+00 0. -1.
         -2   -1    0    0    0  501 -0.00000000000E+00 -0.00000000000E+00 -0.14750980080E+03  0.14750980080E+03  0.00000000000E+00 0.  1.
         25    2    1    2    0    0 -0.10053456167E+03  0.54659581395E+02 -0.47764968766E+02  0.17613582833E+03  0.12508984711E+03 0.  0.
          5    1    3    3  502    0 -0.19857630938E+02  0.12197971387E+02  0.41942886282E+02  0.48164241114E+02  0.41800000000E+01 0. -1.
         -5    1    3    3    0  502 -0.80676930734E+02  0.42461610008E+02 -0.89707855048E+02  0.12797158722E+03  0.41800000000E+01 0. -1.
        -11    1    1    2    0    0  0.83414403535E+02 -0.11350935134E+02  0.11062056418E+03  0.13900976824E+03  0.00000000000E+00 0.  1.
         11    1    1    2    0    0  0.17120158137E+02 -0.43308646261E+02  0.40126738600E+01  0.46742274304E+02  0.00000000000E+00 0. -1.
</event>
<event>
 7    1  0.2612321E-009  0.1493164E+03  0.7561462E-02  0.1201315E+00
          3   -1    0    0  501    0  0.00000000000E+00  0.00000000000E+00  0.18153565706E+03  0.18153565706E+03  0.00000000000E+00 0. -1.
         -3   -1    0    0    0  501 -0.00000000000E+00 -0.00000000000E+00 -0.18079147008E+03  0.18079147008E+03  0.00000000000E+00 0.  1.
         25    2    1    2    0    0 -0.89512579734E+02 -0.87680841592E+02 -0.68565900594E+02  0.18986657190E+03  0.12509036929E+03 0.  0.
          5    1    3    3  502    0 -0.10174472738E+03 -0.89546285405E+02 -0.16989843231E+02  0.13666255505E+03  0.41800000000E+01 0.  1.
         -5    1    3    3    0  502  0.12232147642E+02  0.18654438127E+01 -0.51576057363E+02  0.53204016856E+02  0.41800000000E+01 0.  1.
        -11    1    1    2    0    0  0.10007721348E+03  0.52045406850E+02  0.26701586583E+02  0.11591871186E+03  0.00000000000E+00 0.  1.
         11    1    1    2    0    0 -0.10564633750E+02  0.35635434743E+02  0.42608500998E+02  0.56541843380E+02  0.00000000000E+00 0. -1.
</event>
<event>
 7    1  0.2612321E-009  0.3222816E+03  0.7561462E-02  0.1074604E+00
         -4   -1    0    0    0  501 -0.00000000000E+00  0.00000000000E+00  0.21156824995E+03  0.21156824995E+03  0.00000000000E+00 0.  1.
          4   -1    0    0  501    0  0.00000000000E+00 -0.00000000000E+00 -0.52562740032E+03  0.52562740032E+03  0.00000000000E+00 0. -1.
         25    2    1    2    0    0 -0.18923819678E+03  0.25215081130E+03 -0.15484656544E+03  0.37284883518E+03  0.12509064036E+03 0.  0.
          5    1    3    3  502    0 -0.17136123162E+03  0.25656598606E+03 -0.11597526222E+03  0.32963390413E+03  0.41800000000E+01 0. -1.
         -5    1    3    3    0  502 -0.17876965168E+02 -0.44151747649E+01 -0.38871303214E+02  0.43214931047E+02  0.41800000000E+01 0. -1.
        -11    1    1    2    0    0  0.10055537575E+03 -0.10552124130E+03 -0.11939982149E+03  0.18842089409E+03  0.00000000000E+00 0. -1.
         11    1    1    2    0    0  0.88682821032E+02 -0.14662957000E+03 -0.39812763449E+02  0.17592592100E+03  0.00000000000E+00 0.  1.
</event>
<event>
 7    1  0.2612321E-009  0.1944538E+03  0.7561462E-02  0.1154504E+00
         -1   -1    0    0    0  501 -0.00000000000E+00  0.00000000000E+00  0.16056290197E+03  0.16056290197E+03  0.00000000000E+00 0.  1.
          1   -1    0    0  501    0  0.00000000000E+00 -0.00000000000E+00 -0.28430139778E+03  0.28430139778E+03  0.00000000000E+00 0. -1.
         25    2    1    2    0    0 -0.15512149875E+03 -0.80569365244E+02 -0.92509520633E+01  0.21514396765E+03  0.12508894720E+03 0.  0.
          5    1    3    3  502    0 -0.17006459158E+03 -0.55872716400E+02 -0.26881117503E+02  0.18106295210E+03  0.41800000000E+01 0.  1.
         -5    1    3    3    0  502  0.14943092827E+02 -0.24696648844E+02  0.17630165439E+02  0.34081015548E+02  0.41800000000E+01 0.  1.
        -11    1    1    2    0    0  0.12174909127E+03  0.39997389299E+02 -0.32268505425E+02  0.13215100763E+03  0.00000000000E+00 0.  1.
         11    1    1    2    0    0  0.33372407481E+02  0.40571975945E+02 -0.82219038323E+02  0.97569324461E+02  0.00000000000E+00 0. -1.
</event>
<event>
 7    1  0.2612321E-009  0.1030130E+03  0.7561462E-02  0.1274085E+00
         -2   -1    0    0    0  501 -0.00000000000E+00  0.00000000000E+00  0.79836448230E+02  0.79836448230E+02  0.00000000000E+00 0.  1.
          2   -1    0    0  501    0  0.00000000000E+00 -0.00000000000E+00 -0.16823807549E+03  0.16823807549E+03  0.00000000000E+00 0. -1.
         25    2    1    2    0    0  0.30317127910E+02 -0.23590732138E+02 -0.79642543132E+02  0.15318495051E+03  0.12508814292E+03 0.  0.
          5    1    3    3  502    0 -0.93571246609E+01 -0.64400937715E+02 -0.14922952261E+02  0.66896961550E+02  0.41800000000E+01 0. -1.
         -5    1    3    3    0  502  0.39674252571E+02  0.40810205577E+02 -0.64719590871E+02  0.86287988961E+02  0.41800000000E+01 0. -1.
        -11    1    1    2    0    0 -0.55038331347E+02  0.20918000792E+02  0.14719353522E+02  0.60691350642E+02  0.00000000000E+00 0.  1.
         11    1    1    2    0    0  0.24721203437E+02  0.26727313458E+01 -0.23478437648E+02  0.34198222565E+02  0.00000000000E+00 0. -1.
</event>
<event>
 7    1  0.2612321E-009  0.4694273E+02  0.7561462E-02  0.1462566E+00
         -4   -1    0    0    0  501 -0.00000000000E+00  0.00000000000E+00  0.67909453600E+02  0.67909453600E+02  0.00000000000E+00 0.  1.
          4   -1    0    0  501    0  0.00000000000E+00 -0.00000000000E+00 -0.18114560355E+03  0.18114560355E+03  0.00000000000E+00 0. -1.
         25    2    1    2    0    0 -0.43087719584E+01  0.98318777126E+01 -0.88805853214E+02  0.15378407173E+03  0.12509128594E+03 0.  0.
          5    1    3    3  502    0 -0.24604683395E+00 -0.27060862642E+01  0.31900827718E+02  0.32288057405E+02  0.41800000000E+01 0. -1.
         -5    1    3    3    0  502 -0.40627251244E+01  0.12537963977E+02 -0.12070668093E+03  0.12149601433E+03  0.41800000000E+01 0. -1.
        -11    1    1    2    0    0  0.63455087214E+01 -0.42183189952E+02  0.14091792471E+02  0.44925111135E+02  0.00000000000E+00 0.  1.
         11    1    1    2    0    0 -0.20367367630E+01  0.32351312239E+02 -0.38522089210E+02  0.50345874283E+02  0.00000000000E+00 0. -1.
</event>
<event>
 7    1  0.2612321E-009  0.7374302E+02  0.7561462E-02  0.1347808E+00
          2   -1    0    0  501    0  0.00000000000E+00  0.00000000000E+00  0.57667188165E+02  0.57667188165E+02  0.00000000000E+00 0. -1.
         -2   -1    0    0    0  501 -0.00000000000E+00 -0.00000000000E+00 -0.26476564507E+03  0.26476564507E+03  0.00000000000E+00 0.  1.
         25    2    1    2    0    0  0.44660056553E+02 -0.31383387315E+02 -0.14447586046E+03  0.19874668465E+03  0.12509009853E+03 0.  0.
          5    1    3    3  502    0  0.54665647862E+02 -0.40398388027E+02 -0.16230584402E+03  0.17601426707E+03  0.41800000000E+01 0.  1.
         -5    1    3    3    0  502 -0.10005591309E+02  0.90150007117E+01  0.17829983552E+02  0.22732417574E+02  0.41800000000E+01 0.  1.
        -11    1    1    2    0    0 -0.20844689237E+01  0.21466581138E+02 -0.75172382294E+02  0.78205154410E+02  0.00000000000E+00 0.  1.
         11    1    1    2    0    0 -0.42575587629E+02  0.99168061765E+01  0.12549785851E+02  0.45480994180E+02  0.00000000000E+00 0. -1.
</event>
<event>
 7    1  0.2612321E-009  0.1125776E+03  0.7561462E-02  0.1255870E+00
         -2   -1    0    0    0  501 -0.00000000000E+00  0.00000000000E+00  0.55213361002E+02  0.55213361002E+02  0.00000000000E+00 0. -1.
          2   -1    0    0  501    0  0.00000000000E+00 -0.00000000000E+00 -0.32759117627E+03  0.32759117627E+03  0.00000000000E+00 0.  1.
         25    2    1    2    0    0  0.61184888965E+02 -0.52437184013E+01 -0.22204976669E+03  0.26215260911E+03  0.12508718701E+03 0.  0.
          5    1    3    3  502    0  0.32808162476E+02 -0.54436168365E+02 -0.18120732515E+03  0.19207612824E+03  0.41800000000E+01 0. -1.
         -5    1    3    3    0  502  0.28376726489E+02  0.49192449963E+02 -0.40842441537E+02  0.70076480865E+02  0.41800000000E+01 0. -1.
        -11    1    1    2    0    0 -0.50844120606E+02  0.42240239247E+02 -0.48878806375E+02  0.82210097460E+02  0.00000000000E+00 0.  1.
         11    1    1    2    0    0 -0.10340768359E+02 -0.36996520845E+02 -0.14492422022E+01  0.38441830704E+02  0.00000000000E+00 0. -1.
</event>
<event>
 7    1  0.2612321E-009  0.1182408E+03  0.7561462E-02  0.1246028E+00
          1   -1    0    0  501    0  0.00000000000E+00  0.00000000000E+00  0.29807554540E+03  0.29807554540E+03  0.00000000000E+00 0. -1.
         -1   -1    0    0    0  501 -0.00000000000E+00 -0.00000000000E+00 -0.61200683174E+02  0.61200683174E+02  0.00000000000E+00 0.  1.
         25    2    1    2    0    0 -0.45783460354E+02 -0.50541932416E+02  0.18742097203E+03  0.23542558110E+03  0.12509185148E+03 0.  0.
          5    1    3    3  502    0 -0.11610435084E+02 -0.78583323109E+02  0.57571571490E+02  0.98194190855E+02  0.41800000000E+01 0.  1.
         -5    1    3    3    0  502 -0.34173025270E+02  0.28041390694E+02  0.12984940054E+03  0.13723139025E+03  0.41800000000E+01 0.  1.
        -11    1    1    2    0    0  0.32155707299E+02 -0.21845059337E+02  0.93521112385E+01  0.39983222906E+02  0.00000000000E+00 0.  1.
         11    1    1    2    0    0  0.13627753054E+02  0.72386991752E+02  0.40101778961E+02  0.83867424571E+02  0.00000000000E+00 0. -1.
</event>
<event>
 7    1  0.2612321E-009  0.1481743E+03  0.7561462E-02  0.1202735E+00
         -1   -1    0    0    0  501 -0.00000000000E+00  0.00000000000E+00  0.24714639439E+02  0.24714639439E+02  0.00000000000E+00 0.  1.
          1   -1    0    0  501    0  0.00000000000E+00 -0.00000000000E+00 -0.91006061601E+03  0.91006061601E+03  0.00000000000E+00 0. -1.
         25    2    1    2    0    0 -0.74703637281E+02  0.69260510377E+02 -0.52379115887E+03  0.54807054680E+03  0.12508594824E+03 0.  0.
          5    1    3    3  502    0  0.30477017559E+02  0.42530529062E+02 -0.15733324386E+03  0.16585812167E+03  0.41800000000E+01 0. -1.
         -5    1    3    3    0  502 -0.10518065484E+03  0.26729981315E+02 -0.36645791501E+03  0.38221242513E+03  0.41800000000E+01 0. -1.
        -11    1    1    2    0    0  0.16600993951E+02 -0.75049844846E+02 -0.23677808756E+03  0.24894162962E+03  0.00000000000E+00 0.  1.
         11    1    1    2    0    0  0.58102643330E+02  0.57893344691E+01 -0.12477673015E+03  0.13776307902E+03  0.00000000000E+00 0. -1.
</event>
<event>
 7    1  0.2612321E-009  0.1015909E+03  0.7561462E-02  0.1276986E+00
         -2   -1    0    0    0  501 -0.00000000000E+00  0.00000000000E+00  0.76723454446E+02  0.76723454446E+02  0.00000000000E+00 0.  1.
          2   -1    0    0  501    0  0.00000000000E+00 -0.00000000000E+00 -0.32683450301E+03  0.32683450301E+03  0.00000000000E+00 0. -1.
         25    2    1    2    0    0  0.31942911325E+02  0.77741507256E+02 -0.23397440068E+03  0.27830875977E+03  0.12509058342E+03 0.  0.
          5    1    3    3  502    0  0.68143544545E+01  0.89079634620E+02 -0.23390994195E+03  0.25042553798E+03  0.41800000000E+01 0.  1.
         -5    1    3    3    0  502  0.25128556871E+02 -0.11338127364E+02 -0.64458728531E-01  0.27883221791E+02  0.41800000000E+01 0.  1.
        -11    1    1    2    0    0 -0.20104423747E+01 -0.26058438487E+02 -0.50125409894E+02  0.56529999222E+02  0.00000000000E+00 0. -1.
         11    1    1    2    0    0 -0.29932468951E+02 -0.51683068768E+02  0.33988762006E+02  0.68719198464E+02  0.00000000000E+00 0.  1.
</event>
<event>
 7    1  0.2612321E-009  0.1311399E+03  0.7561462E-02  0.1225774E+00
         -1   -1    0    0    0  501 -0.00000000000E+00  0.00000000000E+00  0.32582542028E+03  0.32582542028E+03  0.00000000000E+00 0.  1.
          1   -1    0    0  501    0  0.00000000000E+00 -0.00000000000E+00 -0.89304023203E+02  0.89304023203E+02  0.00000000000E+00 0. -1.
         25    2    1    2    0    0 -0.92729290979E+02 -0.17362270129E+02  0.15204613244E+02  0.15741169859E+03  0.12508833983E+03 0.  0.
          5    1    3    3  502    0 -0.11264393453E+03 -0.35723846160E+02  0.35325528660E+02  0.12341075539E+03  0.41800000000E+01 0. -1.
         -5    1    3    3    0  502  0.19914643546E+02  0.18361576030E+02 -0.20120915416E+02  0.34000943209E+02  0.41800000000E+01 0. -1.
        -11    1    1    2    0    0  0.68069715600E+02  0.43427531519E+02  0.20070451455E+03  0.21633709538E+03  0.00000000000E+00 0.  1.
         11    1    1    2    0    0  0.24659575379E+02 -0.26065261389E+02  0.20612269290E+02  0.41380649517E+02  0.00000000000E+00 0. -1.
</event>
<event>
 7    1  0.2612321E-009  0.1064701E+03  0.7561462E-02  0.1267250E+00
         -1   -1    0    0    0  501 -0.00000000000E+00  0.00000000000E+00  0.90648107254E+02  0.90648107254E+02  0.00000000000E+00 0.  1.
          1   -1    0    0  501    0  0.00000000000E+00 -0.00000000000E+00 -0.16203215350E+03  0.16203215350E+03  0.00000000000E+00 0. -1.
         25    2    1    2    0    0 -0.31242423102E+02  0.31315685442E+02 -0.72659267681E+02  0.15127223317E+03  0.12508860137E+03 0.  0.
          5    1    3    3  502    0  0.15601734097E+02  0.56594494617E+02  0.26984940310E+01  0.58916086070E+02  0.41800000000E+01 0.  1.
         -5    1    3    3    0  502 -0.46844157199E+02 -0.25278809175E+02 -0.75357761712E+02  0.92356147101E+02  0.41800000000E+01 0.  1.
        -11    1    1    2    0    0 -0.24422039683E+02 -0.37430467856E+02  0.65091993664E+01  0.45164650144E+02  0.00000000000E+00 0.  1.
         11    1    1    2    0    0  0.55664462785E+02  0.61147824146E+01 -0.52339779343E+01  0.56243377443E+02  0.00000000000E+00 0. -1.
</event>
<event>
 7    1  0.2612321E-009  0.1836999E+03  0.7561462E-02  0.1164270E+00
         -3   -1    0    0    0  501 -0.00000000000E+00  0.00000000000E+00  0.27353976295E+03  0.27353976295E+03  0.00000000000E+00 0.  1.
          3   -1    0    0  501    0  0.00000000000E+00 -0.00000000000E+00 -0.12754532407E+03  0.12754532407E+03  0.00000000000E+00 0. -1.
         25    2    1    2    0    0  0.12772915491E+03  0.80951573310E+02  0.79911128565E+02  0.21189896125E+03  0.12508991595E+03 0.  0.
          5    1    3    3  502    0  0.15155739070E+03  0.56958195663E+02  0.62160580836E+02  0.17347993814E+03  0.41800000000E+01 0. -1.
         -5    1    3    3    0  502 -0.23828235784E+02  0.23993377647E+02  0.17750547729E+02  0.38419023102E+02  0.41800000000E+01 0. -1.
        -11    1    1    2    0    0 -0.11239831592E+03 -0.27436423656E+02  0.66635344073E+02  0.13351557154E+03  0.00000000000E+00 0.  1.
         11    1    1    2    0    0 -0.15330838997E+02 -0.53515149654E+02 -0.55203376119E+00  0.55670554229E+02  0.00000000000E+00 0. -1.
</event>
<event>
 7    1  0.2612321E-009  0.1051887E+03  0.7561462E-02  0.1269748E+00
          3   -1    0    0  501    0  0.00000000000E+00  0.00000000000E+00  0.14022231730E+03  0.14022231730E+03  0.00000000000E+00 0. -1.
         -3   -1    0    0    0  501 -0.00000000000E+00 -0.00000000000E+00 -0.11888441957E+03  0.11888441957E+03  0.00000000000E+00 0.  1.
         25    2    1    2    0    0 -0.22597594134E+02  0.58037663627E+02 -0.25580561223E+02  0.14206426257E+03  0.12509543527E+03 0.  0.
          5    1    3    3  502    0  0.41507859235E+02  0.26400766337E+02  0.24071267050E+02  0.54925414325E+02  0.41800000000E+01 0.  1.
         -5    1    3    3    0  502 -0.64105453368E+02  0.31636897290E+02 -0.49651828273E+02  0.87138848240E+02  0.41800000000E+01 0.  1.
        -11    1    1    2    0    0 -0.39415490316E+00 -0.65289052126E+02  0.11356199063E+01  0.65300117290E+02  0.00000000000E+00 0.  1.
         11    1    1    2    0    0  0.22991749037E+02  0.72513884986E+01  0.45782839049E+02  0.51742357023E+02  0.00000000000E+00 0. -1.
</event>
<event>
 7    1  0.2612321E-009  0.1035392E+03  0.7561462E-02  0.1273025E+00
         -3   -1    0    0    0  501 -0.00000000000E+00  0.00000000000E+00  0.12863975582E+03  0.12863975582E+03  0.00000000000E+00 0.  1.
          3   -1    0    0  501    0  0.00000000000E+00 -0.00000000000E+00 -0.10526497579E+03  0.10526497579E+03  0.00000000000E+00 0. -1.
         25    2    1    2    0    0  0.37841848640E+02 -0.15680522810E+02 -0.16574689381E+01  0.13163395864E+03  0.12508743965E+03 0.  0.
          5    1    3    3  502    0  0.21635202578E+01  0.52149698984E+02 -0.13240396764E+02  0.54009743848E+02  0.41800000000E+01 0. -1.
         -5    1    3    3    0  502  0.35678328382E+02 -0.67830221794E+02  0.11582927826E+02  0.77624214790E+02  0.41800000000E+01 0. -1.
        -11    1    1    2    0    0 -0.47003464091E+01 -0.25029555820E+02  0.40236514841E+02  0.47618788808E+02  0.00000000000E+00 0.  1.
         11    1    1    2    0    0 -0.33141502231E+02  0.40710078630E+02 -0.15204265880E+02  0.54651984165E+02  0.00000000000E+00 0. -1.
</event>
<event>
 7    1  0.2612321E-009  0.1004941E+03  0.7561462E-02  0.1279260E+00
          1   -1    0    0  501    0  0.00000000000E+00  0.00000000000E+00  0.46328534856E+02  0.46328534856E+02  0.00000000000E+00 0.  1.
         -1   -1    0    0    0  501 -0.00000000000E+00 -0.00000000000E+00 -0.27027783048E+03  0.27027783048E+03  0.00000000000E+00 0. -1.
         25    2    1    2    0    0 -0.97638240444E+01  0.78370868068E+01 -0.79703202682E+02  0.14885120703E+03  0.12508928461E+03 0.  0.
          5    1    3    3  502    0  0.53082358506E+02  0.19955653449E+02 -0.17482329879E+02  0.59490076039E+02  0.41800000000E+01 0.  1.
         -5    1    3    3    0  502 -0.62846182551E+02 -0.12118566642E+02 -0.62220872803E+02  0.89361130986E+02  0.41800000000E+01 0.  1.
        -11    1    1    2    0    0 -0.30034016540E+02  0.15553157210E+02 -0.32746417599E+02  0.47077284483E+02  0.00000000000E+00 0.  1.
         11    1    1    2    0    0  0.39797840584E+02 -0.23390244017E+02 -0.11149967534E+03  0.12067787383E+03  0.00000000000E+00 0. -1.
</event>
<event>
 7    1  0.2612321E-009  0.9035614E+02  0.7561462E-02  0.1301992E+00
         -1   -1    0    0    0  501 -0.00000000000E+00  0.00000000000E+00  0.25473038470E+02  0.25473038470E+02  0.00000000000E+00 0.  1.
          1   -1    0    0  501    0  0.00000000000E+00 -0.00000000000E+00 -0.55942128668E+03  0.55942128668E+03  0.00000000000E+00 0. -1.
         25    2    1    2    0    0  0.24639886027E+02  0.36299365177E+02 -0.34986375622E+03  0.37413506473E+03  0.12509049066E+03 0.  0.
          5    1    3    3  502    0  0.45039028387E+02  0.12253617840E+02 -0.37134306567E+02  0.59792092725E+02  0.41800000000E+01 0. -1.
         -5    1    3    3    0  502 -0.20399142360E+02  0.24045747337E+02 -0.31272944965E+03  0.31434297201E+03  0.41800000000E+01 0. -1.
        -11    1    1    2    0    0 -0.24150304632E+02 -0.67059978189E+02 -0.13850617757E+03  0.15576982735E+03  0.00000000000E+00 0.  1.
         11    1    1    2    0    0 -0.48958139455E+00  0.30760613012E+02 -0.45578314420E+02  0.54989433059E+02  0.00000000000E+00 0. -1.
</event>
<event>
 7    1  0.2612321E-009  0.1758503E+03  0.7561462E-02  0.1171881E+00
          2   -1    0    0  501    0  0.00000000000E+00  0.00000000000E+00  0.13248950897E+04  0.13248950897E+04  0.00000000000E+00 0. -1.
         -2   -1    0    0    0  501 -0.00000000000E+00 -0.00000000000E+00 -0.24179686631E+02  0.24179686631E+02  0.00000000000E+00 0.  1.
         25    2    1    2    0    0 -0.12642258069E+03  0.61308079916E+02  0.75721504564E+03  0.78023159027E+03  0.12508141167E+03 0.  0.
          5    1    3    3  502    0 -0.13237212373E+03  0.88546884448E+02  0.66413717534E+03  0.68297773753E+03  0.41800000000E+01 0.  1.
         -5    1    3    3    0  502  0.59495430420E+01 -0.27238804532E+02  0.93077870296E+02  0.97253852745E+02  0.41800000000E+01 0.  1.
        -11    1    1    2    0    0 -0.83609369423E+01 -0.22398792384E+02  0.13035873630E+03  0.13253305737E+03  0.00000000000E+00 0.  1.
         11    1    1    2    0    0  0.13478351763E+03 -0.38909287532E+02  0.41314162111E+03  0.43631012866E+03  0.00000000000E+00 0. -1.
</event>
<event>
 7    1  0.2612321E-009  0.1376183E+03  0.7561462E-02  0.1216570E+00
          1   -1    0    0  501    0  0.00000000000E+00  0.00000000000E+00  0.45671749165E+03  0.45671749165E+03  0.00000000000E+00 0. -1.
         -1   -1    0    0    0  501 -0.00000000000E+00 -0.00000000000E+00 -0.49861981854E+02  0.49861981854E+02  0.00000000000E+00 0.  1.
         25    2    1    2    0    0 -0.25332555512E+02  0.92921626916E+02  0.29256977694E+03  0.33244622001E+03  0.12508895916E+03 0.  0.
          5    1    3    3  502    0 -0.57999924591E+02  0.10718306329E+03  0.22918737242E+03  0.25960840584E+03  0.41800000000E+01 0.  1.
         -5    1    3    3    0  502  0.32667369078E+02 -0.14261436374E+02  0.63382404526E+02  0.72837814172E+02  0.41800000000E+01 0.  1.
        -11    1    1    2    0    0  0.13072353000E+02  0.82739305348E+01 -0.58847407695E+01  0.16552175487E+02  0.00000000000E+00 0.  1.
         11    1    1    2    0    0  0.12260202513E+02 -0.10119555745E+03  0.12017047363E+03  0.15758107800E+03  0.00000000000E+00 0. -1.
</event>
<event>
 7    1  0.2612321E-009  0.9863044E+02  0.7561462E-02  0.1283203E+00
         -1   -1    0    0    0  501 -0.00000000000E+00  0.00000000000E+00  0.82803918168E+02  0.82803918168E+02  0.00000000000E+00 0.  1.
          1   -1    0    0  501    0  0.00000000000E+00 -0.00000000000E+00 -0.15637733666E+03  0.15637733666E+03  0.00000000000E+00 0. -1.
         25    2    1    2    0    0 -0.13335029231E+02 -0.31730091167E+02 -0.46364150853E+02  0.13777194677E+03  0.12508738203E+03 0.  0.
          5    1    3    3  502    0 -0.33197322572E+02 -0.67787085922E+02  0.45599150542E-01  0.75595143515E+02  0.41800000000E+01 0. -1.
         -5    1    3    3    0  502  0.19862293341E+02  0.36056994756E+02 -0.46409750003E+02  0.62176803254E+02  0.41800000000E+01 0. -1.
        -11    1    1    2    0    0  0.36439741758E+02  0.41478214079E+02 -0.44530837409E+02  0.70931604401E+02  0.00000000000E+00 0. -1.
         11    1    1    2    0    0 -0.23104712527E+02 -0.97481229119E+01  0.17321569766E+02  0.30477703661E+02  0.00000000000E+00 0.  1.
</event>
<event>
 7    1  0.2612321E-009  0.2486356E+03  0.7561462E-02  0.1114170E+00
         -1   -1    0    0    0  501 -0.00000000000E+00  0.00000000000E+00  0.25721113846E+03  0.25721113846E+03  0.00000000000E+00 0.  1.
          1   -1    0    0  501    0  0.00000000000E+00 -0.00000000000E+00 -0.25636211113E+03  0.25636211113E+03  0.00000000000E+00 0. -1.
         25    2    1    2    0    0  0.50483094431E+01 -0.22728898153E+03  0.48988060577E+02  0.26407031331E+03  0.12509010248E+03 0.  0.
          5    1    3    3  502    0  0.33996803198E+02 -0.22678183612E+03  0.50233583445E+02  0.23479069216E+03  0.41800000000E+01 0.  1.
         -5    1    3    3    0  502 -0.28948493755E+02 -0.50714541158E+00 -0.12455228688E+01  0.29279621144E+02  0.41800000000E+01 0.  1.
        -11    1    1    2    0    0  0.29205800717E+02  0.16511979200E+03 -0.78095010169E+01  0.16786456688E+03  0.00000000000E+00 0.  1.
         11    1    1    2    0    0 -0.34254110160E+02  0.62169189524E+02 -0.40329532224E+02  0.81638369401E+02  0.00000000000E+00 0. -1.
</event>
<event>
 7    1  0.2612321E-009  0.9481060E+02  0.7561462E-02  0.1291603E+00
         -2   -1    0    0    0  501 -0.00000000000E+00  0.00000000000E+00  0.16784296089E+02  0.16784296089E+02  0.00000000000E+00 0.  1.
          2   -1    0    0  501    0  0.00000000000E+00 -0.00000000000E+00 -0.98134896991E+03  0.98134896991E+03  0.00000000000E+00 0. -1.
         25    2    1    2    0    0  0.10533771142E+02  0.70290663766E+02 -0.63491049242E+03  0.65100729325E+03  0.12508966675E+03 0.  0.
          5    1    3    3  502    0 -0.22300371987E+02 -0.28249463294E+01 -0.18547622965E+02  0.29441019517E+02  0.41800000000E+01 0. -1.
         -5    1    3    3    0  502  0.32834143130E+02  0.73115610095E+02 -0.61636286946E+03  0.62156627373E+03  0.41800000000E+01 0. -1.
        -11    1    1    2    0    0  0.19578030562E+02 -0.35033458591E+02 -0.52303755182E+02  0.65926666135E+02  0.00000000000E+00 0.  1.
         11    1    1    2    0    0 -0.30111801704E+02 -0.35257205175E+02 -0.27735042622E+03  0.28119930662E+03  0.00000000000E+00 0. -1.
</event>
<event>
 7    1  0.2612321E-009  0.1485357E+03  0.7561462E-02  0.1202284E+00
          2   -1    0    0  501    0  0.00000000000E+00  0.00000000000E+00  0.26283422199E+03  0.26283422199E+03  0.00000000000E+00 0. -1.
         -2   -1    0    0    0  501 -0.00000000000E+00 -0.00000000000E+00 -0.11892609829E+03  0.11892609829E+03  0.00000000000E+00 0.  1.
         25    2    1    2    0    0  0.56729574916E+02  0.10684005186E+03  0.40016621572E+01  0.17405860548E+03  0.12508934204E+03 0.  0.
          5    1    3    3  502    0  0.85401426404E+02  0.30471687177E+02  0.13720016676E+02  0.91802171046E+02  0.41800000000E+01 0. -1.
         -5    1    3    3    0  502 -0.28671851487E+02  0.76368364682E+02 -0.97183545185E+01  0.82256434438E+02  0.41800000000E+01 0. -1.
        -11    1    1    2    0    0 -0.24802300674E+02 -0.19261015014E+02 -0.84231499187E+01  0.32512924702E+02  0.00000000000E+00 0.  1.
         11    1    1    2    0    0 -0.31927274242E+02 -0.87579036846E+02  0.14832961146E+03  0.17518879009E+03  0.00000000000E+00 0. -1.
</event>
<event>
 7    1  0.2612321E-009  0.8410482E+02  0.7561462E-02  0.1317790E+00
         -1   -1    0    0    0  501 -0.00000000000E+00  0.00000000000E+00  0.17437871951E+02  0.17437871951E+02  0.00000000000E+00 0.  1.
          1   -1    0    0  501    0  0.00000000000E+00 -0.00000000000E+00 -0.73143219560E+03  0.73143219560E+03  0.00000000000E+00 0. -1.
         25    2    1    2    0    0 -0.10638586414E+02  0.30647294397E+01 -0.41617426980E+03  0.43470948132E+03  0.12509491687E+03 0.  0.
          5    1    3    3  502    0 -0.46609433377E+02 -0.10168302664E+02 -0.37596438402E+03  0.37900201070E+03  0.41800000000E+01 0. -1.
         -5    1    3    3    0  502  0.35970846963E+02  0.13233032104E+02 -0.40209885774E+02  0.55707470629E+02  0.41800000000E+01 0. -1.
        -11    1    1    2    0    0  0.55498874359E+01 -0.42067914983E+02 -0.62294525082E+02  0.75373195347E+02  0.00000000000E+00 0.  1.
         11    1    1    2    0    0  0.50886989785E+01  0.39003185543E+02 -0.23552552877E+03  0.23878739088E+03  0.00000000000E+00 0. -1.
</event>
<event>
 7    1  0.2612321E-009  0.1322564E+03  0.7561462E-02  0.1224146E+00
          1   -1    0    0  501    0  0.00000000000E+00  0.00000000000E+00  0.19586603970E+03  0.19586603970E+03  0.00000000000E+00 0. -1.
         -1   -1    0    0    0  501 -0.00000000000E+00 -0.00000000000E+00 -0.16556272966E+03  0.16556272966E+03  0.00000000000E+00 0.  1.
         25    2    1    2    0    0  0.93988613432E+02  0.29098223939E+02 -0.88026585833E+02  0.18187246130E+03  0.12509335024E+03 0.  0.
          5    1    3    3  502    0 -0.11520932059E+02 -0.23427152349E+02  0.10250561217E+02  0.28356828947E+02  0.41800000000E+01 0.  1.
         -5    1    3    3    0  502  0.10550954549E+03  0.52525376288E+02 -0.98277147050E+02  0.15351563235E+03  0.41800000000E+01 0.  1.
        -11    1    1    2    0    0 -0.55702193454E+02 -0.51430896376E+02  0.31560292551E+02  0.82121395042E+02  0.00000000000E+00 0.  1.
         11    1    1    2    0    0 -0.38286419978E+02  0.22332672437E+02  0.86769603328E+02  0.97434913017E+02  0.00000000000E+00 0. -1.
</event>
<event>
 7    1  0.2612321E-009  0.1534052E+03  0.7561462E-02  0.1196350E+00
          2   -1    0    0  501    0  0.00000000000E+00  0.00000000000E+00  0.50174008610E+03  0.50174008610E+03  0.00000000000E+00 0.  1.
         -2   -1    0    0    0  501 -0.00000000000E+00 -0.00000000000E+00 -0.86506880676E+02  0.86506880676E+02  0.00000000000E+00 0. -1.
         25    2    1    2    0    0 -0.11687148893E+03  0.79287118172E+02  0.53574112887E+02  0.19612341749E+03  0.12509523286E+03 0.  0.
          5    1    3    3  502    0 -0.30655435579E+02 -0.15363448866E+02  0.58491051803E+02  0.67929867014E+02  0.41800000000E+01 0. -1.
         -5    1    3    3    0  502 -0.86216053348E+02  0.94650567037E+02 -0.49169389159E+01  0.12819355048E+03  0.41800000000E+01 0. -1.
        -11    1    1    2    0    0  0.57345795236E+02 -0.21610396883E+02  0.96522455150E+02  0.11433343270E+03  0.00000000000E+00 0. -1.
         11    1    1    2    0    0  0.59525693690E+02 -0.57676721289E+02  0.26513663739E+03  0.27779011659E+03  0.00000000000E+00 0.  1.
</event>
<event>
 7    1  0.2612321E-009  0.9715359E+02  0.7561462E-02  0.1286398E+00
          3   -1    0    0  501    0  0.00000000000E+00  0.00000000000E+00  0.49569658487E+02  0.49569658487E+02  0.00000000000E+00 0. -1.
         -3   -1    0    0    0  501 -0.00000000000E+00 -0.00000000000E+00 -0.25567102976E+03  0.25567102976E+03  0.00000000000E+00 0.  1.
         25    2    1    2    0    0  0.16325759873E+02 -0.25839400686E+02 -0.14121048871E+03  0.19110571084E+03  0.12508711177E+03 0.  0.
          5    1    3    3  502    0 -0.49483085265E+02 -0.24465424262E+02 -0.97057928225E+02  0.11173561000E+03  0.41800000000E+01 0. -1.
         -5    1    3    3    0  502  0.65808845138E+02 -0.13739764240E+01 -0.44152560486E+02  0.79370100838E+02  0.41800000000E+01 0. -1.
        -11    1    1    2    0    0 -0.38582438114E+02 -0.40086916175E+00 -0.69427823417E+02  0.79429137546E+02  0.00000000000E+00 0.  1.
         11    1    1    2    0    0  0.22256678241E+02  0.26240269847E+02  0.45369408543E+01  0.34705839859E+02  0.00000000000E+00 0. -1.
</event>
<event>
 7    1  0.2612321E-009  0.9141403E+02  0.7561462E-02  0.1299463E+00
         -2   -1    0    0    0  501 -0.00000000000E+00  0.00000000000E+00  0.40908450639E+02  0.40908450639E+02  0.00000000000E+00 0.  1.
          2   -1    0    0  501    0  0.00000000000E+00 -0.00000000000E+00 -0.67560361644E+03  0.67560361644E+03  0.00000000000E+00 0. -1.
         25    2    1    2    0    0  0.76298809986E+02  0.38129527467E+01 -0.55345902573E+03  0.57253890714E+03  0.12509140667E+03 0.  0.
          5    1    3    3  502    0  0.48361688042E+02  0.20083734590E+02 -0.67718680475E+02  0.85705900326E+02  0.41800000000E+01 0. -1.
         -5    1    3    3    0  502  0.27937121944E+02 -0.16270781843E+02 -0.48574034525E+03  0.48683300682E+03  0.41800000000E+01 0. -1.
        -11    1    1    2    0    0 -0.61881781404E+02 -0.29258771909E+02 -0.90339345554E+02  0.11334296607E+03  0.00000000000E+00 0. -1.
         11    1    1    2    0    0 -0.14417028582E+02  0.25445819162E+02  0.91032054786E+01  0.30630193861E+02  0.00000000000E+00 0.  1.
</event>
<event>
 7    1  0.2612321E-009  0.1125330E+03  0.7561462E-02  0.1255950E+00
         -3   -1    0    0    0  501 -0.00000000000E+00  0.00000000000E+00  0.33585127883E+03  0.33585127883E+03  0.00000000000E+00 0.  1.
          3   -1    0    0  501    0  0.00000000000E+00 -0.00000000000E+00 -0.40256995092E+02  0.40256995092E+02  0.00000000000E+00 0. -1.
         25    2    1    2    0    0 -0.19094878078E+02 -0.27170937886E+02  0.13363646954E+03  0.18603573489E+03  0.12509082473E+03 0.  0.
          5    1    3    3  502    0 -0.54276351379E+02  0.27068879715E+02  0.42331910260E+02  0.74081776398E+02  0.41800000000E+01 0. -1.
         -5    1    3    3    0  502  0.35181473301E+02 -0.54239817601E+02  0.91304559278E+02  0.11195395849E+03  0.41800000000E+01 0. -1.
        -11    1    1    2    0    0 -0.19092745731E+02  0.51010698583E+02  0.88749177396E+02  0.10412992268E+03  0.00000000000E+00 0.  1.
         11    1    1    2    0    0  0.38187623809E+02 -0.23839760697E+02  0.73208636805E+02  0.85942616350E+02  0.00000000000E+00 0. -1.
</event>
<event>
 7    1  0.2612321E-009  0.7440719E+02  0.7561462E-02  0.1345717E+00
          1   -1    0    0  501    0  0.00000000000E+00  0.00000000000E+00  0.11490847510E+03  0.11490847510E+03  0.00000000000E+00 0.  1.
         -1   -1    0    0    0  501 -0.00000000000E+00 -0.00000000000E+00 -0.16639175141E+03  0.16639175141E+03  0.00000000000E+00 0. -1.
         25    2    1    2    0    0  0.21824549062E+02  0.20823892849E+02  0.52665630706E+02  0.13903688183E+03  0.12509052880E+03 0.  0.
          5    1    3    3  502    0  0.18662040643E+02 -0.29427417903E+02  0.75752942692E+02  0.83487875838E+02  0.41800000000E+01 0. -1.
         -5    1    3    3    0  502  0.31625084196E+01  0.50251310752E+02 -0.23087311986E+02  0.55549005990E+02  0.41800000000E+01 0. -1.
        -11    1    1    2    0    0 -0.23615949227E+01 -0.37494104007E+02 -0.27417198840E+01  0.37668315516E+02  0.00000000000E+00 0.  1.
         11    1    1    2    0    0 -0.19462954140E+02  0.16670211158E+02 -0.10140718714E+03  0.10459502917E+03  0.00000000000E+00 0. -1.
</event>
<event>
 7    1  0.2612321E-009  0.1783183E+03  0.7561462E-02  0.1169441E+00
          1   -1    0    0  501    0  0.00000000000E+00  0.00000000000E+00  0.13887921154E+03  0.13887921154E+03  0.00000000000E+00 0. -1.
         -1   -1    0    0    0  501 -0.00000000000E+00 -0.00000000000E+00 -0.28474526683E+03  0.28474526683E+03  0.00000000000E+00 0.  1.
         25    2    1    2    0    0 -0.91381142826E+02  0.13868096842E+03 -0.75801408503E+02  0.22130637581E+03  0.12509090365E+03 0.  0.
          5    1    3    3  502    0 -0.19751896475E+02  0.21909938065E+02 -0.78774608818E+02  0.84220509348E+02  0.41800000000E+01 0.  1.
         -5    1    3    3    0  502 -0.71629246351E+02  0.11677103035E+03  0.29732003151E+01  0.13708586646E+03  0.41800000000E+01 0.  1.
        -11    1    1    2    0    0  0.37505262891E+02  0.35730236361E+01 -0.13115908767E+02  0.39892835262E+02  0.00000000000E+00 0.  1.
         11    1    1    2    0    0  0.53875879934E+02 -0.14225399205E+03 -0.56948738018E+02  0.16242526729E+03  0.00000000000E+00 0. -1.
</event>
<event>
 7    1  0.2612321E-009  0.1036031E+03  0.7561462E-02  0.1272897E+00
         -1   -1    0    0    0  501 -0.00000000000E+00  0.00000000000E+00  0.16193903843E+02  0.16193903843E+02  0.00000000000E+00 0.  1.
          1   -1    0    0  501    0  0.00000000000E+00 -0.00000000000E+00 -0.85661249161E+03  0.85661249161E+03  0.00000000000E+00 0. -1.
         25    2    1    2    0    0 -0.49346459476E+01 -0.31736402605E+02 -0.57589541696E+03  0.59019815787E+03  0.12508710685E+03 0.  0.
          5    1    3    3  502    0 -0.16725058448E+02 -0.68770258049E+02 -0.49824335121E+03  0.50326234252E+03  0.41800000000E+01 0.  1.
         -5    1    3    3    0  502  0.11790412500E+02  0.37033855443E+02 -0.77652065747E+02  0.86935815351E+02  0.41800000000E+01 0.  1.
        -11    1    1    2    0    0 -0.37132287302E+01 -0.32344357529E+02 -0.62228004816E+02  0.70230122561E+02  0.00000000000E+00 0. -1.
         11    1    1    2    0    0  0.86478746777E+01  0.64080760134E+02 -0.20229516599E+03  0.21237811502E+03  0.00000000000E+00 0.  1.
</event>
<event>
 7    1  0.2612321E-009  0.1220669E+03  0.7561462E-02  0.1239726E+00
         -2   -1    0    0    0  501 -0.00000000000E+00  0.00000000000E+00  0.82802656938E+02  0.82802656938E+02  0.00000000000E+00 0.  1.
          2   -1    0    0  501    0  0.00000000000E+00 -0.00000000000E+00 -0.23988788491E+03  0.23988788491E+03  0.00000000000E+00 0. -1.
         25    2    1    2    0    0 -0.75730011334E+02  0.46797789978E+02 -0.94960955120E+02  0.18052324801E+03  0.12508394107E+03 0.  0.
          5    1    3    3  502    0  0.49148845328E+01 -0.32120147419E+02 -0.48270650208E+02  0.58338563847E+02  0.41800000000E+01 0.  1.
         -5    1    3    3    0  502 -0.80644895867E+02  0.78917937397E+02 -0.46690304911E+02  0.12218468417E+03  0.41800000000E+01 0.  1.
        -11    1    1    2    0    0 -0.31731280786E+01 -0.11664818423E+02  0.19750725502E+02  0.23156594925E+02  0.00000000000E+00 0.  1.
         11    1    1    2    0    0  0.78903139413E+02 -0.35132971555E+02 -0.81874998359E+02  0.11901069891E+03  0.00000000000E+00 0. -1.
</event>
<event>
 7    1  0.2612321E-009  0.7860526E+02  0.7561462E-02  0.1333057E+00
          1   -1    0    0  501    0  0.00000000000E+00  0.00000000000E+00  0.42091776274E+02  0.42091776274E+02  0.00000000000E+00 0. -1.
         -1   -1    0    0    0  501 -0.00000000000E+00 -0.00000000000E+00 -0.41392228616E+03  0.41392228616E+03  0.00000000000E+00 0.  1.
         25    2    1    2    0    0  0.71391874527E+02  0.69424813481E+01 -0.25950172778E+03  0.29689835331E+03  0.12514986090E+03 0.  0.
          5    1    3    3  502    0  0.35255634207E+02  0.16337435277E+02 -0.47244468693E+01  0.39365776164E+02  0.41800000000E+01 0. -1.
         -5    1    3    3    0  502  0.36136240320E+02 -0.93949539287E+01 -0.25477728091E+03  0.25753257715E+03  0.41800000000E+01 0. -1.
        -11    1    1    2    0    0 -0.52455065861E+02 -0.21482369398E+02 -0.14628729620E+02  0.58540805083E+02  0.00000000000E+00 0. -1.
         11    1    1    2    0    0 -0.18936808666E+02  0.14539888050E+02 -0.97700052488E+02  0.10057490404E+03  0.00000000000E+00 0.  1.
</event>
<event>
 7    1  0.2612321E-009  0.1074682E+03  0.7561462E-02  0.1265331E+00
          2   -1    0    0  501    0  0.00000000000E+00  0.00000000000E+00  0.79214016043E+03  0.79214016043E+03  0.00000000000E+00 0.  1.
         -2   -1    0    0    0  501 -0.00000000000E+00 -0.00000000000E+00 -0.18715824367E+02  0.18715824367E+02  0.00000000000E+00 0. -1.
         25    2    1    2    0    0 -0.30256378093E+02 -0.45629767019E+02  0.51743680095E+03  0.53514979964E+03  0.12508773328E+03 0.  0.
          5    1    3    3  502    0 -0.52041465098E+02  0.10542412622E+02  0.39556363861E+03  0.39913346282E+03  0.41800000000E+01 0.  1.
         -5    1    3    3    0  502  0.21785087005E+02 -0.56172179640E+02  0.12187316235E+03  0.13601633682E+03  0.41800000000E+01 0.  1.
        -11    1    1    2    0    0 -0.29340058160E+02  0.23911481783E+02  0.76739846593E+02  0.85566360382E+02  0.00000000000E+00 0. -1.
         11    1    1    2    0    0  0.59596436253E+02  0.21718285236E+02  0.17924768852E+03  0.19013982478E+03  0.00000000000E+00 0.  1.
</event>
<event>
 7    1  0.2612321E-009  0.1136278E+03  0.7561462E-02  0.1253995E+00
          2   -1    0    0  501    0  0.00000000000E+00  0.00000000000E+00  0.50944549715E+03  0.50944549715E+03  0.00000000000E+00 0. -1.
         -2   -1    0    0    0  501 -0.00000000000E+00 -0.00000000000E+00 -0.29288715154E+02  0.29288715154E+02  0.00000000000E+00 0.  1.
         25    2    1    2    0    0 -0.28213661101E+02 -0.49349865149E+02  0.26236381136E+03  0.29616471574E+03  0.12508936596E+03 0.  0.
          5    1    3    3  502    0 -0.58266949523E+02 -0.73613181143E+02  0.21676614618E+03  0.23626039104E+03  0.41800000000E+01 0. -1.
         -5    1    3    3    0  502  0.30053288422E+02  0.24263315995E+02  0.45597665187E+02  0.59904324706E+02  0.41800000000E+01 0. -1.
        -11    1    1    2    0    0  0.11973200681E+02 -0.19941665109E+02  0.15065948097E+02  0.27712999367E+02  0.00000000000E+00 0.  1.
         11    1    1    2    0    0  0.16240460420E+02  0.69291530257E+02  0.20272702253E+03  0.21485649719E+03  0.00000000000E+00 0. -1.
</event>
<event>
 7    1  0.2612321E-009  0.8894956E+02  0.7561462E-02  0.1305416E+00
          1   -1    0    0  501    0  0.00000000000E+00  0.00000000000E+00  0.52743946172E+03  0.52743946172E+03  0.00000000000E+00 0. -1.
         -1   -1    0    0    0  501 -0.00000000000E+00 -0.00000000000E+00 -0.40591423769E+02  0.40591423769E+02  0.00000000000E+00 0.  1.
         25    2    1    2    0    0 -0.13040789003E+02 -0.54600206327E+02  0.41774350788E+03  0.43966916741E+03  0.12509234062E+03 0.  0.
          5    1    3    3  502    0 -0.20045171476E+02 -0.33858331418E+01  0.21645978099E+01  0.20866975086E+02  0.41800000000E+01 0.  1.
         -5    1    3    3    0  502  0.70043824727E+01 -0.51214373185E+02  0.41557891007E+03  0.41880219232E+03  0.41800000000E+01 0.  1.
        -11    1    1    2    0    0 -0.37497139316E+02  0.12552997095E+02  0.12115062690E+02  0.41356836641E+02  0.00000000000E+00 0.  1.
         11    1    1    2    0    0  0.50537928319E+02  0.42047209231E+02  0.56989467382E+02  0.87004881446E+02  0.00000000000E+00 0. -1.
</event>
<event>
 7    1  0.2612321E-009  0.1171355E+03  0.7561462E-02  0.1247899E+00
         -1   -1    0    0    0  501 -0.00000000000E+00  0.00000000000E+00  0.17585685572E+02  0.17585685572E+02  0.00000000000E+00 0.  1.
          1   -1    0    0  501    0  0.00000000000E+00 -0.00000000000E+00 -0.11007508387E+04  0.11007508387E+04  0.00000000000E+00 0. -1.
         25    2    1    2    0    0  0.57175046076E+02  0.50916758322E+02 -0.42815784172E+03  0.45257929608E+03  0.12508948656E+03 0.  0.
          5    1    3    3  502    0 -0.19209613226E+02  0.30719616740E+02 -0.29826570842E+03  0.30048728644E+03  0.41800000000E+01 0.  1.
         -5    1    3    3    0  502  0.76384659302E+02  0.20197141583E+02 -0.12989213330E+03  0.15209200964E+03  0.41800000000E+01 0.  1.
        -11    1    1    2    0    0 -0.63071472271E+02 -0.72622032920E+02 -0.55262230941E+03  0.56093082207E+03  0.00000000000E+00 0. -1.
         11    1    1    2    0    0  0.58964261951E+01  0.21705274598E+02 -0.10238500204E+03  0.10482640617E+03  0.00000000000E+00 0.  1.
</event>
<event>
 7    1  0.2612321E-009  0.1007715E+03  0.7561462E-02  0.1278682E+00
          1   -1    0    0  501    0  0.00000000000E+00  0.00000000000E+00  0.13095183638E+03  0.13095183638E+03  0.00000000000E+00 0. -1.
         -1   -1    0    0    0  501 -0.00000000000E+00 -0.00000000000E+00 -0.15460381101E+03  0.15460381101E+03  0.00000000000E+00 0.  1.
         25    2    1    2    0    0 -0.79714578364E+02  0.88452311981E+01 -0.56857762664E+02  0.15910101650E+03  0.12509067174E+03 0.  0.
          5    1    3    3  502    0 -0.17297591686E+02 -0.14257439589E+02 -0.84046590414E+02  0.87084918453E+02  0.41800000000E+01 0.  1.
         -5    1    3    3    0  502 -0.62416986679E+02  0.23102670787E+02  0.27188827750E+02  0.72016098047E+02  0.41800000000E+01 0.  1.
        -11    1    1    2    0    0  0.85194447457E+02 -0.29906822414E+02  0.44618658220E+01  0.90401438877E+02  0.00000000000E+00 0. -1.
         11    1    1    2    0    0 -0.54798690928E+01  0.21061591216E+02  0.28743922219E+02  0.36053192014E+02  0.00000000000E+00 0.  1.
</event>
<event>
 7    1  0.2612321E-009  0.1236166E+03  0.7561462E-02  0.1237247E+00
         -2   -1    0    0    0  501 -0.00000000000E+00  0.00000000000E+00  0.22764001002E+02  0.22764001002E+02  0.00000000000E+00 0.  1.
          2   -1    0    0  501    0  0.00000000000E+00 -0.00000000000E+00 -0.87300603705E+03  0.87300603705E+03  0.00000000000E+00 0. -1.
         25    2    1    2    0    0  0.45578585936E+02 -0.45557682373E+02 -0.66628691656E+03  0.68098324413E+03  0.12508802375E+03 0.  0.
          5    1    3    3  502    0  0.27913196809E+02  0.42302161202E+02 -0.25597692673E+03  0.26097946052E+03  0.41800000000E+01 0. -1.
         -5    1    3    3    0  502  0.17665389127E+02 -0.87859843575E+02 -0.41030998983E+03  0.42000378361E+03  0.41800000000E+01 0. -1.
        -11    1    1    2    0    0 -0.21690178669E+02 -0.24454968666E+02 -0.31812891076E+02  0.45613258838E+02  0.00000000000E+00 0.  1.
         11    1    1    2    0    0 -0.23888407267E+02  0.70012651039E+02 -0.15214222841E+03  0.16917353509E+03  0.00000000000E+00 0. -1.
</event>
<event>
 7    1  0.2612321E-009  0.1010973E+03  0.7561462E-02  0.1278005E+00
         -2   -1    0    0    0  501 -0.00000000000E+00  0.00000000000E+00  0.12057179609E+03  0.12057179609E+03  0.00000000000E+00 0.  1.
          2   -1    0    0  501    0  0.00000000000E+00 -0.00000000000E+00 -0.14866804453E+03  0.14866804453E+03  0.00000000000E+00 0. -1.
         25    2    1    2    0    0  0.64409716367E+02  0.34919527050E+02 -0.39450079844E+02  0.15023670830E+03  0.12508706884E+03 0.  0.
          5    1    3    3  502    0 -0.86135091587E+01 -0.19493777417E+02 -0.53738210226E+02  0.57960913867E+02  0.41800000000E+01 0.  1.
         -5    1    3    3    0  502  0.73023225526E+02  0.54413304467E+02  0.14288130382E+02  0.92275794437E+02  0.41800000000E+01 0.  1.
        -11    1    1    2    0    0 -0.32097785753E+02 -0.45171673799E+02 -0.31983760091E+02  0.63982098072E+02  0.00000000000E+00 0. -1.
         11    1    1    2    0    0 -0.32311930614E+02  0.10252146749E+02  0.43337591495E+02  0.55021034246E+02  0.00000000000E+00 0.  1.
</event>
<event>
 7    1  0.2612321E-009  0.1338669E+03  0.7561462E-02  0.1221828E+00
         -2   -1    0    0    0  501 -0.00000000000E+00  0.00000000000E+00  0.83892642468E+02  0.83892642468E+02  0.00000000000E+00 0.  1.
          2   -1    0    0  501    0  0.00000000000E+00 -0.00000000000E+00 -0.29782441744E+03  0.29782441744E+03  0.00000000000E+00 0. -1.
         25    2    1    2    0    0 -0.67690048305E+02 -0.84377522583E+02 -0.71549461416E+02  0.18019052761E+03  0.12509113420E+03 0.  0.
          5    1    3    3  502    0 -0.84964388369E+02 -0.21869323109E+02 -0.62354017066E+01  0.88054342417E+02  0.41800000000E+01 0. -1.
         -5    1    3    3    0  502  0.17274340064E+02 -0.62508199474E+02 -0.65314059710E+02  0.92136185193E+02  0.41800000000E+01 0. -1.
        -11    1    1    2    0    0  0.18047357613E+02  0.12478681640E+01 -0.89284284972E+02  0.91098561102E+02  0.00000000000E+00 0. -1.
         11    1    1    2    0    0  0.49642690691E+02  0.83129654419E+02 -0.53098028581E+02  0.11042797119E+03  0.00000000000E+00 0.  1.
</event>
<event>
 7    1  0.2612321E-009  0.1246268E+03  0.7561462E-02  0.1235654E+00
         -3   -1    0    0    0  501 -0.00000000000E+00  0.00000000000E+00  0.15663828199E+03  0.15663828199E+03  0.00000000000E+00 0.  1.
          3   -1    0    0  501    0  0.00000000000E+00 -0.00000000000E+00 -0.13286295834E+03  0.13286295834E+03  0.00000000000E+00 0. -1.
         25    2    1    2    0    0  0.50031295714E+02 -0.70617801198E+02 -0.24574207263E+02  0.15408898135E+03  0.12509803401E+03 0.  0.
          5    1    3    3  502    0 -0.58639929757E+01  0.23272272121E+02 -0.36722050601E+02  0.44067748565E+02  0.41800000000E+01 0.  1.
         -5    1    3    3    0  502  0.55895288690E+02 -0.93890073319E+02  0.12147843338E+02  0.11002123278E+03  0.41800000000E+01 0.  1.
        -11    1    1    2    0    0  0.20420935492E+02  0.10679380583E+02 -0.10973718652E+02  0.25524229216E+02  0.00000000000E+00 0. -1.
         11    1    1    2    0    0 -0.70452231206E+02  0.59938420615E+02  0.59323249557E+02  0.10988802977E+03  0.00000000000E+00 0.  1.
</event>
<event>
 6    1  0.2612321E-009  0.1510084E+03  0.7561462E-02  0.1199239E+00
         -2   -1    0    0    0  501 -0.00000000000E+00  0.00000000000E+00  0.13637636140E+03  0.13637636140E+03  0.00000000000E+00 0.  1.
          2   -1    0    0  501    0  0.00000000000E+00 -0.00000000000E+00 -0.44443327474E+03  0.44443327474E+03  0.00000000000E+00 0. -1.
          5    1    1    2  502    0  0.17930205824E+02 -0.32133897183E+02 -0.45868732044E+02  0.58953308714E+02  0.41800000000E+01 0. -1.
         -5    1    1    2    0  502  0.80040433953E+02 -0.80209145547E+02  0.79476192788E+02  0.13846990907E+03  0.41800000000E+01 0. -1.
        -11    1    1    2    0    0 -0.87845402361E+02  0.84196505259E+02 -0.16955938987E+03  0.20870134860E+03  0.00000000000E+00 0.  1.
         11    1    1    2    0    0 -0.10125237416E+02  0.28146537471E+02 -0.17210498422E+03  0.17468506976E+03  0.00000000000E+00 0. -1.
</event>
<event>
 7    1  0.2612321E-009  0.1148140E+03  0.7561462E-02  0.1251906E+00
         -2   -1    0    0    0  501 -0.00000000000E+00  0.00000000000E+00  0.39426662631E+02  0.39426662631E+02  0.00000000000E+00 0.  1.
          2   -1    0    0  501    0  0.00000000000E+00 -0.00000000000E+00 -0.35249301469E+03  0.35249301469E+03  0.00000000000E+00 0. -1.
         25    2    1    2    0    0 -0.17114530016E+02  0.38400094843E+02 -0.16225133343E+03  0.20914220988E+03  0.12508994496E+03 0.  0.
          5    1    3    3  502    0  0.51009732958E+02 -0.44286403633E+01 -0.64791961742E+02  0.82686615714E+02  0.41800000000E+01 0. -1.
         -5    1    3    3    0  502 -0.68124262975E+02  0.42828735207E+02 -0.97459371692E+02  0.12645559417E+03  0.41800000000E+01 0. -1.
        -11    1    1    2    0    0  0.71432006407E+01  0.28835926042E+02 -0.21448313769E+02  0.36641044058E+02  0.00000000000E+00 0.  1.
         11    1    1    2    0    0  0.99713293758E+01 -0.67236020886E+02 -0.12936670486E+03  0.14613642338E+03  0.00000000000E+00 0. -1.
</event>
<event>
 7    1  0.2612321E-009  0.8540495E+02  0.7561462E-02  0.1314377E+00
         -2   -1    0    0    0  501 -0.00000000000E+00  0.00000000000E+00  0.25055842648E+02  0.25055842648E+02  0.00000000000E+00 0.  1.
          2   -1    0    0  501    0  0.00000000000E+00 -0.00000000000E+00 -0.62906327081E+03  0.62906327081E+03  0.00000000000E+00 0. -1.
         25    2    1    2    0    0 -0.34655324372E+02 -0.49718089462E+02 -0.40823314229E+03  0.43124774885E+03  0.12508973776E+03 0.  0.
          5    1    3    3  502    0 -0.40353221253E+02 -0.72550268084E+01 -0.37395764333E+03  0.37622175546E+03  0.41800000000E+01 0.  1.
         -5    1    3    3    0  502  0.56978968812E+01 -0.42463062654E+02 -0.34275498968E+02  0.55025993388E+02  0.41800000000E+01 0.  1.
        -11    1    1    2    0    0  0.50742710821E+02  0.23804284643E+02 -0.53917496064E+02  0.77772508321E+02  0.00000000000E+00 0.  1.
         11    1    1    2    0    0 -0.16087386449E+02  0.25913804819E+02 -0.14185678981E+03  0.14509885629E+03  0.00000000000E+00 0. -1.
</event>
<event>
 7    1  0.2612321E-009  0.1126183E+03  0.7561462E-02  0.1255797E+00
         -1   -1    0    0    0  501 -0.00000000000E+00  0.00000000000E+00  0.26723868750E+02  0.26723868750E+02  0.00000000000E+00 0.  1.
          1   -1    0    0  501    0  0.00000000000E+00 -0.00000000000E+00 -0.49649563359E+03  0.49649563359E+03  0.00000000000E+00 0. -1.
         25    2    1    2    0    0  0.84910882157E+01  0.29946869318E+02 -0.22243538652E+03  0.25708621948E+03  0.12508760733E+03 0.  0.
          5    1    3    3  502    0  0.65211392193E+02  0.33189080768E+01 -0.10035090729E+03  0.11979698584E+03  0.41800000000E+01 0.  1.
         -5    1    3    3    0  502 -0.56720303977E+02  0.26627961241E+02 -0.12208447923E+03  0.13728923364E+03  0.41800000000E+01 0.  1.
        -11    1    1    2    0    0  0.36813616269E+02  0.82770916076E+01 -0.76373167530E+02  0.85185757653E+02  0.00000000000E+00 0.  1.
         11    1    1    2    0    0 -0.45304704485E+02 -0.38223960925E+02 -0.17096321079E+03  0.18094752522E+03  0.00000000000E+00 0. -1.
</event>
<event>
 7    1  0.2612321E-009  0.1807821E+03  0.7561462E-02  0.1167048E+00
          1   -1    0    0  501    0  0.00000000000E+00  0.00000000000E+00  0.38483652153E+03  0.38483652153E+03  0.00000000000E+00 0. -1.
         -1   -1    0    0    0  501 -0.00000000000E+00 -0.00000000000E+00 -0.90494185286E+02  0.90494185286E+02  0.00000000000E+00 0.  1.
         25    2    1    2    0    0 -0.10508135392E+03  0.10243258530E+03  0.20109557099E+03  0.27860356253E+03  0.12508393544E+03 0.  0.
          5    1    3    3  502    0  0.12342440231E+02  0.66831923011E+02  0.53330172124E+02  0.86489429545E+02  0.41800000000E+01 0. -1.
         -5    1    3    3    0  502 -0.11742379415E+03  0.35600662289E+02  0.14776539887E+03  0.19211413298E+03  0.41800000000E+01 0. -1.
        -11    1    1    2    0    0  0.79761546610E+02 -0.11691543377E+03  0.89157154167E+02  0.16727259522E+03  0.00000000000E+00 0. -1.
         11    1    1    2    0    0  0.25319807308E+02  0.14482848473E+02  0.40896110799E+01  0.29454549067E+02  0.00000000000E+00 0.  1.
</event>
<event>
 7    1  0.2612321E-009  0.1096097E+03  0.7561462E-02  0.1261294E+00
          2   -1    0    0  501    0  0.00000000000E+00  0.00000000000E+00  0.14485041084E+02  0.14485041084E+02  0.00000000000E+00 0. -1.
         -2   -1    0    0    0  501 -0.00000000000E+00 -0.00000000000E+00 -0.93185439039E+03  0.93185439039E+03  0.00000000000E+00 0.  1.
         25    2    1    2    0    0 -0.36853355489E+02 -0.66005242030E+01 -0.40625435552E+03  0.42672162467E+03  0.12508799643E+03 0.  0.
          5    1    3    3  502    0 -0.72569137912E+02  0.26312149151E+02 -0.19172269056E+03  0.20672124092E+03  0.41800000000E+01 0. -1.
         -5    1    3    3    0  502  0.35715782422E+02 -0.32912673354E+02 -0.21453166496E+03  0.22000038375E+03  0.41800000000E+01 0. -1.
        -11    1    1    2    0    0 -0.16302564612E+02  0.30732876482E+02 -0.16684245980E+03  0.17043089421E+03  0.00000000000E+00 0. -1.
         11    1    1    2    0    0  0.53155920101E+02 -0.24132352279E+02 -0.34427253398E+03  0.34918691259E+03  0.00000000000E+00 0.  1.
</event>
<event>
 7    1  0.2612321E-009  0.1477542E+03  0.7561462E-02  0.1203260E+00
         -1   -1    0    0    0  501 -0.00000000000E+00  0.00000000000E+00  0.42230799714E+02  0.42230799714E+02  0.00000000000E+00 0.  1.
          1   -1    0    0  501    0  0.00000000000E+00 -0.00000000000E+00 -0.55730095471E+03  0.55730095471E+03  0.00000000000E+00 0. -1.
         25    2    1    2    0    0 -0.53470024348E+02  0.91296295056E+02 -0.34651966293E+03  0.38329815582E+03  0.12509013737E+03 0.  0.
          5    1    3    3  502    0 -0.90956524342E+02  0.79378723728E+02 -0.29147561306E+03  0.31551478018E+03  0.41800000000E+01 0.  1.
         -5    1    3    3    0  502  0.37486499994E+02  0.11917571328E+02 -0.55044049866E+02  0.67783375645E+02  0.41800000000E+01 0.  1.
        -11    1    1    2    0    0  0.51335820435E+02 -0.81456432693E+01 -0.57935917438E+02  0.77835008148E+02  0.00000000000E+00 0.  1.
         11    1    1    2    0    0  0.21342039126E+01 -0.83150651787E+02 -0.11061457463E+03  0.13839859046E+03  0.00000000000E+00 0. -1.
</event>
<event>
 7    1  0.2612321E-009  0.1206915E+03  0.7561462E-02  0.1241961E+00
          1   -1    0    0  501    0  0.00000000000E+00  0.00000000000E+00  0.57248761513E+03  0.57248761513E+03  0.00000000000E+00 0. -1.
         -1   -1    0    0    0  501 -0.00000000000E+00 -0.00000000000E+00 -0.32707921200E+02  0.32707921200E+02  0.00000000000E+00 0.  1.
         25    2    1    2    0    0  0.36201636599E+02  0.38928318811E+02  0.43766094314E+03  0.45828026216E+03  0.12509086709E+03 0.  0.
          5    1    3    3  502    0 -0.37042213610E+02  0.49219335102E+02  0.20747040782E+03  0.21646272441E+03  0.41800000000E+01 0.  1.
         -5    1    3    3    0  502  0.73243850208E+02 -0.10291016291E+02  0.23019053532E+03  0.24181753775E+03  0.41800000000E+01 0.  1.
        -11    1    1    2    0    0 -0.65633941106E+02 -0.14280995157E+02  0.62539076275E+02  0.91776342862E+02  0.00000000000E+00 0. -1.
         11    1    1    2    0    0  0.29432304507E+02 -0.24647323655E+02  0.39579674513E+02  0.55138931314E+02  0.00000000000E+00 0.  1.
</event>
<event>
 7    1  0.2612321E-009  0.1765832E+03  0.7561462E-02  0.1171151E+00
         -1   -1    0    0    0  501 -0.00000000000E+00  0.00000000000E+00  0.48989883150E+02  0.48989883150E+02  0.00000000000E+00 0.  1.
          1   -1    0    0  501    0  0.00000000000E+00 -0.00000000000E+00 -0.81687165727E+03  0.81687165727E+03  0.00000000000E+00 0. -1.
         25    2    1    2    0    0 -0.14673918827E+03 -0.79138137206E+02 -0.43520726514E+03  0.48254517021E+03  0.12509693655E+03 0.  0.
          5    1    3    3  502    0 -0.97338121947E+02 -0.56163846720E+02 -0.40455166326E+03  0.41989118627E+03  0.41800000000E+01 0.  1.
         -5    1    3    3    0  502 -0.49401066323E+02 -0.22974290485E+02 -0.30655601875E+02  0.62653983939E+02  0.41800000000E+01 0.  1.
        -11    1    1    2    0    0  0.14156460637E+03  0.40723173008E+02 -0.22551779670E+03  0.26936442086E+03  0.00000000000E+00 0.  1.
         11    1    1    2    0    0  0.51745818958E+01  0.38414964198E+02 -0.10715671229E+03  0.11395194935E+03  0.00000000000E+00 0. -1.
</event>
<event>
 7    1  0.2612321E-009  0.1024545E+03  0.7561462E-02  0.1275217E+00
          1   -1    0    0  501    0  0.00000000000E+00  0.00000000000E+00  0.14740701556E+04  0.14740701556E+04  0.00000000000E+00 0. -1.
         -1   -1    0    0    0  501 -0.00000000000E+00 -0.00000000000E+00 -0.14794036581E+02  0.14794036581E+02  0.00000000000E+00 0.  1.
         25    2    1    2    0    0  0.39581370480E+02  0.26942519455E+02  0.12390070804E+04  0.12462257322E+04  0.12508975176E+03 0.  0.
          5    1    3    3  502    0 -0.29093146095E+02 -0.24769234355E+02  0.62942691541E+03  0.63059942941E+03  0.41800000000E+01 0. -1.
         -5    1    3    3    0  502  0.68674516575E+02  0.51711753810E+02  0.60958016500E+03  0.61562630278E+03  0.41800000000E+01 0. -1.
        -11    1    1    2    0    0 -0.30071106606E+02 -0.48372876661E+02  0.20900526775E+03  0.21662734961E+03  0.00000000000E+00 0. -1.
         11    1    1    2    0    0 -0.95102638737E+01  0.21430357206E+02  0.11263770817E+02  0.26011110356E+02  0.00000000000E+00 0.  1.
</event>
<event>
 7    1  0.2647103E-009  0.1569284E+03  0.7561462E-02  0.1192209E+00
         -1   -1    0    0    0  501 -0.00000000000E+00  0.00000000000E+00  0.96058931550E+02  0.96058931550E+02  0.00000000000E+00 0.  1.
          1   -1    0    0  501    0  0.00000000000E+00 -0.00000000000E+00 -0.30556716795E+03  0.30556716795E+03  0.00000000000E+00 0. -1.
         25    2    1    2    0    0  0.99090566033E+02 -0.81709316208E+02 -0.14864366538E+03  0.23290208864E+03  0.12511231355E+03 0.  0.
          5    1    3    3  502    0  0.60928470573E+02 -0.11093156255E+03 -0.82896765058E+02  0.15135202725E+03  0.41800000000E+01 0. -1.
         -5    1    3    3    0  502  0.38162095460E+02  0.29222246338E+02 -0.65746900321E+02  0.81550061390E+02  0.41800000000E+01 0. -1.
        -11    1    1    2    0    0 -0.79734389377E+02  0.87881248812E+02 -0.16338056292E+02  0.11978154626E+03  0.00000000000E+00 0.  1.
         11    1    1    2    0    0 -0.19356176656E+02 -0.61719326038E+01 -0.44526514733E+02  0.48942464599E+02  0.00000000000E+00 0. -1.
</event>
<event>
 7    1  0.2612321E-009  0.3399561E+03  0.7561462E-02  0.1066815E+00
         -2   -1    0    0    0  501 -0.00000000000E+00  0.00000000000E+00  0.12161093317E+04  0.12161093317E+04  0.00000000000E+00 0.  1.
          2   -1    0    0  501    0  0.00000000000E+00 -0.00000000000E+00 -0.99368628872E+02  0.99368628872E+02  0.00000000000E+00 0. -1.
         25    2    1    2    0    0 -0.20558195699E+03 -0.25557784060E+03  0.50036231893E+03  0.61122663974E+03  0.12510627992E+03 0.  0.
          5    1    3    3  502    0  0.11816191002E+02  0.32802907826E+01  0.17005383612E+02  0.21378450580E+02  0.41800000000E+01 0. -1.
         -5    1    3    3    0  502 -0.21739814799E+03 -0.25885813138E+03  0.48335693532E+03  0.58984818916E+03  0.41800000000E+01 0. -1.
        -11    1    1    2    0    0  0.87789927433E+02  0.12843061880E+03  0.38429654633E+03  0.41459055793E+03  0.00000000000E+00 0. -1.
         11    1    1    2    0    0  0.11779202956E+03  0.12714722180E+03  0.23208183757E+03  0.28966076291E+03  0.00000000000E+00 0.  1.
</event>
<event>
 7    1  0.2612321E-009  0.1327766E+03  0.7561462E-02  0.1223393E+00
          1   -1    0    0  501    0  0.00000000000E+00  0.00000000000E+00  0.39457856048E+03  0.39457856048E+03  0.00000000000E+00 0. -1.
         -1   -1    0    0    0  501 -0.00000000000E+00 -0.00000000000E+00 -0.73374409872E+02  0.73374409872E+02  0.00000000000E+00 0.  1.
         25    2    1    2    0    0  0.89334610877E+02 -0.82246850806E+02  0.23838030973E+03  0.29532767635E+03  0.12509215477E+03 0.  0.
          5    1    3    3  502    0 -0.12732428005E+02 -0.51417332874E+01  0.12042222385E+03  0.12127463271E+03  0.41800000000E+01 0.  1.
         -5    1    3    3    0  502  0.10206703888E+03 -0.77105117519E+02  0.11795808588E+03  0.17405304363E+03  0.41800000000E+01 0.  1.
        -11    1    1    2    0    0 -0.48118718175E+02  0.58125297769E+02  0.96921626530E+02  0.12283225541E+03  0.00000000000E+00 0. -1.
         11    1    1    2    0    0 -0.41215892702E+02  0.24121553037E+02 -0.14097785649E+02  0.49793038593E+02  0.00000000000E+00 0.  1.
</event>
<event>
 7    1  0.2612321E-009  0.2050991E+03  0.7561462E-02  0.1145507E+00
          1   -1    0    0  501    0  0.00000000000E+00  0.00000000000E+00  0.40891830766E+03  0.40891830766E+03  0.00000000000E+00 0. -1.
         -1   -1    0    0    0  501 -0.00000000000E+00 -0.00000000000E+00 -0.10924233929E+03  0.10924233929E+03  0.00000000000E+00 0.  1.
         25    2    1    2    0    0  0.12876350689E+03  0.13231712318E+03  0.17439549652E+03  0.28310879770E+03  0.12509572471E+03 0.  0.
          5    1    3    3  502    0  0.70012569916E+02  0.13647747363E+03  0.83428701145E+02  0.17465875680E+03  0.41800000000E+01 0.  1.
         -5    1    3    3    0  502  0.58750936973E+02 -0.41603504505E+01  0.90966795370E+02  0.10845004090E+03  0.41800000000E+01 0.  1.
        -11    1    1    2    0    0 -0.11565142218E+03 -0.72561970898E+02  0.74426575769E+02  0.15549857315E+03  0.00000000000E+00 0.  1.
         11    1    1    2    0    0 -0.13112084713E+02 -0.59755152278E+02  0.50853896092E+02  0.79553276092E+02  0.00000000000E+00 0. -1.
</event>
<event>
 7    1  0.2612321E-009  0.1125429E+03  0.7561462E-02  0.1255932E+00
          3   -1    0    0  501    0  0.00000000000E+00  0.00000000000E+00  0.34708710369E+03  0.34708710369E+03  0.00000000000E+00 0. -1.
         -3   -1    0    0    0  501 -0.00000000000E+00 -0.00000000000E+00 -0.39812779578E+02  0.39812779578E+02  0.00000000000E+00 0.  1.
         25    2    1    2    0    0  0.10109006991E+02 -0.30589594371E+02  0.22333206326E+03  0.25799962841E+03  0.12509469403E+03 0.  0.
          5    1    3    3  502    0  0.67094554402E+02 -0.92033705696E+01  0.12655832854E+03  0.14359966637E+03  0.41800000000E+01 0.  1.
         -5    1    3    3    0  502 -0.56985547411E+02 -0.21386223801E+02  0.96773734720E+02  0.11439996204E+03  0.41800000000E+01 0.  1.
        -11    1    1    2    0    0 -0.50112034021E+02  0.24430054674E+02  0.59873633712E+02  0.81810118805E+02  0.00000000000E+00 0.  1.
         11    1    1    2    0    0  0.40003027030E+02  0.61595396970E+01  0.24068627137E+02  0.47090136049E+02  0.00000000000E+00 0. -1.
</event>
<event>
 7    1  0.2612321E-009  0.1491034E+03  0.7561462E-02  0.1201579E+00
         -2   -1    0    0    0  501 -0.00000000000E+00  0.00000000000E+00  0.25342389075E+03  0.25342389075E+03  0.00000000000E+00 0.  1.
          2   -1    0    0  501    0  0.00000000000E+00 -0.00000000000E+00 -0.10171001189E+03  0.10171001189E+03  0.00000000000E+00 0. -1.
         25    2    1    2    0    0  0.86032896860E+02  0.13589456273E+02  0.41655728575E+02  0.15802616425E+03  0.12510290245E+03 0.  0.
          5    1    3    3  502    0  0.10763419728E+02  0.54661537786E+02 -0.11520233342E+02  0.57043168685E+02  0.41800000000E+01 0. -1.
         -5    1    3    3    0  502  0.75269477133E+02 -0.41072081512E+02  0.53175961918E+02  0.10098299557E+03  0.41800000000E+01 0. -1.
        -11    1    1    2    0    0 -0.98463674593E+02  0.36402128141E+02  0.45234949921E+02  0.11430840232E+03  0.00000000000E+00 0.  1.
         11    1    1    2    0    0  0.12430777733E+02 -0.49991584414E+02  0.64823200362E+02  0.82799336063E+02  0.00000000000E+00 0. -1.
</event>
<event>
 7    1  0.2612321E-009  0.9460924E+02  0.7561462E-02  0.1292059E+00
          1   -1    0    0  501    0  0.00000000000E+00  0.00000000000E+00  0.13200567713E+04  0.13200567713E+04  0.00000000000E+00 0. -1.
         -1   -1    0    0    0  501 -0.00000000000E+00 -0.00000000000E+00 -0.14038784955E+02  0.14038784955E+02  0.00000000000E+00 0.  1.
         25    2    1    2    0    0 -0.24782912287E+02 -0.64996545901E+02  0.92935169200E+03  0.94030996049E+03  0.12509800422E+03 0.  0.
          5    1    3    3  502    0 -0.34567686337E+02 -0.46325908543E+02  0.15217892924E+03  0.16284014753E+03  0.41800000000E+01 0.  1.
         -5    1    3    3    0  502  0.97847740496E+01 -0.18670637358E+02  0.77717276275E+03  0.77746981296E+03  0.41800000000E+01 0.  1.
        -11    1    1    2    0    0  0.10382835907E+02  0.84720913306E+02  0.23480599738E+03  0.24983853353E+03  0.00000000000E+00 0.  1.
         11    1    1    2    0    0  0.14400076380E+02 -0.19724367405E+02  0.14186029699E+03  0.14394706225E+03  0.00000000000E+00 0. -1.
</event>
<event>
 7    1  0.2612321E-009  0.1759769E+03  0.7561462E-02  0.1171754E+00
          1   -1    0    0  501    0  0.00000000000E+00  0.00000000000E+00  0.39088853098E+03  0.39088853098E+03  0.00000000000E+00 0. -1.
         -1   -1    0    0    0  501 -0.00000000000E+00 -0.00000000000E+00 -0.10272712509E+03  0.10272712509E+03  0.00000000000E+00 0.  1.
         25    2    1    2    0    0 -0.98342163756E+02 -0.11497233367E+03  0.61759617128E+02  0.20579484190E+03  0.12508975963E+03 0.  0.
          5    1    3    3  502    0 -0.41809350034E+02  0.10041028374E+02 -0.18267771773E+02  0.46904454869E+02  0.41800000000E+01 0.  1.
         -5    1    3    3    0  502 -0.56532813722E+02 -0.12501336205E+03  0.80027388901E+02  0.15889038703E+03  0.41800000000E+01 0.  1.
        -11    1    1    2    0    0  0.96990831193E+02  0.12676721910E+03  0.18302314137E+03  0.24284690538E+03  0.00000000000E+00 0.  1.
         11    1    1    2    0    0  0.13513325626E+01 -0.11794885431E+02  0.43378647391E+02  0.44973908786E+02  0.00000000000E+00 0. -1.
</event>
<event>
 7    1  0.2612321E-009  0.1159445E+03  0.7561462E-02  0.1249941E+00
          1   -1    0    0  501    0  0.00000000000E+00  0.00000000000E+00  0.23503348215E+03  0.23503348215E+03  0.00000000000E+00 0. -1.
         -1   -1    0    0    0  501 -0.00000000000E+00 -0.00000000000E+00 -0.71165390390E+02  0.71165390390E+02  0.00000000000E+00 0.  1.
         25    2    1    2    0    0  0.20685576795E+02  0.40151194897E+02  0.15449183268E+03  0.20385144447E+03  0.12509066115E+03 0.  0.
          5    1    3    3  502    0 -0.50840998026E+02  0.31644764522E+02  0.59044967300E+02  0.84202011647E+02  0.41800000000E+01 0. -1.
         -5    1    3    3    0  502  0.71526574822E+02  0.85064303743E+01  0.95446865378E+02  0.11964943282E+03  0.41800000000E+01 0. -1.
        -11    1    1    2    0    0 -0.50867658604E+01 -0.67784265200E+02 -0.35878480961E+01  0.68069482513E+02  0.00000000000E+00 0.  1.
         11    1    1    2    0    0 -0.15598810935E+02  0.27633070303E+02  0.12964107179E+02  0.34277945561E+02  0.00000000000E+00 0. -1.
</event>
<event>
 7    1  0.2612321E-009  0.7130399E+02  0.7561462E-02  0.1355714E+00
         -3   -1    0    0    0  501 -0.00000000000E+00  0.00000000000E+00  0.19146887637E+03  0.19146887637E+03  0.00000000000E+00 0. -1.
          3   -1    0    0  501    0  0.00000000000E+00 -0.00000000000E+00 -0.84063333258E+02  0.84063333258E+02  0.00000000000E+00 0.  1.
         25    2    1    2    0    0 -0.56021151660E+02 -0.87187446752E+01  0.98494404214E+02  0.16899666922E+03  0.12507733849E+03 0.  0.
          5    1    3    3  502    0 -0.51434394784E+01 -0.77057447466E+01  0.11491377327E+03  0.11536239058E+03  0.41800000000E+01 0. -1.
         -5    1    3    3    0  502 -0.50877712181E+02 -0.10129999286E+01 -0.16419369058E+02  0.53634278646E+02  0.41800000000E+01 0. -1.
        -11    1    1    2    0    0  0.52716385753E+02 -0.17050003917E+02  0.38266213056E+02  0.67335154430E+02  0.00000000000E+00 0. -1.
         11    1    1    2    0    0  0.33047659066E+01  0.25768748592E+02 -0.29355074159E+02  0.39200385975E+02  0.00000000000E+00 0.  1.
</event>
<event>
 7    1  0.2612321E-009  0.1560813E+03  0.7561462E-02  0.1193193E+00
          1   -1    0    0  501    0  0.00000000000E+00  0.00000000000E+00  0.85330559919E+03  0.85330559919E+03  0.00000000000E+00 0. -1.
         -1   -1    0    0    0  501 -0.00000000000E+00 -0.00000000000E+00 -0.53184652525E+02  0.53184652525E+02  0.00000000000E+00 0.  1.
         25    2    1    2    0    0  0.14285792018E+03  0.79318463512E+01  0.65865388990E+03  0.68552471067E+03  0.12509149736E+03 0.  0.
          5    1    3    3  502    0  0.13196501070E+03  0.72574317378E+01  0.66057620695E+03  0.67368080866E+03  0.41800000000E+01 0.  1.
         -5    1    3    3    0  502  0.10892909485E+02  0.67441461332E+00 -0.19223170469E+01  0.11843902016E+02  0.41800000000E+01 0.  1.
        -11    1    1    2    0    0 -0.48528080810E+02  0.39583107316E+02  0.38805457502E+02  0.73672658048E+02  0.00000000000E+00 0. -1.
         11    1    1    2    0    0 -0.94329839373E+02 -0.47514953667E+02  0.10266159926E+03  0.14729288299E+03  0.00000000000E+00 0.  1.
</event>
<event>
 7    1  0.2612321E-009  0.1494661E+03  0.7561462E-02  0.1201131E+00
          4   -1    0    0  501    0  0.00000000000E+00  0.00000000000E+00  0.63786890628E+02  0.63786890628E+02  0.00000000000E+00 0. -1.
         -4   -1    0    0    0  501 -0.00000000000E+00 -0.00000000000E+00 -0.66583158636E+03  0.66583158636E+03  0.00000000000E+00 0.  1.
         25    2    1    2    0    0 -0.57536865721E+02 -0.11165173448E+03 -0.53045028635E+03  0.55928871666E+03  0.12509900708E+03 0.  0.
          5    1    3    3  502    0  0.22229446426E+02 -0.32292086711E+02 -0.30236771545E+03  0.30492726166E+03  0.41800000000E+01 0. -1.
         -5    1    3    3    0  502 -0.79766312147E+02 -0.79359647774E+02 -0.22808257090E+03  0.25436145501E+03  0.41800000000E+01 0. -1.
        -11    1    1    2    0    0  0.66711087120E+02  0.46988297724E+02 -0.13079480778E+02  0.82639833525E+02  0.00000000000E+00 0.  1.
         11    1    1    2    0    0 -0.91742213990E+01  0.64663436761E+02 -0.58514928605E+02  0.87689926797E+02  0.00000000000E+00 0. -1.
</event>
<event>
 7    1  0.2612321E-009  0.1201003E+03  0.7561462E-02  0.1242932E+00
         -3   -1    0    0    0  501 -0.00000000000E+00  0.00000000000E+00  0.12465800598E+02  0.12465800598E+02  0.00000000000E+00 0.  1.
          3   -1    0    0  501    0  0.00000000000E+00 -0.00000000000E+00 -0.14727613548E+04  0.14727613548E+04  0.00000000000E+00 0. -1.
         25    2    1    2    0    0  0.35552240354E+02 -0.58652585588E+02 -0.10276901238E+04  0.10375445170E+04  0.12509015346E+03 0.  0.
          5    1    3    3  502    0  0.53071709681E+02  0.23302171601E+02 -0.37321258151E+03  0.37770981053E+03  0.41800000000E+01 0.  1.
         -5    1    3    3    0  502 -0.17519469326E+02 -0.81954757188E+02 -0.65447754230E+03  0.65983470642E+03  0.41800000000E+01 0.  1.
        -11    1    1    2    0    0  0.87512651839E+01 -0.11958376716E+02 -0.12499034001E+02  0.19385903821E+02  0.00000000000E+00 0.  1.
         11    1    1    2    0    0 -0.44303505538E+02  0.70610962304E+02 -0.42010639637E+03  0.42829673460E+03  0.00000000000E+00 0. -1.
</event>
<event>
 7    1  0.2612321E-009  0.8829879E+02  0.7561462E-02  0.1307024E+00
         -3   -1    0    0    0  501 -0.00000000000E+00  0.00000000000E+00  0.23667387377E+03  0.23667387377E+03  0.00000000000E+00 0.  1.
          3   -1    0    0  501    0  0.00000000000E+00 -0.00000000000E+00 -0.57438822776E+02  0.57438822776E+02  0.00000000000E+00 0. -1.
         25    2    1    2    0    0 -0.28619944000E+01 -0.44959033975E+02  0.99435499421E+02  0.16602622636E+03  0.12509110099E+03 0.  0.
          5    1    3    3  502    0  0.26769929483E+02 -0.60818455130E+01 -0.21759015731E+02  0.35278111273E+02  0.41800000000E+01 0.  1.
         -5    1    3    3    0  502 -0.29631923883E+02 -0.38877188462E+02  0.12119451515E+03  0.13074811509E+03  0.41800000000E+01 0.  1.
        -11    1    1    2    0    0 -0.43099349350E+02  0.21326501761E+02  0.44345324090E+02  0.65413158924E+02  0.00000000000E+00 0.  1.
         11    1    1    2    0    0  0.45961343750E+02  0.23632532214E+02  0.35454227482E+02  0.62673311262E+02  0.00000000000E+00 0. -1.
</event>
<event>
 7    1  0.2612321E-009  0.8872376E+02  0.7561462E-02  0.1305972E+00
          1   -1    0    0  501    0  0.00000000000E+00  0.00000000000E+00  0.11333471102E+03  0.11333471102E+03  0.00000000000E+00 0. -1.
         -1   -1    0    0    0  501 -0.00000000000E+00 -0.00000000000E+00 -0.11523801667E+03  0.11523801667E+03  0.00000000000E+00 0.  1.
         25    2    1    2    0    0  0.29140751961E+02  0.19687708174E+01  0.24285068333E+02  0.13072400503E+03  0.12508373781E+03 0.  0.
          5    1    3    3  502    0  0.52942369999E+02 -0.37549983342E+02 -0.18547332261E+02  0.67634101784E+02  0.41800000000E+01 0.  1.
         -5    1    3    3    0  502 -0.23801618038E+02  0.39518754159E+02  0.42832400594E+02  0.63089903251E+02  0.41800000000E+01 0.  1.
        -11    1    1    2    0    0 -0.20672696867E+02  0.28077814663E+02 -0.48317050824E+02  0.59584070626E+02  0.00000000000E+00 0.  1.
         11    1    1    2    0    0 -0.84680550937E+01 -0.30046585481E+02  0.22128676839E+02  0.38264652027E+02  0.00000000000E+00 0. -1.
</event>
<event>
 7    1  0.2612321E-009  0.1121292E+03  0.7561462E-02  0.1256677E+00
          2   -1    0    0  501    0  0.00000000000E+00  0.00000000000E+00  0.20868683371E+03  0.20868683371E+03  0.00000000000E+00 0. -1.
         -2   -1    0    0    0  501 -0.00000000000E+00 -0.00000000000E+00 -0.62365767110E+02  0.62365767110E+02  0.00000000000E+00 0.  1.
         25    2    1    2    0    0  0.23223942822E+02  0.26215111061E+02  0.71338744798E+02  0.14819998272E+03  0.12508970702E+03 0.  0.
          5    1    3    3  502    0 -0.50878489087E+02  0.21805439589E+02  0.32248164800E+02  0.64199021647E+02  0.41800000000E+01 0.  1.
         -5    1    3    3    0  502  0.74102431909E+02  0.44096714723E+01  0.39090579998E+02  0.84000961078E+02  0.41800000000E+01 0.  1.
        -11    1    1    2    0    0 -0.68493847731E+01 -0.58126221929E+02  0.60484808828E+02  0.84166405689E+02  0.00000000000E+00 0.  1.
         11    1    1    2    0    0 -0.16374558049E+02  0.31911110869E+02  0.14497512978E+02  0.38686212411E+02  0.00000000000E+00 0. -1.
</event>
<event>
 6    1  0.2612321E-009  0.1081736E+03  0.7561462E-02  0.1263990E+00
          2   -1    0    0  501    0  0.00000000000E+00  0.00000000000E+00  0.55457767853E+03  0.55457767853E+03  0.00000000000E+00 0. -1.
         -2   -1    0    0    0  501 -0.00000000000E+00 -0.00000000000E+00 -0.34003197012E+02  0.34003197012E+02  0.00000000000E+00 0.  1.
          5    1    1    2  502    0  0.98624256809E+01 -0.48016451664E+02  0.31865142304E+02  0.58614902241E+02  0.41800000000E+01 0.  1.
         -5    1    1    2    0  502 -0.55200722927E+02 -0.14440710689E+02  0.28359076516E+03  0.28930407605E+03  0.41800000000E+01 0.  1.
        -11    1    1    2    0    0  0.67557187325E+02  0.40854934867E+02  0.82508028618E+02  0.11419577071E+03  0.00000000000E+00 0.  1.
         11    1    1    2    0    0 -0.22218890079E+02  0.21602227486E+02  0.12261054543E+03  0.12646612653E+03  0.00000000000E+00 0. -1.
</event>
<event>
 7    1  0.2612321E-009  0.1517999E+03  0.7561462E-02  0.1198279E+00
          1   -1    0    0  501    0  0.00000000000E+00  0.00000000000E+00  0.87950595733E+02  0.87950595733E+02  0.00000000000E+00 0. -1.
         -1   -1    0    0    0  501 -0.00000000000E+00 -0.00000000000E+00 -0.36543784967E+03  0.36543784967E+03  0.00000000000E+00 0.  1.
         25    2    1    2    0    0  0.28436886045E+02  0.13910256867E+03 -0.13239380712E+03  0.23093437057E+03  0.12507750497E+03 0.  0.
          5    1    3    3  502    0  0.45188187694E+02  0.60874126294E+02 -0.13028516795E+03  0.15079565295E+03  0.41800000000E+01 0.  1.
         -5    1    3    3    0  502 -0.16751301649E+02  0.78228442372E+02 -0.21086391658E+01  0.80138717621E+02  0.41800000000E+01 0.  1.
        -11    1    1    2    0    0 -0.39028749659E+01 -0.10741276820E+03 -0.14726583863E+03  0.18231829978E+03  0.00000000000E+00 0.  1.
         11    1    1    2    0    0 -0.24534011079E+02 -0.31689800470E+02  0.21723918158E+01  0.40135775060E+02  0.00000000000E+00 0. -1.
</event>
<event>
 7    1  0.2612321E-009  0.1038214E+03  0.7561462E-02  0.1272459E+00
          2   -1    0    0  501    0  0.00000000000E+00  0.00000000000E+00  0.14489435754E+03  0.14489435754E+03  0.00000000000E+00 0. -1.
         -2   -1    0    0    0  501 -0.00000000000E+00 -0.00000000000E+00 -0.93427369399E+02  0.93427369399E+02  0.00000000000E+00 0.  1.
         25    2    1    2    0    0  0.14667709841E+02  0.22412733446E+02 -0.11292471315E+01  0.12792943283E+03  0.12508873752E+03 0.  0.
          5    1    3    3  502    0  0.23838250392E+02 -0.42135962932E+02  0.28348072114E+02  0.56256440934E+02  0.41800000000E+01 0.  1.
         -5    1    3    3    0  502 -0.91705405514E+01  0.64548696378E+02 -0.29477319245E+02  0.71672991901E+02  0.41800000000E+01 0.  1.
        -11    1    1    2    0    0 -0.47492171676E+02  0.89420525785E+01  0.41408089624E+02  0.63640368958E+02  0.00000000000E+00 0. -1.
         11    1    1    2    0    0  0.32824461835E+02 -0.31354786025E+02  0.11188145644E+02  0.46751925141E+02  0.00000000000E+00 0.  1.
</event>
<event>
 7    1  0.2612321E-009  0.8369539E+02  0.7561462E-02  0.1318880E+00
         -1   -1    0    0    0  501 -0.00000000000E+00  0.00000000000E+00  0.76558220328E+02  0.76558220328E+02  0.00000000000E+00 0.  1.
          1   -1    0    0  501    0  0.00000000000E+00 -0.00000000000E+00 -0.16972245473E+03  0.16972245473E+03  0.00000000000E+00 0. -1.
         25    2    1    2    0    0 -0.26049595307E+02 -0.43454025745E+01 -0.76142343323E+02  0.14880372312E+03  0.12508967834E+03 0.  0.
          5    1    3    3  502    0 -0.33926039217E+02 -0.50744165860E+02 -0.80772874663E+02  0.10132954252E+03  0.41800000000E+01 0. -1.
         -5    1    3    3    0  502  0.78764439097E+01  0.46398763285E+02  0.46305313395E+01  0.47474180599E+02  0.41800000000E+01 0. -1.
        -11    1    1    2    0    0 -0.56297579425E+00 -0.21708945066E+02 -0.45616987359E+02  0.50522319556E+02  0.00000000000E+00 0. -1.
         11    1    1    2    0    0  0.26612571101E+02  0.26054347641E+02  0.28595096276E+02  0.46954632388E+02  0.00000000000E+00 0.  1.
</event>
<event>
 6    1  0.2612321E-009  0.1133075E+03  0.7561462E-02  0.1254565E+00
         -2   -1    0    0    0  501 -0.00000000000E+00  0.00000000000E+00  0.43030496670E+02  0.43030496670E+02  0.00000000000E+00 0.  1.
          2   -1    0    0  501    0  0.00000000000E+00 -0.00000000000E+00 -0.30856743271E+03  0.30856743271E+03  0.00000000000E+00 0. -1.
          5    1    1    2  502    0  0.46393013181E+02  0.79145487961E+01 -0.64182812970E+02  0.79698542241E+02  0.41800000000E+01 0. -1.
         -5    1    1    2    0  502 -0.81782772022E+02 -0.12516292854E+00 -0.74824043101E+02  0.11092586394E+03  0.41800000000E+01 0. -1.
        -11    1    1    2    0    0  0.14725922005E+02 -0.49113879638E+02 -0.82595804272E+02  0.97216731252E+02  0.00000000000E+00 0. -1.
         11    1    1    2    0    0  0.20663836836E+02  0.41324493770E+02 -0.43934275702E+02  0.63756791949E+02  0.00000000000E+00 0.  1.
</event>
<event>
 7    1  0.2612321E-009  0.1007945E+03  0.7561462E-02  0.1278634E+00
          1   -1    0    0  501    0  0.00000000000E+00  0.00000000000E+00  0.84156908271E+02  0.84156908271E+02  0.00000000000E+00 0. -1.
         -1   -1    0    0    0  501 -0.00000000000E+00 -0.00000000000E+00 -0.16662048831E+03  0.16662048831E+03  0.00000000000E+00 0.  1.
         25    2    1    2    0    0  0.35247917558E+02 -0.19728818313E+02 -0.45266273870E+02  0.13902517556E+03  0.12508925584E+03 0.  0.
          5    1    3    3  502    0 -0.16580284711E+02 -0.38884710069E+02 -0.67141741052E+02  0.79450691059E+02  0.41800000000E+01 0. -1.
         -5    1    3    3    0  502  0.51828202269E+02  0.19155891756E+02  0.21875467182E+02  0.59574484504E+02  0.41800000000E+01 0. -1.
        -11    1    1    2    0    0  0.75228754536E+01  0.50468798705E+02 -0.83707974970E+01  0.51708447556E+02  0.00000000000E+00 0.  1.
         11    1    1    2    0    0 -0.42770793012E+02 -0.30739980392E+02 -0.28826508672E+02  0.60043773463E+02  0.00000000000E+00 0. -1.
</event>
<event>
 7    1  0.2612321E-009  0.8686995E+02  0.7561462E-02  0.1310614E+00
         -2   -1    0    0    0  501 -0.00000000000E+00  0.00000000000E+00  0.69825520492E+02  0.69825520492E+02  0.00000000000E+00 0.  1.
          2   -1    0    0  501    0  0.00000000000E+00 -0.00000000000E+00 -0.20446646971E+03  0.20446646971E+03  0.00000000000E+00 0. -1.
         25    2    1    2    0    0  0.26548983983E+02 -0.37768889434E+02 -0.40228073703E+02  0.13927750186E+03  0.12509431262E+03 0.  0.
          5    1    3    3  502    0 -0.19638837951E+02 -0.50392646095E+02  0.23783106398E+02  0.59230155212E+02  0.41800000000E+01 0.  1.
         -5    1    3    3    0  502  0.46187821934E+02  0.12623756661E+02 -0.64011180100E+02  0.80047346646E+02  0.41800000000E+01 0.  1.
        -11    1    1    2    0    0 -0.29499754599E+02 -0.38119201235E+01  0.21656895939E+01  0.29823756769E+02  0.00000000000E+00 0.  1.
         11    1    1    2    0    0  0.29507706157E+01  0.41580809557E+02 -0.96578565109E+02  0.10519073157E+03  0.00000000000E+00 0. -1.
</event>
<event>
 7    1  0.2612321E-009  0.1822782E+03  0.7561462E-02  0.1165616E+00
          1   -1    0    0  501    0  0.00000000000E+00  0.00000000000E+00  0.12374135136E+03  0.12374135136E+03  0.00000000000E+00 0. -1.
         -1   -1    0    0    0  501 -0.00000000000E+00 -0.00000000000E+00 -0.32128044197E+03  0.32128044197E+03  0.00000000000E+00 0.  1.
         25    2    1    2    0    0 -0.20808853618E+02  0.14891384664E+03 -0.22208210712E+02  0.19684939686E+03  0.12509251901E+03 0.  0.
          5    1    3    3  502    0  0.30545400540E+02  0.13070485878E+03  0.77763502254E+01  0.13451663698E+03  0.41800000000E+01 0. -1.
         -5    1    3    3    0  502 -0.51354254158E+02  0.18208987857E+02 -0.29984560937E+02  0.62332759874E+02  0.41800000000E+01 0. -1.
        -11    1    1    2    0    0  0.55183429416E+02 -0.67107877547E+02 -0.88615394587E+02  0.12410224119E+03  0.00000000000E+00 0. -1.
         11    1    1    2    0    0 -0.34374575798E+02 -0.81805969089E+02 -0.86715485304E+02  0.12407015528E+03  0.00000000000E+00 0.  1.
</event>
<event>
 7    1  0.2612321E-009  0.1327817E+03  0.7561462E-02  0.1223386E+00
         -1   -1    0    0    0  501 -0.00000000000E+00  0.00000000000E+00  0.79072624157E+02  0.79072624157E+02  0.00000000000E+00 0.  1.
          1   -1    0    0  501    0  0.00000000000E+00 -0.00000000000E+00 -0.23638879186E+03  0.23638879186E+03  0.00000000000E+00 0. -1.
         25    2    1    2    0    0  0.73067095448E+02  0.29602585545E+02 -0.74402782555E+02  0.16552587850E+03  0.12509168195E+03 0.  0.
          5    1    3    3  502    0 -0.41439409465E+01 -0.37778418212E+02 -0.44547925820E+02  0.58705802303E+02  0.41800000000E+01 0.  1.
         -5    1    3    3    0  502  0.77211036395E+02  0.67381003757E+02 -0.29854856735E+02  0.10682007620E+03  0.41800000000E+01 0.  1.
        -11    1    1    2    0    0 -0.97119567090E+02 -0.22591642411E+02 -0.69224688513E+02  0.12138636710E+03  0.00000000000E+00 0. -1.
         11    1    1    2    0    0  0.24052471642E+02 -0.70109431333E+01 -0.13688696636E+02  0.28549170413E+02  0.00000000000E+00 0.  1.
</event>
<event>
 7    1  0.2612321E-009  0.1546773E+03  0.7561462E-02  0.1194841E+00
         -1   -1    0    0    0  501 -0.00000000000E+00  0.00000000000E+00  0.57358871824E+02  0.57358871824E+02  0.00000000000E+00 0.  1.
          1   -1    0    0  501    0  0.00000000000E+00 -0.00000000000E+00 -0.45235542893E+03  0.45235542893E+03  0.00000000000E+00 0. -1.
         25    2    1    2    0    0  0.73591078025E+02 -0.92654320957E+02 -0.22819298397E+03  0.28586732450E+03  0.12509044459E+03 0.  0.
          5    1    3    3  502    0  0.18018179177E+01  0.27488791998E+02 -0.65730033267E+02  0.71391805598E+02  0.41800000000E+01 0.  1.
         -5    1    3    3    0  502  0.71789260107E+02 -0.12014311296E+03 -0.16246295071E+03  0.21447551891E+03  0.41800000000E+01 0.  1.
        -11    1    1    2    0    0 -0.29115116059E+02  0.92522652897E+02 -0.77772998249E+02  0.12432526106E+03  0.00000000000E+00 0.  1.
         11    1    1    2    0    0 -0.44475961966E+02  0.13166806071E+00 -0.89030574885E+02  0.99521715187E+02  0.00000000000E+00 0. -1.
</event>
<event>
 7    1  0.2612321E-009  0.2565243E+03  0.7561462E-02  0.1109250E+00
         -1   -1    0    0    0  501 -0.00000000000E+00  0.00000000000E+00  0.27441659040E+02  0.27441659040E+02  0.00000000000E+00 0.  1.
          1   -1    0    0  501    0  0.00000000000E+00 -0.00000000000E+00 -0.27605712406E+04  0.27605712406E+04  0.00000000000E+00 0. -1.
         25    2    1    2    0    0 -0.24894004810E+03 -0.24083102302E+02 -0.15656894321E+04  0.15904682294E+04  0.12511853468E+03 0.  0.
          5    1    3    3  502    0 -0.93406589936E+02 -0.40947399547E+02 -0.93906288025E+03  0.94459411709E+03  0.41800000000E+01 0.  1.
         -5    1    3    3    0  502 -0.15553345816E+03  0.16864297245E+02 -0.62662655183E+03  0.64587411234E+03  0.41800000000E+01 0.  1.
        -11    1    1    2    0    0  0.50754819435E+02 -0.14028569896E+02 -0.12320871658E+03  0.13398970226E+03  0.00000000000E+00 0.  1.
         11    1    1    2    0    0  0.19818522866E+03  0.38111672197E+02 -0.10442314329E+04  0.10635549680E+04  0.00000000000E+00 0. -1.
</event>
<event>
 7    1  0.2612321E-009  0.1239040E+03  0.7561462E-02  0.1236792E+00
         -1   -1    0    0    0  501 -0.00000000000E+00  0.00000000000E+00  0.10955317213E+03  0.10955317213E+03  0.00000000000E+00 0.  1.
          1   -1    0    0  501    0  0.00000000000E+00 -0.00000000000E+00 -0.16317002902E+03  0.16317002902E+03  0.00000000000E+00 0. -1.
         25    2    1    2    0    0 -0.39999555098E+02 -0.56924907770E+02  0.65986981482E+01  0.14328946353E+03  0.12509163845E+03 0.  0.
          5    1    3    3  502    0  0.33592955081E+02 -0.49035301099E+02 -0.22442683604E+02  0.63671766367E+02  0.41800000000E+01 0.  1.
         -5    1    3    3    0  502 -0.73592510179E+02 -0.78896066713E+01  0.29041381752E+02  0.79617697166E+02  0.41800000000E+01 0.  1.
        -11    1    1    2    0    0  0.16701171700E+02  0.79746721006E+02 -0.37522082765E+02  0.89701590523E+02  0.00000000000E+00 0. -1.
         11    1    1    2    0    0  0.23298383398E+02 -0.22821813236E+02 -0.22693472273E+02  0.39732147087E+02  0.00000000000E+00 0.  1.
</event>
<event>
 7    1  0.2612321E-009  0.1131234E+03  0.7561462E-02  0.1254893E+00
         -2   -1    0    0    0  501 -0.00000000000E+00  0.00000000000E+00  0.72753327720E+02  0.72753327720E+02  0.00000000000E+00 0.  1.
          2   -1    0    0  501    0  0.00000000000E+00 -0.00000000000E+00 -0.27947390941E+03  0.27947390941E+03  0.00000000000E+00 0. -1.
         25    2    1    2    0    0 -0.65725362066E+02 -0.58716451412E+02 -0.14254602364E+03  0.20912855197E+03  0.12509171639E+03 0.  0.
          5    1    3    3  502    0 -0.41864374733E+02 -0.68373669203E+02 -0.18518823997E+02  0.82389342480E+02  0.41800000000E+01 0.  1.
         -5    1    3    3    0  502 -0.23860987334E+02  0.96572177912E+01 -0.12402719964E+03  0.12673920949E+03  0.41800000000E+01 0.  1.
        -11    1    1    2    0    0  0.56270622680E+02 -0.40467315984E+01 -0.55369529360E+01  0.56687007870E+02  0.00000000000E+00 0.  1.
         11    1    1    2    0    0  0.94547393867E+01  0.62763183010E+02 -0.58637605122E+02  0.86411677295E+02  0.00000000000E+00 0. -1.
</event>
<event>
 7    1  0.2612321E-009  0.1169843E+03  0.7561462E-02  0.1248157E+00
          1   -1    0    0  501    0  0.00000000000E+00  0.00000000000E+00  0.42737874335E+03  0.42737874335E+03  0.00000000000E+00 0. -1.
         -1   -1    0    0    0  501 -0.00000000000E+00 -0.00000000000E+00 -0.37919374501E+02  0.37919374501E+02  0.00000000000E+00 0.  1.
         25    2    1    2    0    0 -0.54716374659E+02  0.20754746579E+01  0.28808815466E+03  0.31881080375E+03  0.12508938596E+03 0.  0.
          5    1    3    3  502    0  0.31255990166E+02 -0.25397248404E+02  0.51189943524E+02  0.65267448745E+02  0.41800000000E+01 0. -1.
         -5    1    3    3    0  502 -0.85972364825E+02  0.27472723061E+02  0.23689821113E+03  0.25354335500E+03  0.41800000000E+01 0. -1.
        -11    1    1    2    0    0 -0.21764445982E+02 -0.13773538723E+02  0.12417547519E+02  0.28593652517E+02  0.00000000000E+00 0.  1.
         11    1    1    2    0    0  0.76480820640E+02  0.11698064065E+02  0.88953666671E+02  0.11789366159E+03  0.00000000000E+00 0. -1.
</event>
<event>
 7    1  0.2612321E-009  0.2030508E+03  0.7561462E-02  0.1147190E+00
         -2   -1    0    0    0  501 -0.00000000000E+00  0.00000000000E+00  0.22778645611E+03  0.22778645611E+03  0.00000000000E+00 0.  1.
          2   -1    0    0  501    0  0.00000000000E+00 -0.00000000000E+00 -0.21543620128E+03  0.21543620128E+03  0.00000000000E+00 0. -1.
         25    2    1    2    0    0  0.23639870545E+02  0.18528793672E+03 -0.41720621574E+02  0.22864284886E+03  0.12508588690E+03 0.  0.
          5    1    3    3  502    0 -0.27041201148E+02  0.61898803526E+02  0.33427606757E+02  0.75482221291E+02  0.41800000000E+01 0.  1.
         -5    1    3    3    0  502  0.50681071693E+02  0.12338913319E+03 -0.75148228331E+02  0.15316062757E+03  0.41800000000E+01 0.  1.
        -11    1    1    2    0    0  0.26954496590E+02 -0.11649366643E+03  0.14453678288E+02  0.12044180346E+03  0.00000000000E+00 0. -1.
         11    1    1    2    0    0 -0.50594367134E+02 -0.68794270288E+02  0.39617198116E+02  0.94138005060E+02  0.00000000000E+00 0.  1.
</event>
<event>
 7    1  0.2612321E-009  0.7421960E+02  0.7561462E-02  0.1346305E+00
          2   -1    0    0  501    0  0.00000000000E+00  0.00000000000E+00  0.18400767632E+03  0.18400767632E+03  0.00000000000E+00 0. -1.
         -2   -1    0    0    0  501 -0.00000000000E+00 -0.00000000000E+00 -0.96899211953E+02  0.96899211953E+02  0.00000000000E+00 0.  1.
         25    2    1    2    0    0  0.36347350042E+01  0.43591232466E+02 -0.19954488215E+02  0.13401366419E+03  0.12509226092E+03 0.  0.
          5    1    3    3  502    0 -0.22755348110E+02 -0.11214769571E+02 -0.57097248028E+02  0.62619047074E+02  0.41800000000E+01 0. -1.
         -5    1    3    3    0  502  0.26390083115E+02  0.54806002037E+02  0.37142759812E+02  0.71394617112E+02  0.41800000000E+01 0. -1.
        -11    1    1    2    0    0  0.20038558783E+02 -0.21183715902E+02 -0.55276018555E+01  0.29679084214E+02  0.00000000000E+00 0.  1.
         11    1    1    2    0    0 -0.23673293787E+02 -0.22407516565E+02  0.11259055443E+03  0.11721413987E+03  0.00000000000E+00 0. -1.
</event>
<event>
 7    1  0.2612321E-009  0.1153875E+03  0.7561462E-02  0.1250906E+00
          2   -1    0    0  501    0  0.00000000000E+00  0.00000000000E+00  0.51364903460E+03  0.51364903460E+03  0.00000000000E+00 0. -1.
         -2   -1    0    0    0  501 -0.00000000000E+00 -0.00000000000E+00 -0.43003589840E+02  0.43003589840E+02  0.00000000000E+00 0.  1.
         25    2    1    2    0    0 -0.10979535935E+01 -0.82353840143E+02  0.14628509542E+03  0.20936303165E+03  0.12510071700E+03 0.  0.
          5    1    3    3  502    0  0.56049401514E+02 -0.50354734894E+02  0.42611154094E+02  0.86662088537E+02  0.41800000000E+01 0. -1.
         -5    1    3    3    0  502 -0.57147355107E+02 -0.31999105249E+02  0.10367394132E+03  0.12270094312E+03  0.41800000000E+01 0. -1.
        -11    1    1    2    0    0  0.14757610703E+02  0.15321182104E+02  0.66357269108E+01  0.22283594108E+02  0.00000000000E+00 0.  1.
         11    1    1    2    0    0 -0.13659657109E+02  0.67032658039E+02  0.31772462243E+03  0.32500599868E+03  0.00000000000E+00 0. -1.
</event>
<event>
 7    1  0.2612321E-009  0.1290600E+03  0.7561462E-02  0.1228857E+00
          2   -1    0    0  501    0  0.00000000000E+00  0.00000000000E+00  0.31159650199E+03  0.31159650199E+03  0.00000000000E+00 0.  1.
         -2   -1    0    0    0  501 -0.00000000000E+00 -0.00000000000E+00 -0.61191714919E+02  0.61191714919E+02  0.00000000000E+00 0. -1.
         25    2    1    2    0    0  0.99228565297E+01  0.84167089932E+02  0.16005289081E+03  0.22009982075E+03  0.12507774033E+03 0.  0.
          5    1    3    3  502    0  0.45596657008E+02 -0.29529780727E+01  0.95278094653E+02  0.10575047485E+03  0.41800000000E+01 0. -1.
         -5    1    3    3    0  502 -0.35673800479E+02  0.87120068005E+02  0.64774796159E+02  0.11434934590E+03  0.41800000000E+01 0. -1.
        -11    1    1    2    0    0 -0.26421482652E+02  0.53676132505E+01  0.40894218502E+01  0.27269568911E+02  0.00000000000E+00 0. -1.
         11    1    1    2    0    0  0.16498626122E+02 -0.89534703183E+02  0.86262474404E+02  0.12541882725E+03  0.00000000000E+00 0.  1.
</event>
<event>
 7    1  0.2612321E-009  0.1153273E+03  0.7561462E-02  0.1251011E+00
         -1   -1    0    0    0  501 -0.00000000000E+00  0.00000000000E+00  0.15597904414E+02  0.15597904414E+02  0.00000000000E+00 0.  1.
          1   -1    0    0  501    0  0.00000000000E+00 -0.00000000000E+00 -0.13054184362E+04  0.13054184362E+04  0.00000000000E+00 0. -1.
         25    2    1    2    0    0 -0.43018286487E+02  0.25591101024E+02 -0.10742899532E+04  0.10827056321E+04  0.12508838835E+03 0.  0.
          5    1    3    3  502    0 -0.80000747973E+02  0.39406175595E+02 -0.87190477868E+03  0.87646356561E+03  0.41800000000E+01 0.  1.
         -5    1    3    3    0  502  0.36982461486E+02 -0.13815074571E+02 -0.20238517449E+03  0.20624206651E+03  0.41800000000E+01 0.  1.
        -11    1    1    2    0    0  0.13715900836E+02  0.33237169015E+02 -0.76609513463E+02  0.84627731229E+02  0.00000000000E+00 0.  1.
         11    1    1    2    0    0  0.29302385651E+02 -0.58828270039E+02 -0.13892106517E+03  0.15368297729E+03  0.00000000000E+00 0. -1.
</event>
<event>
 7    1  0.2612321E-009  0.8067705E+02  0.7561462E-02  0.1327141E+00
          1   -1    0    0  501    0  0.00000000000E+00  0.00000000000E+00  0.44989860800E+03  0.44989860800E+03  0.00000000000E+00 0. -1.
         -1   -1    0    0    0  501 -0.00000000000E+00 -0.00000000000E+00 -0.26755611754E+02  0.26755611754E+02  0.00000000000E+00 0.  1.
         25    2    1    2    0    0 -0.32338119016E+01 -0.11563493224E+02  0.21782477964E+03  0.25147249885E+03  0.12508641468E+03 0.  0.
          5    1    3    3  502    0 -0.33498779387E+02  0.96107524254E+01  0.50337809200E+01  0.35459076877E+02  0.41800000000E+01 0.  1.
         -5    1    3    3    0  502  0.30264967486E+02 -0.21174245650E+02  0.21279099872E+03  0.21601342197E+03  0.41800000000E+01 0.  1.
        -11    1    1    2    0    0 -0.15547649647E+02  0.46711168416E+02  0.82634744756E+02  0.96188168218E+02  0.00000000000E+00 0.  1.
         11    1    1    2    0    0  0.18781461548E+02 -0.35147675192E+02  0.12268347185E+03  0.12899355269E+03  0.00000000000E+00 0. -1.
</event>
<event>
 7    1  0.2612321E-009  0.1076053E+03  0.7561462E-02  0.1265070E+00
          1   -1    0    0  501    0  0.00000000000E+00  0.00000000000E+00  0.11106232396E+02  0.11106232396E+02  0.00000000000E+00 0. -1.
         -1   -1    0    0    0  501 -0.00000000000E+00 -0.00000000000E+00 -0.13254991039E+04  0.13254991039E+04  0.00000000000E+00 0.  1.
         25    2    1    2    0    0 -0.89780403345E+01  0.45212080023E+01 -0.10440081858E+04  0.10515232664E+04  0.12508813346E+03 0.  0.
          5    1    3    3  502    0  0.55346589474E+02 -0.15069182749E+02 -0.42972884063E+03  0.43356046188E+03  0.41800000000E+01 0. -1.
         -5    1    3    3    0  502 -0.64324629809E+02  0.19590390751E+02 -0.61427934520E+03  0.61796280450E+03  0.41800000000E+01 0. -1.
        -11    1    1    2    0    0  0.15745350361E+02  0.41200049060E+02 -0.12843728646E+03  0.13579947222E+03  0.00000000000E+00 0. -1.
         11    1    1    2    0    0 -0.67673100267E+01 -0.45721257062E+02 -0.14194739920E+03  0.14928259769E+03  0.00000000000E+00 0.  1.
</event>
<event>
 7    1  0.2612321E-009  0.9265238E+02  0.7561462E-02  0.1296553E+00
          2   -1    0    0  501    0  0.00000000000E+00  0.00000000000E+00  0.51802949952E+03  0.51802949952E+03  0.00000000000E+00 0. -1.
         -2   -1    0    0    0  501 -0.00000000000E+00 -0.00000000000E+00 -0.24857128702E+02  0.24857128702E+02  0.00000000000E+00 0.  1.
         25    2    1    2    0    0  0.34576932741E+02 -0.39306062916E+01  0.30191815251E+03  0.32865346117E+03  0.12509001871E+03 0.  0.
          5    1    3    3  502    0 -0.12818975313E+02  0.32029612330E+02  0.24066516231E+03  0.24316129409E+03  0.41800000000E+01 0. -1.
         -5    1    3    3    0  502  0.47395908053E+02 -0.35960218622E+02  0.61252990199E+02  0.85492167079E+02  0.41800000000E+01 0. -1.
        -11    1    1    2    0    0  0.27380955008E+02  0.88082095815E+01  0.98256848996E+02  0.10238022088E+03  0.00000000000E+00 0.  1.
         11    1    1    2    0    0 -0.61957887749E+02 -0.48776032899E+01  0.92997369314E+02  0.11185294617E+03  0.00000000000E+00 0. -1.
</event>
<event>
 7    1  0.2612321E-009  0.1147411E+03  0.7561462E-02  0.1252034E+00
         -2   -1    0    0    0  501 -0.00000000000E+00  0.00000000000E+00  0.61636912567E+02  0.61636912567E+02  0.00000000000E+00 0.  1.
          2   -1    0    0  501    0  0.00000000000E+00 -0.00000000000E+00 -0.45929596059E+03  0.45929596059E+03  0.00000000000E+00 0. -1.
         25    2    1    2    0    0  0.65645630630E+02 -0.16210134549E+02 -0.41895407045E+02  0.14824611556E+03  0.12509823486E+03 0.  0.
          5    1    3    3  502    0  0.38572341970E+02  0.52830391010E+02 -0.33161437624E+02  0.73457668930E+02  0.41800000000E+01 0.  1.
         -5    1    3    3    0  502  0.27073288660E+02 -0.69040525559E+02 -0.87339694211E+01  0.74788446635E+02  0.41800000000E+01 0.  1.
        -11    1    1    2    0    0  0.10445274611E+02 -0.35710790634E+01 -0.32428524258E+01  0.11505323082E+02  0.00000000000E+00 0.  1.
         11    1    1    2    0    0 -0.76090905241E+02  0.19781213612E+02 -0.35252078856E+03  0.36118143451E+03  0.00000000000E+00 0. -1.
</event>
<event>
 7    1  0.2612321E-009  0.8903018E+02  0.7561462E-02  0.1305217E+00
          2   -1    0    0  501    0  0.00000000000E+00  0.00000000000E+00  0.28897114876E+03  0.28897114876E+03  0.00000000000E+00 0. -1.
         -2   -1    0    0    0  501 -0.00000000000E+00 -0.00000000000E+00 -0.51338025101E+02  0.51338025101E+02  0.00000000000E+00 0.  1.
         25    2    1    2    0    0 -0.22924627742E+02  0.46398539560E+02  0.86460988660E+02  0.16062819157E+03  0.12509016882E+03 0.  0.
          5    1    3    3  502    0  0.22543565862E+02  0.55120518149E+02  0.96119432224E+02  0.11314990735E+03  0.41800000000E+01 0.  1.
         -5    1    3    3    0  502 -0.45468193604E+02 -0.87219785887E+01 -0.96584435647E+01  0.47478284217E+02  0.41800000000E+01 0.  1.
        -11    1    1    2    0    0 -0.14624215691E+02 -0.24143850490E+02  0.12635717386E+03  0.12947172891E+03  0.00000000000E+00 0. -1.
         11    1    1    2    0    0  0.37548843434E+02 -0.22254689070E+02  0.24814961140E+02  0.50209253382E+02  0.00000000000E+00 0.  1.
</event>
<event>
 7    1  0.2612321E-009  0.1015229E+03  0.7561462E-02  0.1277126E+00
         -1   -1    0    0    0  501 -0.00000000000E+00  0.00000000000E+00  0.15027934702E+03  0.15027934702E+03  0.00000000000E+00 0.  1.
          1   -1    0    0  501    0  0.00000000000E+00 -0.00000000000E+00 -0.11766946405E+03  0.11766946405E+03  0.00000000000E+00 0. -1.
         25    2    1    2    0    0  0.23087301671E+02  0.67362842223E+02  0.42407476976E+02  0.15006403027E+03  0.12510013217E+03 0.  0.
          5    1    3    3  502    0 -0.37729902087E+01 -0.73613217759E+01 -0.36728896962E+02  0.37880189882E+02  0.41800000000E+01 0. -1.
         -5    1    3    3    0  502  0.26860291879E+02  0.74724163999E+02  0.79136373938E+02  0.11218384039E+03  0.41800000000E+01 0. -1.
        -11    1    1    2    0    0 -0.29791036821E+01  0.22236264883E+02 -0.13133476320E+02  0.25996436967E+02  0.00000000000E+00 0. -1.
         11    1    1    2    0    0 -0.20108197988E+02 -0.89599107107E+02  0.33358823112E+01  0.91888343828E+02  0.00000000000E+00 0.  1.
</event>
<event>
 7    1  0.2612321E-009  0.8393994E+02  0.7561462E-02  0.1318228E+00
          2   -1    0    0  501    0  0.00000000000E+00  0.00000000000E+00  0.26444284288E+03  0.26444284288E+03  0.00000000000E+00 0.  1.
         -2   -1    0    0    0  501 -0.00000000000E+00 -0.00000000000E+00 -0.45454537451E+02  0.45454537451E+02  0.00000000000E+00 0. -1.
         25    2    1    2    0    0 -0.14173710493E+02  0.28535161268E+02  0.16763910793E+03  0.21157801998E+03  0.12508892251E+03 0.  0.
          5    1    3    3  502    0 -0.51111899729E+02  0.11343653255E+02  0.16191831119E+03  0.17022372532E+03  0.41800000000E+01 0.  1.
         -5    1    3    3    0  502  0.36938189236E+02  0.17191508014E+02  0.57207967405E+01  0.41354294664E+02  0.41800000000E+01 0.  1.
        -11    1    1    2    0    0 -0.21354937390E+02  0.85870642500E+01  0.39295597960E+02  0.45540257382E+02  0.00000000000E+00 0.  1.
         11    1    1    2    0    0  0.35528647883E+02 -0.37122225518E+02  0.12053599536E+02  0.52779102963E+02  0.00000000000E+00 0. -1.
</event>
<event>
 7    1  0.2612321E-009  0.1312343E+03  0.7561462E-02  0.1225636E+00
          1   -1    0    0  501    0  0.00000000000E+00  0.00000000000E+00  0.21498562145E+03  0.21498562145E+03  0.00000000000E+00 0. -1.
         -1   -1    0    0    0  501 -0.00000000000E+00 -0.00000000000E+00 -0.82405955251E+02  0.82405955251E+02  0.00000000000E+00 0.  1.
         25    2    1    2    0    0 -0.48130497493E+02 -0.59626765758E+02  0.84368842892E+02  0.16922877965E+03  0.12509349394E+03 0.  0.
          5    1    3    3  502    0  0.92799554892E+01 -0.81824977334E+02  0.63594747545E+02  0.10413072940E+03  0.41800000000E+01 0.  1.
         -5    1    3    3    0  502 -0.57410452982E+02  0.22198211576E+02  0.20774095347E+02  0.65098050249E+02  0.41800000000E+01 0.  1.
        -11    1    1    2    0    0 -0.19184372736E+02  0.45720555022E+02  0.25613347239E+02  0.55807283266E+02  0.00000000000E+00 0. -1.
         11    1    1    2    0    0  0.67314870229E+02  0.13906210736E+02  0.22597476067E+02  0.72355513788E+02  0.00000000000E+00 0.  1.
</event>
<event>
 7    1  0.2612321E-009  0.1205247E+03  0.7561462E-02  0.1242234E+00
          1   -1    0    0  501    0  0.00000000000E+00  0.00000000000E+00  0.11441320880E+04  0.11441320880E+04  0.00000000000E+00 0. -1.
         -1   -1    0    0    0  501 -0.00000000000E+00 -0.00000000000E+00 -0.22902798311E+02  0.22902798311E+02  0.00000000000E+00 0.  1.
         25    2    1    2    0    0  0.63325187169E+02 -0.24374181836E+02  0.95469203213E+03  0.96524000439E+03  0.12508880765E+03 0.  0.
          5    1    3    3  502    0 -0.27245180705E+01  0.37605006522E+02  0.12557353425E+03  0.13117829248E+03  0.41800000000E+01 0. -1.
         -5    1    3    3    0  502  0.66049705239E+02 -0.61979188358E+02  0.82911849787E+03  0.83406171190E+03  0.41800000000E+01 0. -1.
        -11    1    1    2    0    0  0.18314672083E+02 -0.13195243640E+02  0.21512864837E+02  0.31182447334E+02  0.00000000000E+00 0.  1.
         11    1    1    2    0    0 -0.81639859252E+02  0.37569425476E+02  0.14502439270E+03  0.17061243456E+03  0.00000000000E+00 0. -1.
</event>
<event>
 7    1  0.2612321E-009  0.1158768E+03  0.7561462E-02  0.1250058E+00
          2   -1    0    0  501    0  0.00000000000E+00  0.00000000000E+00  0.86061284063E+03  0.86061284063E+03  0.00000000000E+00 0. -1.
         -2   -1    0    0    0  501 -0.00000000000E+00 -0.00000000000E+00 -0.15766401120E+02  0.15766401120E+02  0.00000000000E+00 0.  1.
         25    2    1    2    0    0  0.66757106836E+01  0.42499734140E+02  0.47073592269E+03  0.48896945746E+03  0.12509208170E+03 0.  0.
          5    1    3    3  502    0  0.56521028749E+02  0.56791063668E+02  0.28060755162E+03  0.29185256900E+03  0.41800000000E+01 0. -1.
         -5    1    3    3    0  502 -0.49845318065E+02 -0.14291329528E+02  0.19012837107E+03  0.19711688846E+03  0.41800000000E+01 0. -1.
        -11    1    1    2    0    0  0.37346759130E+02 -0.40987506084E+02  0.23686212951E+03  0.24326615973E+03  0.00000000000E+00 0.  1.
         11    1    1    2    0    0 -0.44022469813E+02 -0.15122280556E+01  0.13724838731E+03  0.14414362456E+03  0.00000000000E+00 0. -1.
</event>
<event>
 7    1  0.2612321E-009  0.1056117E+03  0.7561462E-02  0.1268919E+00
          1   -1    0    0  501    0  0.00000000000E+00  0.00000000000E+00  0.10160509156E+03  0.10160509156E+03  0.00000000000E+00 0. -1.
         -1   -1    0    0    0  501 -0.00000000000E+00 -0.00000000000E+00 -0.19229092988E+03  0.19229092988E+03  0.00000000000E+00 0.  1.
         25    2    1    2    0    0 -0.25647071529E+02 -0.73644956296E+02 -0.67904909898E+01  0.14756515405E+03  0.12509201436E+03 0.  0.
          5    1    3    3  502    0 -0.11861851634E+02  0.27905877445E+02  0.25707567004E+02  0.39972401997E+02  0.41800000000E+01 0. -1.
         -5    1    3    3    0  502 -0.13785219895E+02 -0.10155083374E+03 -0.32498057993E+02  0.10759275205E+03  0.41800000000E+01 0. -1.
        -11    1    1    2    0    0  0.19568292333E+02  0.59970037101E+02 -0.10377761476E+03  0.12144594164E+03  0.00000000000E+00 0.  1.
         11    1    1    2    0    0  0.60787791962E+01  0.13674919195E+02  0.19882267436E+02  0.24884925756E+02  0.00000000000E+00 0. -1.
</event>
<event>
 7    1  0.2612321E-009  0.1419153E+03  0.7561462E-02  0.1210775E+00
         -1   -1    0    0    0  501 -0.00000000000E+00  0.00000000000E+00  0.14425057615E+03  0.14425057615E+03  0.00000000000E+00 0.  1.
          1   -1    0    0  501    0  0.00000000000E+00 -0.00000000000E+00 -0.18554062639E+03  0.18554062639E+03  0.00000000000E+00 0. -1.
         25    2    1    2    0    0 -0.39339804521E+02  0.11222714296E+03  0.58330310484E+01  0.17269594709E+03  0.12508922436E+03 0.  0.
          5    1    3    3  502    0 -0.72555625993E+02  0.49015869178E+02  0.36389562927E+02  0.94913365679E+02  0.41800000000E+01 0.  1.
         -5    1    3    3    0  502  0.33215821472E+02  0.63211273786E+02 -0.30556531879E+02  0.77782581406E+02  0.41800000000E+01 0.  1.
        -11    1    1    2    0    0  0.84199766201E+01 -0.78246876941E+02  0.14711089705E+02  0.80061763143E+02  0.00000000000E+00 0.  1.
         11    1    1    2    0    0  0.30919827901E+02 -0.33980266023E+02 -0.61834170984E+02  0.77033492312E+02  0.00000000000E+00 0. -1.
</event>
<event>
 7    1  0.2612321E-009  0.1523307E+03  0.7561462E-02  0.1197638E+00
          2   -1    0    0  501    0  0.00000000000E+00  0.00000000000E+00  0.99320868629E+03  0.99320868629E+03  0.00000000000E+00 0. -1.
         -2   -1    0    0    0  501 -0.00000000000E+00 -0.00000000000E+00 -0.41231101561E+02  0.41231101561E+02  0.00000000000E+00 0.  1.
         25    2    1    2    0    0 -0.24601239804E+02 -0.13722229514E+03  0.74986219026E+03  0.77290089067E+03  0.12508918073E+03 0.  0.
          5    1    3    3  502    0 -0.55364742929E+02 -0.11165362823E+03  0.36030166936E+03  0.38126965891E+03  0.41800000000E+01 0.  1.
         -5    1    3    3    0  502  0.30763503125E+02 -0.25568666905E+02  0.38956052090E+03  0.39163123176E+03  0.41800000000E+01 0.  1.
        -11    1    1    2    0    0  0.18521894411E+02  0.76121526888E+02  0.39541281108E+02  0.87755685514E+02  0.00000000000E+00 0.  1.
         11    1    1    2    0    0  0.60793453927E+01  0.61100768252E+02  0.16257411336E+03  0.17378321166E+03  0.00000000000E+00 0. -1.
</event>
<event>
 7    1  0.2612321E-009  0.1134076E+03  0.7561462E-02  0.1254386E+00
          2   -1    0    0  501    0  0.00000000000E+00  0.00000000000E+00  0.39812058860E+03  0.39812058860E+03  0.00000000000E+00 0. -1.
         -2   -1    0    0    0  501 -0.00000000000E+00 -0.00000000000E+00 -0.44118501502E+02  0.44118501502E+02  0.00000000000E+00 0.  1.
         25    2    1    2    0    0 -0.49807843004E+02 -0.57496121365E+02  0.19279591113E+03  0.24208420311E+03  0.12509145795E+03 0.  0.
          5    1    3    3  502    0  0.16549661889E+02 -0.74809013258E+02  0.11551873946E+03  0.13868068121E+03  0.41800000000E+01 0.  1.
         -5    1    3    3    0  502 -0.66357504893E+02  0.17312891893E+02  0.77277171668E+02  0.10340352191E+03  0.41800000000E+01 0.  1.
        -11    1    1    2    0    0  0.20704173910E+02  0.45327757123E+02  0.17174018591E+02  0.52708778183E+02  0.00000000000E+00 0.  1.
         11    1    1    2    0    0  0.29103669094E+02  0.12168364243E+02  0.14403215738E+03  0.14744610881E+03  0.00000000000E+00 0. -1.
</event>
<event>
 7    1  0.2612321E-009  0.1769302E+03  0.7561462E-02  0.1170808E+00
         -2   -1    0    0    0  501 -0.00000000000E+00  0.00000000000E+00  0.24272003742E+03  0.24272003742E+03  0.00000000000E+00 0.  1.
          2   -1    0    0  501    0  0.00000000000E+00 -0.00000000000E+00 -0.15399187279E+03  0.15399187279E+03  0.00000000000E+00 0. -1.
         25    2    1    2    0    0  0.57739657772E+02  0.14489921882E+03  0.86748962039E+02  0.21795160789E+03  0.12509144365E+03 0.  0.
          5    1    3    3  502    0  0.52811283983E+02  0.31611259050E+02  0.84288881655E+02  0.10445281894E+03  0.41800000000E+01 0. -1.
         -5    1    3    3    0  502  0.49283737891E+01  0.11328795977E+03  0.24600803842E+01  0.11349878895E+03  0.41800000000E+01 0. -1.
        -11    1    1    2    0    0 -0.28433441077E+01 -0.11715291879E+03  0.33476808906E+01  0.11723522489E+03  0.00000000000E+00 0. -1.
         11    1    1    2    0    0 -0.54896313664E+02 -0.27746300032E+02 -0.13684782982E+01  0.61525077426E+02  0.00000000000E+00 0.  1.
</event>
<event>
 7    1  0.2612321E-009  0.7458288E+02  0.7561462E-02  0.1345168E+00
         -1   -1    0    0    0  501 -0.00000000000E+00  0.00000000000E+00  0.94553412801E+02  0.94553412801E+02  0.00000000000E+00 0.  1.
          1   -1    0    0  501    0  0.00000000000E+00 -0.00000000000E+00 -0.14196347266E+03  0.14196347266E+03  0.00000000000E+00 0. -1.
         25    2    1    2    0    0 -0.14278346797E+02 -0.36503948089E+02 -0.43375425951E+02  0.13807901029E+03  0.12509187061E+03 0.  0.
          5    1    3    3  502    0  0.17870729803E+02 -0.29914937458E+02 -0.80821318740E+02  0.88112566809E+02  0.41800000000E+01 0. -1.
         -5    1    3    3    0  502 -0.32149076600E+02 -0.65890106310E+01  0.37445892789E+02  0.49966443481E+02  0.41800000000E+01 0. -1.
        -11    1    1    2    0    0  0.30510769219E+02  0.50864884074E+02 -0.28455602211E+02  0.65786509007E+02  0.00000000000E+00 0. -1.
         11    1    1    2    0    0 -0.16232422422E+02 -0.14360935985E+02  0.24420968297E+02  0.32651366168E+02  0.00000000000E+00 0.  1.
</event>
<event>
 7    1  0.2612321E-009  0.1109624E+03  0.7561462E-02  0.1258798E+00
         -1   -1    0    0    0  501 -0.00000000000E+00  0.00000000000E+00  0.44561767742E+02  0.44561767742E+02  0.00000000000E+00 0.  1.
          1   -1    0    0  501    0  0.00000000000E+00 -0.00000000000E+00 -0.47741211343E+03  0.47741211343E+03  0.00000000000E+00 0. -1.
         25    2    1    2    0    0 -0.30453551171E+02  0.72717236067E+02 -0.33936053590E+03  0.37017835512E+03  0.12510486032E+03 0.  0.
          5    1    3    3  502    0 -0.87739716924E+01  0.91854873001E+02 -0.13400608525E+03  0.16275565599E+03  0.41800000000E+01 0.  1.
         -5    1    3    3    0  502 -0.21679579479E+02 -0.19137636934E+02 -0.20535445064E+03  0.20742269913E+03  0.41800000000E+01 0.  1.
        -11    1    1    2    0    0  0.35396052123E+02 -0.91233963145E+01  0.23964266477E+01  0.36631403562E+02  0.00000000000E+00 0.  1.
         11    1    1    2    0    0 -0.49425009523E+01 -0.63593839753E+02 -0.95886236437E+02  0.11516412249E+03  0.00000000000E+00 0. -1.
</event>
<event>
 7    1  0.2612321E-009  0.1848827E+03  0.7561462E-02  0.1163160E+00
          2   -1    0    0  501    0  0.00000000000E+00  0.00000000000E+00  0.48541665205E+02  0.48541665205E+02  0.00000000000E+00 0. -1.
         -2   -1    0    0    0  501 -0.00000000000E+00 -0.00000000000E+00 -0.12709194024E+04  0.12709194024E+04  0.00000000000E+00 0.  1.
         25    2    1    2    0    0  0.56134985870E+01 -0.16650337798E+03 -0.10277758241E+04  0.10486776217E+04  0.12508686309E+03 0.  0.
          5    1    3    3  502    0 -0.34449832140E+02 -0.12646521382E+03 -0.89069288038E+03  0.90029524091E+03  0.41800000000E+01 0.  1.
         -5    1    3    3    0  502  0.40063330728E+02 -0.40038164159E+02 -0.13708294371E+03  0.14838238074E+03  0.41800000000E+01 0.  1.
        -11    1    1    2    0    0 -0.29661185346E+02  0.26492308584E+02 -0.75775888938E+02  0.85578114460E+02  0.00000000000E+00 0.  1.
         11    1    1    2    0    0  0.24047686759E+02  0.14001106940E+03 -0.11882602415E+03  0.18520533148E+03  0.00000000000E+00 0. -1.
</event>
<event>
 7    1  0.2612321E-009  0.1259012E+03  0.7561462E-02  0.1233667E+00
          2   -1    0    0  501    0  0.00000000000E+00  0.00000000000E+00  0.10965673463E+04  0.10965673463E+04  0.00000000000E+00 0. -1.
         -2   -1    0    0    0  501 -0.00000000000E+00 -0.00000000000E+00 -0.15541011270E+02  0.15541011270E+02  0.00000000000E+00 0.  1.
         25    2    1    2    0    0  0.44187299749E+02  0.48628066210E+02  0.71676605139E+03  0.73056650904E+03  0.12512651764E+03 0.  0.
          5    1    3    3  502    0 -0.63137103412E+00 -0.40719939777E+02  0.18573155850E+03  0.19018989550E+03  0.41800000000E+01 0. -1.
         -5    1    3    3    0  502  0.44818670783E+02  0.89348005987E+02  0.53103449289E+03  0.54037661354E+03  0.41800000000E+01 0. -1.
        -11    1    1    2    0    0 -0.49202631947E+02 -0.71837704040E+02  0.31569063795E+03  0.32747844754E+03  0.00000000000E+00 0.  1.
         11    1    1    2    0    0  0.50153321980E+01  0.23209637830E+02  0.48569645715E+02  0.54063401022E+02  0.00000000000E+00 0. -1.
</event>
<event>
 7    1  0.2612321E-009  0.1096306E+03  0.7561462E-02  0.1261256E+00
         -1   -1    0    0    0  501 -0.00000000000E+00  0.00000000000E+00  0.64715809606E+03  0.64715809606E+03  0.00000000000E+00 0.  1.
          1   -1    0    0  501    0  0.00000000000E+00 -0.00000000000E+00 -0.22190701886E+02  0.22190701886E+02  0.00000000000E+00 0. -1.
         25    2    1    2    0    0 -0.41468059088E+02 -0.89491991847E+01  0.26970791627E+03  0.30031470909E+03  0.12508747462E+03 0.  0.
          5    1    3    3  502    0  0.54760332475E+01 -0.55751324927E+02  0.18086529061E+03  0.18938828612E+03  0.41800000000E+01 0.  1.
         -5    1    3    3    0  502 -0.46944092335E+02  0.46802125742E+02  0.88842625663E+02  0.11092642297E+03  0.41800000000E+01 0.  1.
        -11    1    1    2    0    0  0.68256818257E+02  0.13257819595E+02  0.29267156173E+03  0.30081789519E+03  0.00000000000E+00 0.  1.
         11    1    1    2    0    0 -0.26788759169E+02 -0.43086204103E+01  0.62587916163E+02  0.68216193658E+02  0.00000000000E+00 0. -1.
</event>
<event>
 7    1  0.2612321E-009  0.8412076E+02  0.7561462E-02  0.1317748E+00
          3   -1    0    0  501    0  0.00000000000E+00  0.00000000000E+00  0.11957956346E+03  0.11957956346E+03  0.00000000000E+00 0. -1.
         -3   -1    0    0    0  501 -0.00000000000E+00 -0.00000000000E+00 -0.11298567127E+03  0.11298567127E+03  0.00000000000E+00 0.  1.
         25    2    1    2    0    0 -0.21820675426E+02  0.13499670476E+02  0.41207056406E+02  0.13417779280E+03  0.12508907068E+03 0.  0.
          5    1    3    3  502    0  0.42423000070E+02 -0.25824231711E+02  0.29270481711E+02  0.57799960018E+02  0.41800000000E+01 0. -1.
         -5    1    3    3    0  502 -0.64243675496E+02  0.39323902187E+02  0.11936574695E+02  0.76377832778E+02  0.41800000000E+01 0. -1.
        -11    1    1    2    0    0  0.85658102529E+01 -0.24362341928E+02 -0.61387508398E+02  0.66598220673E+02  0.00000000000E+00 0.  1.
         11    1    1    2    0    0  0.13254865173E+02  0.10862671452E+02  0.26774344182E+02  0.31789221258E+02  0.00000000000E+00 0. -1.
</event>
<event>
 7    1  0.2612321E-009  0.8307616E+02  0.7561462E-02  0.1320542E+00
         -3   -1    0    0    0  501 -0.00000000000E+00  0.00000000000E+00  0.67617543369E+02  0.67617543369E+02  0.00000000000E+00 0.  1.
          3   -1    0    0  501    0  0.00000000000E+00 -0.00000000000E+00 -0.18473908643E+03  0.18473908643E+03  0.00000000000E+00 0. -1.
         25    2    1    2    0    0 -0.60162929924E+01  0.86074784052E+01 -0.98971839947E+02  0.15985205209E+03  0.12508784508E+03 0.  0.
          5    1    3    3  502    0 -0.36652012336E+02 -0.48277839383E+02 -0.46349691198E+02  0.76419147194E+02  0.41800000000E+01 0.  1.
         -5    1    3    3    0  502  0.30635719344E+02  0.56885317788E+02 -0.52622148749E+02  0.83432904891E+02  0.41800000000E+01 0.  1.
        -11    1    1    2    0    0  0.61621108359E+01 -0.24242198609E+02  0.31631182856E+02  0.40326015576E+02  0.00000000000E+00 0.  1.
         11    1    1    2    0    0 -0.14581784348E+00  0.15634720204E+02 -0.49780885972E+02  0.52178562139E+02  0.00000000000E+00 0. -1.
</event>
<event>
 7    1  0.2612321E-009  0.1079125E+03  0.7561462E-02  0.1264485E+00
          1   -1    0    0  501    0  0.00000000000E+00  0.00000000000E+00  0.22545265512E+03  0.22545265512E+03  0.00000000000E+00 0. -1.
         -1   -1    0    0    0  501 -0.00000000000E+00 -0.00000000000E+00 -0.73146186919E+02  0.73146186919E+02  0.00000000000E+00 0.  1.
         25    2    1    2    0    0 -0.39787489646E+02 -0.47280584414E+02  0.11652311079E+03  0.18177631505E+03  0.12508595193E+03 0.  0.
          5    1    3    3  502    0  0.13344308038E+02  0.24645341096E+02 -0.70357454771E+01  0.29196532486E+02  0.41800000000E+01 0.  1.
         -5    1    3    3    0  502 -0.53131797684E+02 -0.71925925510E+02  0.12355885627E+03  0.15257978257E+03  0.41800000000E+01 0.  1.
        -11    1    1    2    0    0  0.12750670833E+02 -0.20979031319E+02  0.35793264430E+02  0.43403423141E+02  0.00000000000E+00 0. -1.
         11    1    1    2    0    0  0.27036818813E+02  0.68259615733E+02 -0.99070199553E-02  0.73419103847E+02  0.00000000000E+00 0.  1.
</event>
<event>
 7    1  0.2612321E-009  0.1882807E+03  0.7561462E-02  0.1160021E+00
          1   -1    0    0  501    0  0.00000000000E+00  0.00000000000E+00  0.52812149198E+03  0.52812149198E+03  0.00000000000E+00 0. -1.
         -1   -1    0    0    0  501 -0.00000000000E+00 -0.00000000000E+00 -0.11236032750E+03  0.11236032750E+03  0.00000000000E+00 0.  1.
         25    2    1    2    0    0 -0.43169336710E+02 -0.16994217485E+03  0.44624358771E+02  0.21995962798E+03  0.12508784961E+03 0.  0.
          5    1    3    3  502    0 -0.33600800369E+02 -0.23496610771E+02 -0.33988028907E+02  0.53420623472E+02  0.41800000000E+01 0.  1.
         -5    1    3    3    0  502 -0.95685363403E+01 -0.14644556408E+03  0.78612387678E+02  0.16653900451E+03  0.41800000000E+01 0.  1.
        -11    1    1    2    0    0 -0.12553441375E+02  0.35354068090E+01  0.40682588027E+01  0.13661578289E+02  0.00000000000E+00 0.  1.
         11    1    1    2    0    0  0.55722778085E+02  0.16640676804E+03  0.36706854691E+03  0.40686061321E+03  0.00000000000E+00 0. -1.
</event>
<event>
 7    1  0.2612321E-009  0.1083270E+03  0.7561462E-02  0.1263700E+00
          2   -1    0    0  501    0  0.00000000000E+00  0.00000000000E+00  0.47065007915E+03  0.47065007915E+03  0.00000000000E+00 0. -1.
         -2   -1    0    0    0  501 -0.00000000000E+00 -0.00000000000E+00 -0.28819236313E+02  0.28819236313E+02  0.00000000000E+00 0.  1.
         25    2    1    2    0    0 -0.55600301977E+01  0.32455175116E+02  0.19030436295E+03  0.23009387820E+03  0.12507273844E+03 0.  0.
          5    1    3    3  502    0 -0.19673938236E+02 -0.40812769787E+02  0.11646034483E+03  0.12503291703E+03  0.41800000000E+01 0. -1.
         -5    1    3    3    0  502  0.14113908039E+02  0.73267944903E+02  0.73844018118E+02  0.10506096117E+03  0.41800000000E+01 0. -1.
        -11    1    1    2    0    0  0.47513112735E+02 -0.25412573301E+02  0.13980677033E+03  0.14983066373E+03  0.00000000000E+00 0.  1.
         11    1    1    2    0    0 -0.41953082538E+02 -0.70426018154E+01  0.11171970955E+03  0.11954477353E+03  0.00000000000E+00 0. -1.
</event>
<event>
 7    1  0.2612321E-009  0.8812923E+02  0.7561462E-02  0.1307446E+00
         -2   -1    0    0    0  501 -0.00000000000E+00  0.00000000000E+00  0.89956440042E+02  0.89956440042E+02  0.00000000000E+00 0.  1.
          2   -1    0    0  501    0  0.00000000000E+00 -0.00000000000E+00 -0.19737692794E+03  0.19737692794E+03  0.00000000000E+00 0. -1.
         25    2    1    2    0    0  0.15193940530E+02 -0.71046801447E+02 -0.33956179360E+02  0.14859256181E+03  0.12509285944E+03 0.  0.
          5    1    3    3  502    0  0.18152970152E+02  0.12242064326E+01  0.40566173147E+02  0.44655523853E+02  0.41800000000E+01 0. -1.
         -5    1    3    3    0  502 -0.29590296221E+01 -0.72271007879E+02 -0.74522352508E+02  0.10393703796E+03  0.41800000000E+01 0. -1.
        -11    1    1    2    0    0  0.12813551174E+02  0.56650058548E+01 -0.65715055617E+02  0.67191873911E+02  0.00000000000E+00 0. -1.
         11    1    1    2    0    0 -0.28007491704E+02  0.65381795592E+02 -0.77492529192E+01  0.71548932258E+02  0.00000000000E+00 0.  1.
</event>
<event>
 7    1  0.2612321E-009  0.2311589E+03  0.7561462E-02  0.1125827E+00
         -2   -1    0    0    0  501 -0.00000000000E+00  0.00000000000E+00  0.45854366070E+02  0.45854366070E+02  0.00000000000E+00 0. -1.
          2   -1    0    0  501    0  0.00000000000E+00 -0.00000000000E+00 -0.11897452872E+04  0.11897452872E+04  0.00000000000E+00 0.  1.
         25    2    1    2    0    0 -0.15751944678E+03 -0.13332537483E+03 -0.56643988637E+03  0.61570290216E+03  0.12509151521E+03 0.  0.
          5    1    3    3  502    0  0.13287123464E+02  0.75670017953E+01 -0.75200298512E+02  0.76852875433E+02  0.41800000000E+01 0.  1.
         -5    1    3    3    0  502 -0.17080657025E+03 -0.14089237663E+03 -0.49123958785E+03  0.53885002673E+03  0.41800000000E+01 0.  1.
        -11    1    1    2    0    0  0.45570299965E+02 -0.63461506876E+01 -0.10330001972E+03  0.11308324342E+03  0.00000000000E+00 0.  1.
         11    1    1    2    0    0  0.11194914682E+03  0.13967152552E+03 -0.47415101509E+03  0.50681350774E+03  0.00000000000E+00 0. -1.
</event>
<event>
 7    1  0.2612321E-009  0.8997075E+02  0.7561462E-02  0.1302923E+00
          3   -1    0    0  501    0  0.00000000000E+00  0.00000000000E+00  0.30533556858E+03  0.30533556858E+03  0.00000000000E+00 0. -1.
         -3   -1    0    0    0  501 -0.00000000000E+00 -0.00000000000E+00 -0.44016101836E+02  0.44016101836E+02  0.00000000000E+00 0.  1.
         25    2    1    2    0    0  0.35731726409E+02  0.21449404312E+02  0.15124965790E+03  0.20065390392E+03  0.12509475180E+03 0.  0.
          5    1    3    3  502    0  0.41272190388E+02  0.42899407270E+02  0.13646940094E+02  0.61216535491E+02  0.41800000000E+01 0. -1.
         -5    1    3    3    0  502 -0.55404639790E+01 -0.21450002959E+02  0.13760271780E+03  0.13943736843E+03  0.41800000000E+01 0. -1.
        -11    1    1    2    0    0 -0.63995424681E+02 -0.31962383262E+01  0.86372857559E+02  0.10754487827E+03  0.00000000000E+00 0. -1.
         11    1    1    2    0    0  0.28263698272E+02 -0.18253165986E+02  0.23696951285E+02  0.41152888218E+02  0.00000000000E+00 0.  1.
</event>
<event>
 7    1  0.2612321E-009  0.3832380E+03  0.7561462E-02  0.1049743E+00
          2   -1    0    0  501    0  0.00000000000E+00  0.00000000000E+00  0.73850018972E+03  0.73850018972E+03  0.00000000000E+00 0. -1.
         -2   -1    0    0    0  501 -0.00000000000E+00 -0.00000000000E+00 -0.34535417351E+03  0.34535417351E+03  0.00000000000E+00 0.  1.
         25    2    1    2    0    0  0.16213433254E+03  0.33966950076E+03 -0.14379903581E+03  0.42188722347E+03  0.12509098725E+03 0.  0.
          5    1    3    3  502    0  0.15499839016E+02  0.12506611419E+03 -0.27189949121E+01  0.12612154162E+03  0.41800000000E+01 0. -1.
         -5    1    3    3    0  502  0.14663449352E+03  0.21460338658E+03 -0.14108004090E+03  0.29576568185E+03  0.41800000000E+01 0. -1.
        -11    1    1    2    0    0 -0.91694133374E+02 -0.25078429440E+03  0.31677058538E+03  0.41429962609E+03  0.00000000000E+00 0.  1.
         11    1    1    2    0    0 -0.70440199163E+02 -0.88885206359E+02  0.22017446664E+03  0.24766751367E+03  0.00000000000E+00 0. -1.
</event>
<event>
 7    1  0.2612321E-009  0.1162352E+03  0.7561462E-02  0.1249440E+00
         -1   -1    0    0    0  501 -0.00000000000E+00  0.00000000000E+00  0.51035912277E+02  0.51035912277E+02  0.00000000000E+00 0.  1.
          1   -1    0    0  501    0  0.00000000000E+00 -0.00000000000E+00 -0.41187233801E+03  0.41187233801E+03  0.00000000000E+00 0. -1.
         25    2    1    2    0    0  0.49433780508E+02 -0.78044675812E+02 -0.24522646393E+03  0.29037586253E+03  0.12508977917E+03 0.  0.
          5    1    3    3  502    0  0.52931793892E+02 -0.76323718194E+00 -0.28603422477E+02  0.60315715307E+02  0.41800000000E+01 0.  1.
         -5    1    3    3    0  502 -0.34980133840E+01 -0.77281438631E+02 -0.21662304145E+03  0.23006014722E+03  0.41800000000E+01 0.  1.
        -11    1    1    2    0    0 -0.17716516873E+02  0.70381524372E-01  0.10733607587E+02  0.20714493851E+02  0.00000000000E+00 0.  1.
         11    1    1    2    0    0 -0.31717263634E+02  0.77974294288E+02 -0.12634356940E+03  0.15181789391E+03  0.00000000000E+00 0. -1.
</event>
<event>
 7    1  0.2612321E-009  0.1001350E+03  0.7561462E-02  0.1280012E+00
         -3   -1    0    0    0  501 -0.00000000000E+00  0.00000000000E+00  0.24998645167E+03  0.24998645167E+03  0.00000000000E+00 0.  1.
          3   -1    0    0  501    0  0.00000000000E+00 -0.00000000000E+00 -0.59648618767E+02  0.59648618767E+02  0.00000000000E+00 0. -1.
         25    2    1    2    0    0  0.20025897293E+02  0.18795587202E+02  0.18215095396E+03  0.22266859188E+03  0.12509205058E+03 0.  0.
          5    1    3    3  502    0 -0.46061512754E+02  0.74532078195E+01  0.12823927523E+03  0.13652837571E+03  0.41800000000E+01 0.  1.
         -5    1    3    3    0  502  0.66087410048E+02  0.11342379382E+02  0.53911678732E+02  0.86140216163E+02  0.41800000000E+01 0.  1.
        -11    1    1    2    0    0 -0.29582854634E+02  0.26639322292E+02 -0.65764254122E-01  0.39809585597E+02  0.00000000000E+00 0.  1.
         11    1    1    2    0    0  0.95569573411E+01 -0.45434909494E+02  0.82526431996E+01  0.47156892965E+02  0.00000000000E+00 0. -1.
</event>
<event>
 7    1  0.2612321E-009  0.1168146E+03  0.7561462E-02  0.1248446E+00
          1   -1    0    0  501    0  0.00000000000E+00  0.00000000000E+00  0.14285786222E+03  0.14285786222E+03  0.00000000000E+00 0. -1.
         -1   -1    0    0    0  501 -0.00000000000E+00 -0.00000000000E+00 -0.10251014315E+03  0.10251014315E+03  0.00000000000E+00 0.  1.
         25    2    1    2    0    0  0.17046375778E+02 -0.46536801253E+02  0.44778698240E+02  0.14180996420E+03  0.12509468947E+03 0.  0.
          5    1    3    3  502    0  0.61478207142E+02 -0.61901817124E+02  0.29978137735E+02  0.92344821504E+02  0.41800000000E+01 0.  1.
         -5    1    3    3    0  502 -0.44431831363E+02  0.15365015871E+02  0.14800560505E+02  0.49465142699E+02  0.41800000000E+01 0.  1.
        -11    1    1    2    0    0  0.31915925152E+02  0.55892402784E+00 -0.15501678541E+02  0.35485781828E+02  0.00000000000E+00 0.  1.
         11    1    1    2    0    0 -0.48962300930E+02  0.45977877225E+02  0.11070699374E+02  0.68072259336E+02  0.00000000000E+00 0. -1.
</event>
<event>
 7    1  0.2612321E-009  0.1728638E+03  0.7561462E-02  0.1174894E+00
          1   -1    0    0  501    0  0.00000000000E+00  0.00000000000E+00  0.37405429057E+03  0.37405429057E+03  0.00000000000E+00 0. -1.
         -1   -1    0    0    0  501 -0.00000000000E+00 -0.00000000000E+00 -0.12837203356E+03  0.12837203356E+03  0.00000000000E+00 0.  1.
         25    2    1    2    0    0  0.63871695930E+02 -0.14355385724E+03  0.24833604809E+03  0.31938360870E+03  0.12509113980E+03 0.  0.
          5    1    3    3  502    0  0.37175891483E+02 -0.24522145506E+02  0.16655996148E+03  0.17246180938E+03  0.41800000000E+01 0.  1.
         -5    1    3    3    0  502  0.26695804447E+02 -0.11903171173E+03  0.81776086609E+02  0.14692179931E+03  0.41800000000E+01 0.  1.
        -11    1    1    2    0    0 -0.45837854922E+02  0.13707179410E+02  0.16391466008E+02  0.50573470012E+02  0.00000000000E+00 0. -1.
         11    1    1    2    0    0 -0.18033841008E+02  0.12984667783E+03 -0.19045257085E+02  0.13246924542E+03  0.00000000000E+00 0.  1.
</event>
<event>
 7    1  0.2612321E-009  0.1181277E+03  0.7561462E-02  0.1246218E+00
         -2   -1    0    0    0  501 -0.00000000000E+00  0.00000000000E+00  0.18089951483E+02  0.18089951483E+02  0.00000000000E+00 0.  1.
          2   -1    0    0  501    0  0.00000000000E+00 -0.00000000000E+00 -0.10908512439E+04  0.10908512439E+04  0.00000000000E+00 0. -1.
         25    2    1    2    0    0  0.20775547318E+02 -0.86199561020E+02 -0.59017669052E+03  0.60976835488E+03  0.12508770082E+03 0.  0.
          5    1    3    3  502    0 -0.24069357327E+02 -0.17632885025E+02 -0.26412714520E+02  0.40066900114E+02  0.41800000000E+01 0.  1.
         -5    1    3    3    0  502  0.44844904645E+02 -0.68566675995E+02 -0.56376397600E+03  0.56970145476E+03  0.41800000000E+01 0.  1.
        -11    1    1    2    0    0  0.91049065297E+01  0.93001295897E+02 -0.40746594380E+03  0.41804382033E+03  0.00000000000E+00 0. -1.
         11    1    1    2    0    0 -0.29880453848E+02 -0.68017348775E+01 -0.75118658131E+02  0.81129020202E+02  0.00000000000E+00 0.  1.
</event>
<event>
 7    1  0.2612321E-009  0.1911898E+03  0.7561462E-02  0.1157393E+00
         -1   -1    0    0    0  501 -0.00000000000E+00  0.00000000000E+00  0.29888836434E+03  0.29888836434E+03  0.00000000000E+00 0.  1.
          1   -1    0    0  501    0  0.00000000000E+00 -0.00000000000E+00 -0.20040057917E+03  0.20040057917E+03  0.00000000000E+00 0. -1.
         25    2    1    2    0    0 -0.15698370464E+03 -0.65926249778E+02 -0.89531092343E+02  0.22946481478E+03  0.12509248895E+03 0.  0.
          5    1    3    3  502    0 -0.97283315298E+02 -0.99783568416E+02 -0.41073556821E+02  0.14534549677E+03  0.41800000000E+01 0.  1.
         -5    1    3    3    0  502 -0.59700389346E+02  0.33857318638E+02 -0.48457535522E+02  0.84119318009E+02  0.41800000000E+01 0.  1.
        -11    1    1    2    0    0  0.96894654831E+02  0.20929815208E+02  0.46209287723E+02  0.10937060652E+03  0.00000000000E+00 0. -1.
         11    1    1    2    0    0  0.60089049813E+02  0.44996434570E+02  0.14180958979E+03  0.16045352220E+03  0.00000000000E+00 0.  1.
</event>
<event>
 7    1  0.2612321E-009  0.1121727E+03  0.7561462E-02  0.1256599E+00
         -1   -1    0    0    0  501 -0.00000000000E+00  0.00000000000E+00  0.51914588695E+03  0.51914588695E+03  0.00000000000E+00 0.  1.
          1   -1    0    0  501    0  0.00000000000E+00 -0.00000000000E+00 -0.34275920817E+02  0.34275920817E+02  0.00000000000E+00 0. -1.
         25    2    1    2    0    0  0.31979138742E+02  0.34457488149E+01  0.41522606360E+03  0.43485041848E+03  0.12509062342E+03 0.  0.
          5    1    3    3  502    0 -0.28818797027E+02  0.46150259600E+02  0.16456531426E+03  0.17337700130E+03  0.41800000000E+01 0. -1.
         -5    1    3    3    0  502  0.60797935769E+02 -0.42704510785E+02  0.25066074934E+03  0.26147341719E+03  0.41800000000E+01 0. -1.
        -11    1    1    2    0    0 -0.50635927426E+02  0.28692445644E+02  0.48876952298E+02  0.76001381890E+02  0.00000000000E+00 0.  1.
         11    1    1    2    0    0  0.18656788684E+02 -0.32138194459E+02  0.20766950237E+02  0.42570007390E+02  0.00000000000E+00 0. -1.
</event>
<event>
 6    1  0.2612321E-009  0.7320743E+02  0.7561462E-02  0.1349514E+00
          2   -1    0    0  501    0  0.00000000000E+00  0.00000000000E+00  0.11131121063E+03  0.11131121063E+03  0.00000000000E+00 0. -1.
         -2   -1    0    0    0  501 -0.00000000000E+00 -0.00000000000E+00 -0.10796477030E+03  0.10796477030E+03  0.00000000000E+00 0.  1.
          5    1    1    2  502    0 -0.25140050594E+02  0.57684536392E+02 -0.17748951638E+02  0.65513552544E+02  0.41800000000E+01 0.  1.
         -5    1    1    2    0  502  0.24573790289E+02 -0.45156242060E+02  0.32593419618E+02  0.61014430822E+02  0.41800000000E+01 0.  1.
        -11    1    1    2    0    0  0.10055033903E+02  0.54546253672E+01  0.37761989009E+02  0.39456614890E+02  0.00000000000E+00 0. -1.
         11    1    1    2    0    0 -0.94887735988E+01 -0.17982919699E+02 -0.49260016663E+02  0.53291382671E+02  0.00000000000E+00 0.  1.
</event>
<event>
 7    1  0.2612321E-009  0.1083785E+03  0.7561462E-02  0.1263602E+00
          2   -1    0    0  501    0  0.00000000000E+00  0.00000000000E+00  0.73972994073E+03  0.73972994073E+03  0.00000000000E+00 0. -1.
         -2   -1    0    0    0  501 -0.00000000000E+00 -0.00000000000E+00 -0.19106048112E+02  0.19106048112E+02  0.00000000000E+00 0.  1.
         25    2    1    2    0    0 -0.31959339795E+02  0.12142807609E+02  0.52063748695E+03  0.53654390202E+03  0.12508844391E+03 0.  0.
          5    1    3    3  502    0  0.29900158379E+02 -0.32825310277E+02  0.10778991852E+03  0.11665187268E+03  0.41800000000E+01 0. -1.
         -5    1    3    3    0  502 -0.61859498174E+02  0.44968117886E+02  0.41284756844E+03  0.41989202934E+03  0.41800000000E+01 0. -1.
        -11    1    1    2    0    0  0.61301955484E+02 -0.21191624002E+02  0.11651581224E+03  0.13335272466E+03  0.00000000000E+00 0.  1.
         11    1    1    2    0    0 -0.29342615689E+02  0.90488163933E+01  0.83470593429E+02  0.88939362157E+02  0.00000000000E+00 0. -1.
</event>
<event>
 7    1  0.2612321E-009  0.1410730E+03  0.7561462E-02  0.1211892E+00
         -1   -1    0    0    0  501 -0.00000000000E+00  0.00000000000E+00  0.68330238318E+02  0.68330238318E+02  0.00000000000E+00 0.  1.
          1   -1    0    0  501    0  0.00000000000E+00 -0.00000000000E+00 -0.34874270174E+03  0.34874270174E+03  0.00000000000E+00 0. -1.
         25    2    1    2    0    0  0.10938704014E+03  0.78043863540E+01 -0.16210469970E+03  0.23227515846E+03  0.12508949827E+03 0.  0.
          5    1    3    3  502    0  0.64210088222E+02 -0.55608097789E+02 -0.61302722131E+02  0.10483650180E+03  0.41800000000E+01 0.  1.
         -5    1    3    3    0  502  0.45176951921E+02  0.63412484143E+02 -0.10080197757E+03  0.12743865666E+03  0.41800000000E+01 0.  1.
        -11    1    1    2    0    0 -0.82334480293E+02  0.15069987160E+02 -0.28774253633E+02  0.88510049318E+02  0.00000000000E+00 0.  1.
         11    1    1    2    0    0 -0.27052559850E+02 -0.22874373514E+02 -0.89533510087E+02  0.96287732275E+02  0.00000000000E+00 0. -1.
</event>
<event>
 7    1  0.2612321E-009  0.7853037E+02  0.7561462E-02  0.1333275E+00
         -2   -1    0    0    0  501 -0.00000000000E+00  0.00000000000E+00  0.79041432375E+02  0.79041432375E+02  0.00000000000E+00 0.  1.
          2   -1    0    0  501    0  0.00000000000E+00 -0.00000000000E+00 -0.16108527280E+03  0.16108527280E+03  0.00000000000E+00 0. -1.
         25    2    1    2    0    0 -0.30319733251E+01  0.21443011897E+02 -0.63177768217E+02  0.14180424682E+03  0.12509203971E+03 0.  0.
          5    1    3    3  502    0 -0.23776456370E+02  0.40376959517E+02  0.22061604682E+02  0.51959652987E+02  0.41800000000E+01 0.  1.
         -5    1    3    3    0  502  0.20744483045E+02 -0.18933947620E+02 -0.85239372899E+02  0.89844593836E+02  0.41800000000E+01 0.  1.
        -11    1    1    2    0    0 -0.24357233014E+02  0.20291805466E+02 -0.33677852414E+02  0.46251809828E+02  0.00000000000E+00 0. -1.
         11    1    1    2    0    0  0.27389206339E+02 -0.41734817364E+02  0.14811780210E+02  0.52070648519E+02  0.00000000000E+00 0.  1.
</event>
<event>
 7    1  0.2612321E-009  0.1093708E+03  0.7561462E-02  0.1261739E+00
          1   -1    0    0  501    0  0.00000000000E+00  0.00000000000E+00  0.74100448937E+03  0.74100448937E+03  0.00000000000E+00 0. -1.
         -1   -1    0    0    0  501 -0.00000000000E+00 -0.00000000000E+00 -0.29491289856E+02  0.29491289856E+02  0.00000000000E+00 0.  1.
         25    2    1    2    0    0 -0.65685346249E+02 -0.15505485335E+02  0.57498304554E+03  0.59228707927E+03  0.12507396543E+03 0.  0.
          5    1    3    3  502    0  0.37085204779E+02 -0.10945115285E+02  0.17452015049E+03  0.17880118370E+03  0.41800000000E+01 0. -1.
         -5    1    3    3    0  502 -0.10277055103E+03 -0.45603700496E+01  0.40046289505E+03  0.41348589558E+03  0.41800000000E+01 0. -1.
        -11    1    1    2    0    0  0.16024425056E+02  0.21561760304E+02 -0.56773825034E+01  0.27457683403E+02  0.00000000000E+00 0.  1.
         11    1    1    2    0    0  0.49660921193E+02 -0.60562749692E+01  0.14220753648E+03  0.15075101655E+03  0.00000000000E+00 0. -1.
</event>
<event>
 7    1  0.2612321E-009  0.8809493E+02  0.7561462E-02  0.1307532E+00
          1   -1    0    0  501    0  0.00000000000E+00  0.00000000000E+00  0.12613573085E+03  0.12613573085E+03  0.00000000000E+00 0. -1.
         -1   -1    0    0    0  501 -0.00000000000E+00 -0.00000000000E+00 -0.12441026447E+03  0.12441026447E+03  0.00000000000E+00 0.  1.
         25    2    1    2    0    0 -0.32016395542E+00  0.42488688304E+02 -0.46757939365E+02  0.14012706070E+03  0.12507556559E+03 0.  0.
          5    1    3    3  502    0 -0.18379107418E+02  0.61930408332E+02  0.20337078693E+02  0.67854522586E+02  0.41800000000E+01 0.  1.
         -5    1    3    3    0  502  0.18058943462E+02 -0.19441720028E+02 -0.67095018058E+02  0.72272538110E+02  0.41800000000E+01 0.  1.
        -11    1    1    2    0    0 -0.63495490987E+01 -0.62848300518E+02  0.67758997269E+01  0.63530610487E+02  0.00000000000E+00 0.  1.
         11    1    1    2    0    0  0.66697130542E+01  0.20359612215E+02  0.41707506019E+02  0.46888324134E+02  0.00000000000E+00 0. -1.
</event>
<event>
 7    1  0.2818753E-009  0.1314437E+03  0.7561462E-02  0.1225329E+00
         -1   -1    0    0    0  501 -0.00000000000E+00  0.00000000000E+00  0.35420676184E+02  0.35420676184E+02  0.00000000000E+00 0.  1.
          1   -1    0    0  501    0  0.00000000000E+00 -0.00000000000E+00 -0.63713466844E+03  0.63713466844E+03  0.00000000000E+00 0. -1.
         25    2    1    2    0    0  0.55656133379E+02 -0.81133241326E+02 -0.25429232108E+03  0.29999031841E+03  0.12509755613E+03 0.  0.
          5    1    3    3  502    0  0.94511291118E+02 -0.67870806444E+02 -0.16882205837E+03  0.20507849792E+03  0.41800000000E+01 0. -1.
         -5    1    3    3    0  502 -0.38855157739E+02 -0.13262434883E+02 -0.85470262702E+02  0.94911820487E+02  0.41800000000E+01 0. -1.
        -11    1    1    2    0    0 -0.36959396651E+02  0.21647153475E+02 -0.39079431104E+02  0.57981015771E+02  0.00000000000E+00 0.  1.
         11    1    1    2    0    0 -0.18696736728E+02  0.59486087851E+02 -0.30834224008E+03  0.31458401045E+03  0.00000000000E+00 0. -1.
</event>
<event>
 7    1  0.2612321E-009  0.1171991E+03  0.7561462E-02  0.1247790E+00
          2   -1    0    0  501    0  0.00000000000E+00  0.00000000000E+00  0.12354835809E+03  0.12354835809E+03  0.00000000000E+00 0. -1.
         -2   -1    0    0    0  501 -0.00000000000E+00 -0.00000000000E+00 -0.13623683677E+03  0.13623683677E+03  0.00000000000E+00 0.  1.
         25    2    1    2    0    0  0.35248458539E+02  0.38163919775E+02 -0.45570042917E+02  0.14290923498E+03  0.12508989579E+03 0.  0.
          5    1    3    3  502    0 -0.16344958291E+00  0.79504907428E+02 -0.36434563897E+02  0.87555735776E+02  0.41800000000E+01 0. -1.
         -5    1    3    3    0  502  0.35411908122E+02 -0.41340987653E+02 -0.91354790199E+01  0.55353499202E+02  0.41800000000E+01 0. -1.
        -11    1    1    2    0    0  0.15878649977E+02  0.18158529650E+02  0.32916574836E+02  0.40808879218E+02  0.00000000000E+00 0.  1.
         11    1    1    2    0    0 -0.51127108516E+02 -0.56322449425E+02 -0.35010593018E-01  0.76067080660E+02  0.00000000000E+00 0. -1.
</event>
<event>
 7    1  0.2612321E-009  0.7264812E+02  0.7561462E-02  0.1351313E+00
          2   -1    0    0  501    0  0.00000000000E+00  0.00000000000E+00  0.15609132514E+03  0.15609132514E+03  0.00000000000E+00 0. -1.
         -2   -1    0    0    0  501 -0.00000000000E+00 -0.00000000000E+00 -0.87341446873E+02  0.87341446873E+02  0.00000000000E+00 0.  1.
         25    2    1    2    0    0 -0.39165013139E+02  0.18135551926E+02  0.32103077820E+02  0.13616648363E+03  0.12509159509E+03 0.  0.
          5    1    3    3  502    0  0.96795691339E+01  0.85981736583E+01  0.71358048408E+02  0.72643417606E+02  0.41800000000E+01 0.  1.
         -5    1    3    3    0  502 -0.48844582273E+02  0.95373782682E+01 -0.39254970587E+02  0.63523066027E+02  0.41800000000E+01 0.  1.
        -11    1    1    2    0    0  0.55647119863E+02 -0.28253782086E+02  0.53047850132E+02  0.81908195896E+02  0.00000000000E+00 0. -1.
         11    1    1    2    0    0 -0.16482106724E+02  0.10118230159E+02 -0.16401049686E+02  0.25358092484E+02  0.00000000000E+00 0.  1.
</event>
<event>
 7    1  0.2612321E-009  0.7283624E+02  0.7561462E-02  0.1350706E+00
         -1   -1    0    0    0  501 -0.00000000000E+00  0.00000000000E+00  0.72485361569E+02  0.72485361569E+02  0.00000000000E+00 0.  1.
          1   -1    0    0  501    0  0.00000000000E+00 -0.00000000000E+00 -0.19017420678E+03  0.19017420678E+03  0.00000000000E+00 0. -1.
         25    2    1    2    0    0 -0.78550976396E+01  0.44314408389E+02 -0.84398111565E+02  0.15746547107E+03  0.12508742540E+03 0.  0.
          5    1    3    3  502    0  0.31864404995E+02 -0.36126335591E+01  0.18407184933E+02  0.37211399920E+02  0.41800000000E+01 0. -1.
         -5    1    3    3    0  502 -0.39719502634E+02  0.47927041948E+02 -0.10280529650E+03  0.12025407115E+03  0.41800000000E+01 0. -1.
        -11    1    1    2    0    0 -0.84364157284E+01 -0.11012794469E+02  0.29316783452E+02  0.32433447925E+02  0.00000000000E+00 0.  1.
         11    1    1    2    0    0  0.16291513368E+02 -0.33301613920E+02 -0.62607517102E+02  0.72760649360E+02  0.00000000000E+00 0. -1.
</event>
<event>
 7    1  0.2612321E-009  0.2560099E+03  0.7561462E-02  0.1109565E+00
         -2   -1    0    0    0  501 -0.00000000000E+00  0.00000000000E+00  0.52703654586E+02  0.52703654586E+02  0.00000000000E+00 0. -1.
          2   -1    0    0  501    0  0.00000000000E+00 -0.00000000000E+00 -0.16405788649E+04  0.16405788649E+04  0.00000000000E+00 0.  1.
         25    2    1    2    0    0 -0.21408524150E+03 -0.10430215726E+03 -0.42822364178E+03  0.50570176166E+03  0.12508938294E+03 0.  0.
          5    1    3    3  502    0 -0.83395490750E+02 -0.10678349987E+03 -0.25334861676E+03  0.28733346087E+03  0.41800000000E+01 0.  1.
         -5    1    3    3    0  502 -0.13068975075E+03  0.24813426053E+01 -0.17487502503E+03  0.21836830079E+03  0.41800000000E+01 0.  1.
        -11    1    1    2    0    0  0.66196890501E+02  0.26876508287E+01 -0.18394179429E+03  0.19550916977E+03  0.00000000000E+00 0. -1.
         11    1    1    2    0    0  0.14788835100E+03  0.10161450643E+03 -0.97570977420E+03  0.99207158802E+03  0.00000000000E+00 0.  1.
</event>
<event>
 7    1  0.2612321E-009  0.9499820E+02  0.7561462E-02  0.1291180E+00
          1   -1    0    0  501    0  0.00000000000E+00  0.00000000000E+00  0.18038256930E+02  0.18038256930E+02  0.00000000000E+00 0. -1.
         -1   -1    0    0    0  501 -0.00000000000E+00 -0.00000000000E+00 -0.89719924019E+03  0.89719924019E+03  0.00000000000E+00 0.  1.
         25    2    1    2    0    0 -0.14262023168E+02  0.23239915976E+02 -0.70450654891E+03  0.71604412019E+03  0.12508479363E+03 0.  0.
          5    1    3    3  502    0  0.49157046527E+02  0.22333675990E+02 -0.46879710374E+03  0.47191461641E+03  0.41800000000E+01 0.  1.
         -5    1    3    3    0  502 -0.63419069694E+02  0.90623998630E+00 -0.23570944517E+03  0.24412950377E+03  0.41800000000E+01 0.  1.
        -11    1    1    2    0    0 -0.61503084098E+01  0.21895288099E+02 -0.13163297626E+03  0.13358319644E+03  0.00000000000E+00 0.  1.
         11    1    1    2    0    0  0.20412331577E+02 -0.45135204075E+02 -0.43021458097E+02  0.65610180492E+02  0.00000000000E+00 0. -1.
</event>
<event>
 7    1  0.2612321E-009  0.1161815E+03  0.7561462E-02  0.1249533E+00
         -1   -1    0    0    0  501 -0.00000000000E+00  0.00000000000E+00  0.10007300874E+03  0.10007300874E+03  0.00000000000E+00 0.  1.
          1   -1    0    0  501    0  0.00000000000E+00 -0.00000000000E+00 -0.25760934795E+03  0.25760934795E+03  0.00000000000E+00 0. -1.
         25    2    1    2    0    0  0.81363869848E+02  0.20296431070E+02 -0.17635710404E+03  0.23191226264E+03  0.12509774174E+03 0.  0.
          5    1    3    3  502    0 -0.31461141215E+02  0.38824469110E+01 -0.17862069112E+02  0.36625165031E+02  0.41800000000E+01 0.  1.
         -5    1    3    3    0  502  0.11282501106E+03  0.16413984159E+02 -0.15849503492E+03  0.19528709761E+03  0.41800000000E+01 0.  1.
        -11    1    1    2    0    0 -0.18010454814E+02  0.39959724509E+01 -0.34734459393E+02  0.39329720921E+02  0.00000000000E+00 0. -1.
         11    1    1    2    0    0 -0.63353415035E+02 -0.24292403521E+02  0.53555224222E+02  0.86440373130E+02  0.00000000000E+00 0.  1.
</event>
<event>
 7    1  0.3299108E-009  0.2123770E+03  0.7561462E-02  0.1139697E+00
         -2   -1    0    0    0  501 -0.00000000000E+00  0.00000000000E+00  0.24326581618E+02  0.24326581618E+02  0.00000000000E+00 0.  1.
          2   -1    0    0  501    0  0.00000000000E+00 -0.00000000000E+00 -0.18842867441E+04  0.18842867441E+04  0.00000000000E+00 0. -1.
         25    2    1    2    0    0  0.48669745610E+02 -0.17774476350E+03 -0.96201797710E+03  0.98746486832E+03  0.12508530216E+03 0.  0.
          5    1    3    3  502    0 -0.38712083376E+02 -0.88150475134E+02 -0.36951256091E+03  0.38187188524E+03  0.41800000000E+01 0.  1.
         -5    1    3    3    0  502  0.87381828987E+02 -0.89594288362E+02 -0.59250541618E+03  0.60559298307E+03  0.41800000000E+01 0.  1.
        -11    1    1    2    0    0  0.21892636558E+02  0.77807467759E+02 -0.42650776431E+03  0.43409925431E+03  0.00000000000E+00 0.  1.
         11    1    1    2    0    0 -0.70562382169E+02  0.99937295738E+02 -0.47143442106E+03  0.48704920308E+03  0.00000000000E+00 0. -1.
</event>
<event>
 7    1  0.2612321E-009  0.5670426E+02  0.7561462E-02  0.1412207E+00
         -3   -1    0    0    0  501 -0.00000000000E+00  0.00000000000E+00  0.11516606490E+03  0.11516606490E+03  0.00000000000E+00 0.  1.
          3   -1    0    0  501    0  0.00000000000E+00 -0.00000000000E+00 -0.11102371750E+03  0.11102371750E+03  0.00000000000E+00 0. -1.
         25    2    1    2    0    0  0.18445055589E+02 -0.56278502220E+01  0.24659501172E+02  0.12894917142E+03  0.12509158660E+03 0.  0.
          5    1    3    3  502    0  0.15332938323E+02  0.28053357969E+02 -0.42671950456E+02  0.53483246411E+02  0.41800000000E+01 0.  1.
         -5    1    3    3    0  502  0.31121172657E+01 -0.33681208191E+02  0.67331451627E+02  0.75465925008E+02  0.41800000000E+01 0.  1.
        -11    1    1    2    0    0 -0.30068243831E+02  0.13588686088E+02 -0.52661325536E+02  0.62144725310E+02  0.00000000000E+00 0. -1.
         11    1    1    2    0    0  0.11623188242E+02 -0.79608358657E+01  0.32144171763E+02  0.35095885669E+02  0.00000000000E+00 0.  1.
</event>
<event>
 7    1  0.2612321E-009  0.1192528E+03  0.7561462E-02  0.1244335E+00
         -2   -1    0    0    0  501 -0.00000000000E+00  0.00000000000E+00  0.10908290915E+03  0.10908290915E+03  0.00000000000E+00 0.  1.
          2   -1    0    0  501    0  0.00000000000E+00 -0.00000000000E+00 -0.34084099317E+03  0.34084099317E+03  0.00000000000E+00 0. -1.
         25    2    1    2    0    0 -0.66622429132E+02  0.18186236476E+02 -0.28887464657E+03  0.32228217932E+03  0.12509178397E+03 0.  0.
          5    1    3    3  502    0  0.57536011571E-01  0.61095693998E+02 -0.98131013017E+02  0.11567132424E+03  0.41800000000E+01 0. -1.
         -5    1    3    3    0  502 -0.66679965144E+02 -0.42909457522E+02 -0.19074363355E+03  0.20661085508E+03  0.41800000000E+01 0. -1.
        -11    1    1    2    0    0  0.75709233556E+02 -0.31287602715E+02  0.15899370126E+02  0.83448140181E+02  0.00000000000E+00 0. -1.
         11    1    1    2    0    0 -0.90868044236E+01  0.13101366239E+02  0.41217192417E+02  0.44193582823E+02  0.00000000000E+00 0.  1.
</event>
<event>
 7    1  0.2612321E-009  0.6609236E+02  0.7561462E-02  0.1373909E+00
          1   -1    0    0  501    0  0.00000000000E+00  0.00000000000E+00  0.38800458274E+03  0.38800458274E+03  0.00000000000E+00 0. -1.
         -1   -1    0    0    0  501 -0.00000000000E+00 -0.00000000000E+00 -0.35977097525E+02  0.35977097525E+02  0.00000000000E+00 0.  1.
         25    2    1    2    0    0 -0.11954659792E+02 -0.25863995861E+02  0.13347938991E+03  0.18514448201E+03  0.12509944650E+03 0.  0.
          5    1    3    3  502    0  0.64568806793E+01 -0.94004959807E+01  0.15294121430E+03  0.15342277557E+03  0.41800000000E+01 0. -1.
         -5    1    3    3    0  502 -0.18411540471E+02 -0.16463499880E+02 -0.19461824386E+02  0.31721706437E+02  0.41800000000E+01 0. -1.
        -11    1    1    2    0    0  0.23346256561E+02  0.57127647372E+02  0.16007701769E+03  0.17156126423E+03  0.00000000000E+00 0.  1.
         11    1    1    2    0    0 -0.11391596769E+02 -0.31263651511E+02  0.58471077608E+02  0.67275934028E+02  0.00000000000E+00 0. -1.
</event>
<event>
 7    1  0.2612321E-009  0.2058696E+03  0.7561462E-02  0.1144879E+00
         -2   -1    0    0    0  501 -0.00000000000E+00  0.00000000000E+00  0.62924740144E+03  0.62924740144E+03  0.00000000000E+00 0.  1.
          2   -1    0    0  501    0  0.00000000000E+00 -0.00000000000E+00 -0.83591696717E+02  0.83591696717E+02  0.00000000000E+00 0. -1.
         25    2    1    2    0    0 -0.16609075399E+03  0.63994407122E+02  0.43048958316E+03  0.48235371901E+03  0.12514953589E+03 0.  0.
          5    1    3    3  502    0 -0.13876322811E+03 -0.39041127372E+01  0.22761171916E+03  0.26663653664E+03  0.41800000000E+01 0. -1.
         -5    1    3    3    0  502 -0.27327525876E+02  0.67898519859E+02  0.20287786400E+03  0.21571718237E+03  0.41800000000E+01 0. -1.
        -11    1    1    2    0    0  0.14853892226E+03 -0.85813125432E+02  0.10153641618E+03  0.19934228787E+03  0.00000000000E+00 0.  1.
         11    1    1    2    0    0  0.17551831730E+02  0.21818718309E+02  0.13629705392E+02  0.31143091286E+02  0.00000000000E+00 0. -1.
</event>
<event>
 7    1  0.2612321E-009  0.8790701E+02  0.7561462E-02  0.1308001E+00
          2   -1    0    0  501    0  0.00000000000E+00  0.00000000000E+00  0.68268247371E+03  0.68268247371E+03  0.00000000000E+00 0. -1.
         -2   -1    0    0    0  501 -0.00000000000E+00 -0.00000000000E+00 -0.28068429181E+02  0.28068429181E+02  0.00000000000E+00 0.  1.
         25    2    1    2    0    0  0.70457198238E+02  0.23556037657E+02  0.47627458745E+03  0.49799942824E+03  0.12508734622E+03 0.  0.
          5    1    3    3  502    0  0.54310387159E+02 -0.15558307801E+02  0.72575731456E+02  0.92067303052E+02  0.41800000000E+01 0.  1.
         -5    1    3    3    0  502  0.16146811079E+02  0.39114345458E+02  0.40369885599E+03  0.40593212519E+03  0.41800000000E+01 0.  1.
        -11    1    1    2    0    0 -0.29457756945E+02 -0.19752367479E+02  0.65127509118E+01  0.36060108010E+02  0.00000000000E+00 0.  1.
         11    1    1    2    0    0 -0.40999441293E+02 -0.38036701780E+01  0.17182670617E+03  0.17669136665E+03  0.00000000000E+00 0. -1.
</event>
<event>
 7    1  0.2612321E-009  0.1052289E+03  0.7561462E-02  0.1269669E+00
          1   -1    0    0  501    0  0.00000000000E+00  0.00000000000E+00  0.13241916833E+03  0.13241916833E+03  0.00000000000E+00 0. -1.
         -1   -1    0    0    0  501 -0.00000000000E+00 -0.00000000000E+00 -0.13659883933E+03  0.13659883933E+03  0.00000000000E+00 0.  1.
         25    2    1    2    0    0 -0.38372089393E+02 -0.42865830488E+02 -0.57361095514E+02  0.14915730772E+03  0.12509080901E+03 0.  0.
          5    1    3    3  502    0 -0.16549798807E+02  0.44032210528E+02 -0.27365708949E+02  0.54581002472E+02  0.41800000000E+01 0. -1.
         -5    1    3    3    0  502 -0.21822290586E+02 -0.86898041015E+02 -0.29995386565E+02  0.94576305246E+02  0.41800000000E+01 0. -1.
        -11    1    1    2    0    0  0.84269699595E+01 -0.98185877315E+01 -0.20634669501E+02  0.24355863219E+02  0.00000000000E+00 0.  1.
         11    1    1    2    0    0  0.29945119433E+02  0.52684418219E+02  0.73816094019E+02  0.95504836721E+02  0.00000000000E+00 0. -1.
</event>
<event>
 7    1  0.2612321E-009  0.1028779E+03  0.7561462E-02  0.1274358E+00
          1   -1    0    0  501    0  0.00000000000E+00  0.00000000000E+00  0.24838351566E+02  0.24838351566E+02  0.00000000000E+00 0. -1.
         -1   -1    0    0    0  501 -0.00000000000E+00 -0.00000000000E+00 -0.49787909141E+03  0.49787909141E+03  0.00000000000E+00 0.  1.
         25    2    1    2    0    0 -0.79927896847E+01  0.71531620646E+00 -0.20994616045E+03  0.24452029084E+03  0.12509350895E+03 0.  0.
          5    1    3    3  502    0  0.15043055120E+02 -0.54637462249E+02 -0.14646668056E+03  0.15710349042E+03  0.41800000000E+01 0. -1.
         -5    1    3    3    0  502 -0.23035844805E+02  0.55352778455E+02 -0.63479479892E+02  0.87416800422E+02  0.41800000000E+01 0. -1.
        -11    1    1    2    0    0  0.12559786859E+01 -0.44506691427E+02 -0.15778316741E+03  0.16394496328E+03  0.00000000000E+00 0.  1.
         11    1    1    2    0    0  0.67368109988E+01  0.43791375221E+02 -0.10531141199E+03  0.11425218887E+03  0.00000000000E+00 0. -1.
</event>
<event>
 7    1  0.2612321E-009  0.1639572E+03  0.7561462E-02  0.1184300E+00
          1   -1    0    0  501    0  0.00000000000E+00  0.00000000000E+00  0.64383214906E+02  0.64383214906E+02  0.00000000000E+00 0. -1.
         -1   -1    0    0    0  501 -0.00000000000E+00 -0.00000000000E+00 -0.49644523063E+03  0.49644523063E+03  0.00000000000E+00 0.  1.
         25    2    1    2    0    0 -0.81346520912E+02 -0.10682879683E+03 -0.30251375917E+03  0.35382258382E+03  0.12508476340E+03 0.  0.
          5    1    3    3  502    0  0.26880643338E+02  0.40422360047E+01 -0.33395917778E+02  0.43262782879E+02  0.41800000000E+01 0.  1.
         -5    1    3    3    0  502 -0.10822716425E+03 -0.11087103284E+03 -0.26911784140E+03  0.31055980094E+03  0.41800000000E+01 0.  1.
        -11    1    1    2    0    0  0.29377368358E+02  0.83380566830E+02 -0.31999788061E+02  0.94017738393E+02  0.00000000000E+00 0. -1.
         11    1    1    2    0    0  0.51969152554E+02  0.23448230000E+02 -0.97548468486E+02  0.11298812332E+03  0.00000000000E+00 0.  1.
</event>
<event>
 7    1  0.2612321E-009  0.1113103E+03  0.7561462E-02  0.1258162E+00
          2   -1    0    0  501    0  0.00000000000E+00  0.00000000000E+00  0.25263185022E+03  0.25263185022E+03  0.00000000000E+00 0.  1.
         -2   -1    0    0    0  501 -0.00000000000E+00 -0.00000000000E+00 -0.72310762920E+02  0.72310762920E+02  0.00000000000E+00 0. -1.
         25    2    1    2    0    0  0.20112306392E+02  0.79614822982E+02  0.83203520272E+02  0.17121125903E+03  0.12508974589E+03 0.  0.
          5    1    3    3  502    0 -0.18203599567E+02  0.76633056265E+02 -0.64626241985E+00  0.78878935115E+02  0.41800000000E+01 0.  1.
         -5    1    3    3    0  502  0.38315905959E+02  0.29817667168E+01  0.83849782691E+02  0.92332323915E+02  0.41800000000E+01 0.  1.
        -11    1    1    2    0    0  0.22667295982E+02 -0.13638364661E+02  0.62400505136E+02  0.67776355309E+02  0.00000000000E+00 0.  1.
         11    1    1    2    0    0 -0.42779602374E+02 -0.65976458321E+02  0.34717061889E+02  0.85954998796E+02  0.00000000000E+00 0. -1.
</event>
<event>
 7    1  0.2612321E-009  0.1381517E+03  0.7561462E-02  0.1215838E+00
         -1   -1    0    0    0  501 -0.00000000000E+00  0.00000000000E+00  0.29690358699E+02  0.29690358699E+02  0.00000000000E+00 0.  1.
          1   -1    0    0  501    0  0.00000000000E+00 -0.00000000000E+00 -0.99096771305E+03  0.99096771305E+03  0.00000000000E+00 0. -1.
         25    2    1    2    0    0 -0.10310743698E+03  0.65582811133E+02 -0.70199861481E+03  0.72345226143E+03  0.12509544635E+03 0.  0.
          5    1    3    3  502    0 -0.10793599206E+03  0.66218999580E+02 -0.36449384313E+03  0.38588647082E+03  0.41800000000E+01 0. -1.
         -5    1    3    3    0  502  0.48285550744E+01 -0.63618844727E+00 -0.33750477169E+03  0.33756579061E+03  0.41800000000E+01 0. -1.
        -11    1    1    2    0    0  0.23635063450E+02 -0.58862461463E+02 -0.90311621801E+02  0.11036120073E+03  0.00000000000E+00 0.  1.
         11    1    1    2    0    0  0.79472373535E+02 -0.67203496704E+01 -0.16896711773E+03  0.18684460958E+03  0.00000000000E+00 0. -1.
</event>
<event>
 7    1  0.2612321E-009  0.1119483E+03  0.7561462E-02  0.1257004E+00
         -3   -1    0    0    0  501 -0.00000000000E+00  0.00000000000E+00  0.94293452730E+02  0.94293452730E+02  0.00000000000E+00 0.  1.
          3   -1    0    0  501    0  0.00000000000E+00 -0.00000000000E+00 -0.22451694472E+03  0.22451694472E+03  0.00000000000E+00 0. -1.
         25    2    1    2    0    0 -0.70924016113E+02  0.65001567633E+02 -0.82742750865E+02  0.17819980153E+03  0.12511349483E+03 0.  0.
          5    1    3    3  502    0 -0.59671104082E+02  0.37296205145E+02 -0.11444926750E+03  0.13441634875E+03  0.41800000000E+01 0.  1.
         -5    1    3    3    0  502 -0.11252912032E+02  0.27705362488E+02  0.31706516636E+02  0.43783452775E+02  0.41800000000E+01 0.  1.
        -11    1    1    2    0    0  0.39152504922E+02  0.11139627506E+02 -0.41121624272E+02  0.57861886639E+02  0.00000000000E+00 0. -1.
         11    1    1    2    0    0  0.31771511191E+02 -0.76141195138E+02 -0.63591168508E+01  0.82748709281E+02  0.00000000000E+00 0.  1.
</event>
<event>
 7    1  0.2612321E-009  0.1070974E+03  0.7561462E-02  0.1266041E+00
          1   -1    0    0  501    0  0.00000000000E+00  0.00000000000E+00  0.17877991565E+03  0.17877991565E+03  0.00000000000E+00 0. -1.
         -1   -1    0    0    0  501 -0.00000000000E+00 -0.00000000000E+00 -0.98048750990E+02  0.98048750990E+02  0.00000000000E+00 0.  1.
         25    2    1    2    0    0 -0.28968369608E+02 -0.68316444429E+02  0.34319895790E+02  0.14943754147E+03  0.12508965000E+03 0.  0.
          5    1    3    3  502    0  0.13856715422E+02  0.10078211744E+02 -0.33058362158E+02  0.37468741943E+02  0.41800000000E+01 0.  1.
         -5    1    3    3    0  502 -0.42825085029E+02 -0.78394656174E+02  0.67378257948E+02  0.11196879953E+03  0.41800000000E+01 0.  1.
        -11    1    1    2    0    0 -0.20165039967E+02  0.51322679169E+02 -0.35906060827E+01  0.55258833556E+02  0.00000000000E+00 0.  1.
         11    1    1    2    0    0  0.49133409575E+02  0.16993765260E+02  0.50001874956E+02  0.72132291612E+02  0.00000000000E+00 0. -1.
</event>
<event>
 7    1  0.3715245E-009  0.1659581E+03  0.7561462E-02  0.1182130E+00
          1   -1    0    0  501    0  0.00000000000E+00  0.00000000000E+00  0.62093690581E+03  0.62093690581E+03  0.00000000000E+00 0. -1.
         -1   -1    0    0    0  501 -0.00000000000E+00 -0.00000000000E+00 -0.44582692335E+02  0.44582692335E+02  0.00000000000E+00 0.  1.
         25    2    1    2    0    0  0.54035672721E+02  0.11365820517E+03  0.32147729809E+03  0.36720075372E+03  0.12510275301E+03 0.  0.
          5    1    3    3  502    0  0.55871370347E+02  0.13991894497E+03  0.27692421233E+03  0.31528306799E+03  0.41800000000E+01 0. -1.
         -5    1    3    3    0  502 -0.18356976263E+01 -0.26260739793E+02  0.44553085766E+02  0.51917685729E+02  0.41800000000E+01 0. -1.
        -11    1    1    2    0    0  0.10009238024E+02 -0.82885732505E+02  0.14932099113E+03  0.17107597111E+03  0.00000000000E+00 0. -1.
         11    1    1    2    0    0 -0.64044910745E+02 -0.30772472669E+02  0.10555592425E+03  0.12724287332E+03  0.00000000000E+00 0.  1.
</event>
<event>
 7    1  0.2612321E-009  0.1296300E+03  0.7561462E-02  0.1228006E+00
          1   -1    0    0  501    0  0.00000000000E+00  0.00000000000E+00  0.26762725683E+03  0.26762725683E+03  0.00000000000E+00 0. -1.
         -1   -1    0    0    0  501 -0.00000000000E+00 -0.00000000000E+00 -0.97062087036E+02  0.97062087036E+02  0.00000000000E+00 0.  1.
         25    2    1    2    0    0  0.17788930632E+02 -0.77507354098E+02 -0.81301839472E+01  0.14845122512E+03  0.12509128809E+03 0.  0.
          5    1    3    3  502    0  0.39644916109E+02  0.21097058352E+02  0.88161331002E+01  0.45956521270E+02  0.41800000000E+01 0.  1.
         -5    1    3    3    0  502 -0.21855985477E+02 -0.98604412451E+02 -0.16946317047E+02  0.10249470385E+03  0.41800000000E+01 0.  1.
        -11    1    1    2    0    0 -0.44874992840E+02  0.72889749026E+02  0.93695561637E+02  0.12690759932E+03  0.00000000000E+00 0.  1.
         11    1    1    2    0    0  0.27086062208E+02  0.46176050720E+01  0.84999792103E+02  0.89330519421E+02  0.00000000000E+00 0. -1.
</event>
<event>
 7    1  0.2612321E-009  0.7224321E+02  0.7561462E-02  0.1352627E+00
          2   -1    0    0  501    0  0.00000000000E+00  0.00000000000E+00  0.18766321655E+04  0.18766321655E+04  0.00000000000E+00 0. -1.
         -2   -1    0    0    0  501 -0.00000000000E+00 -0.00000000000E+00 -0.18475192493E+02  0.18475192493E+02  0.00000000000E+00 0.  1.
         25    2    1    2    0    0 -0.10115162200E+02  0.21101486376E+01  0.16832754676E+04  0.16879483788E+04  0.12508661150E+03 0.  0.
          5    1    3    3  502    0 -0.29724292745E+02  0.17563121532E+02  0.13316832909E+03  0.13763456357E+03  0.41800000000E+01 0.  1.
         -5    1    3    3    0  502  0.19609130545E+02 -0.15452972894E+02  0.15501071385E+04  0.15503138152E+04  0.41800000000E+01 0.  1.
        -11    1    1    2    0    0 -0.21365824375E+02  0.31680769372E+02  0.15525556180E+02  0.41245757284E+02  0.00000000000E+00 0.  1.
         11    1    1    2    0    0  0.31480986575E+02 -0.33790918010E+02  0.15935594917E+03  0.16591322187E+03  0.00000000000E+00 0. -1.
</event>
<event>
 7    1  0.2612321E-009  0.1418889E+03  0.7561462E-02  0.1210810E+00
          3   -1    0    0  501    0  0.00000000000E+00  0.00000000000E+00  0.36558116115E+03  0.36558116115E+03  0.00000000000E+00 0. -1.
         -3   -1    0    0    0  501 -0.00000000000E+00 -0.00000000000E+00 -0.82278161842E+02  0.82278161842E+02  0.00000000000E+00 0.  1.
         25    2    1    2    0    0  0.35941365975E+00  0.13378403743E+03  0.14407613267E+03  0.23303118544E+03  0.12508918233E+03 0.  0.
          5    1    3    3  502    0 -0.69873362493E+01  0.13943324914E+03  0.66325863024E+02  0.15461903615E+03  0.41800000000E+01 0.  1.
         -5    1    3    3    0  502  0.73467499091E+01 -0.56492117158E+01  0.77750269642E+02  0.78412149292E+02  0.41800000000E+01 0.  1.
        -11    1    1    2    0    0 -0.24683811734E+01 -0.22263901671E+02 -0.13161366050E+02  0.25980680891E+02  0.00000000000E+00 0.  1.
         11    1    1    2    0    0  0.21089675137E+01 -0.11152013576E+03  0.15238823270E+03  0.18884745666E+03  0.00000000000E+00 0. -1.
</event>
<event>
 7    1  0.2612321E-009  0.1053288E+03  0.7561462E-02  0.1269473E+00
         -1   -1    0    0    0  501 -0.00000000000E+00  0.00000000000E+00  0.61551204204E+02  0.61551204204E+02  0.00000000000E+00 0. -1.
          1   -1    0    0  501    0  0.00000000000E+00 -0.00000000000E+00 -0.28233794996E+03  0.28233794996E+03  0.00000000000E+00 0.  1.
         25    2    1    2    0    0  0.55950716561E+02  0.60777419505E+01 -0.18271630221E+03  0.22847451817E+03  0.12509171327E+03 0.  0.
          5    1    3    3  502    0 -0.23646005295E+02  0.28008230597E+02 -0.11756859099E+03  0.12322110426E+03  0.41800000000E+01 0. -1.
         -5    1    3    3    0  502  0.79596721856E+02 -0.21930488646E+02 -0.65147711222E+02  0.10525341391E+03  0.41800000000E+01 0. -1.
        -11    1    1    2    0    0 -0.51914891642E+02 -0.34536428436E+02 -0.54058215311E+02  0.82524005634E+02  0.00000000000E+00 0.  1.
         11    1    1    2    0    0 -0.40358249196E+01  0.28458686485E+02  0.15987771767E+02  0.32890630358E+02  0.00000000000E+00 0. -1.
</event>
<event>
 7    1  0.2612321E-009  0.1135532E+03  0.7561462E-02  0.1254128E+00
         -2   -1    0    0    0  501 -0.00000000000E+00  0.00000000000E+00  0.29929360716E+02  0.29929360716E+02  0.00000000000E+00 0.  1.
          2   -1    0    0  501    0  0.00000000000E+00 -0.00000000000E+00 -0.62499035661E+03  0.62499035661E+03  0.00000000000E+00 0. -1.
         25    2    1    2    0    0  0.26432570164E+02  0.64617471299E+02 -0.21832531866E+03  0.26112703877E+03  0.12508911721E+03 0.  0.
          5    1    3    3  502    0 -0.74412007385E+01 -0.31185170595E+02 -0.19383528683E+02  0.37697213659E+02  0.41800000000E+01 0.  1.
         -5    1    3    3    0  502  0.33873770902E+02  0.95802641894E+02 -0.19894178998E+03  0.22342982511E+03  0.41800000000E+01 0.  1.
        -11    1    1    2    0    0  0.19116994409E+02 -0.31159374041E+02 -0.48538320951E+02  0.60764583983E+02  0.00000000000E+00 0.  1.
         11    1    1    2    0    0 -0.45549564573E+02 -0.33458097258E+02 -0.32819735628E+03  0.33302809457E+03  0.00000000000E+00 0. -1.
</event>
<event>
 7    1  0.2612321E-009  0.1019918E+03  0.7561462E-02  0.1276162E+00
         -1   -1    0    0    0  501 -0.00000000000E+00  0.00000000000E+00  0.11660122611E+03  0.11660122611E+03  0.00000000000E+00 0.  1.
          1   -1    0    0  501    0  0.00000000000E+00 -0.00000000000E+00 -0.15759220930E+03  0.15759220930E+03  0.00000000000E+00 0. -1.
         25    2    1    2    0    0  0.60313428304E+02 -0.44405276936E+02 -0.55531389584E+02  0.15601353293E+03  0.12508776508E+03 0.  0.
          5    1    3    3  502    0  0.60388618664E+00  0.23354513068E+02 -0.60983147173E+02  0.65438632308E+02  0.41800000000E+01 0. -1.
         -5    1    3    3    0  502  0.59709542117E+02 -0.67759790004E+02  0.54517575888E+01  0.90574900619E+02  0.41800000000E+01 0. -1.
        -11    1    1    2    0    0 -0.77040307523E+01  0.35691552503E+02  0.44063960794E+02  0.57226494308E+02  0.00000000000E+00 0.  1.
         11    1    1    2    0    0 -0.52609397552E+02  0.87137244324E+01 -0.29523554404E+02  0.60953408181E+02  0.00000000000E+00 0. -1.
</event>
<event>
 7    1  0.2612321E-009  0.9988514E+02  0.7561462E-02  0.1280538E+00
         -1   -1    0    0    0  501 -0.00000000000E+00  0.00000000000E+00  0.44685914823E+02  0.44685914823E+02  0.00000000000E+00 0.  1.
          1   -1    0    0  501    0  0.00000000000E+00 -0.00000000000E+00 -0.28499893855E+03  0.28499893855E+03  0.00000000000E+00 0. -1.
         25    2    1    2    0    0 -0.68530321866E+01 -0.14185348537E+01 -0.90653423441E+02  0.15464333494E+03  0.12509013378E+03 0.  0.
          5    1    3    3  502    0  0.54973773430E+02 -0.16467793176E+02 -0.62448247548E+02  0.84915016335E+02  0.41800000000E+01 0. -1.
         -5    1    3    3    0  502 -0.61826805617E+02  0.15049258322E+02 -0.28205175893E+02  0.69728318609E+02  0.41800000000E+01 0. -1.
        -11    1    1    2    0    0  0.36807081653E+02 -0.19761094211E+02 -0.34501796385E+02  0.54181510297E+02  0.00000000000E+00 0.  1.
         11    1    1    2    0    0 -0.29954049467E+02  0.21179629065E+02 -0.11515780390E+03  0.12086000813E+03  0.00000000000E+00 0. -1.
</event>
<event>
 7    1  0.2612321E-009  0.9438984E+02  0.7561462E-02  0.1292556E+00
         -2   -1    0    0    0  501 -0.00000000000E+00  0.00000000000E+00  0.14956519071E+03  0.14956519071E+03  0.00000000000E+00 0.  1.
          2   -1    0    0  501    0  0.00000000000E+00 -0.00000000000E+00 -0.91456952485E+02  0.91456952485E+02  0.00000000000E+00 0. -1.
         25    2    1    2    0    0  0.11405112682E+02 -0.36647877652E+02  0.58620943880E+02  0.14337597224E+03  0.12508841203E+03 0.  0.
          5    1    3    3  502    0 -0.44445674230E+02  0.21317176415E+02  0.14826229976E+02  0.51644258764E+02  0.41800000000E+01 0. -1.
         -5    1    3    3    0  502  0.55850786912E+02 -0.57965054067E+02  0.43794713904E+02  0.91731713478E+02  0.41800000000E+01 0. -1.
        -11    1    1    2    0    0 -0.30058726533E+01 -0.10446083459E+02  0.35911388194E+02  0.37520444187E+02  0.00000000000E+00 0.  1.
         11    1    1    2    0    0 -0.83992400289E+01  0.47093961110E+02 -0.36424093849E+02  0.60125726764E+02  0.00000000000E+00 0. -1.
</event>
<event>
 7    1  0.2612321E-009  0.9949466E+02  0.7561462E-02  0.1281362E+00
          1   -1    0    0  501    0  0.00000000000E+00  0.00000000000E+00  0.10717509096E+03  0.10717509096E+03  0.00000000000E+00 0. -1.
         -1   -1    0    0    0  501 -0.00000000000E+00 -0.00000000000E+00 -0.10827048800E+03  0.10827048800E+03  0.00000000000E+00 0.  1.
         25    2    1    2    0    0  0.49163216350E+01  0.11512222659E+01 -0.29235282931E+01  0.12523059099E+03  0.12509459769E+03 0.  0.
          5    1    3    3  502    0 -0.52403932140E+02  0.93109881441E+01 -0.29931414736E+02  0.61206442406E+02  0.41800000000E+01 0.  1.
         -5    1    3    3    0  502  0.57320253775E+02 -0.81597658781E+01  0.27007886443E+02  0.64024148586E+02  0.41800000000E+01 0.  1.
        -11    1    1    2    0    0 -0.45012581643E+02  0.96307261519E+01 -0.98706654428E+01  0.47077738143E+02  0.00000000000E+00 0.  1.
         11    1    1    2    0    0  0.40096260008E+02 -0.10781948418E+02  0.11698796694E+02  0.43137249825E+02  0.00000000000E+00 0. -1.
</event>
<event>
 7    1  0.2612321E-009  0.1097676E+03  0.7561462E-02  0.1261001E+00
          2   -1    0    0  501    0  0.00000000000E+00  0.00000000000E+00  0.33064955538E+03  0.33064955538E+03  0.00000000000E+00 0. -1.
         -2   -1    0    0    0  501 -0.00000000000E+00 -0.00000000000E+00 -0.51129079293E+02  0.51129079293E+02  0.00000000000E+00 0.  1.
         25    2    1    2    0    0 -0.75509888669E+01 -0.71925145203E+02  0.15193857063E+03  0.20967155045E+03  0.12508631371E+03 0.  0.
          5    1    3    3  502    0  0.23602419069E+01  0.15371843705E+02 -0.14339507421E+02  0.21562889274E+02  0.41800000000E+01 0.  1.
         -5    1    3    3    0  502 -0.99112307738E+01 -0.87296988909E+02  0.16627807805E+03  0.18810866117E+03  0.41800000000E+01 0.  1.
        -11    1    1    2    0    0  0.13878634240E+02 -0.19442372267E+02  0.24563763966E+02  0.34263695480E+02  0.00000000000E+00 0.  1.
         11    1    1    2    0    0 -0.63276453727E+01  0.91367517471E+02  0.10301814149E+03  0.13784338875E+03  0.00000000000E+00 0. -1.
</event>
<event>
 7    1  0.2612321E-009  0.7560528E+02  0.7561462E-02  0.1342007E+00
         -3   -1    0    0    0  501 -0.00000000000E+00  0.00000000000E+00  0.67518200570E+02  0.67518200570E+02  0.00000000000E+00 0.  1.
          3   -1    0    0  501    0  0.00000000000E+00 -0.00000000000E+00 -0.30126565851E+03  0.30126565851E+03  0.00000000000E+00 0. -1.
         25    2    1    2    0    0 -0.18448311342E+02  0.66253136975E+00 -0.24811220259E+03  0.27847576223E+03  0.12509318900E+03 0.  0.
          5    1    3    3  502    0 -0.15460442946E+02 -0.55151204295E+02 -0.63851339305E+02  0.85878673501E+02  0.41800000000E+01 0.  1.
         -5    1    3    3    0  502 -0.29878683956E+01  0.55813735665E+02 -0.18426086329E+03  0.19259708873E+03  0.41800000000E+01 0.  1.
        -11    1    1    2    0    0  0.16963661452E+02 -0.15404768978E+02 -0.33283812856E+02  0.40408970728E+02  0.00000000000E+00 0. -1.
         11    1    1    2    0    0  0.14846498902E+01  0.14742237608E+02  0.47648557509E+02  0.49899126122E+02  0.00000000000E+00 0.  1.
</event>
<event>
 7    1  0.2612321E-009  0.1119776E+03  0.7561462E-02  0.1256951E+00
         -1   -1    0    0    0  501 -0.00000000000E+00  0.00000000000E+00  0.61287716674E+02  0.61287716674E+02  0.00000000000E+00 0.  1.
          1   -1    0    0  501    0  0.00000000000E+00 -0.00000000000E+00 -0.59592921519E+03  0.59592921519E+03  0.00000000000E+00 0. -1.
         25    2    1    2    0    0  0.98843927549E+02 -0.11030853682E+02 -0.63770298752E+02  0.17206490099E+03  0.12509147615E+03 0.  0.
          5    1    3    3  502    0  0.10151561286E+03 -0.15959856812E+02 -0.95031711151E+02  0.14003083663E+03  0.41800000000E+01 0. -1.
         -5    1    3    3    0  502 -0.26716853106E+01  0.49290031290E+01  0.31261412399E+02  0.32034064360E+02  0.41800000000E+01 0. -1.
        -11    1    1    2    0    0 -0.34995142530E+02 -0.22888144615E+02 -0.12511741808E+03  0.13192003438E+03  0.00000000000E+00 0.  1.
         11    1    1    2    0    0 -0.63848785019E+02  0.33918998298E+02 -0.34575378169E+03  0.35323199649E+03  0.00000000000E+00 0. -1.
</event>
<event>
 7    1  0.2612321E-009  0.1073089E+03  0.7561462E-02  0.1265636E+00
          1   -1    0    0  501    0  0.00000000000E+00  0.00000000000E+00  0.29326100691E+03  0.29326100691E+03  0.00000000000E+00 0. -1.
         -1   -1    0    0    0  501 -0.00000000000E+00 -0.00000000000E+00 -0.53726224888E+02  0.53726224888E+02  0.00000000000E+00 0.  1.
         25    2    1    2    0    0 -0.40391116920E+02 -0.31297207181E+02  0.18743296435E+03  0.23106137081E+03  0.12508910205E+03 0.  0.
          5    1    3    3  502    0 -0.62535867338E+02 -0.66810203421E+02  0.14344807448E+03  0.17020329156E+03  0.41800000000E+01 0.  1.
         -5    1    3    3    0  502  0.22144750418E+02  0.35512996240E+02  0.43984889868E+02  0.60858079248E+02  0.41800000000E+01 0.  1.
        -11    1    1    2    0    0 -0.11970929093E+02 -0.89182787553E+01  0.47445685607E+02  0.49738636109E+02  0.00000000000E+00 0. -1.
         11    1    1    2    0    0  0.52362046013E+02  0.40215485936E+02  0.46561320646E+01  0.66187224882E+02  0.00000000000E+00 0.  1.
</event>
<event>
 7    1  0.2612321E-009  0.2032730E+03  0.7561462E-02  0.1147007E+00
          2   -1    0    0  501    0  0.00000000000E+00  0.00000000000E+00  0.11619223889E+04  0.11619223889E+04  0.00000000000E+00 0. -1.
         -2   -1    0    0    0  501 -0.00000000000E+00 -0.00000000000E+00 -0.51376827413E+02  0.51376827413E+02  0.00000000000E+00 0.  1.
         25    2    1    2    0    0 -0.15882067574E+03  0.11460447098E+03  0.81939554018E+03  0.85171283253E+03  0.12508999168E+03 0.  0.
          5    1    3    3  502    0 -0.81616924060E+01  0.24043897102E+02  0.18373076944E+02  0.31619053863E+02  0.41800000000E+01 0.  1.
         -5    1    3    3    0  502 -0.15065898334E+03  0.90560573874E+02  0.80102246323E+03  0.82009377866E+03  0.41800000000E+01 0.  1.
        -11    1    1    2    0    0  0.70464865719E+02 -0.87941376739E+02  0.10600107280E+03  0.15471008525E+03  0.00000000000E+00 0.  1.
         11    1    1    2    0    0  0.88355810025E+02 -0.26663094237E+02  0.18514894847E+03  0.20687629849E+03  0.00000000000E+00 0. -1.
</event>
<event>
 7    1  0.2612321E-009  0.1407064E+03  0.7561462E-02  0.1212382E+00
         -2   -1    0    0    0  501 -0.00000000000E+00  0.00000000000E+00  0.71562735991E+02  0.71562735991E+02  0.00000000000E+00 0.  1.
          2   -1    0    0  501    0  0.00000000000E+00 -0.00000000000E+00 -0.29083020536E+03  0.29083020536E+03  0.00000000000E+00 0. -1.
         25    2    1    2    0    0  0.37882100880E+02  0.82994003737E+02 -0.13971120009E+03  0.20853988637E+03  0.12508639636E+03 0.  0.
          5    1    3    3  502    0  0.25507051176E+01  0.10892688918E+03 -0.84633335308E+02  0.13802842870E+03  0.41800000000E+01 0.  1.
         -5    1    3    3    0  502  0.35331395762E+02 -0.25932885446E+02 -0.55077864784E+02  0.70511457674E+02  0.41800000000E+01 0.  1.
        -11    1    1    2    0    0  0.29945158397E+02 -0.22367950436E+02 -0.39718596124E+02  0.54539935792E+02  0.00000000000E+00 0. -1.
         11    1    1    2    0    0 -0.67827259277E+02 -0.60626053301E+02 -0.39837673149E+02  0.99313119183E+02  0.00000000000E+00 0.  1.
</event>
<event>
 7    1  0.2612321E-009  0.7836467E+02  0.7561462E-02  0.1333757E+00
          1   -1    0    0  501    0  0.00000000000E+00  0.00000000000E+00  0.30299345075E+03  0.30299345075E+03  0.00000000000E+00 0. -1.
         -1   -1    0    0    0  501 -0.00000000000E+00 -0.00000000000E+00 -0.54335459883E+02  0.54335459883E+02  0.00000000000E+00 0.  1.
         25    2    1    2    0    0  0.57189932338E+02  0.36165225394E+02  0.15015119494E+03  0.20681191148E+03  0.12508866254E+03 0.  0.
          5    1    3    3  502    0  0.59011824933E+02  0.29756979609E+02  0.17161713744E+03  0.18395050307E+03  0.41800000000E+01 0. -1.
         -5    1    3    3    0  502 -0.18218925948E+01  0.64082457852E+01 -0.21465942501E+02  0.22861408402E+02  0.41800000000E+01 0. -1.
        -11    1    1    2    0    0  0.15795422547E+01 -0.22174405812E+02 -0.11488536856E+02  0.25023702882E+02  0.00000000000E+00 0.  1.
         11    1    1    2    0    0 -0.58769474592E+02 -0.13990819582E+02  0.10999533278E+03  0.12549329628E+03  0.00000000000E+00 0. -1.
</event>
<event>
 7    1  0.2612321E-009  0.9754331E+02  0.7561462E-02  0.1285549E+00
          3   -1    0    0  501    0  0.00000000000E+00  0.00000000000E+00  0.12438591400E+04  0.12438591400E+04  0.00000000000E+00 0. -1.
         -3   -1    0    0    0  501 -0.00000000000E+00 -0.00000000000E+00 -0.16590796033E+02  0.16590796033E+02  0.00000000000E+00 0.  1.
         25    2    1    2    0    0  0.32955937527E+01  0.25906723784E+02  0.10678750241E+04  0.10754935945E+04  0.12508950963E+03 0.  0.
          5    1    3    3  502    0  0.38288674582E+02  0.47918385739E+02  0.28685904418E+03  0.29337310360E+03  0.41800000000E+01 0. -1.
         -5    1    3    3    0  502 -0.34993080829E+02 -0.22011661954E+02  0.78101597992E+03  0.78212049089E+03  0.41800000000E+01 0. -1.
        -11    1    1    2    0    0  0.39313657215E+02 -0.29710762850E+02  0.10292797857E+03  0.11411600171E+03  0.00000000000E+00 0. -1.
         11    1    1    2    0    0 -0.42609250968E+02  0.38040390660E+01  0.56465341328E+02  0.70840339867E+02  0.00000000000E+00 0.  1.
</event>
<event>
 7    1  0.2612321E-009  0.8845220E+02  0.7561462E-02  0.1306644E+00
         -2   -1    0    0    0  501 -0.00000000000E+00  0.00000000000E+00  0.37158024303E+02  0.37158024303E+02  0.00000000000E+00 0.  1.
          2   -1    0    0  501    0  0.00000000000E+00 -0.00000000000E+00 -0.33291218713E+03  0.33291218713E+03  0.00000000000E+00 0. -1.
         25    2    1    2    0    0  0.22921879875E+02  0.10341670738E+02 -0.22550407050E+03  0.25910008663E+03  0.12509359036E+03 0.  0.
          5    1    3    3  502    0 -0.14279006911E+02 -0.33107490587E+02 -0.12311497891E+02  0.38328075241E+02  0.41800000000E+01 0. -1.
         -5    1    3    3    0  502  0.37200886786E+02  0.43449161325E+02 -0.21319257261E+03  0.22077201139E+03  0.41800000000E+01 0. -1.
        -11    1    1    2    0    0 -0.31676469016E+01 -0.44061758297E+02 -0.50787721649E+02  0.67311701816E+02  0.00000000000E+00 0. -1.
         11    1    1    2    0    0 -0.19754232973E+02  0.33720087559E+02 -0.19462370679E+02  0.43658422988E+02  0.00000000000E+00 0.  1.
</event>
<event>
 7    1  0.2612321E-009  0.1363164E+03  0.7561462E-02  0.1218373E+00
          2   -1    0    0  501    0  0.00000000000E+00  0.00000000000E+00  0.18068361362E+04  0.18068361362E+04  0.00000000000E+00 0. -1.
         -2   -1    0    0    0  501 -0.00000000000E+00 -0.00000000000E+00 -0.19707300394E+02  0.19707300394E+02  0.00000000000E+00 0.  1.
         25    2    1    2    0    0 -0.75543866699E+02 -0.62054434522E+02  0.15180026881E+04  0.15262824889E+04  0.12509374908E+03 0.  0.
          5    1    3    3  502    0 -0.65496187459E+02 -0.95487499478E+02  0.92336597945E+03  0.93060723054E+03  0.41800000000E+01 0. -1.
         -5    1    3    3    0  502 -0.10047679241E+02  0.33433064956E+02  0.59463670868E+03  0.59567525834E+03  0.41800000000E+01 0. -1.
        -11    1    1    2    0    0 -0.10848150735E+01  0.42511113557E+02  0.15960426878E+03  0.16517231672E+03  0.00000000000E+00 0. -1.
         11    1    1    2    0    0  0.76628681773E+02  0.19543320965E+02  0.10952187889E+03  0.13508863098E+03  0.00000000000E+00 0.  1.
</event>
<event>
 7    1  0.2612321E-009  0.1220833E+03  0.7561462E-02  0.1239699E+00
          1   -1    0    0  501    0  0.00000000000E+00  0.00000000000E+00  0.47762071410E+03  0.47762071410E+03  0.00000000000E+00 0. -1.
         -1   -1    0    0    0  501 -0.00000000000E+00 -0.00000000000E+00 -0.35040974343E+02  0.35040974343E+02  0.00000000000E+00 0.  1.
         25    2    1    2    0    0  0.45420997930E+02  0.22122773621E+02  0.27922783490E+03  0.31011049044E+03  0.12509135994E+03 0.  0.
          5    1    3    3  502    0  0.86959550662E+02  0.20738880669E+02  0.15420217744E+03  0.17829147077E+03  0.41800000000E+01 0. -1.
         -5    1    3    3    0  502 -0.41538552732E+02  0.13838929516E+01  0.12502565746E+03  0.13181901967E+03  0.41800000000E+01 0. -1.
        -11    1    1    2    0    0 -0.74830655591E+02 -0.32675584646E+02  0.83429668473E+02  0.11673829890E+03  0.00000000000E+00 0.  1.
         11    1    1    2    0    0  0.29409657661E+02  0.10552811025E+02  0.79922236382E+02  0.85812899104E+02  0.00000000000E+00 0. -1.
</event>
<event>
 7    1  0.2612321E-009  0.9183531E+02  0.7561462E-02  0.1298467E+00
          2   -1    0    0  501    0  0.00000000000E+00  0.00000000000E+00  0.37823952323E+03  0.37823952323E+03  0.00000000000E+00 0. -1.
         -2   -1    0    0    0  501 -0.00000000000E+00 -0.00000000000E+00 -0.31621574765E+02  0.31621574765E+02  0.00000000000E+00 0.  1.
         25    2    1    2    0    0 -0.17435840094E+01  0.10106711984E+02  0.22665475277E+03  0.25908536465E+03  0.12509062121E+03 0.  0.
          5    1    3    3  502    0  0.40452161801E+02 -0.15718972196E+02  0.19587856523E+03  0.20067224072E+03  0.41800000000E+01 0. -1.
         -5    1    3    3    0  502 -0.42195745811E+02  0.25825684180E+02  0.30776187540E+02  0.58413123931E+02  0.41800000000E+01 0. -1.
        -11    1    1    2    0    0 -0.41668514579E+02 -0.19500982214E+02  0.71642721040E+02  0.85142427101E+02  0.00000000000E+00 0. -1.
         11    1    1    2    0    0  0.43412098589E+02  0.93942702300E+01  0.48320474662E+02  0.65633306244E+02  0.00000000000E+00 0.  1.
</event>
<event>
 7    1  0.2612321E-009  0.1415388E+03  0.7561462E-02  0.1211273E+00
         -2   -1    0    0    0  501 -0.00000000000E+00  0.00000000000E+00  0.51166992826E+03  0.51166992826E+03  0.00000000000E+00 0.  1.
          2   -1    0    0  501    0  0.00000000000E+00 -0.00000000000E+00 -0.56941573742E+02  0.56941573742E+02  0.00000000000E+00 0. -1.
         25    2    1    2    0    0  0.88705026595E+02 -0.53142571931E+02  0.37541688867E+03  0.40899671027E+03  0.12509098299E+03 0.  0.
          5    1    3    3  502    0 -0.76725889108E+01 -0.59566926707E+02  0.95900234218E+02  0.11323168594E+03  0.41800000000E+01 0. -1.
         -5    1    3    3    0  502  0.96377615506E+02  0.64243547757E+01  0.27951665445E+03  0.29576502433E+03  0.41800000000E+01 0. -1.
        -11    1    1    2    0    0  0.12857096543E+02  0.69936820414E+01 -0.91335592540E+01  0.17252200575E+02  0.00000000000E+00 0. -1.
         11    1    1    2    0    0 -0.10156212314E+03  0.46148889890E+02  0.88445025110E+02  0.14236259116E+03  0.00000000000E+00 0.  1.
</event>
<event>
 7    1  0.2612321E-009  0.1145594E+03  0.7561462E-02  0.1252352E+00
          2   -1    0    0  501    0  0.00000000000E+00  0.00000000000E+00  0.87785124486E+03  0.87785124486E+03  0.00000000000E+00 0. -1.
         -2   -1    0    0    0  501 -0.00000000000E+00 -0.00000000000E+00 -0.22109617729E+02  0.22109617729E+02  0.00000000000E+00 0.  1.
         25    2    1    2    0    0 -0.21028522265E+02  0.85421766356E+02  0.46763829046E+03  0.49200783632E+03  0.12508822239E+03 0.  0.
          5    1    3    3  502    0  0.44928367413E+02  0.41975882185E+02  0.11357018526E+03  0.12921374642E+03  0.41800000000E+01 0.  1.
         -5    1    3    3    0  502 -0.65956889677E+02  0.43445884171E+02  0.35406810520E+03  0.36279408990E+03  0.41800000000E+01 0.  1.
        -11    1    1    2    0    0  0.15746219958E+02 -0.75854496151E+02  0.38932327626E+03  0.39695649821E+03  0.00000000000E+00 0. -1.
         11    1    1    2    0    0  0.52823023062E+01 -0.95672702045E+01 -0.12199395903E+01  0.10996528062E+02  0.00000000000E+00 0.  1.
</event>
<event>
 7    1  0.2612321E-009  0.1071086E+03  0.7561462E-02  0.1266020E+00
          2   -1    0    0  501    0  0.00000000000E+00  0.00000000000E+00  0.47934803660E+03  0.47934803660E+03  0.00000000000E+00 0. -1.
         -2   -1    0    0    0  501 -0.00000000000E+00 -0.00000000000E+00 -0.28056067953E+02  0.28056067953E+02  0.00000000000E+00 0.  1.
         25    2    1    2    0    0  0.38385318733E+01 -0.56417402753E+01  0.16836477927E+03  0.20985509253E+03  0.12508356168E+03 0.  0.
          5    1    3    3  502    0  0.41327899072E+02 -0.49305266091E+02  0.65463372642E+02  0.91879976402E+02  0.41800000000E+01 0. -1.
         -5    1    3    3    0  502 -0.37489367199E+02  0.43663525816E+02  0.10290140663E+03  0.11797511613E+03  0.41800000000E+01 0. -1.
        -11    1    1    2    0    0  0.37007083494E+02  0.27135353701E+02  0.14737367017E+03  0.15435300551E+03  0.00000000000E+00 0. -1.
         11    1    1    2    0    0 -0.40845615368E+02 -0.21493613425E+02  0.13555351921E+03  0.14319600652E+03  0.00000000000E+00 0.  1.
</event>
<event>
 7    1  0.2674550E-009  0.9806467E+02  0.7561462E-02  0.1284419E+00
         -2   -1    0    0    0  501 -0.00000000000E+00  0.00000000000E+00  0.30639690134E+02  0.30639690134E+02  0.00000000000E+00 0.  1.
          2   -1    0    0  501    0  0.00000000000E+00 -0.00000000000E+00 -0.42716182411E+03  0.42716182411E+03  0.00000000000E+00 0. -1.
         25    2    1    2    0    0 -0.60341401567E+01 -0.33607047035E+02 -0.25689468381E+03  0.28776406875E+03  0.12508971276E+03 0.  0.
          5    1    3    3  502    0 -0.39749792564E+02 -0.69168777313E+02 -0.17213055931E+03  0.18976503264E+03  0.41800000000E+01 0.  1.
         -5    1    3    3    0  502  0.33715652408E+02  0.35561730278E+02 -0.84764124499E+02  0.97999036116E+02  0.41800000000E+01 0.  1.
        -11    1    1    2    0    0 -0.25640059230E+02  0.98478809635E+01 -0.28143894002E+01  0.27610037749E+02  0.00000000000E+00 0.  1.
         11    1    1    2    0    0  0.31674199387E+02  0.23759166071E+02 -0.13681306077E+03  0.14242740774E+03  0.00000000000E+00 0. -1.
</event>
<event>
 7    1  0.2612321E-009  0.1020514E+03  0.7561462E-02  0.1276040E+00
         -1   -1    0    0    0  501 -0.00000000000E+00  0.00000000000E+00  0.90098651551E+02  0.90098651551E+02  0.00000000000E+00 0.  1.
          1   -1    0    0  501    0  0.00000000000E+00 -0.00000000000E+00 -0.14216925221E+03  0.14216925221E+03  0.00000000000E+00 0. -1.
         25    2    1    2    0    0  0.34677789101E+02  0.20446467918E+02 -0.19113316546E+02  0.13279095209E+03  0.12509001151E+03 0.  0.
          5    1    3    3  502    0 -0.40970192080E+02  0.27934642335E+02  0.10922453140E+02  0.50947750334E+02  0.41800000000E+01 0. -1.
         -5    1    3    3    0  502  0.75647981181E+02 -0.74881744177E+01 -0.30035769686E+02  0.81843201754E+02  0.41800000000E+01 0. -1.
        -11    1    1    2    0    0  0.15862783257E+02 -0.22610697286E+02 -0.39783705120E+02  0.48431546718E+02  0.00000000000E+00 0. -1.
         11    1    1    2    0    0 -0.50540572358E+02  0.21642293687E+01  0.68264210078E+01  0.51045404953E+02  0.00000000000E+00 0.  1.
</event>
<event>
 7    1  0.2612321E-009  0.8564751E+02  0.7561462E-02  0.1313748E+00
         -3   -1    0    0    0  501 -0.00000000000E+00  0.00000000000E+00  0.48181539217E+02  0.48181539217E+02  0.00000000000E+00 0.  1.
          3   -1    0    0  501    0  0.00000000000E+00 -0.00000000000E+00 -0.38707530101E+03  0.38707530101E+03  0.00000000000E+00 0. -1.
         25    2    1    2    0    0  0.28825307717E+02 -0.50669939619E+02 -0.27609119908E+03  0.30866219715E+03  0.12509060955E+03 0.  0.
          5    1    3    3  502    0  0.32737943707E+02 -0.57359471364E+02 -0.28706412533E+03  0.29459322186E+03  0.41800000000E+01 0. -1.
         -5    1    3    3    0  502 -0.39126359904E+01  0.66895317447E+01  0.10972926251E+02  0.14068975296E+02  0.41800000000E+01 0. -1.
        -11    1    1    2    0    0 -0.50719430124E+02  0.12384454007E+02 -0.30102429816E+01  0.52296241317E+02  0.00000000000E+00 0. -1.
         11    1    1    2    0    0  0.21894122407E+02  0.38285485612E+02 -0.59792319733E+02  0.74298401757E+02  0.00000000000E+00 0.  1.
</event>
<event>
 7    1  0.3065437E-009  0.1069485E+03  0.7561462E-02  0.1266327E+00
          1   -1    0    0  501    0  0.00000000000E+00  0.00000000000E+00  0.45326315942E+03  0.45326315942E+03  0.00000000000E+00 0. -1.
         -1   -1    0    0    0  501 -0.00000000000E+00 -0.00000000000E+00 -0.31335645884E+02  0.31335645884E+02  0.00000000000E+00 0.  1.
         25    2    1    2    0    0  0.24316778954E+02  0.27584329061E+02  0.17182325100E+03  0.21569302856E+03  0.12509217416E+03 0.  0.
          5    1    3    3  502    0  0.65705586570E+02 -0.13243665621E+02  0.62196931859E+02  0.91534417124E+02  0.41800000000E+01 0.  1.
         -5    1    3    3    0  502 -0.41388807616E+02  0.40827994682E+02  0.10962631914E+03  0.12415861143E+03  0.41800000000E+01 0.  1.
        -11    1    1    2    0    0  0.22644486283E+02 -0.34210465609E+02  0.58060489641E+02  0.71092539507E+02  0.00000000000E+00 0.  1.
         11    1    1    2    0    0 -0.46961265236E+02  0.66261365478E+01  0.19204377290E+03  0.19781323724E+03  0.00000000000E+00 0. -1.
</event>
<event>
 7    1  0.2612321E-009  0.1067177E+03  0.7561462E-02  0.1266772E+00
          2   -1    0    0  501    0  0.00000000000E+00  0.00000000000E+00  0.90001158672E+03  0.90001158672E+03  0.00000000000E+00 0. -1.
         -2   -1    0    0    0  501 -0.00000000000E+00 -0.00000000000E+00 -0.21945168055E+02  0.21945168055E+02  0.00000000000E+00 0.  1.
         25    2    1    2    0    0  0.41675921254E+02  0.73156141068E+02  0.56154665939E+03  0.58143909037E+03  0.12509221302E+03 0.  0.
          5    1    3    3  502    0  0.35768652616E+02  0.26619798124E+02  0.47658413549E+02  0.65397300741E+02  0.41800000000E+01 0.  1.
         -5    1    3    3    0  502  0.59072686381E+01  0.46536342944E+02  0.51388824584E+03  0.51604178963E+03  0.41800000000E+01 0.  1.
        -11    1    1    2    0    0 -0.54241918207E+02 -0.87211457240E+02  0.29234260982E+03  0.30985839585E+03  0.00000000000E+00 0.  1.
         11    1    1    2    0    0  0.12565996952E+02  0.14055316172E+02  0.24177149465E+02  0.30659268555E+02  0.00000000000E+00 0. -1.
</event>
<event>
 7    1  0.2612321E-009  0.8355380E+02  0.7561462E-02  0.1319258E+00
          1   -1    0    0  501    0  0.00000000000E+00  0.00000000000E+00  0.55489058342E+03  0.55489058342E+03  0.00000000000E+00 0. -1.
         -1   -1    0    0    0  501 -0.00000000000E+00 -0.00000000000E+00 -0.22830914088E+02  0.22830914088E+02  0.00000000000E+00 0.  1.
         25    2    1    2    0    0 -0.20665283346E+02 -0.10285615648E+02  0.39636039230E+03  0.41627189176E+03  0.12509148435E+03 0.  0.
          5    1    3    3  502    0  0.49033132243E+01 -0.62767599395E+02  0.14406907029E+03  0.15728058821E+03  0.41800000000E+01 0. -1.
         -5    1    3    3    0  502 -0.25568596570E+02  0.52481983747E+02  0.25229132201E+03  0.25899130355E+03  0.41800000000E+01 0. -1.
        -11    1    1    2    0    0  0.51995584687E+01  0.24154777531E+02  0.13832169596E+03  0.14051113927E+03  0.00000000000E+00 0.  1.
         11    1    1    2    0    0  0.15465724877E+02 -0.13869161883E+02 -0.26224189348E+01  0.20938466476E+02  0.00000000000E+00 0. -1.
</event>
<event>
 7    1  0.2612321E-009  0.9677384E+02  0.7561462E-02  0.1287230E+00
         -2   -1    0    0    0  501 -0.00000000000E+00  0.00000000000E+00  0.10877105066E+03  0.10877105066E+03  0.00000000000E+00 0. -1.
          2   -1    0    0  501    0  0.00000000000E+00 -0.00000000000E+00 -0.15423154800E+03  0.15423154800E+03  0.00000000000E+00 0.  1.
         25    2    1    2    0    0 -0.33507713974E+02 -0.60372324641E+02 -0.45679970927E+02  0.14999852902E+03  0.12508123155E+03 0.  0.
          5    1    3    3  502    0 -0.55001602640E+02 -0.71819271325E+02 -0.70660176308E+02  0.11486303558E+03  0.41800000000E+01 0.  1.
         -5    1    3    3    0  502  0.21493888665E+02  0.11446946685E+02  0.24980205381E+02  0.35135493440E+02  0.41800000000E+01 0.  1.
        -11    1    1    2    0    0  0.21728123194E+02  0.58501442106E+01 -0.38854323832E+02  0.44899821885E+02  0.00000000000E+00 0.  1.
         11    1    1    2    0    0  0.11779590780E+02  0.54522180430E+02  0.39073797418E+02  0.68104247756E+02  0.00000000000E+00 0. -1.
</event>
<event>
 7    1  0.2612321E-009  0.1084360E+03  0.7561462E-02  0.1263494E+00
          1   -1    0    0  501    0  0.00000000000E+00  0.00000000000E+00  0.21917410745E+03  0.21917410745E+03  0.00000000000E+00 0. -1.
         -1   -1    0    0    0  501 -0.00000000000E+00 -0.00000000000E+00 -0.97468457095E+02  0.97468457095E+02  0.00000000000E+00 0.  1.
         25    2    1    2    0    0 -0.39455907084E+02 -0.73699970225E+01  0.16006069203E+03  0.20706851087E+03  0.12508739985E+03 0.  0.
          5    1    3    3  502    0 -0.15072183115E+01 -0.54704890052E+02  0.12584094008E+03  0.13728915216E+03  0.41800000000E+01 0.  1.
         -5    1    3    3    0  502 -0.37948688772E+02  0.47334893030E+02  0.34219751951E+02  0.69779358705E+02  0.41800000000E+01 0.  1.
        -11    1    1    2    0    0 -0.28396011069E+02  0.16293088050E+02 -0.21258000496E+02  0.39034609617E+02  0.00000000000E+00 0.  1.
         11    1    1    2    0    0  0.67851918153E+02 -0.89230910275E+01 -0.17097041179E+02  0.70539444055E+02  0.00000000000E+00 0. -1.
</event>
<event>
 7    1  0.2612321E-009  0.8542300E+02  0.7561462E-02  0.1314330E+00
          2   -1    0    0  501    0  0.00000000000E+00  0.00000000000E+00  0.40713833725E+03  0.40713833725E+03  0.00000000000E+00 0. -1.
         -2   -1    0    0    0  501 -0.00000000000E+00 -0.00000000000E+00 -0.33349920709E+02  0.33349920709E+02  0.00000000000E+00 0.  1.
         25    2    1    2    0    0  0.15228624013E+02 -0.13027992467E+02  0.21866080902E+03  0.25271127128E+03  0.12509515440E+03 0.  0.
          5    1    3    3  502    0 -0.25792176346E+02  0.61584376284E+01  0.20276572410E+03  0.20453501897E+03  0.41800000000E+01 0.  1.
         -5    1    3    3    0  502  0.41020800359E+02 -0.19186430096E+02  0.15895084911E+02  0.48176252306E+02  0.41800000000E+01 0.  1.
        -11    1    1    2    0    0 -0.41797013028E+02 -0.27521747680E+02  0.11286764007E+03  0.12346473613E+03  0.00000000000E+00 0.  1.
         11    1    1    2    0    0  0.26568389015E+02  0.40549740147E+02  0.42259967452E+02  0.64312250543E+02  0.00000000000E+00 0. -1.
</event>
<event>
 7    1  0.2612321E-009  0.1072544E+03  0.7561462E-02  0.1265740E+00
          1   -1    0    0  501    0  0.00000000000E+00  0.00000000000E+00  0.47183454842E+02  0.47183454842E+02  0.00000000000E+00 0. -1.
         -1   -1    0    0    0  501 -0.00000000000E+00 -0.00000000000E+00 -0.28086838613E+03  0.28086838613E+03  0.00000000000E+00 0.  1.
         25    2    1    2    0    0  0.11093199802E+02  0.37850398836E+01 -0.81325914407E+02  0.14966262606E+03  0.12509041401E+03 0.  0.
          5    1    3    3  502    0 -0.48150016354E+02  0.33910918059E+02 -0.37701572160E+02  0.70051804986E+02  0.41800000000E+01 0.  1.
         -5    1    3    3    0  502  0.59243216156E+02 -0.30125878175E+02 -0.43624342247E+02  0.79610821079E+02  0.41800000000E+01 0.  1.
        -11    1    1    2    0    0  0.15654714974E+02  0.36956957213E+02 -0.43894464874E+02  0.59477817999E+02  0.00000000000E+00 0. -1.
         11    1    1    2    0    0 -0.26747914776E+02 -0.40741997097E+02 -0.10846455201E+03  0.11891139691E+03  0.00000000000E+00 0.  1.
</event>
<event>
 7    1  0.2612321E-009  0.1318959E+03  0.7561462E-02  0.1224669E+00
          2   -1    0    0  501    0  0.00000000000E+00  0.00000000000E+00  0.23054578491E+03  0.23054578491E+03  0.00000000000E+00 0. -1.
         -2   -1    0    0    0  501 -0.00000000000E+00 -0.00000000000E+00 -0.11157448488E+03  0.11157448488E+03  0.00000000000E+00 0.  1.
         25    2    1    2    0    0  0.96381813511E+02 -0.52564789238E+02  0.16410731020E+02  0.16723874933E+03  0.12508787368E+03 0.  0.
          5    1    3    3  502    0  0.66190590751E+02  0.17639112391E+02 -0.32989821294E+02  0.76145474579E+02  0.41800000000E+01 0. -1.
         -5    1    3    3    0  502  0.30191222761E+02 -0.70203901629E+02  0.49400552315E+02  0.91093274750E+02  0.41800000000E+01 0. -1.
        -11    1    1    2    0    0 -0.21158313143E+02  0.35760979408E+02 -0.57474630144E+01  0.41947052273E+02  0.00000000000E+00 0. -1.
         11    1    1    2    0    0 -0.75223500368E+02  0.16803809830E+02  0.10830803203E+03  0.13293446819E+03  0.00000000000E+00 0.  1.
</event>
<event>
 7    1  0.2612321E-009  0.1844350E+03  0.7561462E-02  0.1163579E+00
         -2   -1    0    0    0  501 -0.00000000000E+00  0.00000000000E+00  0.44560785677E+03  0.44560785677E+03  0.00000000000E+00 0.  1.
          2   -1    0    0  501    0  0.00000000000E+00 -0.00000000000E+00 -0.98451721733E+02  0.98451721733E+02  0.00000000000E+00 0. -1.
         25    2    1    2    0    0 -0.10514424305E+03 -0.12510056272E+03  0.87260514476E+02  0.22353393737E+03  0.12509021196E+03 0.  0.
          5    1    3    3  502    0 -0.11039041211E+03 -0.60453929797E+02  0.95464832814E+02  0.15802445196E+03  0.41800000000E+01 0.  1.
         -5    1    3    3    0  502  0.52461690620E+01 -0.64646632926E+02 -0.82043183378E+01  0.65509485404E+02  0.41800000000E+01 0.  1.
        -11    1    1    2    0    0 -0.56625695813E+01  0.34085843718E+02  0.99745615073E+02  0.10556086947E+03  0.00000000000E+00 0. -1.
         11    1    1    2    0    0  0.11080681263E+03  0.91014719005E+02  0.16015000548E+03  0.21496477166E+03  0.00000000000E+00 0.  1.
</event>
<event>
 7    1  0.2612321E-009  0.1065506E+03  0.7561462E-02  0.1267094E+00
          2   -1    0    0  501    0  0.00000000000E+00  0.00000000000E+00  0.56462838261E+03  0.56462838261E+03  0.00000000000E+00 0.  1.
         -2   -1    0    0    0  501 -0.00000000000E+00 -0.00000000000E+00 -0.24103758280E+02  0.24103758280E+02  0.00000000000E+00 0. -1.
         25    2    1    2    0    0  0.40577636684E+02 -0.16073846499E+02  0.32154117659E+03  0.34776659839E+03  0.12509182856E+03 0.  0.
          5    1    3    3  502    0 -0.37024763296E+02 -0.36183894186E+02  0.11552951981E+03  0.12666747666E+03  0.41800000000E+01 0.  1.
         -5    1    3    3    0  502  0.77602399980E+02  0.20110047687E+02  0.20601165678E+03  0.22109912173E+03  0.41800000000E+01 0.  1.
        -11    1    1    2    0    0  0.13465729412E+02  0.22747669601E+02  0.16212515253E+02  0.31010127245E+02  0.00000000000E+00 0. -1.
         11    1    1    2    0    0 -0.54043366097E+02 -0.66738231019E+01  0.20277093249E+03  0.20995541526E+03  0.00000000000E+00 0.  1.
</event>
<event>
 7    1  0.2612321E-009  0.1303912E+03  0.7561462E-02  0.1226876E+00
         -1   -1    0    0    0  501 -0.00000000000E+00  0.00000000000E+00  0.18033067632E+02  0.18033067632E+02  0.00000000000E+00 0.  1.
          1   -1    0    0  501    0  0.00000000000E+00 -0.00000000000E+00 -0.97924291204E+03  0.97924291204E+03  0.00000000000E+00 0. -1.
         25    2    1    2    0    0  0.38625933947E+02  0.61481987895E+02 -0.61963234786E+03  0.63628908890E+03  0.12509020956E+03 0.  0.
          5    1    3    3  502    0  0.68735357614E+02 -0.69675664447E+01 -0.27059858782E+03  0.27931015824E+03  0.41800000000E+01 0. -1.
         -5    1    3    3    0  502 -0.30109423668E+02  0.68449554339E+02 -0.34903376004E+03  0.35697893065E+03  0.41800000000E+01 0. -1.
        -11    1    1    2    0    0 -0.67983499152E+02 -0.32255980101E+02 -0.21298615844E+03  0.22588782193E+03  0.00000000000E+00 0.  1.
         11    1    1    2    0    0  0.29357565205E+02 -0.29226007794E+02 -0.12859133811E+03  0.13509906884E+03  0.00000000000E+00 0. -1.
</event>
<event>
 7    1  0.2612321E-009  0.1045104E+03  0.7561462E-02  0.1271087E+00
         -1   -1    0    0    0  501 -0.00000000000E+00  0.00000000000E+00  0.17418988690E+02  0.17418988690E+02  0.00000000000E+00 0.  1.
          1   -1    0    0  501    0  0.00000000000E+00 -0.00000000000E+00 -0.11097265058E+04  0.11097265058E+04  0.00000000000E+00 0. -1.
         25    2    1    2    0    0  0.75186436626E+02 -0.41385503329E+02 -0.65197408099E+03  0.66939056663E+03  0.12509103997E+03 0.  0.
          5    1    3    3  502    0  0.50921606106E+02 -0.26883065987E+02 -0.63174902120E+03  0.63438159447E+03  0.41800000000E+01 0. -1.
         -5    1    3    3    0  502  0.24264830520E+02 -0.14502437342E+02 -0.20225059785E+02  0.35008972169E+02  0.41800000000E+01 0. -1.
        -11    1    1    2    0    0 -0.37092790079E+02 -0.26004278996E+02 -0.12183691962E+03  0.12998589379E+03  0.00000000000E+00 0. -1.
         11    1    1    2    0    0 -0.38093646547E+02  0.67389782325E+02 -0.31849651652E+03  0.32776903408E+03  0.00000000000E+00 0.  1.
</event>
<event>
 7    1  0.2612321E-009  0.1205205E+03  0.7561462E-02  0.1242241E+00
          2   -1    0    0  501    0  0.00000000000E+00  0.00000000000E+00  0.32034681831E+04  0.32034681831E+04  0.00000000000E+00 0. -1.
         -2   -1    0    0    0  501 -0.00000000000E+00 -0.00000000000E+00 -0.33302563151E+02  0.33302563151E+02  0.00000000000E+00 0.  1.
         25    2    1    2    0    0 -0.10162941497E+03  0.40224712488E+02  0.30397246962E+04  0.30442602209E+04  0.12508996076E+03 0.  0.
          5    1    3    3  502    0 -0.29599185273E+02 -0.42924548193E+01  0.22117900819E+04  0.22119962422E+04  0.41800000000E+01 0.  1.
         -5    1    3    3    0  502 -0.72030229695E+02  0.44517167308E+02  0.82793461434E+03  0.83226397868E+03  0.41800000000E+01 0.  1.
        -11    1    1    2    0    0 -0.82745252162E+01 -0.80516059371E+01 -0.70870483086E+01  0.13547043199E+02  0.00000000000E+00 0.  1.
         11    1    1    2    0    0  0.10990394018E+03 -0.32173106551E+02  0.13752797208E+03  0.17896348219E+03  0.00000000000E+00 0. -1.
</event>
<event>
 7    1  0.2612321E-009  0.1633636E+03  0.7561462E-02  0.1184951E+00
         -2   -1    0    0    0  501 -0.00000000000E+00  0.00000000000E+00  0.29306675030E+02  0.29306675030E+02  0.00000000000E+00 0.  1.
          2   -1    0    0  501    0  0.00000000000E+00 -0.00000000000E+00 -0.10224298736E+04  0.10224298736E+04  0.00000000000E+00 0. -1.
         25    2    1    2    0    0 -0.10992326976E+03  0.76244379586E+02 -0.53320249330E+03  0.56377894364E+03  0.12508184432E+03 0.  0.
          5    1    3    3  502    0 -0.12928562549E+03  0.88739296686E+02 -0.49180181801E+03  0.51621307261E+03  0.41800000000E+01 0. -1.
         -5    1    3    3    0  502  0.19362355727E+02 -0.12494917100E+02 -0.41400675287E+02  0.47565871030E+02  0.41800000000E+01 0. -1.
        -11    1    1    2    0    0  0.81981269377E+02 -0.21148622170E+02 -0.36510155046E+03  0.37478972091E+03  0.00000000000E+00 0. -1.
         11    1    1    2    0    0  0.27942000382E+02 -0.55095757416E+02 -0.94819154854E+02  0.11316788413E+03  0.00000000000E+00 0.  1.
</event>
<event>
 7    1  0.2612321E-009  0.7292883E+02  0.7561462E-02  0.1350407E+00
          3   -1    0    0  501    0  0.00000000000E+00  0.00000000000E+00  0.61652888572E+02  0.61652888572E+02  0.00000000000E+00 0. -1.
         -3   -1    0    0    0  501 -0.00000000000E+00 -0.00000000000E+00 -0.20112014887E+03  0.20112014887E+03  0.00000000000E+00 0.  1.
         25    2    1    2    0    0  0.21632599801E+01  0.17958090860E+02 -0.58127343415E+02  0.13911558299E+03  0.12508870715E+03 0.  0.
          5    1    3    3  502    0  0.50483899835E+02  0.11698674806E+02 -0.71512273675E+02  0.88413578261E+02  0.41800000000E+01 0. -1.
         -5    1    3    3    0  502 -0.48320639855E+02  0.62594160545E+01  0.13384930261E+02  0.50702004728E+02  0.41800000000E+01 0. -1.
        -11    1    1    2    0    0 -0.54767630089E+01  0.12855298842E+02  0.16152492991E+02  0.21357824589E+02  0.00000000000E+00 0. -1.
         11    1    1    2    0    0  0.33135030289E+01 -0.30813389702E+02 -0.97492409873E+02  0.10229962986E+03  0.00000000000E+00 0.  1.
</event>
<event>
 7    1  0.2612321E-009  0.1149087E+03  0.7561462E-02  0.1251741E+00
         -2   -1    0    0    0  501 -0.00000000000E+00  0.00000000000E+00  0.24712355874E+02  0.24712355874E+02  0.00000000000E+00 0. -1.
          2   -1    0    0  501    0  0.00000000000E+00 -0.00000000000E+00 -0.74796300789E+03  0.74796300789E+03  0.00000000000E+00 0.  1.
         25    2    1    2    0    0  0.70937654769E+02  0.39836483054E+02 -0.45629531106E+03  0.48007440011E+03  0.12508765927E+03 0.  0.
          5    1    3    3  502    0  0.34796411486E+02  0.80544254473E+02 -0.34641246534E+03  0.35737548282E+03  0.41800000000E+01 0.  1.
         -5    1    3    3    0  502  0.36141243282E+02 -0.40707771419E+02 -0.10988284572E+03  0.12269891729E+03  0.41800000000E+01 0.  1.
        -11    1    1    2    0    0 -0.42292312010E+02 -0.54728141143E+01 -0.31717513025E+02  0.53146890614E+02  0.00000000000E+00 0. -1.
         11    1    1    2    0    0 -0.28645342759E+02 -0.34363668939E+02 -0.23523782793E+03  0.23945407304E+03  0.00000000000E+00 0.  1.
</event>
<event>
 7    1  0.2612321E-009  0.1011060E+03  0.7561462E-02  0.1277987E+00
         -1   -1    0    0    0  501 -0.00000000000E+00  0.00000000000E+00  0.73854598816E+02  0.73854598816E+02  0.00000000000E+00 0.  1.
          1   -1    0    0  501    0  0.00000000000E+00 -0.00000000000E+00 -0.27502893706E+03  0.27502893706E+03  0.00000000000E+00 0. -1.
         25    2    1    2    0    0 -0.63686151790E+01  0.48390159018E+02 -0.20932513300E+03  0.24869619059E+03  0.12510242668E+03 0.  0.
          5    1    3    3  502    0 -0.60501522164E+02  0.16812911558E+01 -0.74963802119E+02  0.96438088701E+02  0.41800000000E+01 0.  1.
         -5    1    3    3    0  502  0.54132906985E+02  0.46708867862E+02 -0.13436133088E+03  0.15225810189E+03  0.41800000000E+01 0.  1.
        -11    1    1    2    0    0 -0.11512577173E+02 -0.50610570336E+02  0.38684328132E+02  0.64733658215E+02  0.00000000000E+00 0.  1.
         11    1    1    2    0    0  0.17881192352E+02  0.22204113187E+01 -0.30533533375E+02  0.35453687068E+02  0.00000000000E+00 0. -1.
</event>
<event>
 7    1  0.2612321E-009  0.3723433E+03  0.7561462E-02  0.1053801E+00
          2   -1    0    0  501    0  0.00000000000E+00  0.00000000000E+00  0.24245778394E+03  0.24245778394E+03  0.00000000000E+00 0. -1.
         -2   -1    0    0    0  501 -0.00000000000E+00 -0.00000000000E+00 -0.63140639734E+03  0.63140639734E+03  0.00000000000E+00 0.  1.
         25    2    1    2    0    0  0.10870454856E+03 -0.34495588000E+03 -0.82826454187E+02  0.39156066946E+03  0.12509315860E+03 0.  0.
          5    1    3    3  502    0 -0.90498045535E+01  0.45049521470E+01  0.56403601861E+01  0.12307705689E+02  0.41800000000E+01 0. -1.
         -5    1    3    3    0  502  0.11775435311E+03 -0.34946083215E+03 -0.88466814373E+02  0.37925296377E+03  0.41800000000E+01 0. -1.
        -11    1    1    2    0    0 -0.88708568800E+02  0.20214428011E+03 -0.13598363448E+03  0.25927411943E+03  0.00000000000E+00 0. -1.
         11    1    1    2    0    0 -0.19995979756E+02  0.14281159989E+03 -0.17013852473E+03  0.22302939238E+03  0.00000000000E+00 0.  1.
</event>
<event>
 7    1  0.3602160E-009  0.5125739E+02  0.7561462E-02  0.1438675E+00
         -1   -1    0    0    0  501 -0.00000000000E+00  0.00000000000E+00  0.27468919817E+02  0.27468919817E+02  0.00000000000E+00 0.  1.
          1   -1    0    0  501    0  0.00000000000E+00 -0.00000000000E+00 -0.53706820532E+03  0.53706820532E+03  0.00000000000E+00 0. -1.
         25    2    1    2    0    0  0.17835844391E+02  0.16966509703E+02 -0.39995707180E+03  0.41978571057E+03  0.12509357986E+03 0.  0.
          5    1    3    3  502    0  0.17910233204E+02  0.37874292295E+02 -0.39583666637E+03  0.39806956341E+03  0.41800000000E+01 0. -1.
         -5    1    3    3    0  502 -0.74388813081E-01 -0.20907782592E+02 -0.41204054259E+01  0.21716147160E+02  0.41800000000E+01 0. -1.
        -11    1    1    2    0    0 -0.24822766942E+02 -0.51339301380E+01 -0.12300161720E+03  0.12558632422E+03  0.00000000000E+00 0. -1.
         11    1    1    2    0    0  0.69869225510E+01 -0.11832579565E+02  0.13359403499E+02  0.19165090340E+02  0.00000000000E+00 0.  1.
</event>
<event>
 7    1  0.2612321E-009  0.9664868E+02  0.7561462E-02  0.1287505E+00
          2   -1    0    0  501    0  0.00000000000E+00  0.00000000000E+00  0.22177366315E+03  0.22177366315E+03  0.00000000000E+00 0. -1.
         -2   -1    0    0    0  501 -0.00000000000E+00 -0.00000000000E+00 -0.69464479421E+02  0.69464479421E+02  0.00000000000E+00 0.  1.
         25    2    1    2    0    0  0.98586321035E+00 -0.25094501818E+02  0.15264880617E+03  0.19894960537E+03  0.12509429044E+03 0.  0.
          5    1    3    3  502    0 -0.17889980554E+02  0.34188310987E+02  0.12473030460E+03  0.13062929725E+03  0.41800000000E+01 0.  1.
         -5    1    3    3    0  502  0.18875843764E+02 -0.59282812804E+02  0.27918501569E+02  0.68320308121E+02  0.41800000000E+01 0.  1.
        -11    1    1    2    0    0 -0.11453951270E+02 -0.32049601517E+02  0.24806605116E+01  0.34125117343E+02  0.00000000000E+00 0.  1.
         11    1    1    2    0    0  0.10468088060E+02  0.57144103335E+02 -0.28202829597E+01  0.58163419858E+02  0.00000000000E+00 0. -1.
</event>
<event>
 7    1  0.2612321E-009  0.1138935E+03  0.7561462E-02  0.1253525E+00
         -1   -1    0    0    0  501 -0.00000000000E+00  0.00000000000E+00  0.72932779697E+03  0.72932779697E+03  0.00000000000E+00 0.  1.
          1   -1    0    0  501    0  0.00000000000E+00 -0.00000000000E+00 -0.31602531353E+02  0.31602531353E+02  0.00000000000E+00 0. -1.
         25    2    1    2    0    0  0.68520382455E+02 -0.68922491430E+02  0.47922028744E+03  0.50472258028E+03  0.12508975383E+03 0.  0.
          5    1    3    3  502    0  0.57452672440E+02 -0.43971175023E+02  0.94872043107E+02  0.11938362855E+03  0.41800000000E+01 0. -1.
         -5    1    3    3    0  502  0.11067710015E+02 -0.24951316408E+02  0.38434824434E+03  0.38533895173E+03  0.41800000000E+01 0. -1.
        -11    1    1    2    0    0 -0.10081198285E+02 -0.19362528199E+02  0.14033502570E+02  0.25951440259E+02  0.00000000000E+00 0.  1.
         11    1    1    2    0    0 -0.58439184170E+02  0.88285019630E+02  0.20447147560E+03  0.23025630778E+03  0.00000000000E+00 0. -1.
</event>
<event>
 7    1  0.2612321E-009  0.6959414E+02  0.7561462E-02  0.1361479E+00
         -1   -1    0    0    0  501 -0.00000000000E+00  0.00000000000E+00  0.16008179619E+03  0.16008179619E+03  0.00000000000E+00 0.  1.
          1   -1    0    0  501    0  0.00000000000E+00 -0.00000000000E+00 -0.84759876181E+02  0.84759876181E+02  0.00000000000E+00 0. -1.
         25    2    1    2    0    0  0.38886046183E+02  0.60253770399E+01  0.54298901259E+02  0.14193078968E+03  0.12509016199E+03 0.  0.
          5    1    3    3  502    0  0.95192311412E+01  0.16435452753E+00 -0.40819113478E+02  0.42122620990E+02  0.41800000000E+01 0. -1.
         -5    1    3    3    0  502  0.29366815042E+02  0.58610225123E+01  0.95118014737E+02  0.99808168694E+02  0.41800000000E+01 0. -1.
        -11    1    1    2    0    0 -0.68278408229E+02 -0.95815635343E+01  0.24343025635E+02  0.73118604248E+02  0.00000000000E+00 0.  1.
         11    1    1    2    0    0  0.29392362046E+02  0.35561864944E+01 -0.33200068827E+01  0.29792278442E+02  0.00000000000E+00 0. -1.
</event>
<event>
 7    1  0.3021316E-009  0.1619323E+03  0.7561462E-02  0.1186532E+00
         -1   -1    0    0    0  501 -0.00000000000E+00  0.00000000000E+00  0.89431144857E+02  0.89431144857E+02  0.00000000000E+00 0.  1.
          1   -1    0    0  501    0  0.00000000000E+00 -0.00000000000E+00 -0.40096974385E+03  0.40096974385E+03  0.00000000000E+00 0. -1.
         25    2    1    2    0    0 -0.14906321832E+03 -0.11357867170E+02 -0.10974559992E+03  0.22369662834E+03  0.12508893088E+03 0.  0.
          5    1    3    3  502    0 -0.61376005958E+02 -0.17719783692E+02  0.19860333114E+02  0.67029173296E+02  0.41800000000E+01 0.  1.
         -5    1    3    3    0  502 -0.87687212367E+02  0.63619165211E+01 -0.12960593303E+03  0.15666745505E+03  0.41800000000E+01 0.  1.
        -11    1    1    2    0    0  0.73072998221E+02  0.48037547650E+02 -0.12540174336E+03  0.15288187038E+03  0.00000000000E+00 0. -1.
         11    1    1    2    0    0  0.75990220104E+02 -0.36679680479E+02 -0.76391255718E+02  0.11382238998E+03  0.00000000000E+00 0.  1.
</event>
<event>
 7    1  0.2612321E-009  0.9585242E+02  0.7561462E-02  0.1289268E+00
         -2   -1    0    0    0  501 -0.00000000000E+00  0.00000000000E+00  0.21193751870E+02  0.21193751870E+02  0.00000000000E+00 0. -1.
          2   -1    0    0  501    0  0.00000000000E+00 -0.00000000000E+00 -0.67162542460E+03  0.67162542460E+03  0.00000000000E+00 0.  1.
         25    2    1    2    0    0  0.23320211663E+02 -0.26373834808E+02 -0.45858119644E+03  0.47663718670E+03  0.12508749970E+03 0.  0.
          5    1    3    3  502    0  0.60590008491E+02 -0.13670717622E+02 -0.11488672658E+03  0.13066931543E+03  0.41800000000E+01 0. -1.
         -5    1    3    3    0  502 -0.37269796828E+02 -0.12703117186E+02 -0.34369446986E+03  0.34596787128E+03  0.41800000000E+01 0. -1.
        -11    1    1    2    0    0 -0.52990937748E+02  0.48765466213E+01 -0.64253758048E+02  0.83428805659E+02  0.00000000000E+00 0.  1.
         11    1    1    2    0    0  0.29670726085E+02  0.21497288186E+02 -0.12759671823E+03  0.13275318410E+03  0.00000000000E+00 0. -1.
</event>
<event>
 7    1  0.2612321E-009  0.1256310E+03  0.7561462E-02  0.1234086E+00
          2   -1    0    0  501    0  0.00000000000E+00  0.00000000000E+00  0.19252196912E+02  0.19252196912E+02  0.00000000000E+00 0. -1.
         -2   -1    0    0    0  501 -0.00000000000E+00 -0.00000000000E+00 -0.10837816803E+04  0.10837816803E+04  0.00000000000E+00 0.  1.
         25    2    1    2    0    0 -0.82939638311E+02 -0.23253810924E+02 -0.73727966731E+03  0.75276073378E+03  0.12509073175E+03 0.  0.
          5    1    3    3  502    0  0.83012147009E+01  0.36471646371E+02 -0.28637979215E+03  0.28884242920E+03  0.41800000000E+01 0.  1.
         -5    1    3    3    0  502 -0.91240853012E+02 -0.59725457294E+02 -0.45089987516E+03  0.46391830458E+03  0.41800000000E+01 0.  1.
        -11    1    1    2    0    0  0.28603524157E+02  0.38590208896E+02 -0.25010106619E+03  0.25467216010E+03  0.00000000000E+00 0.  1.
         11    1    1    2    0    0  0.54336114154E+02 -0.15336397972E+02 -0.77148749850E+02  0.95600983298E+02  0.00000000000E+00 0. -1.
</event>
<event>
 7    1  0.2612321E-009  0.1267317E+03  0.7561462E-02  0.1232387E+00
         -2   -1    0    0    0  501 -0.00000000000E+00  0.00000000000E+00  0.37233950388E+02  0.37233950388E+02  0.00000000000E+00 0.  1.
          2   -1    0    0  501    0  0.00000000000E+00 -0.00000000000E+00 -0.61145779910E+03  0.61145779910E+03  0.00000000000E+00 0. -1.
         25    2    1    2    0    0 -0.34316935456E+02 -0.81584980171E+02 -0.19280403107E+03  0.24628326026E+03  0.12509312066E+03 0.  0.
          5    1    3    3  502    0  0.12132570846E+02 -0.95017316855E+02 -0.85300474293E+02  0.12833212027E+03  0.41800000000E+01 0. -1.
         -5    1    3    3    0  502 -0.46449506302E+02  0.13432336684E+02 -0.10750355678E+03  0.11795113999E+03  0.41800000000E+01 0. -1.
        -11    1    1    2    0    0  0.51120498358E+02  0.42404546638E+02 -0.32486618022E+03  0.33158631754E+03  0.00000000000E+00 0. -1.
         11    1    1    2    0    0 -0.16803562902E+02  0.39180433533E+02 -0.56553637419E+02  0.70822171693E+02  0.00000000000E+00 0.  1.
</event>
<event>
 7    1  0.2612321E-009  0.1263904E+03  0.7561462E-02  0.1232912E+00
         -1   -1    0    0    0  501 -0.00000000000E+00  0.00000000000E+00  0.13548873816E+03  0.13548873816E+03  0.00000000000E+00 0.  1.
          1   -1    0    0  501    0  0.00000000000E+00 -0.00000000000E+00 -0.15534760511E+03  0.15534760511E+03  0.00000000000E+00 0. -1.
         25    2    1    2    0    0 -0.34064354336E+02 -0.87549446094E+02 -0.26467108542E+02  0.15865532369E+03  0.12508284516E+03 0.  0.
          5    1    3    3  502    0  0.26041886084E+02 -0.92299126419E+02 -0.16338460059E+02  0.97374155943E+02  0.41800000000E+01 0. -1.
         -5    1    3    3    0  502 -0.60106240419E+02  0.47496803250E+01 -0.10128648483E+02  0.61281167748E+02  0.41800000000E+01 0. -1.
        -11    1    1    2    0    0  0.30649932941E+02  0.50014913445E+02 -0.40920714582E+02  0.71522128311E+02  0.00000000000E+00 0.  1.
         11    1    1    2    0    0  0.34144213947E+01  0.37534532649E+02  0.47528956170E+02  0.60658891263E+02  0.00000000000E+00 0. -1.
</event>
<event>
 7    1  0.2612321E-009  0.8217928E+02  0.7561462E-02  0.1322978E+00
         -3   -1    0    0    0  501 -0.00000000000E+00  0.00000000000E+00  0.74102920498E+02  0.74102920498E+02  0.00000000000E+00 0.  1.
          3   -1    0    0  501    0  0.00000000000E+00 -0.00000000000E+00 -0.16719495062E+03  0.16719495062E+03  0.00000000000E+00 0. -1.
         25    2    1    2    0    0  0.27769920916E+02  0.25017111268E+02 -0.45105083112E+02  0.13813607853E+03  0.12510029298E+03 0.  0.
          5    1    3    3  502    0 -0.42755654299E+02  0.35063275962E+02 -0.36200623011E+02  0.66222630589E+02  0.41800000000E+01 0. -1.
         -5    1    3    3    0  502  0.70525575216E+02 -0.10046164694E+02 -0.89044601004E+01  0.71913447937E+02  0.41800000000E+01 0. -1.
        -11    1    1    2    0    0 -0.97818211365E+01 -0.11156477092E+02 -0.69987827417E+02  0.71543322487E+02  0.00000000000E+00 0. -1.
         11    1    1    2    0    0 -0.17988099780E+02 -0.13860634176E+02  0.22000880404E+02  0.31618470108E+02  0.00000000000E+00 0.  1.
</event>
<event>
 7    1  0.2612321E-009  0.1214996E+03  0.7561462E-02  0.1240643E+00
         -4   -1    0    0    0  501 -0.00000000000E+00  0.00000000000E+00  0.11859609424E+03  0.11859609424E+03  0.00000000000E+00 0.  1.
          4   -1    0    0  501    0  0.00000000000E+00 -0.00000000000E+00 -0.19777612501E+03  0.19777612501E+03  0.00000000000E+00 0. -1.
         25    2    1    2    0    0 -0.75995628718E+02  0.57418037731E+02 -0.95953745747E+02  0.18418957452E+03  0.12508601600E+03 0.  0.
          5    1    3    3  502    0 -0.95287162158E+01 -0.11885298165E+02  0.25076221549E+02  0.29636903219E+02  0.41800000000E+01 0.  1.
         -5    1    3    3    0  502 -0.66466912502E+02  0.69303335896E+02 -0.12102996730E+03  0.15455267131E+03  0.41800000000E+01 0.  1.
        -11    1    1    2    0    0 -0.18278814259E+02  0.38136055152E+01  0.33347544874E+01  0.18967847143E+02  0.00000000000E+00 0. -1.
         11    1    1    2    0    0  0.94274442977E+02 -0.61231643246E+02  0.13438960481E+02  0.11321479758E+03  0.00000000000E+00 0.  1.
</event>
<event>
 7    1  0.2612321E-009  0.9635863E+02  0.7561462E-02  0.1288145E+00
          1   -1    0    0  501    0  0.00000000000E+00  0.00000000000E+00  0.25507256274E+03  0.25507256274E+03  0.00000000000E+00 0. -1.
         -1   -1    0    0    0  501 -0.00000000000E+00 -0.00000000000E+00 -0.54947341337E+02  0.54947341337E+02  0.00000000000E+00 0.  1.
         25    2    1    2    0    0 -0.41138618479E+02  0.12219892815E+02  0.82681426708E+02  0.15596600993E+03  0.12508983260E+03 0.  0.
          5    1    3    3  502    0  0.12110093352E+02 -0.42703503826E+02  0.62442367420E+02  0.76725258220E+02  0.41800000000E+01 0.  1.
         -5    1    3    3    0  502 -0.53248711831E+02  0.54923396641E+02  0.20239059289E+02  0.79240751707E+02  0.41800000000E+01 0.  1.
        -11    1    1    2    0    0  0.40326619725E+02  0.15930254966E+02  0.12107182501E+02  0.45017698185E+02  0.00000000000E+00 0.  1.
         11    1    1    2    0    0  0.81199875426E+00 -0.28150147781E+02  0.10533661219E+03  0.10903619596E+03  0.00000000000E+00 0. -1.
</event>
<event>
 7    1  0.2612321E-009  0.2101582E+03  0.7561462E-02  0.1141441E+00
         -1   -1    0    0    0  501 -0.00000000000E+00  0.00000000000E+00  0.15740831170E+03  0.15740831170E+03  0.00000000000E+00 0.  1.
          1   -1    0    0  501    0  0.00000000000E+00 -0.00000000000E+00 -0.38835779761E+03  0.38835779761E+03  0.00000000000E+00 0. -1.
         25    2    1    2    0    0 -0.19960106969E+03 -0.39726361013E+02 -0.21938784175E+03  0.32434173742E+03  0.12509103383E+03 0.  0.
          5    1    3    3  502    0 -0.90441581667E+02 -0.10463421609E+02 -0.17308636077E+02  0.92769737355E+02  0.41800000000E+01 0.  1.
         -5    1    3    3    0  502 -0.10915948802E+03 -0.29262939404E+02 -0.20207920567E+03  0.23157200006E+03  0.41800000000E+01 0.  1.
        -11    1    1    2    0    0  0.10833397002E+03  0.58183739846E+02 -0.29825844662E+02  0.12653528225E+03  0.00000000000E+00 0. -1.
         11    1    1    2    0    0  0.91267099666E+02 -0.18457378834E+02  0.18264200499E+02  0.94889089651E+02  0.00000000000E+00 0.  1.
</event>
<event>
 7    1  0.2612321E-009  0.5224158E+02  0.7561462E-02  0.1433613E+00
          2   -1    0    0  501    0  0.00000000000E+00  0.00000000000E+00  0.41039814430E+02  0.41039814430E+02  0.00000000000E+00 0.  1.
         -2   -1    0    0    0  501 -0.00000000000E+00 -0.00000000000E+00 -0.28950632112E+03  0.28950632112E+03  0.00000000000E+00 0. -1.
         25    2    1    2    0    0  0.14123230998E+02  0.79865485101E-01 -0.15432063029E+03  0.19914790800E+03  0.12508221415E+03 0.  0.
          5    1    3    3  502    0  0.78695731258E+01 -0.24419816784E+02  0.13562308222E+02  0.29320065437E+02  0.41800000000E+01 0.  1.
         -5    1    3    3    0  502  0.62536578726E+01  0.24499682269E+02 -0.16788293851E+03  0.16982784257E+03  0.41800000000E+01 0.  1.
        -11    1    1    2    0    0  0.11152677652E+02 -0.18487912049E+02 -0.97581276834E+02  0.99941436349E+02  0.00000000000E+00 0. -1.
         11    1    1    2    0    0 -0.25275908651E+02  0.18408046564E+02  0.34354004312E+01  0.31456791199E+02  0.00000000000E+00 0.  1.
</event>
<event>
 7    1  0.2612321E-009  0.1545903E+03  0.7561462E-02  0.1194943E+00
          4   -1    0    0  501    0  0.00000000000E+00  0.00000000000E+00  0.68968755529E+02  0.68968755529E+02  0.00000000000E+00 0. -1.
         -4   -1    0    0    0  501 -0.00000000000E+00 -0.00000000000E+00 -0.48919749592E+03  0.48919749592E+03  0.00000000000E+00 0.  1.
         25    2    1    2    0    0 -0.52284733116E+02  0.12933060675E+03 -0.15094774585E+03  0.24061315230E+03  0.12509743372E+03 0.  0.
          5    1    3    3  502    0  0.81569631821E+01  0.53472932930E+02  0.75201316573E+01  0.54771483316E+02  0.41800000000E+01 0.  1.
         -5    1    3    3    0  502 -0.60441696298E+02  0.75857673821E+02 -0.15846787751E+03  0.18584166899E+03  0.41800000000E+01 0.  1.
        -11    1    1    2    0    0  0.70730982756E+02 -0.90548337304E+02 -0.23844203147E+03  0.26468183859E+03  0.00000000000E+00 0.  1.
         11    1    1    2    0    0 -0.18446249640E+02 -0.38782269446E+02 -0.30838963066E+02  0.52871260551E+02  0.00000000000E+00 0. -1.
</event>
<event>
 7    1  0.2612321E-009  0.9547310E+02  0.7561462E-02  0.1290114E+00
         -2   -1    0    0    0  501 -0.00000000000E+00  0.00000000000E+00  0.35125901323E+02  0.35125901323E+02  0.00000000000E+00 0. -1.
          2   -1    0    0  501    0  0.00000000000E+00 -0.00000000000E+00 -0.63411895657E+03  0.63411895657E+03  0.00000000000E+00 0.  1.
         25    2    1    2    0    0  0.85865357830E+02 -0.15533251667E+02 -0.43893182260E+03  0.46467525464E+03  0.12509118992E+03 0.  0.
          5    1    3    3  502    0  0.44762288815E+02 -0.82140635673E+01 -0.32489518171E+02  0.56072939384E+02  0.41800000000E+01 0.  1.
         -5    1    3    3    0  502  0.41103069015E+02 -0.73191881002E+01 -0.40644230443E+03  0.40860231525E+03  0.41800000000E+01 0.  1.
        -11    1    1    2    0    0 -0.50767496051E+02  0.36387038933E+02 -0.15005470175E+03  0.16253543852E+03  0.00000000000E+00 0.  1.
         11    1    1    2    0    0 -0.35097861779E+02 -0.20853787266E+02 -0.10006530895E+02  0.42034164739E+02  0.00000000000E+00 0. -1.
</event>
<event>
 7    1  0.2612321E-009  0.1087927E+03  0.7561462E-02  0.1262822E+00
          2   -1    0    0  501    0  0.00000000000E+00  0.00000000000E+00  0.18145186753E+04  0.18145186753E+04  0.00000000000E+00 0.  1.
         -2   -1    0    0    0  501 -0.00000000000E+00 -0.00000000000E+00 -0.15592171815E+02  0.15592171815E+02  0.00000000000E+00 0. -1.
         25    2    1    2    0    0 -0.83333697838E+02  0.82288970015E+01  0.14855624676E+04  0.14931694587E+04  0.12508783787E+03 0.  0.
          5    1    3    3  502    0 -0.87635330303E+02  0.76916169568E+01  0.14844318402E+04  0.14870421893E+04  0.41800000000E+01 0. -1.
         -5    1    3    3    0  502  0.43016324656E+01  0.53728004471E+00  0.11306273970E+01  0.61272693777E+01  0.41800000000E+01 0. -1.
        -11    1    1    2    0    0  0.52007199337E+02  0.40256232001E+02  0.17914175739E+03  0.19083260267E+03  0.00000000000E+00 0.  1.
         11    1    1    2    0    0  0.31326498500E+02 -0.48485129002E+02  0.13422227850E+03  0.14610878580E+03  0.00000000000E+00 0. -1.
</event>
<event>
 7    1  0.2612321E-009  0.1093194E+03  0.7561462E-02  0.1261835E+00
          1   -1    0    0  501    0  0.00000000000E+00  0.00000000000E+00  0.40638764795E+02  0.40638764795E+02  0.00000000000E+00 0. -1.
         -1   -1    0    0    0  501 -0.00000000000E+00 -0.00000000000E+00 -0.58109192203E+03  0.58109192203E+03  0.00000000000E+00 0.  1.
         25    2    1    2    0    0 -0.51830480601E+02 -0.95605236204E+02 -0.27855442277E+03  0.32413939526E+03  0.12508805381E+03 0.  0.
          5    1    3    3  502    0 -0.41719302854E+02 -0.82210752700E+02 -0.28937774505E+03  0.30373682658E+03  0.41800000000E+01 0.  1.
         -5    1    3    3    0  502 -0.10111177747E+02 -0.13394483505E+02  0.10823322278E+02  0.20402568684E+02  0.41800000000E+01 0.  1.
        -11    1    1    2    0    0  0.35224289325E+02  0.72506680688E+02 -0.25619412359E+03  0.26857661526E+03  0.00000000000E+00 0.  1.
         11    1    1    2    0    0  0.16606191276E+02  0.23098555516E+02 -0.57046108721E+01  0.29014676301E+02  0.00000000000E+00 0. -1.
</event>
<event>
 7    1  0.2612321E-009  0.1202312E+03  0.7561462E-02  0.1242716E+00
         -2   -1    0    0    0  501 -0.00000000000E+00  0.00000000000E+00  0.10847941435E+02  0.10847941435E+02  0.00000000000E+00 0.  1.
          2   -1    0    0  501    0  0.00000000000E+00 -0.00000000000E+00 -0.21154661053E+04  0.21154661053E+04  0.00000000000E+00 0. -1.
         25    2    1    2    0    0  0.55833164991E+02  0.83173666749E+01 -0.17621790886E+04  0.17675148543E+04  0.12508836463E+03 0.  0.
          5    1    3    3  502    0  0.55790879285E+02 -0.52153536320E+02 -0.94401889237E+03  0.94711232444E+03  0.41800000000E+01 0.  1.
         -5    1    3    3    0  502  0.42285705943E-01  0.60470902995E+02 -0.81816019621E+03  0.82040252983E+03  0.41800000000E+01 0.  1.
        -11    1    1    2    0    0 -0.63357093668E+02 -0.37229840444E+02 -0.28145873739E+03  0.29089380054E+03  0.00000000000E+00 0. -1.
         11    1    1    2    0    0  0.75239286766E+01  0.28912473769E+02 -0.60980337915E+02  0.67905391939E+02  0.00000000000E+00 0.  1.
</event>
<event>
 7    1  0.2612321E-009  0.7746743E+02  0.7561462E-02  0.1336396E+00
         -1   -1    0    0    0  501 -0.00000000000E+00  0.00000000000E+00  0.40384919320E+02  0.40384919320E+02  0.00000000000E+00 0.  1.
          1   -1    0    0  501    0  0.00000000000E+00 -0.00000000000E+00 -0.42756677895E+03  0.42756677895E+03  0.00000000000E+00 0. -1.
         25    2    1    2    0    0 -0.42293930240E+02  0.44153547575E+02 -0.28144052118E+03  0.31399923356E+03  0.12509372252E+03 0.  0.
          5    1    3    3  502    0 -0.18334023249E+02 -0.12029892509E+02  0.34645922902E+01  0.22590496276E+02  0.41800000000E+01 0. -1.
         -5    1    3    3    0  502 -0.23959906991E+02  0.56183440085E+02 -0.28490511347E+03  0.29140873728E+03  0.41800000000E+01 0. -1.
        -11    1    1    2    0    0  0.16828130921E+02  0.36561489621E+01  0.14216792990E+02  0.22330934115E+02  0.00000000000E+00 0.  1.
         11    1    1    2    0    0  0.25465799319E+02 -0.47809696537E+02 -0.11995813144E+03  0.13162153060E+03  0.00000000000E+00 0. -1.
</event>
<event>
 7    1  0.2612321E-009  0.8934159E+02  0.7561462E-02  0.1304454E+00
          1   -1    0    0  501    0  0.00000000000E+00  0.00000000000E+00  0.29668164375E+03  0.29668164375E+03  0.00000000000E+00 0. -1.
         -1   -1    0    0    0  501 -0.00000000000E+00 -0.00000000000E+00 -0.50031853951E+02  0.50031853951E+02  0.00000000000E+00 0.  1.
         25    2    1    2    0    0  0.41780234989E+02 -0.37620129124E+02  0.11594235419E+03  0.17958602132E+03  0.12509055683E+03 0.  0.
          5    1    3    3  502    0 -0.24978387754E+02 -0.27290919671E+01  0.99053441143E+02  0.10227621620E+03  0.41800000000E+01 0. -1.
         -5    1    3    3    0  502  0.66758622743E+02 -0.34891037157E+02  0.16888913052E+02  0.77309805125E+02  0.41800000000E+01 0. -1.
        -11    1    1    2    0    0 -0.14119052430E+02 -0.13569822408E+02  0.98890968620E+02  0.10081126622E+03  0.00000000000E+00 0. -1.
         11    1    1    2    0    0 -0.27661182559E+02  0.51189951532E+02  0.31816466984E+02  0.66316210158E+02  0.00000000000E+00 0.  1.
</event>
<event>
 7    1  0.2612321E-009  0.6931210E+02  0.7561462E-02  0.1362448E+00
          1   -1    0    0  501    0  0.00000000000E+00  0.00000000000E+00  0.70686983804E+02  0.70686983804E+02  0.00000000000E+00 0. -1.
         -1   -1    0    0    0  501 -0.00000000000E+00 -0.00000000000E+00 -0.17151610628E+03  0.17151610628E+03  0.00000000000E+00 0.  1.
         25    2    1    2    0    0 -0.16156052223E+02 -0.55402677999E+01 -0.27901241422E+02  0.12929823472E+03  0.12509133318E+03 0.  0.
          5    1    3    3  502    0 -0.11560129013E+02 -0.32265026693E+02 -0.70573146959E+02  0.78566595968E+02  0.41800000000E+01 0.  1.
         -5    1    3    3    0  502 -0.45959232100E+01  0.26724758893E+02  0.42671905537E+02  0.50731638749E+02  0.41800000000E+01 0.  1.
        -11    1    1    2    0    0 -0.19822320888E+02 -0.23269417800E+02 -0.56006316401E+02  0.63805154079E+02  0.00000000000E+00 0. -1.
         11    1    1    2    0    0  0.35978373111E+02  0.28809685600E+02 -0.16921564651E+02  0.49099701286E+02  0.00000000000E+00 0.  1.
</event>
<event>
 7    1  0.2612321E-009  0.1009217E+03  0.7561462E-02  0.1278370E+00
          4   -1    0    0  501    0  0.00000000000E+00  0.00000000000E+00  0.38331248220E+02  0.38331248220E+02  0.00000000000E+00 0. -1.
         -4   -1    0    0    0  501 -0.00000000000E+00 -0.00000000000E+00 -0.33317312453E+03  0.33317312453E+03  0.00000000000E+00 0.  1.
         25    2    1    2    0    0 -0.10914201565E+02 -0.29904115701E+02 -0.13818365113E+03  0.18909364439E+03  0.12509320116E+03 0.  0.
          5    1    3    3  502    0  0.43220195311E+01 -0.72761462207E+02 -0.46216342086E+02  0.86407944722E+02  0.41800000000E+01 0. -1.
         -5    1    3    3    0  502 -0.15236221097E+02  0.42857346506E+02 -0.91967309047E+02  0.10268569967E+03  0.41800000000E+01 0. -1.
        -11    1    1    2    0    0 -0.58996475628E+01  0.53698559926E+02 -0.13699268025E+03  0.14725941607E+03  0.00000000000E+00 0.  1.
         11    1    1    2    0    0  0.16813849128E+02 -0.23794444226E+02 -0.19665544932E+02  0.35151312294E+02  0.00000000000E+00 0. -1.
</event>
<event>
 7    1  0.2612321E-009  0.6229311E+02  0.7561462E-02  0.1388453E+00
         -1   -1    0    0    0  501 -0.00000000000E+00  0.00000000000E+00  0.14489025629E+03  0.14489025629E+03  0.00000000000E+00 0.  1.
          1   -1    0    0  501    0  0.00000000000E+00 -0.00000000000E+00 -0.10429229760E+03  0.10429229760E+03  0.00000000000E+00 0. -1.
         25    2    1    2    0    0 -0.35372549865E+01  0.28335635151E+02  0.77613811395E+02  0.14995489729E+03  0.12508855707E+03 0.  0.
          5    1    3    3  502    0  0.34641289144E+02  0.25510867901E+02  0.97471998430E+02  0.10662591698E+03  0.41800000000E+01 0.  1.
         -5    1    3    3    0  502 -0.38178544131E+02  0.28247672500E+01 -0.19858187035E+02  0.43328980305E+02  0.41800000000E+01 0.  1.
        -11    1    1    2    0    0  0.10745075239E+02  0.26269554285E+01  0.26215974580E+02  0.28454083360E+02  0.00000000000E+00 0.  1.
         11    1    1    2    0    0 -0.72078202525E+01 -0.30962590580E+02 -0.63231827278E+02  0.70773573240E+02  0.00000000000E+00 0. -1.
</event>
<event>
 7    1  0.2612321E-009  0.2440992E+03  0.7561462E-02  0.1117092E+00
         -1   -1    0    0    0  501 -0.00000000000E+00  0.00000000000E+00  0.78249017184E+03  0.78249017184E+03  0.00000000000E+00 0.  1.
          1   -1    0    0  501    0  0.00000000000E+00 -0.00000000000E+00 -0.90538980640E+02  0.90538980640E+02  0.00000000000E+00 0. -1.
         25    2    1    2    0    0 -0.20397791612E+03 -0.10839152659E+03  0.23314880572E+03  0.35122922397E+03  0.12509152194E+03 0.  0.
          5    1    3    3  502    0  0.11678670820E+02  0.40663305091E+01 -0.16318880902E+01  0.13155297590E+02  0.41800000000E+01 0.  1.
         -5    1    3    3    0  502 -0.21565658694E+03 -0.11245785710E+03  0.23478069381E+03  0.33807392638E+03  0.41800000000E+01 0.  1.
        -11    1    1    2    0    0  0.13777352644E+03  0.83858819027E+02  0.22006611015E+03  0.27284233351E+03  0.00000000000E+00 0.  1.
         11    1    1    2    0    0  0.66204389676E+02  0.24532707565E+02  0.23873627532E+03  0.24895759500E+03  0.00000000000E+00 0. -1.
</event>
<event>
 7    1  0.2612321E-009  0.6335505E+02  0.7561462E-02  0.1384268E+00
         -2   -1    0    0    0  501 -0.00000000000E+00  0.00000000000E+00  0.10619997255E+03  0.10619997255E+03  0.00000000000E+00 0. -1.
          2   -1    0    0  501    0  0.00000000000E+00 -0.00000000000E+00 -0.13493738185E+03  0.13493738185E+03  0.00000000000E+00 0.  1.
         25    2    1    2    0    0 -0.17833988647E+01 -0.27823223926E+02 -0.61170794873E+02  0.14201237805E+03  0.12509331346E+03 0.  0.
          5    1    3    3  502    0 -0.37941757451E+02 -0.18802666955E+02 -0.86746687968E+02  0.96620792361E+02  0.41800000000E+01 0. -1.
         -5    1    3    3    0  502  0.36158358587E+02 -0.90205569717E+01  0.25575893096E+02  0.45391585689E+02  0.41800000000E+01 0. -1.
        -11    1    1    2    0    0 -0.38584339289E+01  0.36284508753E+02  0.59730950762E+02  0.69994568124E+02  0.00000000000E+00 0. -1.
         11    1    1    2    0    0  0.56418327936E+01 -0.84612848270E+01 -0.27297565186E+02  0.29130408223E+02  0.00000000000E+00 0.  1.
</event>
<event>
 7    1  0.2612321E-009  0.1139000E+03  0.7561462E-02  0.1253514E+00
          2   -1    0    0  501    0  0.00000000000E+00  0.00000000000E+00  0.71863043219E+02  0.71863043219E+02  0.00000000000E+00 0. -1.
         -2   -1    0    0    0  501 -0.00000000000E+00 -0.00000000000E+00 -0.29919224149E+03  0.29919224149E+03  0.00000000000E+00 0.  1.
         25    2    1    2    0    0 -0.57416678190E+02 -0.64800445487E+02 -0.20641829566E+03  0.25641971577E+03  0.12508711038E+03 0.  0.
          5    1    3    3  502    0 -0.80691796180E+02 -0.62252413210E+02 -0.20893416503E+03  0.23250265942E+03  0.41800000000E+01 0. -1.
         -5    1    3    3    0  502  0.23275117989E+02 -0.25480322774E+01  0.25158693661E+01  0.23917056352E+02  0.41800000000E+01 0. -1.
        -11    1    1    2    0    0 -0.10363853917E+02  0.13450719755E+02 -0.24169331116E+02  0.29537906096E+02  0.00000000000E+00 0.  1.
         11    1    1    2    0    0  0.67780532108E+02  0.51349725733E+02  0.32584285008E+01  0.85097662846E+02  0.00000000000E+00 0. -1.
</event>
<event>
 7    1  0.2612321E-009  0.9308308E+02  0.7561462E-02  0.1295553E+00
         -2   -1    0    0    0  501 -0.00000000000E+00  0.00000000000E+00  0.78379608008E+02  0.78379608008E+02  0.00000000000E+00 0.  1.
          2   -1    0    0  501    0  0.00000000000E+00 -0.00000000000E+00 -0.23389575475E+03  0.23389575475E+03  0.00000000000E+00 0. -1.
         25    2    1    2    0    0  0.65499080402E+02 -0.47358851180E+02 -0.95106907465E+02  0.17670526826E+03  0.12508572127E+03 0.  0.
          5    1    3    3  502    0  0.99492651396E+01  0.15653505828E+02 -0.90497407648E+02  0.92473095073E+02  0.41800000000E+01 0.  1.
         -5    1    3    3    0  502  0.55549815263E+02 -0.63012357008E+02 -0.46094998173E+01  0.84232173188E+02  0.41800000000E+01 0.  1.
        -11    1    1    2    0    0 -0.23859636053E+02  0.65450022861E+01  0.23014455183E+02  0.33790300900E+02  0.00000000000E+00 0.  1.
         11    1    1    2    0    0 -0.41639444349E+02  0.40813848894E+02 -0.83423694461E+02  0.10177979360E+03  0.00000000000E+00 0. -1.
</event>
<event>
 7    1  0.2612321E-009  0.2087234E+03  0.7561462E-02  0.1142581E+00
         -1   -1    0    0    0  501 -0.00000000000E+00  0.00000000000E+00  0.27599340646E+03  0.27599340646E+03  0.00000000000E+00 0.  1.
          1   -1    0    0  501    0  0.00000000000E+00 -0.00000000000E+00 -0.33670586791E+03  0.33670586791E+03  0.00000000000E+00 0. -1.
         25    2    1    2    0    0 -0.19314242591E+03  0.17752850556E+02 -0.23968515366E+03  0.33273793501E+03  0.12508557119E+03 0.  0.
          5    1    3    3  502    0 -0.12180794427E+03  0.61961492158E+02 -0.19327327383E+03  0.23674550170E+03  0.41800000000E+01 0. -1.
         -5    1    3    3    0  502 -0.71334481638E+02 -0.44208641603E+02 -0.46411879831E+02  0.95992433308E+02  0.41800000000E+01 0. -1.
        -11    1    1    2    0    0  0.13765537501E+03 -0.27452655684E+02  0.17378894810E+03  0.22339482772E+03  0.00000000000E+00 0. -1.
         11    1    1    2    0    0  0.55487050893E+02  0.96998051280E+01  0.51837441183E+01  0.56566511643E+02  0.00000000000E+00 0.  1.
</event>
<event>
 7    1  0.2612321E-009  0.1133434E+03  0.7561462E-02  0.1254501E+00
          1   -1    0    0  501    0  0.00000000000E+00  0.00000000000E+00  0.40009980303E+03  0.40009980303E+03  0.00000000000E+00 0. -1.
         -1   -1    0    0    0  501 -0.00000000000E+00 -0.00000000000E+00 -0.34870431890E+02  0.34870431890E+02  0.00000000000E+00 0.  1.
         25    2    1    2    0    0 -0.24811576955E+02 -0.34224581726E+02  0.22857579014E+03  0.26396990957E+03  0.12508511094E+03 0.  0.
          5    1    3    3  502    0 -0.75817762640E+02 -0.22975793383E+02  0.14630076969E+03  0.16642598302E+03  0.41800000000E+01 0. -1.
         -5    1    3    3    0  502  0.51006185685E+02 -0.11248788343E+02  0.82275020452E+02  0.97543926554E+02  0.41800000000E+01 0. -1.
        -11    1    1    2    0    0  0.56475438446E+02  0.26387199570E+02  0.55220373783E+02  0.83276942365E+02  0.00000000000E+00 0.  1.
         11    1    1    2    0    0 -0.31663861491E+02  0.78373821559E+01  0.81433207216E+02  0.87723382977E+02  0.00000000000E+00 0. -1.
</event>
<event>
 7    1  0.3054715E-009  0.7419206E+02  0.7561462E-02  0.1346391E+00
          2   -1    0    0  501    0  0.00000000000E+00  0.00000000000E+00  0.28656718373E+03  0.28656718373E+03  0.00000000000E+00 0. -1.
         -2   -1    0    0    0  501 -0.00000000000E+00 -0.00000000000E+00 -0.59769300323E+02  0.59769300323E+02  0.00000000000E+00 0.  1.
         25    2    1    2    0    0  0.34900531106E+02 -0.22029622752E+02  0.45681146968E+02  0.13942096041E+03  0.12509230857E+03 0.  0.
          5    1    3    3  502    0  0.47688431368E+02 -0.16554276415E+01 -0.32256560124E+02  0.57748463166E+02  0.41800000000E+01 0.  1.
         -5    1    3    3    0  502 -0.12787900262E+02 -0.20374195111E+02  0.77937707093E+02  0.81672497246E+02  0.41800000000E+01 0.  1.
        -11    1    1    2    0    0  0.18938789969E+02  0.67112059559E+01  0.31311320439E+01  0.20335241300E+02  0.00000000000E+00 0.  1.
         11    1    1    2    0    0 -0.53839321074E+02  0.15318416796E+02  0.17798560440E+03  0.18658028234E+03  0.00000000000E+00 0. -1.
</event>
<event>
 7    1  0.2612321E-009  0.1611892E+03  0.7561462E-02  0.1187361E+00
         -2   -1    0    0    0  501 -0.00000000000E+00  0.00000000000E+00  0.27141736601E+02  0.27141736601E+02  0.00000000000E+00 0.  1.
          2   -1    0    0  501    0  0.00000000000E+00 -0.00000000000E+00 -0.98784215328E+03  0.98784215328E+03  0.00000000000E+00 0. -1.
         25    2    1    2    0    0  0.82199410713E+00 -0.12364486949E+03 -0.52920969420E+03  0.55767379130E+03  0.12509367546E+03 0.  0.
          5    1    3    3  502    0 -0.16107664800E+02 -0.14396783276E+03 -0.39332688177E+03  0.41917741120E+03  0.41800000000E+01 0. -1.
         -5    1    3    3    0  502  0.16929658907E+02  0.20322963275E+02 -0.13588281243E+03  0.13849638011E+03  0.41800000000E+01 0. -1.
        -11    1    1    2    0    0 -0.28622256129E+02  0.53026244613E+01 -0.66029974835E+02  0.72161686155E+02  0.00000000000E+00 0.  1.
         11    1    1    2    0    0  0.27800262021E+02  0.11834224503E+03 -0.36546074764E+03  0.38514841242E+03  0.00000000000E+00 0. -1.
</event>
<event>
 7    1  0.2612321E-009  0.1166282E+03  0.7561462E-02  0.1248765E+00
         -2   -1    0    0    0  501 -0.00000000000E+00  0.00000000000E+00  0.25800014842E+02  0.25800014842E+02  0.00000000000E+00 0.  1.
          2   -1    0    0  501    0  0.00000000000E+00 -0.00000000000E+00 -0.75039404827E+03  0.75039404827E+03  0.00000000000E+00 0. -1.
         25    2    1    2    0    0 -0.66119612587E+02 -0.31503421419E+02 -0.52985635795E+03  0.54932616840E+03  0.12508881044E+03 0.  0.
          5    1    3    3  502    0 -0.38884362132E+01  0.35381722925E+02 -0.29699772360E+03  0.29915231317E+03  0.41800000000E+01 0. -1.
         -5    1    3    3    0  502 -0.62231176374E+02 -0.66885144344E+02 -0.23285863436E+03  0.25017385523E+03  0.41800000000E+01 0. -1.
        -11    1    1    2    0    0  0.50960816938E+02  0.56901144561E+02 -0.17598243498E+03  0.19184515249E+03  0.00000000000E+00 0. -1.
         11    1    1    2    0    0  0.15158795649E+02 -0.25397723142E+02 -0.18755240503E+02  0.35022742221E+02  0.00000000000E+00 0.  1.
</event>
<event>
 7    1  0.2612321E-009  0.7349235E+02  0.7561462E-02  0.1348604E+00
         -2   -1    0    0    0  501 -0.00000000000E+00  0.00000000000E+00  0.46647255777E+02  0.46647255777E+02  0.00000000000E+00 0.  1.
          2   -1    0    0  501    0  0.00000000000E+00 -0.00000000000E+00 -0.49350254879E+03  0.49350254879E+03  0.00000000000E+00 0. -1.
         25    2    1    2    0    0 -0.97605773018E+01 -0.48602309583E+02 -0.40873447370E+03  0.43031182392E+03  0.12508773898E+03 0.  0.
          5    1    3    3  502    0  0.44374457779E+01 -0.17410931028E+02 -0.39111713681E+03  0.39155193595E+03  0.41800000000E+01 0. -1.
         -5    1    3    3    0  502 -0.14198023080E+02 -0.31191378556E+02 -0.17617336896E+02  0.38759887963E+02  0.41800000000E+01 0. -1.
        -11    1    1    2    0    0 -0.20585404051E+02  0.58561472994E+02 -0.45615080271E+02  0.77032074666E+02  0.00000000000E+00 0. -1.
         11    1    1    2    0    0  0.30345981353E+02 -0.99591634110E+01  0.74942609623E+01  0.32805905985E+02  0.00000000000E+00 0.  1.
</event>
<event>
 7    1  0.2612321E-009  0.2353334E+03  0.7561462E-02  0.1122941E+00
          2   -1    0    0  501    0  0.00000000000E+00  0.00000000000E+00  0.92712075361E+03  0.92712075361E+03  0.00000000000E+00 0.  1.
         -2   -1    0    0    0  501 -0.00000000000E+00 -0.00000000000E+00 -0.67823881666E+02  0.67823881666E+02  0.00000000000E+00 0. -1.
         25    2    1    2    0    0  0.19720996406E+03 -0.75628807841E+02  0.28536916182E+03  0.37642321385E+03  0.12508953156E+03 0.  0.
          5    1    3    3  502    0  0.21178247879E+03 -0.56368098541E+02  0.24128742831E+03  0.32598508603E+03  0.41800000000E+01 0. -1.
         -5    1    3    3    0  502 -0.14572514728E+02 -0.19260709300E+02  0.44081733512E+02  0.50438127817E+02  0.41800000000E+01 0. -1.
        -11    1    1    2    0    0 -0.17936961437E+03  0.35229036886E+02  0.41303195378E+03  0.45167459353E+03  0.00000000000E+00 0. -1.
         11    1    1    2    0    0 -0.17840349694E+02  0.40399770955E+02  0.16089575635E+03  0.16684682790E+03  0.00000000000E+00 0.  1.
</event>
<event>
 7    1  0.2612321E-009  0.1097528E+03  0.7561462E-02  0.1261028E+00
         -2   -1    0    0    0  501 -0.00000000000E+00  0.00000000000E+00  0.12718070941E+02  0.12718070941E+02  0.00000000000E+00 0.  1.
          2   -1    0    0  501    0  0.00000000000E+00 -0.00000000000E+00 -0.11642542440E+04  0.11642542440E+04  0.00000000000E+00 0. -1.
         25    2    1    2    0    0  0.11942532988E+02  0.52141531621E+02 -0.57224534543E+03  0.58819565289E+03  0.12509207526E+03 0.  0.
          5    1    3    3  502    0 -0.44690639765E+02  0.18361554615E+02 -0.97718858671E+02  0.10909100655E+03  0.41800000000E+01 0.  1.
         -5    1    3    3    0  502  0.56633172753E+02  0.33779977006E+02 -0.47452648676E+03  0.47910464633E+03  0.41800000000E+01 0.  1.
        -11    1    1    2    0    0  0.24411797423E+02 -0.62529117358E+02 -0.39234312439E+03  0.39804390917E+03  0.00000000000E+00 0. -1.
         11    1    1    2    0    0 -0.36354330411E+02  0.10387585738E+02 -0.18694770322E+03  0.19073275287E+03  0.00000000000E+00 0.  1.
</event>
<event>
 7    1  0.2612321E-009  0.1390510E+03  0.7561462E-02  0.1214612E+00
         -1   -1    0    0    0  501 -0.00000000000E+00  0.00000000000E+00  0.12382573342E+03  0.12382573342E+03  0.00000000000E+00 0.  1.
          1   -1    0    0  501    0  0.00000000000E+00 -0.00000000000E+00 -0.25503085632E+03  0.25503085632E+03  0.00000000000E+00 0. -1.
         25    2    1    2    0    0 -0.85509645311E+02 -0.62751147279E+02 -0.16805149893E+03  0.23481535978E+03  0.12508933196E+03 0.  0.
          5    1    3    3  502    0 -0.71104466338E+02 -0.97850806190E+02 -0.10089269162E+03  0.15756723336E+03  0.41800000000E+01 0. -1.
         -5    1    3    3    0  502 -0.14405178974E+02  0.35099658910E+02 -0.67158807305E+02  0.77248126421E+02  0.41800000000E+01 0. -1.
        -11    1    1    2    0    0  0.22045955596E+02 -0.83711947435E+01 -0.21808052142E+02  0.32119965719E+02  0.00000000000E+00 0. -1.
         11    1    1    2    0    0  0.63463689715E+02  0.71122342023E+02  0.58654428167E+02  0.11192126425E+03  0.00000000000E+00 0.  1.
</event>
<event>
 7    1  0.2612321E-009  0.8378556E+02  0.7561462E-02  0.1318639E+00
         -1   -1    0    0    0  501 -0.00000000000E+00  0.00000000000E+00  0.45994932530E+02  0.45994932530E+02  0.00000000000E+00 0.  1.
          1   -1    0    0  501    0  0.00000000000E+00 -0.00000000000E+00 -0.30970975694E+03  0.30970975694E+03  0.00000000000E+00 0. -1.
         25    2    1    2    0    0 -0.15848137528E+02  0.32860223814E+01 -0.18131719893E+03  0.22087590121E+03  0.12509306816E+03 0.  0.
          5    1    3    3  502    0 -0.52929019988E+02 -0.25678227044E+02 -0.38455309583E+02  0.70406929603E+02  0.41800000000E+01 0. -1.
         -5    1    3    3    0  502  0.37080882460E+02  0.28964249426E+02 -0.14286188934E+03  0.15046897160E+03  0.41800000000E+01 0. -1.
        -11    1    1    2    0    0 -0.22423566878E+02 -0.52649196524E+01  0.16784680820E+02  0.28500197205E+02  0.00000000000E+00 0.  1.
         11    1    1    2    0    0  0.38271704406E+02  0.19788972709E+01 -0.99182306298E+02  0.10632859105E+03  0.00000000000E+00 0. -1.
</event>
<event>
 7    1  0.2612321E-009  0.1400338E+03  0.7561462E-02  0.1213283E+00
         -3   -1    0    0    0  501 -0.00000000000E+00  0.00000000000E+00  0.39378354369E+02  0.39378354369E+02  0.00000000000E+00 0.  1.
          3   -1    0    0  501    0  0.00000000000E+00 -0.00000000000E+00 -0.82239804937E+03  0.82239804937E+03  0.00000000000E+00 0. -1.
         25    2    1    2    0    0  0.10353621676E+03  0.17808497871E+02 -0.45564893954E+03  0.48404890923E+03  0.12510195702E+03 0.  0.
          5    1    3    3  502    0 -0.12839282861E+02  0.12478482210E+02 -0.57067018442E+01  0.19250936304E+02  0.41800000000E+01 0. -1.
         -5    1    3    3    0  502  0.11637549962E+03  0.53300156607E+01 -0.44994223769E+03  0.46479797293E+03  0.41800000000E+01 0. -1.
        -11    1    1    2    0    0 -0.45089060697E+02 -0.58523965595E+02 -0.44986236458E+02  0.86497626639E+02  0.00000000000E+00 0.  1.
         11    1    1    2    0    0 -0.58447156064E+02  0.40715467725E+02 -0.28238451900E+03  0.29122986787E+03  0.00000000000E+00 0. -1.
</event>
<event>
 7    1  0.2612321E-009  0.9325497E+02  0.7561462E-02  0.1295155E+00
          1   -1    0    0  501    0  0.00000000000E+00  0.00000000000E+00  0.14766685385E+03  0.14766685385E+03  0.00000000000E+00 0. -1.
         -1   -1    0    0    0  501 -0.00000000000E+00 -0.00000000000E+00 -0.10435702403E+03  0.10435702403E+03  0.00000000000E+00 0.  1.
         25    2    1    2    0    0  0.45222696115E+02  0.28293204729E+02  0.28755048240E+00  0.13599419785E+03  0.12509492989E+03 0.  0.
          5    1    3    3  502    0  0.63729904225E+02  0.33473716240E+02 -0.46117171150E+02  0.85593552598E+02  0.41800000000E+01 0. -1.
         -5    1    3    3    0  502 -0.18507208111E+02 -0.51805115109E+01  0.46404721632E+02  0.50400645247E+02  0.41800000000E+01 0. -1.
        -11    1    1    2    0    0 -0.67717397723E+02 -0.23926758576E+02  0.54730621227E+02  0.90297157376E+02  0.00000000000E+00 0. -1.
         11    1    1    2    0    0  0.22494701609E+02 -0.43664461536E+01 -0.11708341884E+02  0.25732522655E+02  0.00000000000E+00 0.  1.
</event>
<event>
 7    1  0.2612321E-009  0.1042492E+03  0.7561462E-02  0.1271606E+00
          2   -1    0    0  501    0  0.00000000000E+00  0.00000000000E+00  0.44816014522E+03  0.44816014522E+03  0.00000000000E+00 0. -1.
         -2   -1    0    0    0  501 -0.00000000000E+00 -0.00000000000E+00 -0.46624125051E+02  0.46624125051E+02  0.00000000000E+00 0.  1.
         25    2    1    2    0    0 -0.51113023316E+02 -0.24434702086E+01  0.35744030448E+03  0.38213855326E+03  0.12509113047E+03 0.  0.
          5    1    3    3  502    0  0.11526035392E+02  0.34965687948E+02  0.24664482507E+03  0.24941249158E+03  0.41800000000E+01 0. -1.
         -5    1    3    3    0  502 -0.62639058708E+02 -0.37409158157E+02  0.11079547941E+03  0.13272606168E+03  0.41800000000E+01 0. -1.
        -11    1    1    2    0    0  0.62099467663E+02  0.29804815706E+02  0.46430090290E+02  0.83068792020E+02  0.00000000000E+00 0. -1.
         11    1    1    2    0    0 -0.10986444347E+02 -0.27361345498E+02 -0.23343746064E+01  0.29576924986E+02  0.00000000000E+00 0.  1.
</event>
<event>
 7    1  0.2612321E-009  0.9862537E+02  0.7561462E-02  0.1283213E+00
         -1   -1    0    0    0  501 -0.00000000000E+00  0.00000000000E+00  0.76400248913E+02  0.76400248913E+02  0.00000000000E+00 0.  1.
          1   -1    0    0  501    0  0.00000000000E+00 -0.00000000000E+00 -0.21967137270E+03  0.21967137270E+03  0.00000000000E+00 0. -1.
         25    2    1    2    0    0  0.13142035714E+02 -0.21515919018E+02 -0.14952051049E+03  0.19656854695E+03  0.12508861946E+03 0.  0.
          5    1    3    3  502    0  0.46702342363E+02 -0.55487041105E+02 -0.11998851076E+03  0.14026630253E+03  0.41800000000E+01 0. -1.
         -5    1    3    3    0  502 -0.33560306649E+02  0.33971122087E+02 -0.29531999735E+02  0.56302244418E+02  0.41800000000E+01 0. -1.
        -11    1    1    2    0    0  0.28438254519E+02 -0.26759296716E+01  0.33651893401E+02  0.44140059461E+02  0.00000000000E+00 0.  1.
         11    1    1    2    0    0 -0.41580290233E+02  0.24191848690E+02 -0.27402506698E+02  0.55363015202E+02  0.00000000000E+00 0. -1.
</event>
<event>
 7    1  0.2612321E-009  0.7425048E+02  0.7561462E-02  0.1346208E+00
         -2   -1    0    0    0  501 -0.00000000000E+00  0.00000000000E+00  0.18084727106E+03  0.18084727106E+03  0.00000000000E+00 0. -1.
          2   -1    0    0  501    0  0.00000000000E+00 -0.00000000000E+00 -0.12202926204E+03  0.12202926204E+03  0.00000000000E+00 0.  1.
         25    2    1    2    0    0 -0.20806484732E+02 -0.66293785786E+02 -0.43995357268E+02  0.14970724553E+03  0.12509553175E+03 0.  0.
          5    1    3    3  502    0 -0.14529917242E+01 -0.23214102789E+02 -0.84256037627E+02  0.87507474137E+02  0.41800000000E+01 0. -1.
         -5    1    3    3    0  502 -0.19353493008E+02 -0.43079682997E+02  0.40260680360E+02  0.62199771396E+02  0.41800000000E+01 0. -1.
        -11    1    1    2    0    0  0.29427662448E+02  0.39148092119E+02  0.11281140082E+03  0.12298362732E+03  0.00000000000E+00 0. -1.
         11    1    1    2    0    0 -0.86211777155E+01  0.27145693667E+02 -0.99980345310E+01  0.30185660244E+02  0.00000000000E+00 0.  1.
</event>
<event>
 7    1  0.2612321E-009  0.9815378E+02  0.7561462E-02  0.1284227E+00
         -1   -1    0    0    0  501 -0.00000000000E+00  0.00000000000E+00  0.16987529936E+02  0.16987529936E+02  0.00000000000E+00 0.  1.
          1   -1    0    0  501    0  0.00000000000E+00 -0.00000000000E+00 -0.10068218737E+04  0.10068218737E+04  0.00000000000E+00 0. -1.
         25    2    1    2    0    0  0.20353103296E+02  0.24088189356E+02 -0.50685076475E+03  0.52301061122E+03  0.12509161456E+03 0.  0.
          5    1    3    3  502    0  0.10671736790E+01 -0.18983672816E+02 -0.66514926544E+01  0.20572638328E+02  0.41800000000E+01 0.  1.
         -5    1    3    3    0  502  0.19285929617E+02  0.43071862172E+02 -0.50019927210E+03  0.50243797289E+03  0.41800000000E+01 0.  1.
        -11    1    1    2    0    0  0.52539575573E+02  0.47756325280E+00 -0.14655941772E+03  0.15569296063E+03  0.00000000000E+00 0.  1.
         11    1    1    2    0    0 -0.72892678869E+02 -0.24565752609E+02 -0.33642416133E+03  0.34510583183E+03  0.00000000000E+00 0. -1.
</event>
<event>
 7    1  0.2612321E-009  0.7978448E+02  0.7561462E-02  0.1329664E+00
         -1   -1    0    0    0  501 -0.00000000000E+00  0.00000000000E+00  0.13631220606E+03  0.13631220606E+03  0.00000000000E+00 0.  1.
          1   -1    0    0  501    0  0.00000000000E+00 -0.00000000000E+00 -0.10233322126E+03  0.10233322126E+03  0.00000000000E+00 0. -1.
         25    2    1    2    0    0 -0.32425781340E+02 -0.15707858784E+02 -0.10021662550E+02  0.13056738214E+03  0.12509692017E+03 0.  0.
          5    1    3    3  502    0 -0.67400265857E+02 -0.22794036004E+02 -0.41778584521E+02  0.82615291802E+02  0.41800000000E+01 0. -1.
         -5    1    3    3    0  502  0.34974484517E+02  0.70861772207E+01  0.31756921971E+02  0.47952090340E+02  0.41800000000E+01 0. -1.
        -11    1    1    2    0    0  0.22988045819E+02 -0.99345084389E+01 -0.24065835756E+02  0.34731961636E+02  0.00000000000E+00 0. -1.
         11    1    1    2    0    0  0.94377355207E+01  0.25642367223E+02  0.68066483103E+02  0.73346083539E+02  0.00000000000E+00 0.  1.
</event>
<event>
 7    1  0.2612321E-009  0.1273866E+03  0.7561462E-02  0.1231386E+00
          1   -1    0    0  501    0  0.00000000000E+00  0.00000000000E+00  0.16994290752E+02  0.16994290752E+02  0.00000000000E+00 0. -1.
         -1   -1    0    0    0  501 -0.00000000000E+00 -0.00000000000E+00 -0.11785076424E+04  0.11785076424E+04  0.00000000000E+00 0.  1.
         25    2    1    2    0    0  0.34226864468E+02  0.58028797588E+02 -0.80921313261E+03  0.82159110894E+03  0.12508891520E+03 0.  0.
          5    1    3    3  502    0  0.32062776541E+02 -0.29068040309E+02 -0.44323481054E+03  0.44536225961E+03  0.41800000000E+01 0. -1.
         -5    1    3    3    0  502  0.21640879273E+01  0.87096837898E+02 -0.36597832206E+03  0.37622884933E+03  0.41800000000E+01 0. -1.
        -11    1    1    2    0    0 -0.46135736727E+02  0.16196002319E+02 -0.11426216445E+03  0.12428458842E+03  0.00000000000E+00 0. -1.
         11    1    1    2    0    0  0.11908872259E+02 -0.74224799907E+02 -0.23803805455E+03  0.24962623575E+03  0.00000000000E+00 0.  1.
</event>
<event>
 7    1  0.2612321E-009  0.1141088E+03  0.7561462E-02  0.1253145E+00
         -1   -1    0    0    0  501 -0.00000000000E+00  0.00000000000E+00  0.58604442045E+02  0.58604442045E+02  0.00000000000E+00 0.  1.
          1   -1    0    0  501    0  0.00000000000E+00 -0.00000000000E+00 -0.35501063336E+03  0.35501063336E+03  0.00000000000E+00 0. -1.
         25    2    1    2    0    0  0.90683983803E+02  0.42306775351E+01 -0.11435841386E+03  0.19225709564E+03  0.12507382001E+03 0.  0.
          5    1    3    3  502    0  0.35583731305E+02  0.47313012783E+02 -0.14400202015E+01  0.59365555421E+02  0.41800000000E+01 0.  1.
         -5    1    3    3    0  502  0.55100252497E+02 -0.43082335248E+02 -0.11291839366E+03  0.13289154022E+03  0.41800000000E+01 0.  1.
        -11    1    1    2    0    0 -0.38420529240E+02 -0.21162532443E+02 -0.16385451276E+02  0.46823849265E+02  0.00000000000E+00 0.  1.
         11    1    1    2    0    0 -0.52263454563E+02  0.16931854908E+02 -0.16566232618E+03  0.17453413050E+03  0.00000000000E+00 0. -1.
</event>
<event>
 7    1  0.2612321E-009  0.9612638E+02  0.7561462E-02  0.1288659E+00
          1   -1    0    0  501    0  0.00000000000E+00  0.00000000000E+00  0.14924459808E+03  0.14924459808E+03  0.00000000000E+00 0. -1.
         -1   -1    0    0    0  501 -0.00000000000E+00 -0.00000000000E+00 -0.19654756774E+03  0.19654756774E+03  0.00000000000E+00 0.  1.
         25    2    1    2    0    0  0.25576186084E+02 -0.24744882158E+02  0.10314916166E+03  0.16599343613E+03  0.12509045047E+03 0.  0.
          5    1    3    3  502    0 -0.11290944217E+02 -0.57013258893E+02  0.79041876148E+01  0.58804299952E+02  0.41800000000E+01 0. -1.
         -5    1    3    3    0  502  0.36867130301E+02  0.32268376735E+02  0.95244974042E+02  0.10718913618E+03  0.41800000000E+01 0. -1.
        -11    1    1    2    0    0  0.11331939349E+02 -0.22300563156E+02 -0.96243441997E+01  0.26802163491E+02  0.00000000000E+00 0. -1.
         11    1    1    2    0    0 -0.36908125434E+02  0.47045445314E+02 -0.14082778711E+03  0.15299656621E+03  0.00000000000E+00 0.  1.
</event>
<event>
 7    1  0.2612321E-009  0.1645377E+03  0.7561462E-02  0.1183667E+00
         -2   -1    0    0    0  501 -0.00000000000E+00  0.00000000000E+00  0.50427752258E+02  0.50427752258E+02  0.00000000000E+00 0.  1.
          2   -1    0    0  501    0  0.00000000000E+00 -0.00000000000E+00 -0.73827270093E+03  0.73827270093E+03  0.00000000000E+00 0. -1.
         25    2    1    2    0    0 -0.38547250739E+01 -0.15870601791E+03 -0.37572285538E+03  0.42663534543E+03  0.12509034689E+03 0.  0.
          5    1    3    3  502    0  0.54115986072E+01 -0.97000796556E+02 -0.84663338174E+02  0.12893328958E+03  0.41800000000E+01 0.  1.
         -5    1    3    3    0  502 -0.92663236811E+01 -0.61705221352E+02 -0.29105951721E+03  0.29770205584E+03  0.41800000000E+01 0.  1.
        -11    1    1    2    0    0  0.30311835799E+02  0.61641498665E+02 -0.62255364213E+02  0.92704973548E+02  0.00000000000E+00 0.  1.
         11    1    1    2    0    0 -0.26457110725E+02  0.97064519243E+02 -0.24986672907E+03  0.26936013421E+03  0.00000000000E+00 0. -1.
</event>
<event>
 7    1  0.2612321E-009  0.1731528E+03  0.7561462E-02  0.1174599E+00
          2   -1    0    0  501    0  0.00000000000E+00  0.00000000000E+00  0.34344164302E+04  0.34344164302E+04  0.00000000000E+00 0.  1.
         -2   -1    0    0    0  501 -0.00000000000E+00 -0.00000000000E+00 -0.14145971540E+02  0.14145971540E+02  0.00000000000E+00 0. -1.
         25    2    1    2    0    0 -0.13607459687E+03 -0.77966966507E+02  0.26351548286E+04  0.26427792472E+04  0.12508411022E+03 0.  0.
          5    1    3    3  502    0 -0.50919045636E+02  0.11397926641E+02  0.15022252931E+04  0.15031370415E+04  0.41800000000E+01 0. -1.
         -5    1    3    3    0  502 -0.85155551235E+02 -0.89364893147E+02  0.11329295356E+04  0.11396422057E+04  0.41800000000E+01 0. -1.
        -11    1    1    2    0    0  0.10294400919E+03  0.88423812093E+02  0.71220080498E+03  0.72501463860E+03  0.00000000000E+00 0.  1.
         11    1    1    2    0    0  0.33130587686E+02 -0.10456845586E+02  0.72914825048E+02  0.80768515969E+02  0.00000000000E+00 0. -1.
</event>
<event>
 7    1  0.2612321E-009  0.1248994E+03  0.7561462E-02  0.1235227E+00
         -1   -1    0    0    0  501 -0.00000000000E+00  0.00000000000E+00  0.21155050988E+03  0.21155050988E+03  0.00000000000E+00 0.  1.
          1   -1    0    0  501    0  0.00000000000E+00 -0.00000000000E+00 -0.19912162488E+03  0.19912162488E+03  0.00000000000E+00 0. -1.
         25    2    1    2    0    0  0.72782853307E+02  0.41992570707E+01  0.16458228380E+03  0.21920336980E+03  0.12509121349E+03 0.  0.
          5    1    3    3  502    0 -0.30748967341E+02  0.23470408088E+02  0.36672685453E+02  0.53466973981E+02  0.41800000000E+01 0.  1.
         -5    1    3    3    0  502  0.10353182065E+03 -0.19271151017E+02  0.12790959835E+03  0.16573639582E+03  0.41800000000E+01 0.  1.
        -11    1    1    2    0    0 -0.38157419909E+02 -0.40284481498E+02 -0.39193953003E+02  0.67933747840E+02  0.00000000000E+00 0.  1.
         11    1    1    2    0    0 -0.34625433399E+02  0.36085224427E+02 -0.11295944580E+03  0.12353501712E+03  0.00000000000E+00 0. -1.
</event>
<event>
 7    1  0.2612321E-009  0.8943604E+02  0.7561462E-02  0.1304223E+00
         -2   -1    0    0    0  501 -0.00000000000E+00  0.00000000000E+00  0.39378946420E+03  0.39378946420E+03  0.00000000000E+00 0.  1.
          2   -1    0    0  501    0  0.00000000000E+00 -0.00000000000E+00 -0.32118531581E+02  0.32118531581E+02  0.00000000000E+00 0. -1.
         25    2    1    2    0    0  0.68243862058E+01 -0.16263269011E+02  0.25952544021E+03  0.28864016886E+03  0.12509447150E+03 0.  0.
          5    1    3    3  502    0  0.47317376595E+02 -0.36750894990E+02  0.22084243895E+03  0.22886331652E+03  0.41800000000E+01 0. -1.
         -5    1    3    3    0  502 -0.40492990389E+02  0.20487625979E+02  0.38683001264E+02  0.59776852340E+02  0.41800000000E+01 0. -1.
        -11    1    1    2    0    0  0.22286722267E+02  0.32879491335E+02  0.12627264991E+02  0.41679812392E+02  0.00000000000E+00 0. -1.
         11    1    1    2    0    0 -0.29111108473E+02 -0.16616222324E+02  0.89518227416E+02  0.95588014524E+02  0.00000000000E+00 0.  1.
</event>
<event>
 7    1  0.2612321E-009  0.9883760E+02  0.7561462E-02  0.1282759E+00
          1   -1    0    0  501    0  0.00000000000E+00  0.00000000000E+00  0.13426630651E+03  0.13426630651E+03  0.00000000000E+00 0. -1.
         -1   -1    0    0    0  501 -0.00000000000E+00 -0.00000000000E+00 -0.11513818420E+03  0.11513818420E+03  0.00000000000E+00 0.  1.
         25    2    1    2    0    0  0.37995381984E+02  0.43102440342E+02 -0.14987392052E+02  0.13846167707E+03  0.12508215173E+03 0.  0.
          5    1    3    3  502    0  0.78030654876E+02  0.53928582896E+02 -0.18128404533E+02  0.96660160379E+02  0.41800000000E+01 0.  1.
         -5    1    3    3    0  502 -0.40035272892E+02 -0.10826142554E+02  0.31410124810E+01  0.41801516689E+02  0.41800000000E+01 0.  1.
        -11    1    1    2    0    0 -0.28344574995E+01 -0.17054960710E+02  0.58394784955E+02  0.60900383776E+02  0.00000000000E+00 0. -1.
         11    1    1    2    0    0 -0.35160924485E+02 -0.26047479633E+02 -0.24279270593E+02  0.50042429861E+02  0.00000000000E+00 0.  1.
</event>
<event>
 7    1  0.2612321E-009  0.1076461E+03  0.7561462E-02  0.1264992E+00
          2   -1    0    0  501    0  0.00000000000E+00  0.00000000000E+00  0.12109411163E+04  0.12109411163E+04  0.00000000000E+00 0. -1.
         -2   -1    0    0    0  501 -0.00000000000E+00 -0.00000000000E+00 -0.15929675106E+02  0.15929675106E+02  0.00000000000E+00 0.  1.
         25    2    1    2    0    0 -0.30019207042E+01  0.86212260684E+02  0.75309783816E+03  0.76827446444E+03  0.12509090076E+03 0.  0.
          5    1    3    3  502    0  0.15160782023E+02  0.16748502153E+02  0.58482784411E+03  0.58527894314E+03  0.41800000000E+01 0. -1.
         -5    1    3    3    0  502 -0.18162702728E+02  0.69463758532E+02  0.16826999405E+03  0.18299552131E+03  0.41800000000E+01 0. -1.
        -11    1    1    2    0    0  0.30658004498E+02 -0.87495380377E+02  0.37252580411E+03  0.38388908497E+03  0.00000000000E+00 0. -1.
         11    1    1    2    0    0 -0.27656083794E+02  0.12831196927E+01  0.69387798874E+02  0.74707241949E+02  0.00000000000E+00 0.  1.
</event>
<event>
 7    1  0.2612321E-009  0.2541407E+03  0.7561462E-02  0.1110716E+00
          1   -1    0    0  501    0  0.00000000000E+00  0.00000000000E+00  0.10589500544E+04  0.10589500544E+04  0.00000000000E+00 0. -1.
         -1   -1    0    0    0  501 -0.00000000000E+00 -0.00000000000E+00 -0.71410829513E+02  0.71410829513E+02  0.00000000000E+00 0.  1.
         25    2    1    2    0    0  0.10811480770E+03  0.22102075088E+03  0.39338686925E+03  0.48056152539E+03  0.12508863587E+03 0.  0.
          5    1    3    3  502    0  0.17197721144E+02  0.39534077584E+02  0.18351059398E+03  0.18855321637E+03  0.41800000000E+01 0. -1.
         -5    1    3    3    0  502  0.90917086557E+02  0.18148667330E+03  0.20987627527E+03  0.29200830902E+03  0.41800000000E+01 0. -1.
        -11    1    1    2    0    0 -0.13838266500E+02 -0.13052428786E+03  0.26719766343E+03  0.29769561415E+03  0.00000000000E+00 0.  1.
         11    1    1    2    0    0 -0.94276541202E+02 -0.90496463022E+02  0.32695469218E+03  0.35210374434E+03  0.00000000000E+00 0. -1.
</event>
<event>
 7    1  0.3025053E-009  0.1728959E+03  0.7561462E-02  0.1174861E+00
          2   -1    0    0  501    0  0.00000000000E+00  0.00000000000E+00  0.56598674859E+03  0.56598674859E+03  0.00000000000E+00 0. -1.
         -2   -1    0    0    0  501 -0.00000000000E+00 -0.00000000000E+00 -0.59524644996E+02  0.59524644996E+02  0.00000000000E+00 0.  1.
         25    2    1    2    0    0 -0.77779934162E+02  0.12554082151E+03  0.26647437067E+03  0.32934570701E+03  0.12509911462E+03 0.  0.
          5    1    3    3  502    0  0.22653144512E+02 -0.92676463784E+00  0.76861744205E+02  0.80244775352E+02  0.41800000000E+01 0.  1.
         -5    1    3    3    0  502 -0.10043307867E+03  0.12646758614E+03  0.18961262646E+03  0.24910093165E+03  0.41800000000E+01 0.  1.
        -11    1    1    2    0    0  0.66607353307E+02 -0.46193924701E+02  0.17548010232E+03  0.19329688177E+03  0.00000000000E+00 0. -1.
         11    1    1    2    0    0  0.11172580855E+02 -0.79346896805E+02  0.64507630609E+02  0.10286880481E+03  0.00000000000E+00 0.  1.
</event>
<event>
 7    1  0.2612321E-009  0.1430099E+03  0.7561462E-02  0.1209335E+00
          1   -1    0    0  501    0  0.00000000000E+00  0.00000000000E+00  0.61537424514E+03  0.61537424514E+03  0.00000000000E+00 0. -1.
         -1   -1    0    0    0  501 -0.00000000000E+00 -0.00000000000E+00 -0.41435598865E+02  0.41435598865E+02  0.00000000000E+00 0.  1.
         25    2    1    2    0    0  0.27573434658E+02  0.84855754380E+02  0.44487216055E+03  0.47065364105E+03  0.12507124870E+03 0.  0.
          5    1    3    3  502    0  0.22876258105E+02  0.11706554857E+03  0.31975151056E+03  0.34130069843E+03  0.41800000000E+01 0.  1.
         -5    1    3    3    0  502  0.46971765528E+01 -0.32209794188E+02  0.12512064999E+03  0.12935294262E+03  0.41800000000E+01 0.  1.
        -11    1    1    2    0    0  0.11917004019E+02  0.19174192170E+02  0.26628621546E+02  0.34910573121E+02  0.00000000000E+00 0.  1.
         11    1    1    2    0    0 -0.39490438677E+02 -0.10402994655E+03  0.10243786417E+03  0.15124562983E+03  0.00000000000E+00 0. -1.
</event>
<event>
 7    1  0.2612321E-009  0.1951968E+03  0.7561462E-02  0.1153856E+00
          2   -1    0    0  501    0  0.00000000000E+00  0.00000000000E+00  0.92705725876E+02  0.92705725876E+02  0.00000000000E+00 0. -1.
         -2   -1    0    0    0  501 -0.00000000000E+00 -0.00000000000E+00 -0.57673792896E+03  0.57673792896E+03  0.00000000000E+00 0.  1.
         25    2    1    2    0    0  0.15778391677E+03 -0.71944066592E+02 -0.40427408903E+03  0.45733681497E+03  0.12509080765E+03 0.  0.
          5    1    3    3  502    0  0.46350309279E+02 -0.83972971472E+02 -0.23936626352E+03  0.25790209696E+03  0.41800000000E+01 0.  1.
         -5    1    3    3    0  502  0.11143360749E+03  0.12028904880E+02 -0.16490782551E+03  0.19943471801E+03  0.41800000000E+01 0.  1.
        -11    1    1    2    0    0 -0.30974103497E+02  0.41553345771E+02  0.11319136321E+02  0.53049019588E+02  0.00000000000E+00 0.  1.
         11    1    1    2    0    0 -0.12680981328E+03  0.30390720821E+02 -0.91077250377E+02  0.15905782028E+03  0.00000000000E+00 0. -1.
</event>
<event>
 7    1  0.2612321E-009  0.2670036E+03  0.7561462E-02  0.1103007E+00
          2   -1    0    0  501    0  0.00000000000E+00  0.00000000000E+00  0.45741528668E+03  0.45741528668E+03  0.00000000000E+00 0. -1.
         -2   -1    0    0    0  501 -0.00000000000E+00 -0.00000000000E+00 -0.22080098525E+03  0.22080098525E+03  0.00000000000E+00 0.  1.
         25    2    1    2    0    0 -0.91785570710E+01 -0.25325781015E+03 -0.47336945327E+02  0.28655169188E+03  0.12508925380E+03 0.  0.
          5    1    3    3  502    0  0.54305070604E+02 -0.92114031351E+02 -0.36110226014E+02  0.11294005617E+03  0.41800000000E+01 0.  1.
         -5    1    3    3    0  502 -0.63483627675E+02 -0.16114377880E+03 -0.11226719314E+02  0.17361163571E+03  0.41800000000E+01 0.  1.
        -11    1    1    2    0    0 -0.22119944832E+01  0.11493635505E+03  0.19639222031E+03  0.22756353581E+03  0.00000000000E+00 0. -1.
         11    1    1    2    0    0  0.11390551554E+02  0.13832145510E+03  0.87559026447E+02  0.16410104423E+03  0.00000000000E+00 0.  1.
</event>
<event>
 7    1  0.2612321E-009  0.2720931E+03  0.7561462E-02  0.1100088E+00
         -1   -1    0    0    0  501 -0.00000000000E+00  0.00000000000E+00  0.12630077458E+03  0.12630077458E+03  0.00000000000E+00 0.  1.
          1   -1    0    0  501    0  0.00000000000E+00 -0.00000000000E+00 -0.65604219061E+03  0.65604219061E+03  0.00000000000E+00 0. -1.
         25    2    1    2    0    0 -0.11554337649E+03 -0.23680542232E+03 -0.22371453288E+03  0.36758961511E+03  0.12508738155E+03 0.  0.
          5    1    3    3  502    0  0.10987397510E+02 -0.66672591455E+02 -0.13590125252E+02  0.69051584050E+02  0.41800000000E+01 0.  1.
         -5    1    3    3    0  502 -0.12653077400E+03 -0.17013283087E+03 -0.21012440763E+03  0.29853803106E+03  0.41800000000E+01 0.  1.
        -11    1    1    2    0    0  0.79099192263E+02  0.13739330021E+03 -0.24708259279E+03  0.29357010886E+03  0.00000000000E+00 0. -1.
         11    1    1    2    0    0  0.36444184225E+02  0.99412122117E+02 -0.58944290361E+02  0.12118324122E+03  0.00000000000E+00 0.  1.
</event>
<event>
 7    1  0.2612321E-009  0.1175440E+03  0.7561462E-02  0.1247205E+00
          2   -1    0    0  501    0  0.00000000000E+00  0.00000000000E+00  0.77143970034E+02  0.77143970034E+02  0.00000000000E+00 0. -1.
         -2   -1    0    0    0  501 -0.00000000000E+00 -0.00000000000E+00 -0.25059780251E+03  0.25059780251E+03  0.00000000000E+00 0.  1.
         25    2    1    2    0    0 -0.61212870554E+02  0.40003405243E+02 -0.14215853343E+03  0.20298816503E+03  0.12509140084E+03 0.  0.
          5    1    3    3  502    0  0.18180287379E+02 -0.21377466992E+02  0.66852479042E+00  0.28380244354E+02  0.41800000000E+01 0. -1.
         -5    1    3    3    0  502 -0.79393157933E+02  0.61380872235E+02 -0.14282705822E+03  0.17460792068E+03  0.41800000000E+01 0. -1.
        -11    1    1    2    0    0 -0.17578589091E+02 -0.16356855853E+02 -0.34956510860E+02  0.42408857321E+02  0.00000000000E+00 0.  1.
         11    1    1    2    0    0  0.78791459645E+02 -0.23646549391E+02  0.36612118222E+01  0.82344750185E+02  0.00000000000E+00 0. -1.
</event>
<event>
 7    1  0.2612321E-009  0.1665130E+03  0.7561462E-02  0.1181534E+00
         -1   -1    0    0    0  501 -0.00000000000E+00  0.00000000000E+00  0.14497067462E+03  0.14497067462E+03  0.00000000000E+00 0.  1.
          1   -1    0    0  501    0  0.00000000000E+00 -0.00000000000E+00 -0.36368038371E+03  0.36368038371E+03  0.00000000000E+00 0. -1.
         25    2    1    2    0    0  0.25436035075E+02  0.14050246149E+03  0.44946103542E+02  0.19506712432E+03  0.12507236785E+03 0.  0.
          5    1    3    3  502    0  0.64528876448E+02  0.36435380663E+02 -0.21714076245E+01  0.74254294629E+02  0.41800000000E+01 0. -1.
         -5    1    3    3    0  502 -0.39092841373E+02  0.10406708083E+03  0.47117511167E+02  0.12081282969E+03  0.41800000000E+01 0. -1.
        -11    1    1    2    0    0 -0.20349000470E+02 -0.26354838184E+02 -0.90344540416E+01  0.34500444572E+02  0.00000000000E+00 0.  1.
         11    1    1    2    0    0 -0.50870346049E+01 -0.11414762331E+03 -0.25462135860E+03  0.27908348944E+03  0.00000000000E+00 0. -1.
</event>
<event>
 7    1  0.2612321E-009  0.1066698E+03  0.7561462E-02  0.1266864E+00
          1   -1    0    0  501    0  0.00000000000E+00  0.00000000000E+00  0.46889718278E+02  0.46889718278E+02  0.00000000000E+00 0. -1.
         -1   -1    0    0    0  501 -0.00000000000E+00 -0.00000000000E+00 -0.35193077785E+03  0.35193077785E+03  0.00000000000E+00 0.  1.
         25    2    1    2    0    0 -0.72876631482E+01  0.54202849842E+02 -0.10635485621E+03  0.17306092269E+03  0.12509064136E+03 0.  0.
          5    1    3    3  502    0 -0.99082101727E+01 -0.30089131205E+02 -0.77502882185E+02  0.83831364014E+02  0.41800000000E+01 0. -1.
         -5    1    3    3    0  502  0.26205470245E+01  0.84291981047E+02 -0.28851974030E+02  0.89229558673E+02  0.41800000000E+01 0. -1.
        -11    1    1    2    0    0  0.80570183279E+01  0.20612372580E+02 -0.13240333019E+02  0.25789375063E+02  0.00000000000E+00 0. -1.
         11    1    1    2    0    0 -0.76935517966E+00 -0.74815222422E+02 -0.18544587034E+03  0.19997019838E+03  0.00000000000E+00 0.  1.
</event>
<event>
 7    1  0.2612321E-009  0.2566764E+03  0.7561462E-02  0.1109157E+00
          2   -1    0    0  501    0  0.00000000000E+00  0.00000000000E+00  0.90592309253E+03  0.90592309253E+03  0.00000000000E+00 0. -1.
         -2   -1    0    0    0  501 -0.00000000000E+00 -0.00000000000E+00 -0.76218233302E+02  0.76218233302E+02  0.00000000000E+00 0.  1.
         25    2    1    2    0    0  0.94277960031E+02  0.21713200207E+03  0.37159611987E+03  0.45800199883E+03  0.12509002583E+03 0.  0.
          5    1    3    3  502    0  0.75470844257E+02  0.22550288891E+03  0.29692821724E+03  0.38043559223E+03  0.41800000000E+01 0. -1.
         -5    1    3    3    0  502  0.18807115774E+02 -0.83708868441E+01  0.74667902626E+02  0.77566406600E+02  0.41800000000E+01 0. -1.
        -11    1    1    2    0    0  0.28302020996E+01 -0.10954796188E+03  0.20648298842E+03  0.23376054095E+03  0.00000000000E+00 0.  1.
         11    1    1    2    0    0 -0.97108162130E+02 -0.10758404018E+03  0.25162575094E+03  0.29037878605E+03  0.00000000000E+00 0. -1.
</event>
<event>
 7    1  0.2612321E-009  0.1222634E+03  0.7561462E-02  0.1239409E+00
          1   -1    0    0  501    0  0.00000000000E+00  0.00000000000E+00  0.40200786014E+02  0.40200786014E+02  0.00000000000E+00 0. -1.
         -1   -1    0    0    0  501 -0.00000000000E+00 -0.00000000000E+00 -0.44516056999E+03  0.44516056999E+03  0.00000000000E+00 0.  1.
         25    2    1    2    0    0 -0.77276756077E+02 -0.12615771195E+02 -0.22225963152E+03  0.26679169705E+03  0.12509041170E+03 0.  0.
          5    1    3    3  502    0 -0.25664626916E+02  0.53451644065E+02 -0.12433743391E+03  0.13781517043E+03  0.41800000000E+01 0. -1.
         -5    1    3    3    0  502 -0.51612129161E+02 -0.66067415259E+02 -0.97922197610E+02  0.12897652663E+03  0.41800000000E+01 0. -1.
        -11    1    1    2    0    0  0.16351419931E+02 -0.24757161932E+02 -0.11960521281E+03  0.12323024358E+03  0.00000000000E+00 0.  1.
         11    1    1    2    0    0  0.60925336146E+02  0.37372933127E+02 -0.63094939640E+02  0.95339415371E+02  0.00000000000E+00 0. -1.
</event>
<event>
 7    1  0.2612321E-009  0.1000216E+03  0.7561462E-02  0.1280251E+00
          1   -1    0    0  501    0  0.00000000000E+00  0.00000000000E+00  0.13084222104E+03  0.13084222104E+03  0.00000000000E+00 0. -1.
         -1   -1    0    0    0  501 -0.00000000000E+00 -0.00000000000E+00 -0.13685122372E+03  0.13685122372E+03  0.00000000000E+00 0.  1.
         25    2    1    2    0    0 -0.30179886994E+02  0.23426233948E+02 -0.71397466810E+02  0.14900825882E+03  0.12508496678E+03 0.  0.
          5    1    3    3  502    0  0.41668404817E+02  0.57432560262E+01 -0.60938710522E+02  0.74163601516E+02  0.41800000000E+01 0.  1.
         -5    1    3    3    0  502 -0.71848291811E+02  0.17682977922E+02 -0.10458756288E+02  0.74844657307E+02  0.41800000000E+01 0.  1.
        -11    1    1    2    0    0 -0.14824368065E+02  0.17428881479E+02 -0.72206358202E+01  0.23993027732E+02  0.00000000000E+00 0.  1.
         11    1    1    2    0    0  0.45004255059E+02 -0.40855115427E+02  0.72609099949E+02  0.94692158204E+02  0.00000000000E+00 0. -1.
</event>
<event>
 7    1  0.2612321E-009  0.9179875E+02  0.7561462E-02  0.1298553E+00
          2   -1    0    0  501    0  0.00000000000E+00  0.00000000000E+00  0.22622853389E+03  0.22622853389E+03  0.00000000000E+00 0.  1.
         -2   -1    0    0    0  501 -0.00000000000E+00 -0.00000000000E+00 -0.66019505035E+02  0.66019505035E+02  0.00000000000E+00 0. -1.
         25    2    1    2    0    0 -0.23891338028E+02 -0.87016822422E+01  0.29429277147E+02  0.13099723132E+03  0.12509067492E+03 0.  0.
          5    1    3    3  502    0  0.30898846354E+02 -0.16834600506E+02 -0.32305410376E+02  0.47950541392E+02  0.41800000000E+01 0.  1.
         -5    1    3    3    0  502 -0.54790184383E+02  0.81329182638E+01  0.61734687523E+02  0.83046689926E+02  0.41800000000E+01 0.  1.
        -11    1    1    2    0    0  0.33617240088E+02  0.44357098625E+02  0.63106959909E+02  0.84143683176E+02  0.00000000000E+00 0.  1.
         11    1    1    2    0    0 -0.97259020597E+01 -0.35655416382E+02  0.67672791803E+02  0.77107124436E+02  0.00000000000E+00 0. -1.
</event>
<event>
 7    1  0.2612321E-009  0.1505787E+03  0.7561462E-02  0.1199764E+00
         -2   -1    0    0    0  501 -0.00000000000E+00  0.00000000000E+00  0.68225114874E+02  0.68225114874E+02  0.00000000000E+00 0.  1.
          2   -1    0    0  501    0  0.00000000000E+00 -0.00000000000E+00 -0.97283891321E+03  0.97283891321E+03  0.00000000000E+00 0. -1.
         25    2    1    2    0    0  0.12716685751E+03 -0.62695346839E+02 -0.83981048419E+03  0.86083168553E+03  0.12508966905E+03 0.  0.
          5    1    3    3  502    0  0.82356295986E+02 -0.33346667431E+02 -0.20144699494E+03  0.22021108939E+03  0.41800000000E+01 0. -1.
         -5    1    3    3    0  502  0.44810561522E+02 -0.29348679408E+02 -0.63836348924E+03  0.64062059615E+03  0.41800000000E+01 0. -1.
        -11    1    1    2    0    0 -0.66395643742E+02  0.70924708296E+02 -0.94356750883E+01  0.97610080008E+02  0.00000000000E+00 0.  1.
         11    1    1    2    0    0 -0.60771213766E+02 -0.82293614570E+01 -0.55367639061E+02  0.82622262543E+02  0.00000000000E+00 0. -1.
</event>
<event>
 7    1  0.2612321E-009  0.7652888E+02  0.7561462E-02  0.1339201E+00
          2   -1    0    0  501    0  0.00000000000E+00  0.00000000000E+00  0.11351541174E+03  0.11351541174E+03  0.00000000000E+00 0. -1.
         -2   -1    0    0    0  501 -0.00000000000E+00 -0.00000000000E+00 -0.15180455498E+03  0.15180455498E+03  0.00000000000E+00 0.  1.
         25    2    1    2    0    0  0.54852936900E+02  0.45449148903E+02 -0.65345475770E+01  0.14410160733E+03  0.12509237827E+03 0.  0.
          5    1    3    3  502    0  0.17204298533E+02  0.36325050407E+02  0.56820158807E+02  0.69724457846E+02  0.41800000000E+01 0. -1.
         -5    1    3    3    0  502  0.37648638367E+02  0.91240984960E+01 -0.63354706384E+02  0.74377149483E+02  0.41800000000E+01 0. -1.
        -11    1    1    2    0    0 -0.48712376905E+01 -0.13529761170E+02 -0.55503045696E+02  0.57335603908E+02  0.00000000000E+00 0.  1.
         11    1    1    2    0    0 -0.49981699209E+02 -0.31919387733E+02  0.23748450039E+02  0.63882755485E+02  0.00000000000E+00 0. -1.
</event>
<event>
 7    1  0.2612321E-009  0.7879219E+02  0.7561462E-02  0.1332514E+00
          2   -1    0    0  501    0  0.00000000000E+00  0.00000000000E+00  0.47277654205E+03  0.47277654205E+03  0.00000000000E+00 0. -1.
         -2   -1    0    0    0  501 -0.00000000000E+00 -0.00000000000E+00 -0.25612104217E+02  0.25612104217E+02  0.00000000000E+00 0.  1.
         25    2    1    2    0    0 -0.10865960249E+02  0.15042427956E+02  0.24522303809E+03  0.27591014456E+03  0.12509086990E+03 0.  0.
          5    1    3    3  502    0 -0.32885321683E+02 -0.17309563924E+02  0.23108392423E+03  0.23409040524E+03  0.41800000000E+01 0.  1.
         -5    1    3    3    0  502  0.22019361434E+02  0.32351991880E+02  0.14139113854E+02  0.41819739324E+02  0.41800000000E+01 0.  1.
        -11    1    1    2    0    0  0.49387528035E+01 -0.47540400499E+02  0.59826278532E+02  0.76574568637E+02  0.00000000000E+00 0.  1.
         11    1    1    2    0    0  0.59272074453E+01  0.32497972543E+02  0.14211512122E+03  0.14590393307E+03  0.00000000000E+00 0. -1.
</event>
<event>
 7    1  0.2612321E-009  0.1179658E+03  0.7561462E-02  0.1246491E+00
         -2   -1    0    0    0  501 -0.00000000000E+00  0.00000000000E+00  0.77011863027E+02  0.77011863027E+02  0.00000000000E+00 0.  1.
          2   -1    0    0  501    0  0.00000000000E+00 -0.00000000000E+00 -0.28155129375E+03  0.28155129375E+03  0.00000000000E+00 0. -1.
         25    2    1    2    0    0  0.50832575960E+02  0.83893006987E+02 -0.12300764482E+03  0.20099559928E+03  0.12508542218E+03 0.  0.
          5    1    3    3  502    0  0.75962239215E+02  0.73241986320E+02 -0.39013983443E+02  0.11257981014E+03  0.41800000000E+01 0.  1.
         -5    1    3    3    0  502 -0.25129663255E+02  0.10651020667E+02 -0.83993661382E+02  0.88415789138E+02  0.41800000000E+01 0.  1.
        -11    1    1    2    0    0 -0.21201741210E+02 -0.10691740505E+02  0.18513800597E+02  0.30109599099E+02  0.00000000000E+00 0.  1.
         11    1    1    2    0    0 -0.29630834750E+02 -0.73201266482E+02 -0.10004558649E+03  0.12745795840E+03  0.00000000000E+00 0. -1.
</event>
<event>
 7    1  0.2612321E-009  0.1460152E+03  0.7561462E-02  0.1205457E+00
         -1   -1    0    0    0  501 -0.00000000000E+00  0.00000000000E+00  0.17444683094E+03  0.17444683094E+03  0.00000000000E+00 0.  1.
          1   -1    0    0  501    0  0.00000000000E+00 -0.00000000000E+00 -0.18432204587E+03  0.18432204587E+03  0.00000000000E+00 0. -1.
         25    2    1    2    0    0 -0.54038358428E+02  0.10989753966E+03  0.68136485295E+02  0.18785097405E+03  0.12509114444E+03 0.  0.
          5    1    3    3  502    0  0.16808316597E+02  0.18669687856E+02  0.67631852589E+02  0.72267673520E+02  0.41800000000E+01 0.  1.
         -5    1    3    3    0  502 -0.70846675024E+02  0.91227851802E+02  0.50463270661E+00  0.11558330053E+03  0.41800000000E+01 0.  1.
        -11    1    1    2    0    0  0.22041663426E+02 -0.11628324087E+03 -0.52382063453E+02  0.12942761532E+03  0.00000000000E+00 0.  1.
         11    1    1    2    0    0  0.31996695001E+02  0.63857012155E+01 -0.25629636775E+02  0.41490287445E+02  0.00000000000E+00 0. -1.
</event>
<event>
 7    1  0.2612321E-009  0.1636292E+03  0.7561462E-02  0.1184659E+00
         -2   -1    0    0    0  501 -0.00000000000E+00  0.00000000000E+00  0.58517338928E+02  0.58517338928E+02  0.00000000000E+00 0.  1.
          2   -1    0    0  501    0  0.00000000000E+00 -0.00000000000E+00 -0.67498800854E+03  0.67498800854E+03  0.00000000000E+00 0. -1.
         25    2    1    2    0    0 -0.12481125926E+03  0.87518509995E+02 -0.45069579283E+03  0.49194697910E+03  0.12509113694E+03 0.  0.
          5    1    3    3  502    0 -0.79724270547E+02  0.60199385119E+02 -0.11619985762E+03  0.15329645982E+03  0.41800000000E+01 0.  1.
         -5    1    3    3    0  502 -0.45086988711E+02  0.27319124876E+02 -0.33449593521E+03  0.33865051928E+03  0.41800000000E+01 0.  1.
        -11    1    1    2    0    0  0.67496301381E+02 -0.95053357380E+02 -0.12427066994E+03  0.17039392846E+03  0.00000000000E+00 0.  1.
         11    1    1    2    0    0  0.57314957878E+02  0.75348473854E+01 -0.41504206845E+02  0.71164439908E+02  0.00000000000E+00 0. -1.
</event>
<event>
 7    1  0.2612321E-009  0.8182501E+02  0.7561462E-02  0.1323951E+00
          3   -1    0    0  501    0  0.00000000000E+00  0.00000000000E+00  0.16689317526E+03  0.16689317526E+03  0.00000000000E+00 0.  1.
         -3   -1    0    0    0  501 -0.00000000000E+00 -0.00000000000E+00 -0.10081071634E+03  0.10081071634E+03  0.00000000000E+00 0. -1.
         25    2    1    2    0    0 -0.26256100337E+02  0.18291626148E+02  0.10170176222E+03  0.16440587895E+03  0.12514822493E+03 0.  0.
          5    1    3    3  502    0 -0.63460572577E+02  0.31786237701E+02  0.10232898274E+03  0.12460458373E+03  0.41800000000E+01 0.  1.
         -5    1    3    3    0  502  0.37204472240E+02 -0.13494611554E+02 -0.62722051294E+00  0.39801295220E+02  0.41800000000E+01 0.  1.
        -11    1    1    2    0    0  0.19737372928E+02 -0.31987343805E+02 -0.62211317153E+02  0.72684262641E+02  0.00000000000E+00 0. -1.
         11    1    1    2    0    0  0.65187274091E+01  0.13695717658E+02  0.26592013848E+02  0.30613750010E+02  0.00000000000E+00 0.  1.
</event>
<event>
 7    1  0.2612321E-009  0.1036067E+03  0.7561462E-02  0.1272889E+00
         -2   -1    0    0    0  501 -0.00000000000E+00  0.00000000000E+00  0.28747097379E+03  0.28747097379E+03  0.00000000000E+00 0.  1.
          2   -1    0    0  501    0  0.00000000000E+00 -0.00000000000E+00 -0.46077134266E+02  0.46077134266E+02  0.00000000000E+00 0. -1.
         25    2    1    2    0    0 -0.12651659367E+02  0.62271319907E+02  0.16311569056E+03  0.21515693271E+03  0.12509194786E+03 0.  0.
          5    1    3    3  502    0 -0.51995896606E+02  0.73234126705E+02  0.14424085080E+03  0.16996972089E+03  0.41800000000E+01 0.  1.
         -5    1    3    3    0  502  0.39344237239E+02 -0.10962806797E+02  0.18874839758E+02  0.45187211827E+02  0.41800000000E+01 0.  1.
        -11    1    1    2    0    0  0.19267077429E+02 -0.68787769534E+01 -0.20838356921E+01  0.20564051552E+02  0.00000000000E+00 0. -1.
         11    1    1    2    0    0 -0.66154180629E+01 -0.55392542954E+02  0.80361984654E+02  0.97827123788E+02  0.00000000000E+00 0.  1.
</event>
<event>
 7    1  0.2612321E-009  0.1007952E+03  0.7561462E-02  0.1278633E+00
         -1   -1    0    0    0  501 -0.00000000000E+00  0.00000000000E+00  0.17375083534E+03  0.17375083534E+03  0.00000000000E+00 0.  1.
          1   -1    0    0  501    0  0.00000000000E+00 -0.00000000000E+00 -0.81954388278E+02  0.81954388278E+02  0.00000000000E+00 0. -1.
         25    2    1    2    0    0  0.21241168215E+02 -0.16856857994E+02  0.65233925438E+01  0.12815886562E+03  0.12508716680E+03 0.  0.
          5    1    3    3  502    0 -0.33767316515E+02 -0.48720995967E+02  0.20634846802E+02  0.62906568935E+02  0.41800000000E+01 0.  1.
         -5    1    3    3    0  502  0.55008484730E+02  0.31864137973E+02 -0.14111454258E+02  0.65252296683E+02  0.41800000000E+01 0.  1.
        -11    1    1    2    0    0  0.26842803903E+02  0.14032695786E+02  0.71185490451E+02  0.77361661844E+02  0.00000000000E+00 0.  1.
         11    1    1    2    0    0 -0.48083972118E+02  0.28241622073E+01  0.14087564063E+02  0.50184696154E+02  0.00000000000E+00 0. -1.
</event>
<event>
 7    1  0.2612321E-009  0.1193469E+03  0.7561462E-02  0.1244178E+00
          4   -1    0    0  501    0  0.00000000000E+00  0.00000000000E+00  0.68762923166E+03  0.68762923166E+03  0.00000000000E+00 0. -1.
         -4   -1    0    0    0  501 -0.00000000000E+00 -0.00000000000E+00 -0.21896925584E+02  0.21896925584E+02  0.00000000000E+00 0.  1.
         25    2    1    2    0    0 -0.51945584855E+02 -0.13170138446E+02  0.31356749016E+03  0.34182462258E+03  0.12509078855E+03 0.  0.
          5    1    3    3  502    0 -0.90554887543E+02 -0.22139885226E+02  0.18470685767E+03  0.20694071095E+03  0.41800000000E+01 0. -1.
         -5    1    3    3    0  502  0.38609302688E+02  0.89697467807E+01  0.12886063249E+03  0.13488391163E+03  0.41800000000E+01 0. -1.
        -11    1    1    2    0    0  0.28673135395E+02  0.52500820790E+02  0.21169247728E+03  0.21998224886E+03  0.00000000000E+00 0. -1.
         11    1    1    2    0    0  0.23272449460E+02 -0.39330682344E+02  0.14047233863E+03  0.14771928580E+03  0.00000000000E+00 0.  1.
</event>
<event>
 7    1  0.2612321E-009  0.1012013E+03  0.7561462E-02  0.1277790E+00
         -2   -1    0    0    0  501 -0.00000000000E+00  0.00000000000E+00  0.69757055155E+02  0.69757055155E+02  0.00000000000E+00 0. -1.
          2   -1    0    0  501    0  0.00000000000E+00 -0.00000000000E+00 -0.20590089722E+03  0.20590089722E+03  0.00000000000E+00 0.  1.
         25    2    1    2    0    0 -0.36562261225E+02 -0.36970044491E+02 -0.82702234395E+02  0.15871604399E+03  0.12509012715E+03 0.  0.
          5    1    3    3  502    0 -0.28190543618E+02  0.43283806618E+02 -0.48497721958E+02  0.70976729284E+02  0.41800000000E+01 0. -1.
         -5    1    3    3    0  502 -0.83717176068E+01 -0.80253851109E+02 -0.34204512438E+02  0.87739314703E+02  0.41800000000E+01 0. -1.
        -11    1    1    2    0    0  0.42322934210E+02  0.11766505738E+02  0.12865053292E+02  0.45773256533E+02  0.00000000000E+00 0. -1.
         11    1    1    2    0    0 -0.57606729850E+01  0.25203538753E+02 -0.66306660966E+02  0.71168651859E+02  0.00000000000E+00 0.  1.
</event>
<event>
 7    1  0.2612321E-009  0.1083948E+03  0.7561462E-02  0.1263572E+00
         -1   -1    0    0    0  501 -0.00000000000E+00  0.00000000000E+00  0.64308428085E+02  0.64308428085E+02  0.00000000000E+00 0.  1.
          1   -1    0    0  501    0  0.00000000000E+00 -0.00000000000E+00 -0.33251964994E+03  0.33251964994E+03  0.00000000000E+00 0. -1.
         25    2    1    2    0    0 -0.39461134457E+02 -0.85493497206E+02 -0.17584756676E+03  0.23544882105E+03  0.12508981334E+03 0.  0.
          5    1    3    3  502    0  0.14111815876E+02 -0.95440151770E+01  0.15032987692E+02  0.23101833087E+02  0.41800000000E+01 0. -1.
         -5    1    3    3    0  502 -0.53572950333E+02 -0.75949482029E+02 -0.19088055446E+03  0.21234698796E+03  0.41800000000E+01 0. -1.
        -11    1    1    2    0    0 -0.10095045196E+02  0.30770652170E+02  0.11137421611E+02  0.34245950602E+02  0.00000000000E+00 0.  1.
         11    1    1    2    0    0  0.49556179653E+02  0.54722845036E+02 -0.10350107670E+03  0.12713330637E+03  0.00000000000E+00 0. -1.
</event>
<event>
 7    1  0.2612321E-009  0.1303634E+03  0.7561462E-02  0.1226918E+00
          2   -1    0    0  501    0  0.00000000000E+00  0.00000000000E+00  0.25633331174E+03  0.25633331174E+03  0.00000000000E+00 0. -1.
         -2   -1    0    0    0  501 -0.00000000000E+00 -0.00000000000E+00 -0.85447153445E+02  0.85447153445E+02  0.00000000000E+00 0.  1.
         25    2    1    2    0    0 -0.94473487024E+02  0.14275720219E+02  0.12827092780E+03  0.20304986069E+03  0.12508708594E+03 0.  0.
          5    1    3    3  502    0  0.50426188320E+01 -0.38274007267E+02  0.10771031881E+02  0.40296589989E+02  0.41800000000E+01 0.  1.
         -5    1    3    3    0  502 -0.99516105856E+02  0.52549727486E+02  0.11749989592E+03  0.16275327070E+03  0.41800000000E+01 0.  1.
        -11    1    1    2    0    0  0.81808899773E+02 -0.31703180646E+02 -0.35260469501E+01  0.87807862702E+02  0.00000000000E+00 0.  1.
         11    1    1    2    0    0  0.12664587251E+02  0.17427460427E+02  0.46141277449E+02  0.50922741794E+02  0.00000000000E+00 0. -1.
</event>
<event>
 7    1  0.2612321E-009  0.1085236E+03  0.7561462E-02  0.1263329E+00
         -1   -1    0    0    0  501 -0.00000000000E+00  0.00000000000E+00  0.44083360897E+02  0.44083360897E+02  0.00000000000E+00 0.  1.
          1   -1    0    0  501    0  0.00000000000E+00 -0.00000000000E+00 -0.52881511649E+03  0.52881511649E+03  0.00000000000E+00 0. -1.
         25    2    1    2    0    0 -0.17586327650E+02  0.84238911569E+02 -0.38198353110E+03  0.41104414060E+03  0.12506156222E+03 0.  0.
          5    1    3    3  502    0  0.69589394170E+01 -0.19996919691E+02 -0.97346096411E+01  0.23675697662E+02  0.41800000000E+01 0. -1.
         -5    1    3    3    0  502 -0.24545267067E+02  0.10423583126E+03 -0.37224892146E+03  0.38736844293E+03  0.41800000000E+01 0. -1.
        -11    1    1    2    0    0  0.90041914345E+01 -0.95830254996E+01  0.16379605059E+02  0.21004792382E+02  0.00000000000E+00 0.  1.
         11    1    1    2    0    0  0.85821362152E+01 -0.74655886070E+02 -0.11912782956E+03  0.14084954441E+03  0.00000000000E+00 0. -1.
</event>
<event>
 7    1  0.3231100E-009  0.1046808E+03  0.7561462E-02  0.1270750E+00
         -2   -1    0    0    0  501 -0.00000000000E+00  0.00000000000E+00  0.37394088165E+02  0.37394088165E+02  0.00000000000E+00 0.  1.
          2   -1    0    0  501    0  0.00000000000E+00 -0.00000000000E+00 -0.58498183760E+03  0.58498183760E+03  0.00000000000E+00 0. -1.
         25    2    1    2    0    0 -0.38123250443E+02 -0.51194430203E+02 -0.45851648852E+03  0.47954216983E+03  0.12509624494E+03 0.  0.
          5    1    3    3  502    0  0.17105699840E+02 -0.77244339382E+02 -0.26098091531E+03  0.27274127573E+03  0.41800000000E+01 0.  1.
         -5    1    3    3    0  502 -0.55228950284E+02  0.26049909179E+02 -0.19753557321E+03  0.20680089410E+03  0.41800000000E+01 0.  1.
        -11    1    1    2    0    0  0.17815591683E+02  0.50568626129E+01 -0.90528771068E+02  0.92403601432E+02  0.00000000000E+00 0. -1.
         11    1    1    2    0    0  0.20307658760E+02  0.46137567591E+02  0.14575101462E+01  0.50430154504E+02  0.00000000000E+00 0.  1.
</event>
<event>
 7    1  0.2612321E-009  0.7992419E+02  0.7561462E-02  0.1329267E+00
          1   -1    0    0  501    0  0.00000000000E+00  0.00000000000E+00  0.34657475517E+03  0.34657475517E+03  0.00000000000E+00 0. -1.
         -1   -1    0    0    0  501 -0.00000000000E+00 -0.00000000000E+00 -0.34772294326E+02  0.34772294326E+02  0.00000000000E+00 0.  1.
         25    2    1    2    0    0 -0.39470935005E+01 -0.26905850488E+01  0.14512106590E+03  0.19166690746E+03  0.12511299234E+03 0.  0.
          5    1    3    3  502    0  0.40924099734E+02 -0.19097173254E+02  0.75524511379E+01  0.45978210965E+02  0.41800000000E+01 0. -1.
         -5    1    3    3    0  502 -0.44871193235E+02  0.16406588205E+02  0.13756861476E+03  0.14568869649E+03  0.41800000000E+01 0. -1.
        -11    1    1    2    0    0  0.34329312299E+02  0.90343792409E+01  0.22123608642E+02  0.41827930269E+02  0.00000000000E+00 0.  1.
         11    1    1    2    0    0 -0.30382218799E+02 -0.63437941921E+01  0.14455778630E+03  0.14785221177E+03  0.00000000000E+00 0. -1.
</event>
<event>
 7    1  0.2612321E-009  0.5712244E+02  0.7561462E-02  0.1410320E+00
         -1   -1    0    0    0  501 -0.00000000000E+00  0.00000000000E+00  0.86568566372E+01  0.86568566372E+01  0.00000000000E+00 0.  1.
          1   -1    0    0  501    0  0.00000000000E+00 -0.00000000000E+00 -0.11719913826E+04  0.11719913826E+04  0.00000000000E+00 0. -1.
         25    2    1    2    0    0  0.20022473779E+02 -0.77801798514E+01 -0.10414005672E+04  0.10491063141E+04  0.12508991322E+03 0.  0.
          5    1    3    3  502    0 -0.15446845264E+02 -0.21773048961E+02 -0.94454919251E+03  0.94493561694E+03  0.41800000000E+01 0. -1.
         -5    1    3    3    0  502  0.35469319043E+02  0.13992869110E+02 -0.96851374649E+02  0.10417069718E+03  0.41800000000E+01 0. -1.
        -11    1    1    2    0    0  0.32281510577E+01  0.21585329773E+02 -0.63725507546E+02  0.67359392312E+02  0.00000000000E+00 0. -1.
         11    1    1    2    0    0 -0.23250624836E+02 -0.13805149922E+02 -0.58208451256E+02  0.64182532805E+02  0.00000000000E+00 0.  1.
</event>
<event>
 7    1  0.2777437E-009  0.1439853E+03  0.7561462E-02  0.1208065E+00
          2   -1    0    0  501    0  0.00000000000E+00  0.00000000000E+00  0.32838816130E+03  0.32838816130E+03  0.00000000000E+00 0.  1.
         -2   -1    0    0    0  501 -0.00000000000E+00 -0.00000000000E+00 -0.83616861599E+02  0.83616861599E+02  0.00000000000E+00 0. -1.
         25    2    1    2    0    0 -0.11469038126E+02 -0.12196922233E+03  0.10176841255E+03  0.20251284806E+03  0.12508642535E+03 0.  0.
          5    1    3    3  502    0 -0.21253718368E+02 -0.12223213619E+02 -0.24477287658E+02  0.34896095867E+02  0.41800000000E+01 0. -1.
         -5    1    3    3    0  502  0.97846802417E+01 -0.10974600871E+03  0.12624570021E+03  0.16761675220E+03  0.41800000000E+01 0. -1.
        -11    1    1    2    0    0  0.47889365655E+02  0.98462312801E+02  0.96907034776E+02  0.14621625003E+03  0.00000000000E+00 0.  1.
         11    1    1    2    0    0 -0.36420327528E+02  0.23506909533E+02  0.46095852371E+02  0.63275924797E+02  0.00000000000E+00 0. -1.
</event>
<event>
 7    1  0.2612321E-009  0.1500944E+03  0.7561462E-02  0.1200357E+00
          2   -1    0    0  501    0  0.00000000000E+00  0.00000000000E+00  0.45429730468E+03  0.45429730468E+03  0.00000000000E+00 0. -1.
         -2   -1    0    0    0  501 -0.00000000000E+00 -0.00000000000E+00 -0.55177710223E+02  0.55177710223E+02  0.00000000000E+00 0.  1.
         25    2    1    2    0    0 -0.55031297105E+02  0.99257809438E+02  0.24362237561E+03  0.29644172908E+03  0.12508109549E+03 0.  0.
          5    1    3    3  502    0 -0.19290140874E+02  0.12069234806E+03  0.14760115669E+03  0.19168287944E+03  0.41800000000E+01 0. -1.
         -5    1    3    3    0  502 -0.35741156231E+02 -0.21434538623E+02  0.96021218923E+02  0.10475884964E+03  0.41800000000E+01 0. -1.
        -11    1    1    2    0    0  0.74007704211E+02 -0.78823925701E+02  0.86011104475E+02  0.13816027518E+03  0.00000000000E+00 0.  1.
         11    1    1    2    0    0 -0.18976407106E+02 -0.20433883737E+02  0.69486114373E+02  0.74873010638E+02  0.00000000000E+00 0. -1.
</event>
<event>
 7    1  0.2612321E-009  0.1106841E+03  0.7561462E-02  0.1259308E+00
          1   -1    0    0  501    0  0.00000000000E+00  0.00000000000E+00  0.35276927130E+03  0.35276927130E+03  0.00000000000E+00 0. -1.
         -1   -1    0    0    0  501 -0.00000000000E+00 -0.00000000000E+00 -0.36013239682E+02  0.36013239682E+02  0.00000000000E+00 0.  1.
         25    2    1    2    0    0 -0.25479494469E+02  0.23793294857E+02  0.16946306589E+03  0.21349634365E+03  0.12509049738E+03 0.  0.
          5    1    3    3  502    0 -0.70179042825E+02  0.37248304088E+02  0.12908385712E+03  0.15163327068E+03  0.41800000000E+01 0. -1.
         -5    1    3    3    0  502  0.44699548356E+02 -0.13455009230E+02  0.40379208769E+02  0.61863072971E+02  0.41800000000E+01 0. -1.
        -11    1    1    2    0    0 -0.45644020169E+01 -0.52906950176E+02  0.78646287542E+02  0.94895825445E+02  0.00000000000E+00 0.  1.
         11    1    1    2    0    0  0.30043896486E+02  0.29113655318E+02  0.68646678188E+02  0.80390341884E+02  0.00000000000E+00 0. -1.
</event>
<event>
 7    1  0.2612321E-009  0.1320113E+03  0.7561462E-02  0.1224501E+00
          2   -1    0    0  501    0  0.00000000000E+00  0.00000000000E+00  0.28499178058E+03  0.28499178058E+03  0.00000000000E+00 0. -1.
         -2   -1    0    0    0  501 -0.00000000000E+00 -0.00000000000E+00 -0.67844779718E+02  0.67844779718E+02  0.00000000000E+00 0.  1.
         25    2    1    2    0    0 -0.73303094069E+02 -0.32748765170E+02  0.78639292663E+02  0.16816170257E+03  0.12509354356E+03 0.  0.
          5    1    3    3  502    0 -0.62063039232E+02  0.36423646181E+02  0.15476928669E+02  0.73725915124E+02  0.41800000000E+01 0.  1.
         -5    1    3    3    0  502 -0.11240054837E+02 -0.69172411350E+02  0.63162363994E+02  0.94435787443E+02  0.41800000000E+01 0.  1.
        -11    1    1    2    0    0  0.68925409238E+02 -0.17647848803E+02  0.88359287592E+02  0.11344391702E+03  0.00000000000E+00 0.  1.
         11    1    1    2    0    0  0.43776848312E+01  0.50396613973E+02  0.50148420606E+02  0.71230940704E+02  0.00000000000E+00 0. -1.
</event>
<event>
 7    1  0.2612321E-009  0.1312943E+03  0.7561462E-02  0.1225548E+00
          2   -1    0    0  501    0  0.00000000000E+00  0.00000000000E+00  0.44601769328E+03  0.44601769328E+03  0.00000000000E+00 0. -1.
         -2   -1    0    0    0  501 -0.00000000000E+00 -0.00000000000E+00 -0.53385008822E+02  0.53385008822E+02  0.00000000000E+00 0.  1.
         25    2    1    2    0    0  0.64528154501E+02 -0.69957008459E+02  0.29946665120E+03  0.33821052410E+03  0.12509283623E+03 0.  0.
          5    1    3    3  502    0 -0.31284332466E+02 -0.45494916592E+01  0.26067224357E+02  0.41187132916E+02  0.41800000000E+01 0. -1.
         -5    1    3    3    0  502  0.95812486967E+02 -0.65407516800E+02  0.27339942684E+03  0.29702339118E+03  0.41800000000E+01 0. -1.
        -11    1    1    2    0    0 -0.77658685022E+02  0.59817930038E+02  0.40653394033E+02  0.10612141424E+03  0.00000000000E+00 0.  1.
         11    1    1    2    0    0  0.13130530522E+02  0.10139078421E+02  0.52512639221E+02  0.55070763759E+02  0.00000000000E+00 0. -1.
</event>
<event>
 7    1  0.2612321E-009  0.1248570E+03  0.7561462E-02  0.1235293E+00
          2   -1    0    0  501    0  0.00000000000E+00  0.00000000000E+00  0.21602044547E+03  0.21602044547E+03  0.00000000000E+00 0. -1.
         -2   -1    0    0    0  501 -0.00000000000E+00 -0.00000000000E+00 -0.14810174376E+03  0.14810174376E+03  0.00000000000E+00 0.  1.
         25    2    1    2    0    0 -0.36225119815E+02  0.85579260555E+02 -0.72183271341E+02  0.17173863841E+03  0.12509063162E+03 0.  0.
          5    1    3    3  502    0 -0.79810913493E+02  0.40694214565E+02 -0.59883164362E+02  0.10783907819E+03  0.41800000000E+01 0.  1.
         -5    1    3    3    0  502  0.43585793678E+02  0.44885045990E+02 -0.12300106979E+02  0.63899560216E+02  0.41800000000E+01 0.  1.
        -11    1    1    2    0    0 -0.24826826661E+01 -0.26990893588E+02 -0.81824323751E+01  0.28312969634E+02  0.00000000000E+00 0.  1.
         11    1    1    2    0    0  0.38707802481E+02 -0.58588366967E+02  0.14828440542E+03  0.16407058118E+03  0.00000000000E+00 0. -1.
</event>
<event>
 7    1  0.2612321E-009  0.5808482E+02  0.7561462E-02  0.1406049E+00
         -1   -1    0    0    0  501 -0.00000000000E+00  0.00000000000E+00  0.11617196641E+03  0.11617196641E+03  0.00000000000E+00 0. -1.
          1   -1    0    0  501    0  0.00000000000E+00 -0.00000000000E+00 -0.14472387921E+03  0.14472387921E+03  0.00000000000E+00 0.  1.
         25    2    1    2    0    0 -0.53551062660E+02 -0.94952019942E+00 -0.35544882979E+02  0.14063914346E+03  0.12508921643E+03 0.  0.
          5    1    3    3  502    0 -0.19114591218E+02  0.24314770296E+01 -0.80996864197E+02  0.83362126219E+02  0.41800000000E+01 0.  1.
         -5    1    3    3    0  502 -0.34436471442E+02 -0.33809972291E+01  0.45451981217E+02  0.57277017242E+02  0.41800000000E+01 0.  1.
        -11    1    1    2    0    0  0.30823015266E+01 -0.95627941871E+01 -0.45551300774E+02  0.46646206894E+02  0.00000000000E+00 0.  1.
         11    1    1    2    0    0  0.50468761133E+02  0.10512314386E+02  0.52544270950E+02  0.73610495269E+02  0.00000000000E+00 0. -1.
</event>
<event>
 7    1  0.2612321E-009  0.1129956E+03  0.7561462E-02  0.1255121E+00
          2   -1    0    0  501    0  0.00000000000E+00  0.00000000000E+00  0.47726814131E+03  0.47726814131E+03  0.00000000000E+00 0. -1.
         -2   -1    0    0    0  501 -0.00000000000E+00 -0.00000000000E+00 -0.52592825107E+02  0.52592825107E+02  0.00000000000E+00 0.  1.
         25    2    1    2    0    0 -0.47392613024E+02  0.46279613528E+02  0.35326153555E+03  0.38056500218E+03  0.12509254967E+03 0.  0.
          5    1    3    3  502    0 -0.14055670584E+02  0.80408387979E+02  0.28952436064E+03  0.30084032066E+03  0.41800000000E+01 0.  1.
         -5    1    3    3    0  502 -0.33336942440E+02 -0.34128774451E+02  0.63737174918E+02  0.79724681519E+02  0.41800000000E+01 0.  1.
        -11    1    1    2    0    0 -0.15298780478E+02 -0.26549938524E+02 -0.20085879699E+02  0.36638701983E+02  0.00000000000E+00 0.  1.
         11    1    1    2    0    0  0.62691393502E+02 -0.19729675005E+02  0.91499660347E+02  0.11265726225E+03  0.00000000000E+00 0. -1.
</event>
<event>
 7    1  0.2612321E-009  0.9745906E+02  0.7561462E-02  0.1285732E+00
          2   -1    0    0  501    0  0.00000000000E+00  0.00000000000E+00  0.23449279638E+03  0.23449279638E+03  0.00000000000E+00 0. -1.
         -2   -1    0    0    0  501 -0.00000000000E+00 -0.00000000000E+00 -0.63804048375E+02  0.63804048375E+02  0.00000000000E+00 0.  1.
         25    2    1    2    0    0 -0.10600474872E+02 -0.45103616160E+02  0.66039047692E+02  0.14885929640E+03  0.12510486819E+03 0.  0.
          5    1    3    3  502    0  0.26896137695E+02 -0.44770412691E+02  0.90016412836E+02  0.10415478412E+03  0.41800000000E+01 0.  1.
         -5    1    3    3    0  502 -0.37496612566E+02 -0.33320346914E+00 -0.23977365145E+02  0.44704512276E+02  0.41800000000E+01 0.  1.
        -11    1    1    2    0    0 -0.39559190977E+02  0.36646449416E+02  0.39820647141E+02  0.67034138946E+02  0.00000000000E+00 0. -1.
         11    1    1    2    0    0  0.50159665848E+02  0.84571667440E+01  0.64829053172E+02  0.82403409411E+02  0.00000000000E+00 0.  1.
</event>
<event>
 7    1  0.2612321E-009  0.1367207E+03  0.7561462E-02  0.1217811E+00
          2   -1    0    0  501    0  0.00000000000E+00  0.00000000000E+00  0.94367267418E+03  0.94367267418E+03  0.00000000000E+00 0.  1.
         -2   -1    0    0    0  501 -0.00000000000E+00 -0.00000000000E+00 -0.42887090501E+02  0.42887090501E+02  0.00000000000E+00 0. -1.
         25    2    1    2    0    0  0.10147449340E+03  0.66169664312E+02  0.76012273815E+03  0.77981367159E+03  0.12508912048E+03 0.  0.
          5    1    3    3  502    0  0.56874065230E+02  0.84002273232E+02  0.29068259295E+03  0.30790401661E+03  0.41800000000E+01 0. -1.
         -5    1    3    3    0  502  0.44600428169E+02 -0.17832608920E+02  0.46944014520E+03  0.47190965498E+03  0.41800000000E+01 0. -1.
        -11    1    1    2    0    0 -0.24735216189E+02 -0.29934147262E+02  0.10976649383E+03  0.11643267265E+03  0.00000000000E+00 0.  1.
         11    1    1    2    0    0 -0.76739277210E+02 -0.36235517050E+02  0.30896351691E+02  0.90313420433E+02  0.00000000000E+00 0. -1.
</event>
<event>
 7    1  0.2612321E-009  0.3538895E+03  0.7561462E-02  0.1061030E+00
          1   -1    0    0  501    0  0.00000000000E+00  0.00000000000E+00  0.86893840806E+03  0.86893840806E+03  0.00000000000E+00 0. -1.
         -1   -1    0    0    0  501 -0.00000000000E+00 -0.00000000000E+00 -0.15978853299E+03  0.15978853299E+03  0.00000000000E+00 0.  1.
         25    2    1    2    0    0  0.21574980367E+03  0.27863886417E+03  0.29118229235E+03  0.47393965745E+03  0.12507628520E+03 0.  0.
          5    1    3    3  502    0  0.58747445959E+02  0.11082774801E+03  0.17784941264E+03  0.21767392612E+03  0.41800000000E+01 0.  1.
         -5    1    3    3    0  502  0.15700235771E+03  0.16781111616E+03  0.11333287971E+03  0.25626573134E+03  0.41800000000E+01 0.  1.
        -11    1    1    2    0    0 -0.69182843818E+02 -0.92781073546E+02  0.20966008216E+03  0.23948265812E+03  0.00000000000E+00 0. -1.
         11    1    1    2    0    0 -0.14656695985E+03 -0.18585779063E+03  0.20830750057E+03  0.31530462548E+03  0.00000000000E+00 0.  1.
</event>
<event>
 7    1  0.2612321E-009  0.8858488E+02  0.7561462E-02  0.1306315E+00
          2   -1    0    0  501    0  0.00000000000E+00  0.00000000000E+00  0.41536472970E+03  0.41536472970E+03  0.00000000000E+00 0. -1.
         -2   -1    0    0    0  501 -0.00000000000E+00 -0.00000000000E+00 -0.32486888102E+02  0.32486888102E+02  0.00000000000E+00 0.  1.
         25    2    1    2    0    0  0.32808752234E+02 -0.24823814053E+02  0.23392005294E+03  0.26843923567E+03  0.12509354946E+03 0.  0.
          5    1    3    3  502    0 -0.12188668078E+01 -0.53889120461E+02  0.21132904875E+03  0.21813519245E+03  0.41800000000E+01 0.  1.
         -5    1    3    3    0  502  0.34027619042E+02  0.29065306407E+02  0.22591004186E+02  0.50304043221E+02  0.41800000000E+01 0.  1.
        -11    1    1    2    0    0 -0.11881945064E+02 -0.23038334930E+02  0.51734473416E+01  0.26433124149E+02  0.00000000000E+00 0.  1.
         11    1    1    2    0    0 -0.20926807170E+02  0.47862148983E+02  0.14378434132E+03  0.15297925798E+03  0.00000000000E+00 0. -1.
</event>
<event>
 7    1  0.2612321E-009  0.1343084E+03  0.7561462E-02  0.1221199E+00
         -1   -1    0    0    0  501 -0.00000000000E+00  0.00000000000E+00  0.87026012528E+02  0.87026012528E+02  0.00000000000E+00 0.  1.
          1   -1    0    0  501    0  0.00000000000E+00 -0.00000000000E+00 -0.31375192464E+03  0.31375192464E+03  0.00000000000E+00 0. -1.
         25    2    1    2    0    0  0.71578612711E+02 -0.91870093612E+02 -0.59884741009E+02  0.18109958605E+03  0.12508903215E+03 0.  0.
          5    1    3    3  502    0 -0.20126119770E+02 -0.46127527482E+01  0.21858531746E+02  0.30357964276E+02  0.41800000000E+01 0.  1.
         -5    1    3    3    0  502  0.91704732481E+02 -0.87257340864E+02 -0.81743272755E+02  0.15074162177E+03  0.41800000000E+01 0.  1.
        -11    1    1    2    0    0 -0.19279350292E+02  0.50999005683E+02 -0.19200378909E+02  0.57803516144E+02  0.00000000000E+00 0.  1.
         11    1    1    2    0    0 -0.52299262419E+02  0.40871087929E+02 -0.14764079219E+03  0.16187483497E+03  0.00000000000E+00 0. -1.
</event>
<event>
 7    1  0.2612321E-009  0.1246227E+03  0.7561462E-02  0.1235660E+00
         -2   -1    0    0    0  501 -0.00000000000E+00  0.00000000000E+00  0.34975739853E+02  0.34975739853E+02  0.00000000000E+00 0.  1.
          2   -1    0    0  501    0  0.00000000000E+00 -0.00000000000E+00 -0.63659761992E+03  0.63659761992E+03  0.00000000000E+00 0. -1.
         25    2    1    2    0    0  0.42628936167E+02 -0.80246482498E+02 -0.42214439409E+03  0.44956693246E+03  0.12509121928E+03 0.  0.
          5    1    3    3  502    0  0.80169553370E+02 -0.31668872543E+02 -0.30836834464E+03  0.32021646296E+03  0.41800000000E+01 0. -1.
         -5    1    3    3    0  502 -0.37540617203E+02 -0.48577609955E+02 -0.11377604945E+03  0.12935046949E+03  0.41800000000E+01 0. -1.
        -11    1    1    2    0    0  0.92723312656E+01  0.18921865724E+02  0.42370456893E+01  0.21493387023E+02  0.00000000000E+00 0.  1.
         11    1    1    2    0    0 -0.51901267433E+02  0.61324616774E+02 -0.18371453166E+03  0.20051304029E+03  0.00000000000E+00 0. -1.
</event>
<event>
 7    1  0.2612321E-009  0.1569107E+03  0.7561462E-02  0.1192229E+00
         -2   -1    0    0    0  501 -0.00000000000E+00  0.00000000000E+00  0.42415787909E+03  0.42415787909E+03  0.00000000000E+00 0.  1.
          2   -1    0    0  501    0  0.00000000000E+00 -0.00000000000E+00 -0.82309756550E+02  0.82309756550E+02  0.00000000000E+00 0. -1.
         25    2    1    2    0    0  0.13047332304E+03 -0.62599450193E+02  0.11994294383E+03  0.22577788491E+03  0.12508942540E+03 0.  0.
          5    1    3    3  502    0  0.10128051720E+03 -0.46153105322E+02  0.11232587462E+02  0.11194416339E+03  0.41800000000E+01 0. -1.
         -5    1    3    3    0  502  0.29192805839E+02 -0.16446344871E+02  0.10871035637E+03  0.11383372152E+03  0.41800000000E+01 0. -1.
        -11    1    1    2    0    0 -0.79481217333E+02 -0.98406407882E+01  0.13253373831E+03  0.15485249081E+03  0.00000000000E+00 0.  1.
         11    1    1    2    0    0 -0.50992105709E+02  0.72440090981E+02  0.89371440396E+02  0.12583725992E+03  0.00000000000E+00 0. -1.
</event>
<event>
 7    1  0.2612321E-009  0.1103379E+03  0.7561462E-02  0.1259945E+00
         -1   -1    0    0    0  501 -0.00000000000E+00  0.00000000000E+00  0.64822608986E+03  0.64822608986E+03  0.00000000000E+00 0.  1.
          1   -1    0    0  501    0  0.00000000000E+00 -0.00000000000E+00 -0.20642657381E+02  0.20642657381E+02  0.00000000000E+00 0. -1.
         25    2    1    2    0    0  0.19178254763E+02 -0.33804297173E+02  0.31885756630E+03  0.34471465232E+03  0.12508999950E+03 0.  0.
          5    1    3    3  502    0  0.41552298894E+02  0.34434670424E+02  0.92182359721E+02  0.10689901737E+03  0.41800000000E+01 0.  1.
         -5    1    3    3    0  502 -0.22374044131E+02 -0.68238967598E+02  0.22667520658E+03  0.23781563496E+03  0.41800000000E+01 0.  1.
        -11    1    1    2    0    0 -0.34682221976E+02 -0.19023757846E+02  0.17735699042E+03  0.18171478183E+03  0.00000000000E+00 0.  1.
         11    1    1    2    0    0  0.15503967213E+02  0.52828055019E+02  0.13136887576E+03  0.14243931309E+03  0.00000000000E+00 0. -1.
</event>
<event>
 7    1  0.2612321E-009  0.9563212E+02  0.7561462E-02  0.1289759E+00
         -3   -1    0    0    0  501 -0.00000000000E+00  0.00000000000E+00  0.60556846828E+02  0.60556846828E+02  0.00000000000E+00 0.  1.
          3   -1    0    0  501    0  0.00000000000E+00 -0.00000000000E+00 -0.31391656806E+03  0.31391656806E+03  0.00000000000E+00 0. -1.
         25    2    1    2    0    0 -0.35060718303E+02 -0.74665538148E+02 -0.12160852509E+03  0.19297923419E+03  0.12509258531E+03 0.  0.
          5    1    3    3  502    0 -0.34404047106E+02 -0.10063363979E+02  0.17078414284E+02  0.39925610657E+02  0.41800000000E+01 0. -1.
         -5    1    3    3    0  502 -0.65667119616E+00 -0.64602174170E+02 -0.13868693938E+03  0.15305362354E+03  0.41800000000E+01 0. -1.
        -11    1    1    2    0    0 -0.33709598897E+01  0.35155393883E+02 -0.12006379613E+03  0.12515023064E+03  0.00000000000E+00 0. -1.
         11    1    1    2    0    0  0.38431678192E+02  0.39510144265E+02 -0.11687400017E+02  0.56343950054E+02  0.00000000000E+00 0.  1.
</event>
<event>
 7    1  0.2612321E-009  0.1599688E+03  0.7561462E-02  0.1188732E+00
         -1   -1    0    0    0  501 -0.00000000000E+00  0.00000000000E+00  0.46508822191E+02  0.46508822191E+02  0.00000000000E+00 0.  1.
          1   -1    0    0  501    0  0.00000000000E+00 -0.00000000000E+00 -0.55067778636E+03  0.55067778636E+03  0.00000000000E+00 0. -1.
         25    2    1    2    0    0 -0.69588119135E+02  0.92436840770E+02 -0.26967625777E+03  0.31899705573E+03  0.12508701653E+03 0.  0.
          5    1    3    3  502    0 -0.94028249329E+01 -0.31163540516E+02 -0.49387656677E+02  0.59297490725E+02  0.41800000000E+01 0. -1.
         -5    1    3    3    0  502 -0.60185294202E+02  0.12360038129E+03 -0.22028860109E+03  0.25969956501E+03  0.41800000000E+01 0. -1.
        -11    1    1    2    0    0  0.13770477550E+02 -0.92745631675E+02 -0.15172170823E+03  0.17835597830E+03  0.00000000000E+00 0.  1.
         11    1    1    2    0    0  0.55817641585E+02  0.30879090457E+00 -0.82770998176E+02  0.99833574528E+02  0.00000000000E+00 0. -1.
</event>
<event>
 7    1  0.2612321E-009  0.1643437E+03  0.7561462E-02  0.1183878E+00
          1   -1    0    0  501    0  0.00000000000E+00  0.00000000000E+00  0.16585322816E+03  0.16585322816E+03  0.00000000000E+00 0. -1.
         -1   -1    0    0    0  501 -0.00000000000E+00 -0.00000000000E+00 -0.25600517514E+03  0.25600517514E+03  0.00000000000E+00 0.  1.
         25    2    1    2    0    0 -0.13274891700E+03  0.63645586948E+02 -0.14209764845E+03  0.23978639526E+03  0.12503094798E+03 0.  0.
          5    1    3    3  502    0 -0.76537155505E+02  0.60978237122E+02 -0.12888253900E+02  0.98792009109E+02  0.41800000000E+01 0. -1.
         -5    1    3    3    0  502 -0.56211761500E+02  0.26673498262E+01 -0.12920939455E+03  0.14099438615E+03  0.41800000000E+01 0. -1.
        -11    1    1    2    0    0  0.15017535767E+02 -0.54152405423E+02  0.20789519134E+02  0.59918390327E+02  0.00000000000E+00 0.  1.
         11    1    1    2    0    0  0.11773138124E+03 -0.94931815252E+01  0.31156182332E+02  0.12215361772E+03  0.00000000000E+00 0. -1.
</event>
<event>
 7    1  0.2612321E-009  0.1991171E+03  0.7561462E-02  0.1150486E+00
         -3   -1    0    0    0  501 -0.00000000000E+00  0.00000000000E+00  0.17155069209E+03  0.17155069209E+03  0.00000000000E+00 0.  1.
          3   -1    0    0  501    0  0.00000000000E+00 -0.00000000000E+00 -0.47323604732E+03  0.47323604732E+03  0.00000000000E+00 0. -1.
         25    2    1    2    0    0 -0.13481230201E+03  0.11684044135E+03  0.66121627815E+02  0.22769619845E+03  0.12508974224E+03 0.  0.
          5    1    3    3  502    0 -0.31243850372E+02  0.10401168616E+03  0.57345610392E+02  0.12288450055E+03  0.41800000000E+01 0.  1.
         -5    1    3    3    0  502 -0.10356845164E+03  0.12828755193E+02  0.87760174237E+01  0.10481169790E+03  0.41800000000E+01 0.  1.
        -11    1    1    2    0    0  0.46611751148E+01 -0.25939086102E+02 -0.15271755751E+02  0.30459633368E+02  0.00000000000E+00 0. -1.
         11    1    1    2    0    0  0.13015112690E+03 -0.90901355253E+02 -0.35253522730E+03  0.38663090759E+03  0.00000000000E+00 0.  1.
</event>
<event>
 7    1  0.2612321E-009  0.1024305E+03  0.7561462E-02  0.1275266E+00
         -1   -1    0    0    0  501 -0.00000000000E+00  0.00000000000E+00  0.20025176580E+03  0.20025176580E+03  0.00000000000E+00 0.  1.
          1   -1    0    0  501    0  0.00000000000E+00 -0.00000000000E+00 -0.97343155781E+02  0.97343155781E+02  0.00000000000E+00 0. -1.
         25    2    1    2    0    0  0.12974714462E+02 -0.50399263718E+02  0.13382339760E+03  0.19043150735E+03  0.12508808196E+03 0.  0.
          5    1    3    3  502    0  0.13925703069E+02  0.35866177732E+02  0.10917133550E+02  0.40211492338E+02  0.41800000000E+01 0.  1.
         -5    1    3    3    0  502 -0.95098860776E+00 -0.86265441450E+02  0.12290626405E+03  0.15022001501E+03  0.41800000000E+01 0.  1.
        -11    1    1    2    0    0  0.18967103509E+02  0.43004250545E+02  0.16242349527E+02  0.49728568234E+02  0.00000000000E+00 0.  1.
         11    1    1    2    0    0 -0.31941817970E+02  0.73950131734E+01 -0.47157137104E+02  0.57434845999E+02  0.00000000000E+00 0. -1.
</event>
<event>
 7    1  0.2612321E-009  0.1553416E+03  0.7561462E-02  0.1194059E+00
         -1   -1    0    0    0  501 -0.00000000000E+00  0.00000000000E+00  0.84659306673E+02  0.84659306673E+02  0.00000000000E+00 0.  1.
          1   -1    0    0  501    0  0.00000000000E+00 -0.00000000000E+00 -0.41019323031E+03  0.41019323031E+03  0.00000000000E+00 0. -1.
         25    2    1    2    0    0  0.84491986354E+02 -0.11489017286E+03 -0.23717737583E+03  0.30370674026E+03  0.12508408731E+03 0.  0.
          5    1    3    3  502    0 -0.17358676166E+02 -0.93619309377E+01 -0.10276713527E+03  0.10472595610E+03  0.41800000000E+01 0.  1.
         -5    1    3    3    0  502  0.10185066252E+03 -0.10552824193E+03 -0.13441024056E+03  0.19898078416E+03  0.41800000000E+01 0.  1.
        -11    1    1    2    0    0 -0.31933533312E+02  0.29169662822E+02 -0.79122770463E+02  0.90172238437E+02  0.00000000000E+00 0.  1.
         11    1    1    2    0    0 -0.52558453042E+02  0.85720510042E+02 -0.92337773448E+01  0.10097355828E+03  0.00000000000E+00 0. -1.
</event>
<event>
 7    1  0.2612321E-009  0.1124441E+03  0.7561462E-02  0.1256110E+00
         -1   -1    0    0    0  501 -0.00000000000E+00  0.00000000000E+00  0.49747059301E+03  0.49747059301E+03  0.00000000000E+00 0.  1.
          1   -1    0    0  501    0  0.00000000000E+00 -0.00000000000E+00 -0.52605477005E+02  0.52605477005E+02  0.00000000000E+00 0. -1.
         25    2    1    2    0    0  0.73875997863E+02  0.59572958874E+02  0.36374130040E+03  0.39618167494E+03  0.12508231470E+03 0.  0.
          5    1    3    3  502    0 -0.13987859775E+02  0.15152952949E+02  0.18602165896E+01  0.21123565275E+02  0.41800000000E+01 0. -1.
         -5    1    3    3    0  502  0.87863857638E+02  0.44420005925E+02  0.36188108381E+03  0.37505810966E+03  0.41800000000E+01 0. -1.
        -11    1    1    2    0    0 -0.43539865893E+02 -0.62919310874E+01 -0.89892947477E+01  0.44901177477E+02  0.00000000000E+00 0. -1.
         11    1    1    2    0    0 -0.30336131971E+02 -0.53281027786E+02  0.90113110351E+02  0.10899321760E+03  0.00000000000E+00 0.  1.
</event>
<event>
 7    1  0.2612321E-009  0.1498214E+03  0.7561462E-02  0.1200693E+00
          2   -1    0    0  501    0  0.00000000000E+00  0.00000000000E+00  0.94789306100E+03  0.94789306100E+03  0.00000000000E+00 0. -1.
         -2   -1    0    0    0  501 -0.00000000000E+00 -0.00000000000E+00 -0.26716931385E+02  0.26716931385E+02  0.00000000000E+00 0.  1.
         25    2    1    2    0    0 -0.10414969873E+03 -0.46298107069E+02  0.56359713587E+03  0.58845537056E+03  0.12508923661E+03 0.  0.
          5    1    3    3  502    0 -0.12918083638E+03 -0.23485640677E+02  0.49048542084E+03  0.50777227599E+03  0.41800000000E+01 0.  1.
         -5    1    3    3    0  502  0.25031137650E+02 -0.22812466392E+02  0.73111715028E+02  0.80683094570E+02  0.41800000000E+01 0.  1.
        -11    1    1    2    0    0  0.65504080789E+02  0.64060639690E+02  0.16303838574E+03  0.18701889044E+03  0.00000000000E+00 0.  1.
         11    1    1    2    0    0  0.38645617939E+02 -0.17762532621E+02  0.19454060801E+03  0.19913573139E+03  0.00000000000E+00 0. -1.
</event>
<event>
 7    1  0.2612321E-009  0.1094911E+03  0.7561462E-02  0.1261515E+00
         -1   -1    0    0    0  501 -0.00000000000E+00  0.00000000000E+00  0.50682862580E+02  0.50682862580E+02  0.00000000000E+00 0.  1.
          1   -1    0    0  501    0  0.00000000000E+00 -0.00000000000E+00 -0.26857809877E+03  0.26857809877E+03  0.00000000000E+00 0. -1.
         25    2    1    2    0    0 -0.12962120947E+02 -0.17218259419E+02 -0.17789124734E+03  0.21853117402E+03  0.12508434395E+03 0.  0.
          5    1    3    3  502    0  0.52307668947E+02  0.14120667803E+02 -0.72824441154E+02  0.90864498674E+02  0.41800000000E+01 0.  1.
         -5    1    3    3    0  502 -0.65269789894E+02 -0.31338927222E+02 -0.10506680619E+03  0.12766667535E+03  0.41800000000E+01 0.  1.
        -11    1    1    2    0    0  0.28488419935E+02  0.49037285570E+02 -0.20467682472E+02  0.60292383202E+02  0.00000000000E+00 0. -1.
         11    1    1    2    0    0 -0.15526298988E+02 -0.31819026151E+02 -0.19536306376E+02  0.40437404124E+02  0.00000000000E+00 0.  1.
</event>
<event>
 7    1  0.3012746E-009  0.1472728E+03  0.7561462E-02  0.1203865E+00
          1   -1    0    0  501    0  0.00000000000E+00  0.00000000000E+00  0.33167832683E+03  0.33167832683E+03  0.00000000000E+00 0. -1.
         -1   -1    0    0    0  501 -0.00000000000E+00 -0.00000000000E+00 -0.84889177671E+02  0.84889177671E+02  0.00000000000E+00 0.  1.
         25    2    1    2    0    0  0.80292389817E+02  0.97683005970E+02  0.11046943091E+03  0.20937868899E+03  0.12508837964E+03 0.  0.
          5    1    3    3  502    0  0.14287111867E+02  0.10065433202E+03  0.31893542485E+02  0.10663060805E+03  0.41800000000E+01 0. -1.
         -5    1    3    3    0  502  0.66005277950E+02 -0.29713260548E+01  0.78575888427E+02  0.10274808094E+03  0.41800000000E+01 0. -1.
        -11    1    1    2    0    0 -0.54091319121E+02 -0.61240254058E+02  0.22365769740E+02  0.84714031762E+02  0.00000000000E+00 0.  1.
         11    1    1    2    0    0 -0.26201070696E+02 -0.36442751912E+02  0.11395394850E+03  0.12247478374E+03  0.00000000000E+00 0. -1.
</event>
<event>
 7    1  0.2612321E-009  0.2285075E+03  0.7561462E-02  0.1127695E+00
         -4   -1    0    0    0  501 -0.00000000000E+00  0.00000000000E+00  0.35140671163E+03  0.35140671163E+03  0.00000000000E+00 0.  1.
          4   -1    0    0  501    0  0.00000000000E+00 -0.00000000000E+00 -0.17204141403E+03  0.17204141403E+03  0.00000000000E+00 0. -1.
         25    2    1    2    0    0  0.10120125265E+03  0.19412117320E+03  0.12214180634E+03  0.28016197694E+03  0.12508952411E+03 0.  0.
          5    1    3    3  502    0  0.88794293411E+02  0.87565807346E+02  0.10409712742E+02  0.12521194703E+03  0.41800000000E+01 0. -1.
         -5    1    3    3    0  502  0.12406959239E+02  0.10655536586E+03  0.11173209360E+03  0.15495002992E+03  0.41800000000E+01 0. -1.
        -11    1    1    2    0    0 -0.66339680166E+02 -0.72099902058E+02 -0.12036344754E+02  0.98712829138E+02  0.00000000000E+00 0. -1.
         11    1    1    2    0    0 -0.34861572485E+02 -0.12202127115E+03  0.69259836012E+02  0.14457331957E+03  0.00000000000E+00 0.  1.
</event>
<event>
 7    1  0.2612321E-009  0.1137943E+03  0.7561462E-02  0.1253700E+00
          1   -1    0    0  501    0  0.00000000000E+00  0.00000000000E+00  0.10210098977E+04  0.10210098977E+04  0.00000000000E+00 0. -1.
         -1   -1    0    0    0  501 -0.00000000000E+00 -0.00000000000E+00 -0.23818581898E+02  0.23818581898E+02  0.00000000000E+00 0.  1.
         25    2    1    2    0    0  0.85597371488E+02 -0.10379228461E+02  0.78034511377E+03  0.79499703154E+03  0.12508854942E+03 0.  0.
          5    1    3    3  502    0  0.97036317106E+02  0.61745405747E+01  0.75955233884E+03  0.76576197322E+03  0.41800000000E+01 0. -1.
         -5    1    3    3    0  502 -0.11438945618E+02 -0.16553769036E+02  0.20792774920E+02  0.29235058321E+02  0.41800000000E+01 0. -1.
        -11    1    1    2    0    0 -0.23036679073E+02 -0.28047582877E+02  0.24080455530E+02  0.43557132901E+02  0.00000000000E+00 0.  1.
         11    1    1    2    0    0 -0.62560692415E+02  0.38426811338E+02  0.19276574647E+03  0.20627431512E+03  0.00000000000E+00 0. -1.
</event>
<event>
 7    1  0.2612321E-009  0.1331188E+03  0.7561462E-02  0.1222900E+00
          1   -1    0    0  501    0  0.00000000000E+00  0.00000000000E+00  0.23129020587E+03  0.23129020587E+03  0.00000000000E+00 0. -1.
         -1   -1    0    0    0  501 -0.00000000000E+00 -0.00000000000E+00 -0.88180944519E+02  0.88180944519E+02  0.00000000000E+00 0.  1.
         25    2    1    2    0    0  0.79843360260E+01  0.92130478304E+02  0.68685018924E+02  0.17004935132E+03  0.12508946961E+03 0.  0.
          5    1    3    3  502    0 -0.12468698470E+02 -0.25403572629E+02  0.36574424299E+02  0.46432433241E+02  0.41800000000E+01 0.  1.
         -5    1    3    3    0  502  0.20453034496E+02  0.11753405093E+03  0.32110594624E+02  0.12361691808E+03  0.41800000000E+01 0.  1.
        -11    1    1    2    0    0  0.24257452385E+02 -0.80349953827E+02  0.22013830475E+02  0.86770662141E+02  0.00000000000E+00 0.  1.
         11    1    1    2    0    0 -0.32241788411E+02 -0.11780524477E+02  0.52410411948E+02  0.62651136921E+02  0.00000000000E+00 0. -1.
</event>
<event>
 7    1  0.2612321E-009  0.1969339E+03  0.7561462E-02  0.1152352E+00
          2   -1    0    0  501    0  0.00000000000E+00  0.00000000000E+00  0.43093863073E+03  0.43093863073E+03  0.00000000000E+00 0. -1.
         -2   -1    0    0    0  501 -0.00000000000E+00 -0.00000000000E+00 -0.11010607838E+03  0.11010607838E+03  0.00000000000E+00 0.  1.
         25    2    1    2    0    0 -0.15653089511E+03 -0.87949458775E+02  0.94797790094E+02  0.23847650924E+03  0.12508955205E+03 0.  0.
          5    1    3    3  502    0  0.12636217088E+02 -0.37369122229E+00 -0.13789964528E+02  0.19168963172E+02  0.41800000000E+01 0.  1.
         -5    1    3    3    0  502 -0.16916711219E+03 -0.87575767553E+02  0.10858775462E+03  0.21930754607E+03  0.41800000000E+01 0.  1.
        -11    1    1    2    0    0  0.14337108889E+03  0.97822310886E+02  0.16544377921E+03  0.23978348090E+03  0.00000000000E+00 0.  1.
         11    1    1    2    0    0  0.13159806217E+02 -0.98728521108E+01  0.60590983050E+02  0.62784718964E+02  0.00000000000E+00 0. -1.
</event>
<event>
 7    1  0.2612321E-009  0.1023464E+03  0.7561462E-02  0.1275438E+00
          1   -1    0    0  501    0  0.00000000000E+00  0.00000000000E+00  0.71181067507E+02  0.71181067507E+02  0.00000000000E+00 0. -1.
         -1   -1    0    0    0  501 -0.00000000000E+00 -0.00000000000E+00 -0.23080800068E+03  0.23080800068E+03  0.00000000000E+00 0.  1.
         25    2    1    2    0    0  0.41709358508E+02 -0.38482939597E+02 -0.13661701680E+03  0.19372689483E+03  0.12508114675E+03 0.  0.
          5    1    3    3  502    0 -0.18326613040E+02 -0.65971875277E+02 -0.88228122256E+02  0.11175789471E+03  0.41800000000E+01 0.  1.
         -5    1    3    3    0  502  0.60035971547E+02  0.27488935680E+02 -0.48388894549E+02  0.81969000117E+02  0.41800000000E+01 0.  1.
        -11    1    1    2    0    0 -0.49661931259E+02  0.28820402873E+02  0.22042163191E+02  0.61504308762E+02  0.00000000000E+00 0. -1.
         11    1    1    2    0    0  0.79525727511E+01  0.96625367242E+01 -0.45052079554E+02  0.46757864595E+02  0.00000000000E+00 0.  1.
</event>
<event>
 7    1  0.2612321E-009  0.9845160E+02  0.7561462E-02  0.1283586E+00
          1   -1    0    0  501    0  0.00000000000E+00  0.00000000000E+00  0.19878950814E+03  0.19878950814E+03  0.00000000000E+00 0. -1.
         -1   -1    0    0    0  501 -0.00000000000E+00 -0.00000000000E+00 -0.63363744818E+02  0.63363744818E+02  0.00000000000E+00 0.  1.
         25    2    1    2    0    0  0.11909115410E+02  0.30665571534E+02  0.75131001536E+02  0.14954767409E+03  0.12505053029E+03 0.  0.
          5    1    3    3  502    0 -0.69165782499E+01 -0.35230621562E+02  0.72297048099E+02  0.80829272631E+02  0.41800000000E+01 0.  1.
         -5    1    3    3    0  502  0.18825693660E+02  0.65896193097E+02  0.28339534380E+01  0.68718401455E+02  0.41800000000E+01 0.  1.
        -11    1    1    2    0    0  0.37424226900E+02 -0.15247029045E+02  0.12742899893E+02  0.42372469263E+02  0.00000000000E+00 0.  1.
         11    1    1    2    0    0 -0.49333342310E+02 -0.15418542489E+02  0.47551861891E+02  0.70233109608E+02  0.00000000000E+00 0. -1.
</event>
<event>
 7    1  0.2612321E-009  0.1002731E+03  0.7561462E-02  0.1279723E+00
         -4   -1    0    0    0  501 -0.00000000000E+00  0.00000000000E+00  0.16306708140E+03  0.16306708140E+03  0.00000000000E+00 0.  1.
          4   -1    0    0  501    0  0.00000000000E+00 -0.00000000000E+00 -0.82640726902E+02  0.82640726902E+02  0.00000000000E+00 0. -1.
         25    2    1    2    0    0  0.11196460670E+02 -0.21059064284E+02  0.11803027558E+02  0.12788860853E+03  0.12508932733E+03 0.  0.
          5    1    3    3  502    0  0.25421057061E+02 -0.68500047829E+02  0.23429224362E+02  0.76843266776E+02  0.41800000000E+01 0.  1.
         -5    1    3    3    0  502 -0.14224596391E+02  0.47440983544E+02 -0.11626196805E+02  0.51045341749E+02  0.41800000000E+01 0.  1.
        -11    1    1    2    0    0 -0.16522129609E+02  0.47704979242E+02  0.74522747196E+02  0.90013252696E+02  0.00000000000E+00 0.  1.
         11    1    1    2    0    0  0.53256689384E+01 -0.26645914958E+02 -0.58994202564E+01  0.27805947079E+02  0.00000000000E+00 0. -1.
</event>
<event>
 7    1  0.2612321E-009  0.8373236E+02  0.7561462E-02  0.1318781E+00
         -1   -1    0    0    0  501 -0.00000000000E+00  0.00000000000E+00  0.30578935604E+02  0.30578935604E+02  0.00000000000E+00 0.  1.
          1   -1    0    0  501    0  0.00000000000E+00 -0.00000000000E+00 -0.42413375351E+03  0.42413375351E+03  0.00000000000E+00 0. -1.
         25    2    1    2    0    0 -0.15298455029E+02 -0.29601819984E+02 -0.24113167402E+03  0.27368366351E+03  0.12509177824E+03 0.  0.
          5    1    3    3  502    0 -0.51697377916E+02  0.25241159295E+01 -0.36858432825E+02  0.63678933055E+02  0.41800000000E+01 0.  1.
         -5    1    3    3    0  502  0.36398922888E+02 -0.32125935913E+02 -0.20427324119E+03  0.21000473045E+03  0.41800000000E+01 0.  1.
        -11    1    1    2    0    0  0.36643497037E+02  0.10381368109E+02 -0.14692895312E+03  0.15178483437E+03  0.00000000000E+00 0. -1.
         11    1    1    2    0    0 -0.21345042009E+02  0.19220451874E+02 -0.54941907612E+01  0.29244191231E+02  0.00000000000E+00 0.  1.
</event>
<event>
 7    1  0.2612321E-009  0.1053754E+03  0.7561462E-02  0.1269382E+00
          2   -1    0    0  501    0  0.00000000000E+00  0.00000000000E+00  0.10256351255E+04  0.10256351255E+04  0.00000000000E+00 0. -1.
         -2   -1    0    0    0  501 -0.00000000000E+00 -0.00000000000E+00 -0.15613078055E+02  0.15613078055E+02  0.00000000000E+00 0.  1.
         25    2    1    2    0    0 -0.13992627054E+02 -0.75144985374E+01  0.82500409315E+03  0.83458404387E+03  0.12508601546E+03 0.  0.
          5    1    3    3  502    0 -0.61263847646E+02  0.24762050191E+02  0.52306321538E+03  0.52723715522E+03  0.41800000000E+01 0.  1.
         -5    1    3    3    0  502  0.47271220593E+02 -0.32276548729E+02  0.30194087777E+03  0.30734688865E+03  0.41800000000E+01 0.  1.
        -11    1    1    2    0    0  0.53615960761E+01 -0.39239493319E+02  0.11819405713E+03  0.12465279656E+03  0.00000000000E+00 0.  1.
         11    1    1    2    0    0  0.86310309775E+01  0.46753991856E+02  0.66823897157E+02  0.82011363124E+02  0.00000000000E+00 0. -1.
</event>
<event>
 7    1  0.2612321E-009  0.1537553E+03  0.7561462E-02  0.1195933E+00
          1   -1    0    0  501    0  0.00000000000E+00  0.00000000000E+00  0.15588531691E+03  0.15588531691E+03  0.00000000000E+00 0. -1.
         -1   -1    0    0    0  501 -0.00000000000E+00 -0.00000000000E+00 -0.18400874030E+03  0.18400874030E+03  0.00000000000E+00 0.  1.
         25    2    1    2    0    0 -0.10098677699E+03  0.78120404266E+02  0.46864428488E+01  0.17880028072E+03  0.12508577438E+03 0.  0.
          5    1    3    3  502    0  0.39668150484E+01 -0.23352535359E+02 -0.19247330277E+02  0.30805984031E+02  0.41800000000E+01 0.  1.
         -5    1    3    3    0  502 -0.10495359204E+03  0.10147293962E+03  0.23933773126E+02  0.14799429669E+03  0.41800000000E+01 0.  1.
        -11    1    1    2    0    0  0.74606692086E+02 -0.26021581126E+02 -0.57469503757E+02  0.97703761701E+02  0.00000000000E+00 0.  1.
         11    1    1    2    0    0  0.26380084902E+02 -0.52098823140E+02  0.24659637512E+02  0.63390014783E+02  0.00000000000E+00 0. -1.
</event>
<event>
 7    1  0.2612321E-009  0.2036889E+03  0.7561462E-02  0.1146663E+00
         -1   -1    0    0    0  501 -0.00000000000E+00  0.00000000000E+00  0.13633607660E+03  0.13633607660E+03  0.00000000000E+00 0.  1.
          1   -1    0    0  501    0  0.00000000000E+00 -0.00000000000E+00 -0.33615284243E+03  0.33615284243E+03  0.00000000000E+00 0. -1.
         25    2    1    2    0    0  0.15494118026E+03 -0.94985343824E+02 -0.64722062118E+02  0.22992493064E+03  0.12509014160E+03 0.  0.
          5    1    3    3  502    0  0.17664833715E+03 -0.87915172382E+02 -0.59516313521E+02  0.20613921638E+03  0.41800000000E+01 0.  1.
         -5    1    3    3    0  502 -0.21707156893E+02 -0.70701714423E+01 -0.52057485967E+01  0.23785714264E+02  0.41800000000E+01 0.  1.
        -11    1    1    2    0    0 -0.93453756250E+02  0.31985225340E+02 -0.11623128265E+03  0.15253317758E+03  0.00000000000E+00 0. -1.
         11    1    1    2    0    0 -0.61487424011E+02  0.63000118484E+02 -0.18863421061E+02  0.90030810808E+02  0.00000000000E+00 0.  1.
</event>
<event>
 7    1  0.3720682E-009  0.2134261E+03  0.7561462E-02  0.1138881E+00
          2   -1    0    0  501    0  0.00000000000E+00  0.00000000000E+00  0.51378052872E+03  0.51378052872E+03  0.00000000000E+00 0. -1.
         -2   -1    0    0    0  501 -0.00000000000E+00 -0.00000000000E+00 -0.15329212375E+03  0.15329212375E+03  0.00000000000E+00 0.  1.
         25    2    1    2    0    0  0.16787542346E+03 -0.74224226619E+02 -0.31810365916E+02  0.22439166136E+03  0.12509326395E+03 0.  0.
          5    1    3    3  502    0  0.61406026705E+02 -0.95072192643E+02 -0.22046074642E+02  0.11538164385E+03  0.41800000000E+01 0.  1.
         -5    1    3    3    0  502  0.10646939676E+03  0.20847966024E+02 -0.97642912739E+01  0.10901001751E+03  0.41800000000E+01 0.  1.
        -11    1    1    2    0    0 -0.89969052295E+02  0.88067298790E+02  0.23481989702E+03  0.26644073173E+03  0.00000000000E+00 0.  1.
         11    1    1    2    0    0 -0.77906371170E+02 -0.13843072171E+02  0.15747887387E+03  0.17624025939E+03  0.00000000000E+00 0. -1.
</event>
<event>
 7    1  0.2612321E-009  0.1207516E+03  0.7561462E-02  0.1241862E+00
         -2   -1    0    0    0  501 -0.00000000000E+00  0.00000000000E+00  0.42382443382E+03  0.42382443382E+03  0.00000000000E+00 0. -1.
          2   -1    0    0  501    0  0.00000000000E+00 -0.00000000000E+00 -0.35318902582E+02  0.35318902582E+02  0.00000000000E+00 0.  1.
         25    2    1    2    0    0  0.50581076462E+02 -0.22597897796E+02  0.22305644811E+03  0.26166888553E+03  0.12508923346E+03 0.  0.
          5    1    3    3  502    0 -0.32037974537E+02  0.24691979434E+02  0.80674908017E+02  0.90344002814E+02  0.41800000000E+01 0.  1.
         -5    1    3    3    0  502  0.82619050999E+02 -0.47289877230E+02  0.14238154010E+03  0.17132488271E+03  0.41800000000E+01 0.  1.
        -11    1    1    2    0    0 -0.22147539110E+02  0.56863776825E+02  0.11498301886E+03  0.13017333533E+03  0.00000000000E+00 0.  1.
         11    1    1    2    0    0 -0.28433537351E+02 -0.34265879029E+02  0.50466064260E+02  0.67301115546E+02  0.00000000000E+00 0. -1.
</event>
<event>
 7    1  0.2612321E-009  0.8000192E+02  0.7561462E-02  0.1329046E+00
          1   -1    0    0  501    0  0.00000000000E+00  0.00000000000E+00  0.67786196604E+02  0.67786196604E+02  0.00000000000E+00 0. -1.
         -1   -1    0    0    0  501 -0.00000000000E+00 -0.00000000000E+00 -0.26577550480E+03  0.26577550480E+03  0.00000000000E+00 0.  1.
         25    2    1    2    0    0 -0.31936758955E+02 -0.34290262052E+02 -0.19577479616E+03  0.23701117979E+03  0.12510295715E+03 0.  0.
          5    1    3    3  502    0 -0.62557713140E+02 -0.40327488121E+02 -0.19116554210E+03  0.20518652650E+03  0.41800000000E+01 0.  1.
         -5    1    3    3    0  502  0.30620954185E+02  0.60372260691E+01 -0.46092540616E+01  0.31824653287E+02  0.41800000000E+01 0.  1.
        -11    1    1    2    0    0  0.62711605645E+01  0.26373676287E+02 -0.41133549076E+02  0.49263243045E+02  0.00000000000E+00 0.  1.
         11    1    1    2    0    0  0.25665598390E+02  0.79165857656E+01  0.38919037039E+02  0.47287278574E+02  0.00000000000E+00 0. -1.
</event>
<event>
 7    1  0.2612321E-009  0.1759546E+03  0.7561462E-02  0.1171777E+00
         -2   -1    0    0    0  501 -0.00000000000E+00  0.00000000000E+00  0.83295647049E+02  0.83295647049E+02  0.00000000000E+00 0.  1.
          2   -1    0    0  501    0  0.00000000000E+00 -0.00000000000E+00 -0.48335725310E+03  0.48335725310E+03  0.00000000000E+00 0. -1.
         25    2    1    2    0    0 -0.14237739368E+03 -0.43520383803E+02 -0.31879174245E+03  0.37342149378E+03  0.12510032343E+03 0.  0.
          5    1    3    3  502    0 -0.15457231730E+03 -0.63970660173E+01 -0.24417666483E+03  0.28909036611E+03  0.41800000000E+01 0.  1.
         -5    1    3    3    0  502  0.12194923617E+02 -0.37123317785E+02 -0.74615077625E+02  0.84331127672E+02  0.41800000000E+01 0.  1.
        -11    1    1    2    0    0  0.41080708045E+02 -0.11386489182E+02  0.12775189638E+02  0.44502608684E+02  0.00000000000E+00 0. -1.
         11    1    1    2    0    0  0.10129668564E+03  0.54906872985E+02 -0.94045053233E+02  0.14872879768E+03  0.00000000000E+00 0.  1.
</event>
<event>
 7    1  0.2612321E-009  0.7319473E+02  0.7561462E-02  0.1349554E+00
          1   -1    0    0  501    0  0.00000000000E+00  0.00000000000E+00  0.49179669124E+03  0.49179669124E+03  0.00000000000E+00 0. -1.
         -1   -1    0    0    0  501 -0.00000000000E+00 -0.00000000000E+00 -0.28164917746E+02  0.28164917746E+02  0.00000000000E+00 0.  1.
         25    2    1    2    0    0  0.40770917857E+02  0.23097764425E+02  0.29176510385E+03  0.32089083115E+03  0.12509306627E+03 0.  0.
          5    1    3    3  502    0  0.33257348079E+02  0.18368288115E+02  0.30332719790E+03  0.30572586838E+03  0.41800000000E+01 0. -1.
         -5    1    3    3    0  502  0.75135697780E+01  0.47294763104E+01 -0.11562094053E+02  0.15164962772E+02  0.41800000000E+01 0. -1.
        -11    1    1    2    0    0  0.23724171814E+02 -0.24146411018E+02  0.40981385988E+02  0.53154110761E+02  0.00000000000E+00 0. -1.
         11    1    1    2    0    0 -0.64495089672E+02  0.10486465927E+01  0.13088528365E+03  0.14591666707E+03  0.00000000000E+00 0.  1.
</event>
<event>
 7    1  0.2612321E-009  0.1076338E+03  0.7561462E-02  0.1265015E+00
          1   -1    0    0  501    0  0.00000000000E+00  0.00000000000E+00  0.36448607768E+03  0.36448607768E+03  0.00000000000E+00 0. -1.
         -1   -1    0    0    0  501 -0.00000000000E+00 -0.00000000000E+00 -0.32661505256E+02  0.32661505256E+02  0.00000000000E+00 0.  1.
         25    2    1    2    0    0  0.10706640615E+02 -0.86312531479E+01  0.19090823436E+03  0.22865511423E+03  0.12509227248E+03 0.  0.
          5    1    3    3  502    0 -0.41089234180E+02  0.36850140682E+02  0.68044641262E+02  0.87714329720E+02  0.41800000000E+01 0.  1.
         -5    1    3    3    0  502  0.51795874795E+02 -0.45481393830E+02  0.12286359310E+03  0.14094078451E+03  0.41800000000E+01 0.  1.
        -11    1    1    2    0    0  0.38728111482E+02  0.13895886192E+02  0.79136907583E+02  0.89194239802E+02  0.00000000000E+00 0.  1.
         11    1    1    2    0    0 -0.49434752097E+02 -0.52646330437E+01  0.61779430477E+02  0.79298228896E+02  0.00000000000E+00 0. -1.
</event>
<event>
 7    1  0.2612321E-009  0.2220787E+03  0.7561462E-02  0.1132343E+00
         -2   -1    0    0    0  501 -0.00000000000E+00  0.00000000000E+00  0.35154864425E+02  0.35154864425E+02  0.00000000000E+00 0.  1.
          2   -1    0    0  501    0  0.00000000000E+00 -0.00000000000E+00 -0.23098533604E+04  0.23098533604E+04  0.00000000000E+00 0. -1.
         25    2    1    2    0    0 -0.12064385424E+03  0.16426086172E+03 -0.18462188396E+04  0.18616413654E+04  0.12509196329E+03 0.  0.
          5    1    3    3  502    0  0.39954591408E+01 -0.11469096435E+02 -0.32309547382E+03  0.32335067879E+03  0.41800000000E+01 0.  1.
         -5    1    3    3    0  502 -0.12463931338E+03  0.17572995816E+03 -0.15231233658E+04  0.15382906866E+04  0.41800000000E+01 0.  1.
        -11    1    1    2    0    0 -0.25847831287E-01 -0.48860326644E+02 -0.51101474161E+02  0.70701434563E+02  0.00000000000E+00 0.  1.
         11    1    1    2    0    0  0.12066970207E+03 -0.11540053508E+03 -0.37737818219E+03  0.41266542487E+03  0.00000000000E+00 0. -1.
</event>
<event>
 7    1  0.2612321E-009  0.1188679E+03  0.7561462E-02  0.1244976E+00
          2   -1    0    0  501    0  0.00000000000E+00  0.00000000000E+00  0.38876601794E+03  0.38876601794E+03  0.00000000000E+00 0. -1.
         -2   -1    0    0    0  501 -0.00000000000E+00 -0.00000000000E+00 -0.37819774412E+02  0.37819774412E+02  0.00000000000E+00 0.  1.
         25    2    1    2    0    0  0.51267747282E+02 -0.24715720505E+00  0.16660805229E+03  0.21455655247E+03  0.12509127916E+03 0.  0.
          5    1    3    3  502    0 -0.21168026649E+02  0.43471147053E+02  0.78820149812E+02  0.92563029308E+02  0.41800000000E+01 0.  1.
         -5    1    3    3    0  502  0.72435773931E+02 -0.43718304258E+02  0.87787902473E+02  0.12199352316E+03  0.41800000000E+01 0.  1.
        -11    1    1    2    0    0 -0.68028376928E+02 -0.26436008878E+02  0.13555630231E+03  0.15395529783E+03  0.00000000000E+00 0.  1.
         11    1    1    2    0    0  0.16760629646E+02  0.26683166083E+02  0.48781888928E+02  0.58073942055E+02  0.00000000000E+00 0. -1.
</event>
<event>
 7    1  0.2612321E-009  0.1119189E+03  0.7561462E-02  0.1257057E+00
         -1   -1    0    0    0  501 -0.00000000000E+00  0.00000000000E+00  0.48123135880E+02  0.48123135880E+02  0.00000000000E+00 0.  1.
          1   -1    0    0  501    0  0.00000000000E+00 -0.00000000000E+00 -0.44100328903E+03  0.44100328903E+03  0.00000000000E+00 0. -1.
         25    2    1    2    0    0 -0.56293677281E+02 -0.77352652298E+02 -0.20351696662E+03  0.25733005262E+03  0.12508872596E+03 0.  0.
          5    1    3    3  502    0 -0.93084840790E+01 -0.19094408631E+02 -0.17623383952E+03  0.17755867455E+03  0.41800000000E+01 0. -1.
         -5    1    3    3    0  502 -0.46985193202E+02 -0.58258243666E+02 -0.27283127100E+02  0.79771378073E+02  0.41800000000E+01 0. -1.
        -11    1    1    2    0    0  0.39949265415E+02  0.95069928035E+02 -0.11924343404E+03  0.15764907734E+03  0.00000000000E+00 0. -1.
         11    1    1    2    0    0  0.16344411866E+02 -0.17717275738E+02 -0.70119752497E+02  0.74147294954E+02  0.00000000000E+00 0.  1.
</event>
<event>
 7    1  0.2612321E-009  0.1080097E+03  0.7561462E-02  0.1264301E+00
          2   -1    0    0  501    0  0.00000000000E+00  0.00000000000E+00  0.33148923649E+03  0.33148923649E+03  0.00000000000E+00 0. -1.
         -2   -1    0    0    0  501 -0.00000000000E+00 -0.00000000000E+00 -0.80469888146E+02  0.80469888146E+02  0.00000000000E+00 0.  1.
         25    2    1    2    0    0  0.68974586188E+02 -0.53018054428E+02  0.23785084616E+03  0.28246906166E+03  0.12508932066E+03 0.  0.
          5    1    3    3  502    0  0.58096505827E+02 -0.63436057516E+02  0.24886633526E+03  0.26334627889E+03  0.41800000000E+01 0. -1.
         -5    1    3    3    0  502  0.10878080362E+02  0.10418003088E+02 -0.11015489100E+02  0.19122782768E+02  0.41800000000E+01 0. -1.
        -11    1    1    2    0    0 -0.31314625390E+02 -0.16357081997E+02  0.32734668947E+02  0.48163455501E+02  0.00000000000E+00 0. -1.
         11    1    1    2    0    0 -0.37659960798E+02  0.69375136425E+02 -0.19566166760E+02  0.81326607472E+02  0.00000000000E+00 0.  1.
</event>
<event>
 7    1  0.2612321E-009  0.8787639E+02  0.7561462E-02  0.1308077E+00
         -1   -1    0    0    0  501 -0.00000000000E+00  0.00000000000E+00  0.55176843506E+02  0.55176843506E+02  0.00000000000E+00 0.  1.
          1   -1    0    0  501    0  0.00000000000E+00 -0.00000000000E+00 -0.33596979242E+03  0.33596979242E+03  0.00000000000E+00 0. -1.
         25    2    1    2    0    0  0.46736366880E+01 -0.14017608468E+02 -0.37969980974E+02  0.13156287729E+03  0.12509490396E+03 0.  0.
          5    1    3    3  502    0 -0.42753590454E+02 -0.17902553380E+02  0.24759928638E+02  0.52715248083E+02  0.41800000000E+01 0. -1.
         -5    1    3    3    0  502  0.47427227142E+02  0.38849449124E+01 -0.62729909611E+02  0.78847629205E+02  0.41800000000E+01 0. -1.
        -11    1    1    2    0    0  0.25547135810E+02 -0.22500970958E+02 -0.46563457841E+02  0.57681066636E+02  0.00000000000E+00 0.  1.
         11    1    1    2    0    0 -0.30220772498E+02  0.36518579426E+02 -0.19625951010E+03  0.20190269201E+03  0.00000000000E+00 0. -1.
</event>
<event>
 7    1  0.2612321E-009  0.1055716E+03  0.7561462E-02  0.1268997E+00
          1   -1    0    0  501    0  0.00000000000E+00  0.00000000000E+00  0.50032222838E+03  0.50032222838E+03  0.00000000000E+00 0. -1.
         -1   -1    0    0    0  501 -0.00000000000E+00 -0.00000000000E+00 -0.29745116866E+02  0.29745116866E+02  0.00000000000E+00 0.  1.
         25    2    1    2    0    0 -0.51152628233E+02  0.74654336703E+01  0.22095376752E+03  0.25911527592E+03  0.12509130570E+03 0.  0.
          5    1    3    3  502    0  0.27549634230E+02  0.31275004932E+02  0.31076283814E+02  0.52156649580E+02  0.41800000000E+01 0. -1.
         -5    1    3    3    0  502 -0.78702262463E+02 -0.23809571262E+02  0.18987748370E+03  0.20695862634E+03  0.41800000000E+01 0. -1.
        -11    1    1    2    0    0  0.68053723318E+02  0.91461787489E+00  0.24059907468E+03  0.25004011782E+03  0.00000000000E+00 0. -1.
         11    1    1    2    0    0 -0.16901095084E+02 -0.83800515452E+01  0.90242693189E+01  0.20911951504E+02  0.00000000000E+00 0.  1.
</event>
<event>
 7    1  0.2612321E-009  0.1000103E+03  0.7561462E-02  0.1280274E+00
         -3   -1    0    0    0  501 -0.00000000000E+00  0.00000000000E+00  0.32323137152E+03  0.32323137152E+03  0.00000000000E+00 0.  1.
          3   -1    0    0  501    0  0.00000000000E+00 -0.00000000000E+00 -0.68831183865E+02  0.68831183865E+02  0.00000000000E+00 0. -1.
         25    2    1    2    0    0  0.50845144484E+02 -0.11663104094E+02  0.23325772739E+02  0.13750178246E+03  0.12506554997E+03 0.  0.
          5    1    3    3  502    0 -0.21686872239E+02 -0.82158970592E+01 -0.36417662622E+02  0.43376721209E+02  0.41800000000E+01 0. -1.
         -5    1    3    3    0  502  0.72532016723E+02 -0.34472070351E+01  0.59743435361E+02  0.94125061248E+02  0.41800000000E+01 0. -1.
        -11    1    1    2    0    0 -0.55099538301E+01  0.46326595706E+02  0.13477753215E+03  0.14262361738E+03  0.00000000000E+00 0.  1.
         11    1    1    2    0    0 -0.45335190654E+02 -0.34663491612E+02  0.96296882764E+02  0.11193715555E+03  0.00000000000E+00 0. -1.
</event>
<event>
 7    1  0.2639427E-009  0.1003941E+03  0.7561462E-02  0.1279469E+00
         -2   -1    0    0    0  501 -0.00000000000E+00  0.00000000000E+00  0.16440458286E+02  0.16440458286E+02  0.00000000000E+00 0.  1.
          2   -1    0    0  501    0  0.00000000000E+00 -0.00000000000E+00 -0.89839548782E+03  0.89839548782E+03  0.00000000000E+00 0. -1.
         25    2    1    2    0    0 -0.17797016390E+02  0.51530591884E+02 -0.49969770513E+03  0.51799276550E+03  0.12508626185E+03 0.  0.
          5    1    3    3  502    0 -0.19464476534E+02  0.76532419524E+02 -0.47825622161E+03  0.48475000051E+03  0.41800000000E+01 0. -1.
         -5    1    3    3    0  502  0.16674601438E+01 -0.25001827640E+02 -0.21441483525E+02  0.33242764994E+02  0.41800000000E+01 0. -1.
        -11    1    1    2    0    0  0.40205842823E+02 -0.10146218908E+00 -0.81259142757E+02  0.90661835263E+02  0.00000000000E+00 0.  1.
         11    1    1    2    0    0 -0.22408826433E+02 -0.51429129695E+02 -0.30099818164E+03  0.30618134534E+03  0.00000000000E+00 0. -1.
</event>
<event>
 7    1  0.3681707E-009  0.1937768E+03  0.7561462E-02  0.1155098E+00
          2   -1    0    0  501    0  0.00000000000E+00  0.00000000000E+00  0.55895357260E+03  0.55895357260E+03  0.00000000000E+00 0. -1.
         -2   -1    0    0    0  501 -0.00000000000E+00 -0.00000000000E+00 -0.74106727575E+02  0.74106727575E+02  0.00000000000E+00 0.  1.
         25    2    1    2    0    0  0.15799131823E+03  0.57572547613E+02  0.19897940290E+03  0.28899958011E+03  0.12510835164E+03 0.  0.
          5    1    3    3  502    0  0.17258190493E+03  0.30546790926E+02  0.14845880008E+03  0.22972833535E+03  0.41800000000E+01 0.  1.
         -5    1    3    3    0  502 -0.14590586702E+02  0.27025756687E+02  0.50520602822E+02  0.59271244751E+02  0.41800000000E+01 0.  1.
        -11    1    1    2    0    0 -0.10976705798E+03 -0.49680140803E+01  0.22446814526E+03  0.24991885967E+03  0.00000000000E+00 0. -1.
         11    1    1    2    0    0 -0.48224260248E+02 -0.52604533532E+02  0.61399296871E+02  0.94141860407E+02  0.00000000000E+00 0.  1.
</event>
<event>
 7    1  0.2612321E-009  0.1894837E+03  0.7561462E-02  0.1158928E+00
          2   -1    0    0  501    0  0.00000000000E+00  0.00000000000E+00  0.13160827065E+03  0.13160827065E+03  0.00000000000E+00 0. -1.
         -2   -1    0    0    0  501 -0.00000000000E+00 -0.00000000000E+00 -0.30348181887E+03  0.30348181887E+03  0.00000000000E+00 0.  1.
         25    2    1    2    0    0 -0.10704090297E+03 -0.12449428586E+03 -0.53133157512E+02  0.21313584954E+03  0.12508867180E+03 0.  0.
          5    1    3    3  502    0 -0.43185844535E+02 -0.12275844724E+03 -0.40515913751E+00  0.13020096040E+03  0.41800000000E+01 0. -1.
         -5    1    3    3    0  502 -0.63855058439E+02 -0.17358386201E+01 -0.52727998375E+02  0.82934889139E+02  0.41800000000E+01 0. -1.
        -11    1    1    2    0    0  0.42963975298E+02 -0.19395910673E+01 -0.44728097583E+02  0.62050526995E+02  0.00000000000E+00 0.  1.
         11    1    1    2    0    0  0.64076927675E+02  0.12643387692E+03 -0.74012293125E+02  0.15990371299E+03  0.00000000000E+00 0. -1.
</event>
<event>
 7    1  0.3434469E-009  0.1110651E+03  0.7561462E-02  0.1258610E+00
          2   -1    0    0  501    0  0.00000000000E+00  0.00000000000E+00  0.79367251736E+03  0.79367251736E+03  0.00000000000E+00 0. -1.
         -2   -1    0    0    0  501 -0.00000000000E+00 -0.00000000000E+00 -0.16304945329E+02  0.16304945329E+02  0.00000000000E+00 0.  1.
         25    2    1    2    0    0  0.33662839289E+02 -0.15090874244E+01  0.45930929651E+03  0.47723003397E+03  0.12509201162E+03 0.  0.
          5    1    3    3  502    0 -0.45960850860E+02 -0.14673417778E+02  0.18838716124E+03  0.19451196344E+03  0.41800000000E+01 0. -1.
         -5    1    3    3    0  502  0.79623690149E+02  0.13164330353E+02  0.27092213527E+03  0.28271807053E+03  0.41800000000E+01 0. -1.
        -11    1    1    2    0    0 -0.52143923575E+02  0.29075310766E+02  0.24997943801E+03  0.25700988675E+03  0.00000000000E+00 0. -1.
         11    1    1    2    0    0  0.18481084286E+02 -0.27566223341E+02  0.68078837515E+02  0.75737541966E+02  0.00000000000E+00 0.  1.
</event>
<event>
 7    1  0.2612321E-009  0.1024192E+03  0.7561462E-02  0.1275290E+00
         -1   -1    0    0    0  501 -0.00000000000E+00  0.00000000000E+00  0.11326121428E+03  0.11326121428E+03  0.00000000000E+00 0.  1.
          1   -1    0    0  501    0  0.00000000000E+00 -0.00000000000E+00 -0.18386421956E+03  0.18386421956E+03  0.00000000000E+00 0. -1.
         25    2    1    2    0    0  0.31213757168E+02 -0.63016190528E+02 -0.10799094650E+03  0.17959542528E+03  0.12508850207E+03 0.  0.
          5    1    3    3  502    0  0.63812569912E+02 -0.26422363548E+02 -0.99452959945E+01  0.69903981909E+02  0.41800000000E+01 0.  1.
         -5    1    3    3    0  502 -0.32598812744E+02 -0.36593826980E+02 -0.98045650505E+02  0.10969144337E+03  0.41800000000E+01 0.  1.
        -11    1    1    2    0    0 -0.41414696971E+02  0.28010430354E+02  0.57250533148E+02  0.76009110504E+02  0.00000000000E+00 0.  1.
         11    1    1    2    0    0  0.10200939803E+02  0.35005760173E+02 -0.19862591928E+02  0.41520898067E+02  0.00000000000E+00 0. -1.
</event>
<event>
 7    1  0.2612321E-009  0.9395245E+02  0.7561462E-02  0.1293553E+00
          3   -1    0    0  501    0  0.00000000000E+00  0.00000000000E+00  0.61491407200E+03  0.61491407200E+03  0.00000000000E+00 0. -1.
         -3   -1    0    0    0  501 -0.00000000000E+00 -0.00000000000E+00 -0.22111403056E+02  0.22111403056E+02  0.00000000000E+00 0.  1.
         25    2    1    2    0    0 -0.23298343017E+02 -0.69743072738E+01  0.39051244574E+03  0.41077807391E+03  0.12508877641E+03 0.  0.
          5    1    3    3  502    0  0.96195814097E+01 -0.55582571046E+02  0.27911919257E+03  0.28479282753E+03  0.41800000000E+01 0.  1.
         -5    1    3    3    0  502 -0.32917924427E+02  0.48608263772E+02  0.11139325316E+03  0.12598524638E+03  0.41800000000E+01 0.  1.
        -11    1    1    2    0    0 -0.94420668946E+01  0.30657680096E+02  0.16422842705E+02  0.36038253823E+02  0.00000000000E+00 0.  1.
         11    1    1    2    0    0  0.32740409912E+02 -0.23683372822E+02  0.18586738050E+03  0.19020914732E+03  0.00000000000E+00 0. -1.
</event>
<event>
 7    1  0.2612321E-009  0.1205397E+03  0.7561462E-02  0.1242209E+00
         -1   -1    0    0    0  501 -0.00000000000E+00  0.00000000000E+00  0.65364079659E+02  0.65364079659E+02  0.00000000000E+00 0.  1.
          1   -1    0    0  501    0  0.00000000000E+00 -0.00000000000E+00 -0.34651404931E+03  0.34651404931E+03  0.00000000000E+00 0. -1.
         25    2    1    2    0    0 -0.25257120347E+02  0.81388037193E+02 -0.68262103296E+02  0.16603938659E+03  0.12508968153E+03 0.  0.
          5    1    3    3  502    0 -0.73759743529E+02  0.34278520965E+02 -0.51128954170E+02  0.96162150140E+02  0.41800000000E+01 0.  1.
         -5    1    3    3    0  502  0.48502623183E+02  0.47109516228E+02 -0.17133149126E+02  0.69877236450E+02  0.41800000000E+01 0.  1.
        -11    1    1    2    0    0  0.27184710666E+02 -0.30065060603E+02 -0.18078196024E+03  0.18527016358E+03  0.00000000000E+00 0. -1.
         11    1    1    2    0    0 -0.19275903192E+01 -0.51322976590E+02 -0.32105906111E+02  0.60568578799E+02  0.00000000000E+00 0.  1.
</event>
<event>
 7    1  0.2612321E-009  0.1174492E+03  0.7561462E-02  0.1247365E+00
         -1   -1    0    0    0  501 -0.00000000000E+00  0.00000000000E+00  0.21577519369E+03  0.21577519369E+03  0.00000000000E+00 0.  1.
          1   -1    0    0  501    0  0.00000000000E+00 -0.00000000000E+00 -0.84480361425E+02  0.84480361425E+02  0.00000000000E+00 0. -1.
         25    2    1    2    0    0 -0.55575965825E+02  0.10818542705E+02  0.14131135091E+03  0.19703322507E+03  0.12508982789E+03 0.  0.
          5    1    3    3  502    0  0.31972182769E+02 -0.25430251069E+02  0.30380581191E+02  0.51081995399E+02  0.41800000000E+01 0.  1.
         -5    1    3    3    0  502 -0.87548148594E+02  0.36248793774E+02  0.11093076972E+03  0.14595122967E+03  0.41800000000E+01 0.  1.
        -11    1    1    2    0    0 -0.20425368997E+02 -0.10536577726E+02 -0.14353501483E+02  0.27096829587E+02  0.00000000000E+00 0. -1.
         11    1    1    2    0    0  0.76001334822E+02 -0.28196497841E+00  0.43369828322E+01  0.76125500452E+02  0.00000000000E+00 0.  1.
</event>
<event>
 7    1  0.2612321E-009  0.1105199E+03  0.7561462E-02  0.1259610E+00
          1   -1    0    0  501    0  0.00000000000E+00  0.00000000000E+00  0.24763116486E+03  0.24763116486E+03  0.00000000000E+00 0. -1.
         -1   -1    0    0    0  501 -0.00000000000E+00 -0.00000000000E+00 -0.81217141731E+02  0.81217141731E+02  0.00000000000E+00 0.  1.
         25    2    1    2    0    0  0.78166177674E+02 -0.16763781018E+01  0.37327865425E+02  0.15216124148E+03  0.12508761847E+03 0.  0.
          5    1    3    3  502    0  0.45643652324E+02 -0.35138185383E+02  0.73139054612E+02  0.93192428764E+02  0.41800000000E+01 0.  1.
         -5    1    3    3    0  502  0.32522525350E+02  0.33461807282E+02 -0.35811189186E+02  0.58968812712E+02  0.41800000000E+01 0.  1.
        -11    1    1    2    0    0 -0.93017859395E+02 -0.14873734805E+02  0.12026309811E+03  0.15276374871E+03  0.00000000000E+00 0. -1.
         11    1    1    2    0    0  0.14851681721E+02  0.16550112906E+02  0.88230595969E+01  0.23923316405E+02  0.00000000000E+00 0.  1.
</event>
<event>
 7    1  0.2612321E-009  0.1310976E+03  0.7561462E-02  0.1225836E+00
         -3   -1    0    0    0  501 -0.00000000000E+00  0.00000000000E+00  0.11447177912E+03  0.11447177912E+03  0.00000000000E+00 0.  1.
          3   -1    0    0  501    0  0.00000000000E+00 -0.00000000000E+00 -0.21767033445E+03  0.21767033445E+03  0.00000000000E+00 0. -1.
         25    2    1    2    0    0 -0.25926220316E+01  0.11502032705E+03 -0.48719714628E+02  0.17679679644E+03  0.12508836603E+03 0.  0.
          5    1    3    3  502    0 -0.20191024773E+02  0.37323050763E+02  0.39311662142E+02  0.57996265225E+02  0.41800000000E+01 0.  1.
         -5    1    3    3    0  502  0.17598402742E+02  0.77697276286E+02 -0.88031376770E+02  0.11880053122E+03  0.41800000000E+01 0.  1.
        -11    1    1    2    0    0 -0.25937154244E+02 -0.53804666420E+01 -0.28898782599E+02  0.39202359970E+02  0.00000000000E+00 0. -1.
         11    1    1    2    0    0  0.28529776275E+02 -0.10963986041E+03 -0.25580058106E+02  0.11614295716E+03  0.00000000000E+00 0.  1.
</event>
<event>
 7    1  0.2612321E-009  0.9993337E+02  0.7561462E-02  0.1280436E+00
          3   -1    0    0  501    0  0.00000000000E+00  0.00000000000E+00  0.19995960219E+03  0.19995960219E+03  0.00000000000E+00 0. -1.
         -3   -1    0    0    0  501 -0.00000000000E+00 -0.00000000000E+00 -0.92351018430E+02  0.92351018430E+02  0.00000000000E+00 0.  1.
         25    2    1    2    0    0 -0.28317156004E+02 -0.67362435535E+01  0.14227976185E+03  0.19167084486E+03  0.12508774454E+03 0.  0.
          5    1    3    3  502    0  0.40162986042E+02  0.17941794572E+02  0.94996801166E+02  0.10477040647E+03  0.41800000000E+01 0.  1.
         -5    1    3    3    0  502 -0.68480142046E+02 -0.24678038125E+02  0.47282960689E+02  0.86900438387E+02  0.41800000000E+01 0.  1.
        -11    1    1    2    0    0 -0.24737991120E+02 -0.10656998684E+02 -0.35791895565E+02  0.44795084705E+02  0.00000000000E+00 0.  1.
         11    1    1    2    0    0  0.53055147125E+02  0.17393242238E+02  0.11207174735E+01  0.55844691060E+02  0.00000000000E+00 0. -1.
</event>
<event>
 7    1  0.2612321E-009  0.1419101E+03  0.7561462E-02  0.1210782E+00
          2   -1    0    0  501    0  0.00000000000E+00  0.00000000000E+00  0.39080762506E+03  0.39080762506E+03  0.00000000000E+00 0.  1.
         -2   -1    0    0    0  501 -0.00000000000E+00 -0.00000000000E+00 -0.70141903806E+02  0.70141903806E+02  0.00000000000E+00 0. -1.
         25    2    1    2    0    0 -0.12275319865E+03  0.10892037388E+02  0.19954115823E+03  0.26580312889E+03  0.12509054817E+03 0.  0.
          5    1    3    3  502    0 -0.30072747421E+02 -0.28734823956E+02  0.14544062755E+03  0.15132914058E+03  0.41800000000E+01 0. -1.
         -5    1    3    3    0  502 -0.92680451228E+02  0.39626861344E+02  0.54100530677E+02  0.11447398831E+03  0.41800000000E+01 0. -1.
        -11    1    1    2    0    0  0.11165606320E+03  0.15288695212E+02  0.12278274430E+03  0.16666260213E+03  0.00000000000E+00 0.  1.
         11    1    1    2    0    0  0.11097135448E+02 -0.26180732600E+02 -0.16581812801E+01  0.28483797847E+02  0.00000000000E+00 0. -1.
</event>
<event>
 7    1  0.2612321E-009  0.2574880E+03  0.7561462E-02  0.1108662E+00
         -2   -1    0    0    0  501 -0.00000000000E+00  0.00000000000E+00  0.79711591984E+02  0.79711591984E+02  0.00000000000E+00 0.  1.
          2   -1    0    0  501    0  0.00000000000E+00 -0.00000000000E+00 -0.89770523604E+03  0.89770523604E+03  0.00000000000E+00 0. -1.
         25    2    1    2    0    0  0.23288836743E+03 -0.36426285499E+02 -0.30053252844E+03  0.40190677586E+03  0.12508153290E+03 0.  0.
          5    1    3    3  502    0  0.32512228666E+02 -0.52752036306E+02 -0.10139532040E+03  0.11890460776E+03  0.41800000000E+01 0.  1.
         -5    1    3    3    0  502  0.20037613876E+03  0.16325750807E+02 -0.19913720804E+03  0.28300216810E+03  0.41800000000E+01 0.  1.
        -11    1    1    2    0    0 -0.16450853566E+03 -0.16474289652E+02 -0.33204763714E+03  0.37093138699E+03  0.00000000000E+00 0.  1.
         11    1    1    2    0    0 -0.68379831766E+02  0.52900575151E+02 -0.18541347848E+03  0.20457866518E+03  0.00000000000E+00 0. -1.
</event>
<event>
 7    1  0.2612321E-009  0.1053779E+03  0.7561462E-02  0.1269377E+00
         -2   -1    0    0    0  501 -0.00000000000E+00  0.00000000000E+00  0.36852158027E+02  0.36852158027E+02  0.00000000000E+00 0.  1.
          2   -1    0    0  501    0  0.00000000000E+00 -0.00000000000E+00 -0.52976241467E+03  0.52976241467E+03  0.00000000000E+00 0. -1.
         25    2    1    2    0    0 -0.30358491557E+02  0.75948745572E+02 -0.32971845159E+03  0.36200968487E+03  0.12508758796E+03 0.  0.
          5    1    3    3  502    0 -0.48878650390E+02  0.68858419458E+02 -0.33107288529E+03  0.34169772046E+03  0.41800000000E+01 0.  1.
         -5    1    3    3    0  502  0.18520158833E+02  0.70903261142E+01  0.13544337023E+01  0.20311964412E+02  0.41800000000E+01 0.  1.
        -11    1    1    2    0    0  0.52109629048E+02 -0.53901063679E+02 -0.57539879222E+02  0.94507014587E+02  0.00000000000E+00 0.  1.
         11    1    1    2    0    0 -0.21751137491E+02 -0.22047681893E+02 -0.10565192584E+03  0.11009787324E+03  0.00000000000E+00 0. -1.
</event>
<event>
 6    1  0.2612321E-009  0.9501519E+02  0.7561462E-02  0.1291142E+00
          2   -1    0    0  501    0  0.00000000000E+00  0.00000000000E+00  0.83878241043E+02  0.83878241043E+02  0.00000000000E+00 0. -1.
         -2   -1    0    0    0  501 -0.00000000000E+00 -0.00000000000E+00 -0.27716550270E+03  0.27716550270E+03  0.00000000000E+00 0.  1.
          5    1    1    2  502    0 -0.15008302147E+01 -0.12408484612E+01 -0.59556883623E+02  0.59735140270E+02  0.41800000000E+01 0.  1.
         -5    1    1    2    0  502  0.71705264177E+02  0.38695898321E+02  0.38255678592E+02  0.90110969378E+02  0.41800000000E+01 0.  1.
        -11    1    1    2    0    0  0.10468711526E+02 -0.18036344860E+02 -0.97458275404E+02  0.99664532817E+02  0.00000000000E+00 0.  1.
         11    1    1    2    0    0 -0.80673145488E+02 -0.19418705000E+02 -0.74527781219E+02  0.11153310128E+03  0.00000000000E+00 0. -1.
</event>
<event>
 7    1  0.2612321E-009  0.7473523E+02  0.7561462E-02  0.1344693E+00
         -1   -1    0    0    0  501 -0.00000000000E+00  0.00000000000E+00  0.23339377498E+02  0.23339377498E+02  0.00000000000E+00 0.  1.
          1   -1    0    0  501    0  0.00000000000E+00 -0.00000000000E+00 -0.74234607204E+03  0.74234607204E+03  0.00000000000E+00 0. -1.
         25    2    1    2    0    0 -0.31364177636E+02 -0.35238034464E+02 -0.56653239806E+03  0.58209162918E+03  0.12508507506E+03 0.  0.
          5    1    3    3  502    0 -0.18337804405E+02 -0.26815017934E+02 -0.27353000532E+02  0.42672933990E+02  0.41800000000E+01 0. -1.
         -5    1    3    3    0  502 -0.13026373230E+02 -0.84230165297E+01 -0.53917939753E+03  0.53941869519E+03  0.41800000000E+01 0. -1.
        -11    1    1    2    0    0  0.56132971422E+02  0.47018861208E+02 -0.12436492039E+03  0.14432018990E+03  0.00000000000E+00 0.  1.
         11    1    1    2    0    0 -0.24768793786E+02 -0.11780826744E+02 -0.28109376089E+02  0.39273630447E+02  0.00000000000E+00 0. -1.
</event>
<event>
 7    1  0.2612321E-009  0.9986533E+02  0.7561462E-02  0.1280579E+00
         -2   -1    0    0    0  501 -0.00000000000E+00  0.00000000000E+00  0.15370978082E+02  0.15370978082E+02  0.00000000000E+00 0.  1.
          2   -1    0    0  501    0  0.00000000000E+00 -0.00000000000E+00 -0.26344782089E+04  0.26344782089E+04  0.00000000000E+00 0. -1.
         25    2    1    2    0    0 -0.29160226854E+02 -0.34068887875E+02 -0.24416952923E+04  0.24453082377E+04  0.12508185066E+03 0.  0.
          5    1    3    3  502    0 -0.94594866585E+01  0.45180342825E+02 -0.59447769932E+03  0.59628177287E+03  0.41800000000E+01 0. -1.
         -5    1    3    3    0  502 -0.19700740196E+02 -0.79249230700E+02 -0.18472175929E+04  0.18490264649E+04  0.41800000000E+01 0. -1.
        -11    1    1    2    0    0  0.29616925331E+02 -0.70887492850E+01 -0.98636755167E+01  0.32011009468E+02  0.00000000000E+00 0.  1.
         11    1    1    2    0    0 -0.45669847628E+00  0.41157637160E+02 -0.16754826305E+03  0.17252993978E+03  0.00000000000E+00 0. -1.
</event>
<event>
 7    1  0.2612321E-009  0.8986292E+02  0.7561462E-02  0.1303184E+00
         -1   -1    0    0    0  501 -0.00000000000E+00  0.00000000000E+00  0.51013938590E+02  0.51013938590E+02  0.00000000000E+00 0. -1.
          1   -1    0    0  501    0  0.00000000000E+00 -0.00000000000E+00 -0.35901492657E+03  0.35901492657E+03  0.00000000000E+00 0.  1.
         25    2    1    2    0    0 -0.64954312984E+02 -0.11512415045E+02 -0.98024730761E+02  0.17206835298E+03  0.12508825597E+03 0.  0.
          5    1    3    3  502    0 -0.62126664717E+02 -0.95181950465E+01  0.10110849850E+02  0.63796709872E+02  0.41800000000E+01 0. -1.
         -5    1    3    3    0  502 -0.28276482671E+01 -0.19942199988E+01 -0.10813558061E+03  0.10827164311E+03  0.41800000000E+01 0. -1.
        -11    1    1    2    0    0  0.52033873649E+02  0.49112466834E+02 -0.14691677063E+03  0.16341387915E+03  0.00000000000E+00 0.  1.
         11    1    1    2    0    0  0.12920439335E+02 -0.37600051789E+02 -0.63059486595E+02  0.74546633034E+02  0.00000000000E+00 0. -1.
</event>
<event>
 7    1  0.2612321E-009  0.1046832E+03  0.7561462E-02  0.1270745E+00
          1   -1    0    0  501    0  0.00000000000E+00  0.00000000000E+00  0.17384021169E+03  0.17384021169E+03  0.00000000000E+00 0. -1.
         -1   -1    0    0    0  501 -0.00000000000E+00 -0.00000000000E+00 -0.83100432968E+02  0.83100432968E+02  0.00000000000E+00 0.  1.
         25    2    1    2    0    0 -0.88220286359E+01  0.31965368043E+02 -0.17201885539E+01  0.12942041926E+03  0.12508826056E+03 0.  0.
          5    1    3    3  502    0  0.43542207422E+02  0.54899729505E+02  0.10033457905E+02  0.70908721639E+02  0.41800000000E+01 0.  1.
         -5    1    3    3    0  502 -0.52364236058E+02 -0.22934361462E+02 -0.11753646459E+02  0.58511697622E+02  0.41800000000E+01 0.  1.
        -11    1    1    2    0    0  0.33681511425E+02  0.81546089657E+01  0.17207718092E+02  0.38691697057E+02  0.00000000000E+00 0.  1.
         11    1    1    2    0    0 -0.24859482789E+02 -0.40119977009E+02  0.75252249184E+02  0.88828528339E+02  0.00000000000E+00 0. -1.
</event>
<event>
 7    1  0.2612321E-009  0.2277958E+03  0.7561462E-02  0.1128201E+00
          2   -1    0    0  501    0  0.00000000000E+00  0.00000000000E+00  0.12696182788E+04  0.12696182788E+04  0.00000000000E+00 0. -1.
         -2   -1    0    0    0  501 -0.00000000000E+00 -0.00000000000E+00 -0.44965295548E+02  0.44965295548E+02  0.00000000000E+00 0.  1.
         25    2    1    2    0    0  0.18387518970E+03 -0.94053180487E+02  0.49532324617E+03  0.55104566528E+03  0.12510044315E+03 0.  0.
          5    1    3    3  502    0 -0.10777947761E+02 -0.17100586032E+02  0.10951289166E+02  0.23366585865E+02  0.41800000000E+01 0. -1.
         -5    1    3    3    0  502  0.19465313747E+03 -0.76952594455E+02  0.48437195700E+03  0.52767907941E+03  0.41800000000E+01 0. -1.
        -11    1    1    2    0    0 -0.16600982221E+03  0.42972129023E+02  0.53466275096E+03  0.56148920043E+03  0.00000000000E+00 0. -1.
         11    1    1    2    0    0 -0.17865367499E+02  0.51081051465E+02  0.19466698610E+03  0.20204870861E+03  0.00000000000E+00 0.  1.
</event>
<event>
 7    1  0.2612321E-009  0.9692913E+02  0.7561462E-02  0.1286889E+00
         -2   -1    0    0    0  501 -0.00000000000E+00  0.00000000000E+00  0.17043734332E+02  0.17043734332E+02  0.00000000000E+00 0.  1.
          2   -1    0    0  501    0  0.00000000000E+00 -0.00000000000E+00 -0.99101280087E+03  0.99101280087E+03  0.00000000000E+00 0. -1.
         25    2    1    2    0    0  0.16900632859E+02  0.41897781244E+02 -0.76230540840E+03  0.77382119176E+03  0.12509454694E+03 0.  0.
          5    1    3    3  502    0  0.44459380633E+02  0.16545460435E+01 -0.97917074367E+02  0.10763177924E+03  0.41800000000E+01 0. -1.
         -5    1    3    3    0  502 -0.27558747774E+02  0.40243235201E+02 -0.66438833403E+03  0.66618941252E+03  0.41800000000E+01 0. -1.
        -11    1    1    2    0    0  0.25306590682E+02  0.14967052680E+02 -0.67056335547E+02  0.73218770372E+02  0.00000000000E+00 0. -1.
         11    1    1    2    0    0 -0.42207223541E+02 -0.56864833925E+02 -0.14460732259E+03  0.16101657307E+03  0.00000000000E+00 0.  1.
</event>
<event>
 7    1  0.2612321E-009  0.1001142E+03  0.7561462E-02  0.1280056E+00
          2   -1    0    0  501    0  0.00000000000E+00  0.00000000000E+00  0.66553048304E+03  0.66553048304E+03  0.00000000000E+00 0. -1.
         -2   -1    0    0    0  501 -0.00000000000E+00 -0.00000000000E+00 -0.25040791315E+02  0.25040791315E+02  0.00000000000E+00 0.  1.
         25    2    1    2    0    0  0.50707386877E+02  0.43659490202E+02  0.35994304904E+03  0.38689185853E+03  0.12509564930E+03 0.  0.
          5    1    3    3  502    0  0.35561987327E+02 -0.64932082858E+01  0.17393289985E+02  0.40333802610E+02  0.41800000000E+01 0. -1.
         -5    1    3    3    0  502  0.15145399550E+02  0.50152698487E+02  0.34254975906E+03  0.34655805592E+03  0.41800000000E+01 0. -1.
        -11    1    1    2    0    0  0.24002092659E+02 -0.24188918521E+02  0.13125331890E+03  0.13560471214E+03  0.00000000000E+00 0.  1.
         11    1    1    2    0    0 -0.74709479536E+02 -0.19470571681E+02  0.14929332378E+03  0.16807470369E+03  0.00000000000E+00 0. -1.
</event>
<event>
 7    1  0.2612321E-009  0.1603719E+03  0.7561462E-02  0.1188278E+00
          3   -1    0    0  501    0  0.00000000000E+00  0.00000000000E+00  0.88569892445E+02  0.88569892445E+02  0.00000000000E+00 0. -1.
         -3   -1    0    0    0  501 -0.00000000000E+00 -0.00000000000E+00 -0.75966530122E+03  0.75966530122E+03  0.00000000000E+00 0.  1.
         25    2    1    2    0    0  0.81798342018E+02 -0.11104356109E+03 -0.33391640564E+02  0.18916559559E+03  0.12508788781E+03 0.  0.
          5    1    3    3  502    0 -0.19013238128E+02 -0.15616313267E+02  0.27840354285E+02  0.37388904649E+02  0.41800000000E+01 0. -1.
         -5    1    3    3    0  502  0.10081158015E+03 -0.95427247822E+02 -0.61231994848E+02  0.15177669094E+03  0.41800000000E+01 0. -1.
        -11    1    1    2    0    0 -0.96036927565E+02  0.10170530792E+03 -0.61489920342E+03  0.63060930178E+03  0.00000000000E+00 0.  1.
         11    1    1    2    0    0  0.14238585547E+02  0.93382531660E+01 -0.22804564790E+02  0.28460296306E+02  0.00000000000E+00 0. -1.
</event>
<event>
 7    1  0.2612321E-009  0.9907803E+02  0.7561462E-02  0.1282247E+00
         -2   -1    0    0    0  501 -0.00000000000E+00  0.00000000000E+00  0.18273285336E+02  0.18273285336E+02  0.00000000000E+00 0.  1.
          2   -1    0    0  501    0  0.00000000000E+00 -0.00000000000E+00 -0.79607732797E+03  0.79607732797E+03  0.00000000000E+00 0. -1.
         25    2    1    2    0    0  0.59443292799E+01  0.50861501277E+02 -0.42864261506E+03  0.44944821002E+03  0.12508786787E+03 0.  0.
          5    1    3    3  502    0 -0.33848311254E+02  0.10925070128E+02 -0.29715503561E+02  0.46535458351E+02  0.41800000000E+01 0. -1.
         -5    1    3    3    0  502  0.39792640534E+02  0.39936431149E+02 -0.39892711150E+03  0.40291275167E+03  0.41800000000E+01 0. -1.
        -11    1    1    2    0    0  0.11879656100E+02  0.25109451074E+02 -0.10203120999E+03  0.10574487493E+03  0.00000000000E+00 0.  1.
         11    1    1    2    0    0 -0.17823985380E+02 -0.75970952351E+02 -0.24713021759E+03  0.25915752836E+03  0.00000000000E+00 0. -1.
</event>
<event>
 7    1  0.2612321E-009  0.1307123E+03  0.7561462E-02  0.1226403E+00
         -2   -1    0    0    0  501 -0.00000000000E+00  0.00000000000E+00  0.11255974704E+03  0.11255974704E+03  0.00000000000E+00 0.  1.
          2   -1    0    0  501    0  0.00000000000E+00 -0.00000000000E+00 -0.20195732714E+03  0.20195732714E+03  0.00000000000E+00 0. -1.
         25    2    1    2    0    0 -0.43218856497E+02 -0.81732255673E+02  0.26126019613E+01  0.15555966671E+03  0.12507578920E+03 0.  0.
          5    1    3    3  502    0 -0.15166058261E+01 -0.10584380023E+03  0.10922595417E+02  0.10649875882E+03  0.41800000000E+01 0. -1.
         -5    1    3    3    0  502 -0.41702250671E+02  0.24111544555E+02 -0.83099934554E+01  0.49060907891E+02  0.41800000000E+01 0. -1.
        -11    1    1    2    0    0  0.45524916610E+02  0.28195770005E+02 -0.12560817703E+01  0.53563954484E+02  0.00000000000E+00 0.  1.
         11    1    1    2    0    0 -0.23060601130E+01  0.53536485669E+02 -0.90754100294E+02  0.10539345298E+03  0.00000000000E+00 0. -1.
</event>
<event>
 7    1  0.2612321E-009  0.8326297E+02  0.7561462E-02  0.1320039E+00
          2   -1    0    0  501    0  0.00000000000E+00  0.00000000000E+00  0.10109039950E+03  0.10109039950E+03  0.00000000000E+00 0. -1.
         -2   -1    0    0    0  501 -0.00000000000E+00 -0.00000000000E+00 -0.26567562153E+03  0.26567562153E+03  0.00000000000E+00 0.  1.
         25    2    1    2    0    0 -0.68200755768E+02  0.80118134868E+01 -0.20025891966E+03  0.24591277266E+03  0.12511564495E+03 0.  0.
          5    1    3    3  502    0 -0.53150666313E+02  0.36964482898E+02 -0.20279351886E+03  0.21291794198E+03  0.41800000000E+01 0. -1.
         -5    1    3    3    0  502 -0.15050089455E+02 -0.28952669412E+02  0.25345991973E+01  0.32994830682E+02  0.41800000000E+01 0. -1.
        -11    1    1    2    0    0  0.26970997384E+02 -0.15045234093E+01 -0.31668492801E+02  0.41624412631E+02  0.00000000000E+00 0.  1.
         11    1    1    2    0    0  0.41229758384E+02 -0.65072900775E+01  0.67342190432E+02  0.79228835740E+02  0.00000000000E+00 0. -1.
</event>
<event>
 7    1  0.2716280E-009  0.1193575E+03  0.7561462E-02  0.1244161E+00
          1   -1    0    0  501    0  0.00000000000E+00  0.00000000000E+00  0.64094915833E+03  0.64094915833E+03  0.00000000000E+00 0. -1.
         -1   -1    0    0    0  501 -0.00000000000E+00 -0.00000000000E+00 -0.43257094835E+02  0.43257094835E+02  0.00000000000E+00 0.  1.
         25    2    1    2    0    0  0.10150959029E+03 -0.79728743884E+01  0.16663068916E+03  0.23190765493E+03  0.12509040810E+03 0.  0.
          5    1    3    3  502    0  0.56187868599E+02  0.52339318536E+01 -0.21231901329E+01  0.56625532728E+02  0.41800000000E+01 0. -1.
         -5    1    3    3    0  502  0.45321721691E+02 -0.13206806242E+02  0.16875387929E+03  0.17528212220E+03  0.41800000000E+01 0. -1.
        -11    1    1    2    0    0 -0.35056837596E+02 -0.39692978697E+02  0.13118459621E+03  0.14147053652E+03  0.00000000000E+00 0.  1.
         11    1    1    2    0    0 -0.66452752694E+02  0.47665853085E+02  0.29987677813E+03  0.31082806172E+03  0.00000000000E+00 0. -1.
</event>
<event>
 7    1  0.2612321E-009  0.1276870E+03  0.7561462E-02  0.1230929E+00
         -2   -1    0    0    0  501 -0.00000000000E+00  0.00000000000E+00  0.54066254192E+02  0.54066254192E+02  0.00000000000E+00 0. -1.
          2   -1    0    0  501    0  0.00000000000E+00 -0.00000000000E+00 -0.62332977421E+03  0.62332977421E+03  0.00000000000E+00 0.  1.
         25    2    1    2    0    0 -0.94747763893E+02  0.41011375817E+02 -0.10575713007E+03  0.19362099331E+03  0.12508176039E+03 0.  0.
          5    1    3    3  502    0 -0.76024342530E+02  0.71738624214E+02 -0.28704868060E+02  0.10847844353E+03  0.41800000000E+01 0. -1.
         -5    1    3    3    0  502 -0.18723421363E+02 -0.30727248397E+02 -0.77052262013E+02  0.85142549779E+02  0.41800000000E+01 0. -1.
        -11    1    1    2    0    0  0.82301628914E+02 -0.12261881605E+02 -0.42970903514E+03  0.43769140583E+03  0.00000000000E+00 0.  1.
         11    1    1    2    0    0  0.12446134979E+02 -0.28749494212E+02 -0.33797354814E+02  0.46083629260E+02  0.00000000000E+00 0. -1.
</event>
<event>
 7    1  0.2612321E-009  0.1096907E+03  0.7561462E-02  0.1261144E+00
         -3   -1    0    0    0  501 -0.00000000000E+00  0.00000000000E+00  0.19828431235E+03  0.19828431235E+03  0.00000000000E+00 0.  1.
          3   -1    0    0  501    0  0.00000000000E+00 -0.00000000000E+00 -0.10037470455E+03  0.10037470455E+03  0.00000000000E+00 0. -1.
         25    2    1    2    0    0  0.74818592213E+02 -0.45251214917E+02  0.78696213529E+02  0.17171454454E+03  0.12508915457E+03 0.  0.
          5    1    3    3  502    0 -0.11146985348E+02 -0.40907232200E+02  0.74026922203E+02  0.85411442673E+02  0.41800000000E+01 0. -1.
         -5    1    3    3    0  502  0.85965577560E+02 -0.43439827176E+01  0.46692913262E+01  0.86303101871E+02  0.41800000000E+01 0. -1.
        -11    1    1    2    0    0 -0.46327021221E+02  0.14191257947E+02  0.53814484608E+02  0.72412591798E+02  0.00000000000E+00 0.  1.
         11    1    1    2    0    0 -0.28491570991E+02  0.31059956971E+02 -0.34601090343E+02  0.54531880561E+02  0.00000000000E+00 0. -1.
</event>
<event>
 7    1  0.2612321E-009  0.1257302E+03  0.7561462E-02  0.1233933E+00
         -1   -1    0    0    0  501 -0.00000000000E+00  0.00000000000E+00  0.43202295420E+02  0.43202295420E+02  0.00000000000E+00 0.  1.
          1   -1    0    0  501    0  0.00000000000E+00 -0.00000000000E+00 -0.45012504245E+03  0.45012504245E+03  0.00000000000E+00 0. -1.
         25    2    1    2    0    0 -0.83266091993E+01  0.82566612532E+02 -0.26318697148E+03  0.30298715440E+03  0.12508899171E+03 0.  0.
          5    1    3    3  502    0  0.34954259400E+02  0.97875298891E+02 -0.18194977510E+03  0.20958188720E+03  0.41800000000E+01 0. -1.
         -5    1    3    3    0  502 -0.43280868599E+02 -0.15308686359E+02 -0.81237196378E+02  0.93405267196E+02  0.41800000000E+01 0. -1.
        -11    1    1    2    0    0 -0.21947259004E+02 -0.13070479272E+02 -0.99168817550E+02  0.10240592747E+03  0.00000000000E+00 0. -1.
         11    1    1    2    0    0  0.30273868203E+02 -0.69496133261E+02 -0.44566958004E+02  0.87934256009E+02  0.00000000000E+00 0.  1.
</event>
<event>
 7    1  0.2612321E-009  0.1038614E+03  0.7561462E-02  0.1272379E+00
          4   -1    0    0  501    0  0.00000000000E+00  0.00000000000E+00  0.72243553763E+03  0.72243553763E+03  0.00000000000E+00 0.  1.
         -4   -1    0    0    0  501 -0.00000000000E+00 -0.00000000000E+00 -0.28022668862E+02  0.28022668862E+02  0.00000000000E+00 0. -1.
         25    2    1    2    0    0  0.47774419968E+02 -0.19796877359E+02  0.56985867980E+03  0.58571324488E+03  0.12508708456E+03 0.  0.
          5    1    3    3  502    0  0.76108616381E+02 -0.31158924735E+02  0.52421304238E+03  0.53064129719E+03  0.41800000000E+01 0. -1.
         -5    1    3    3    0  502 -0.28334196413E+02  0.11362047376E+02  0.45645637418E+02  0.55071947689E+02  0.41800000000E+01 0. -1.
        -11    1    1    2    0    0  0.20970862859E+02  0.14741295676E+02  0.76597371150E+02  0.80772768644E+02  0.00000000000E+00 0.  1.
         11    1    1    2    0    0 -0.68745282827E+02  0.50555816827E+01  0.47956817821E+02  0.83972192973E+02  0.00000000000E+00 0. -1.
</event>
<event>
 7    1  0.2612321E-009  0.1678685E+03  0.7561462E-02  0.1180089E+00
         -1   -1    0    0    0  501 -0.00000000000E+00  0.00000000000E+00  0.13857531630E+03  0.13857531630E+03  0.00000000000E+00 0.  1.
          1   -1    0    0  501    0  0.00000000000E+00 -0.00000000000E+00 -0.28148264148E+03  0.28148264148E+03  0.00000000000E+00 0. -1.
         25    2    1    2    0    0  0.10998342614E+03 -0.85462671591E+02 -0.16359221971E+03  0.24861621363E+03  0.12508950823E+03 0.  0.
          5    1    3    3  502    0  0.56894760723E+02  0.92864029999E+01 -0.11672843704E+03  0.13025456419E+03  0.41800000000E+01 0.  1.
         -5    1    3    3    0  502  0.53088665418E+02 -0.94749074591E+02 -0.46863782664E+02  0.11836164944E+03  0.41800000000E+01 0.  1.
        -11    1    1    2    0    0 -0.71063382167E+02  0.10414287219E+03  0.23210981116E+02  0.12819708170E+03  0.00000000000E+00 0.  1.
         11    1    1    2    0    0 -0.38920043973E+02 -0.18680200595E+02 -0.25260865853E+01  0.43244662452E+02  0.00000000000E+00 0. -1.
</event>
<event>
 7    1  0.2612321E-009  0.1253950E+03  0.7561462E-02  0.1234453E+00
          2   -1    0    0  501    0  0.00000000000E+00  0.00000000000E+00  0.72389331977E+03  0.72389331977E+03  0.00000000000E+00 0. -1.
         -2   -1    0    0    0  501 -0.00000000000E+00 -0.00000000000E+00 -0.22517300991E+02  0.22517300991E+02  0.00000000000E+00 0.  1.
         25    2    1    2    0    0 -0.26404146500E+02  0.45416223843E+02  0.43349367282E+03  0.45422978398E+03  0.12509244555E+03 0.  0.
          5    1    3    3  502    0  0.42976509093E+02  0.49892221776E+02  0.21660009047E+03  0.22642721948E+03  0.41800000000E+01 0. -1.
         -5    1    3    3    0  502 -0.69380655593E+02 -0.44759979332E+01  0.21689358235E+03  0.22780256450E+03  0.41800000000E+01 0. -1.
        -11    1    1    2    0    0  0.49414967741E+02  0.14066996431E+02  0.14309947159E+03  0.15204334314E+03  0.00000000000E+00 0. -1.
         11    1    1    2    0    0 -0.23010821241E+02 -0.59483220274E+02  0.12478287437E+03  0.14013749364E+03  0.00000000000E+00 0.  1.
</event>
<event>
 7    1  0.2612321E-009  0.1058811E+03  0.7561462E-02  0.1268393E+00
          1   -1    0    0  501    0  0.00000000000E+00  0.00000000000E+00  0.38237583389E+03  0.38237583389E+03  0.00000000000E+00 0. -1.
         -1   -1    0    0    0  501 -0.00000000000E+00 -0.00000000000E+00 -0.39961121522E+02  0.39961121522E+02  0.00000000000E+00 0.  1.
         25    2    1    2    0    0  0.23136832798E+02  0.10428383172E+02  0.93902637079E+02  0.15845957979E+03  0.12509064301E+03 0.  0.
          5    1    3    3  502    0  0.44398305624E+02 -0.45195090071E+02  0.27566375843E+02  0.69218373182E+02  0.41800000000E+01 0. -1.
         -5    1    3    3    0  502 -0.21261472825E+02  0.55623473243E+02  0.66336261236E+02  0.89241206609E+02  0.41800000000E+01 0. -1.
        -11    1    1    2    0    0  0.75521563753E+01 -0.43096200740E+02  0.11496106226E+03  0.12300554224E+03  0.00000000000E+00 0.  1.
         11    1    1    2    0    0 -0.30688989174E+02  0.32667817568E+02  0.13355101303E+03  0.14087183339E+03  0.00000000000E+00 0. -1.
</event>
<event>
 7    1  0.2612321E-009  0.1855194E+03  0.7561462E-02  0.1162566E+00
         -1   -1    0    0    0  501 -0.00000000000E+00  0.00000000000E+00  0.10788627336E+03  0.10788627336E+03  0.00000000000E+00 0.  1.
          1   -1    0    0  501    0  0.00000000000E+00 -0.00000000000E+00 -0.38110858345E+03  0.38110858345E+03  0.00000000000E+00 0. -1.
         25    2    1    2    0    0  0.71302112303E+02  0.15015878405E+03 -0.18664212239E+03  0.27948766422E+03  0.12508565448E+03 0.  0.
          5    1    3    3  502    0 -0.16348547871E+02  0.35341877891E+02  0.49846412527E+01  0.39479645373E+02  0.41800000000E+01 0. -1.
         -5    1    3    3    0  502  0.87650660174E+02  0.11481690616E+03 -0.19162676364E+03  0.24000801885E+03  0.41800000000E+01 0. -1.
        -11    1    1    2    0    0 -0.90491267642E+02 -0.10700906472E+03 -0.46764068367E+02  0.14773790150E+03  0.00000000000E+00 0.  1.
         11    1    1    2    0    0  0.19189155339E+02 -0.43149719333E+02 -0.39816119340E+02  0.61769291079E+02  0.00000000000E+00 0. -1.
</event>
<event>
 7    1  0.2612321E-009  0.1430078E+03  0.7561462E-02  0.1209338E+00
         -2   -1    0    0    0  501 -0.00000000000E+00  0.00000000000E+00  0.16987059467E+02  0.16987059467E+02  0.00000000000E+00 0.  1.
          2   -1    0    0  501    0  0.00000000000E+00 -0.00000000000E+00 -0.14151809894E+04  0.14151809894E+04  0.00000000000E+00 0. -1.
         25    2    1    2    0    0  0.21529730701E+02 -0.99361980641E+02 -0.95681936954E+03  0.97030158921E+03  0.12508211536E+03 0.  0.
          5    1    3    3  502    0 -0.31425354598E+02 -0.90947277991E+02 -0.76655255970E+03  0.77257961367E+03  0.41800000000E+01 0.  1.
         -5    1    3    3    0  502  0.52955085299E+02 -0.84147026499E+01 -0.19026680985E+03  0.19772197554E+03  0.41800000000E+01 0.  1.
        -11    1    1    2    0    0 -0.32342548678E+02 -0.34628930957E+01 -0.11442788831E+03  0.11896122775E+03  0.00000000000E+00 0.  1.
         11    1    1    2    0    0  0.10812817977E+02  0.10282487374E+03 -0.32694667209E+03  0.34290523192E+03  0.00000000000E+00 0. -1.
</event>
<event>
 7    1  0.2612321E-009  0.9122487E+02  0.7561462E-02  0.1299912E+00
          1   -1    0    0  501    0  0.00000000000E+00  0.00000000000E+00  0.96691369002E+02  0.96691369002E+02  0.00000000000E+00 0. -1.
         -1   -1    0    0    0  501 -0.00000000000E+00 -0.00000000000E+00 -0.22692489345E+03  0.22692489345E+03  0.00000000000E+00 0.  1.
         25    2    1    2    0    0  0.73542230251E+01  0.72838058299E+02  0.29740186267E+01  0.14496934822E+03  0.12509116597E+03 0.  0.
          5    1    3    3  502    0  0.39301794845E+02  0.14726746933E+02 -0.46011761903E+02  0.62418449089E+02  0.41800000000E+01 0.  1.
         -5    1    3    3    0  502 -0.31947571820E+02  0.58111311366E+02  0.48985780530E+02  0.82550899135E+02  0.41800000000E+01 0.  1.
        -11    1    1    2    0    0 -0.79609093989E+01 -0.31729497019E+02  0.62070470717E+01  0.33296613835E+02  0.00000000000E+00 0. -1.
         11    1    1    2    0    0  0.60668637379E+00 -0.41108561281E+02 -0.13941459015E+03  0.14535030040E+03  0.00000000000E+00 0.  1.
</event>
<event>
 6    1  0.2612321E-009  0.9542201E+02  0.7561462E-02  0.1290228E+00
         -2   -1    0    0    0  501 -0.00000000000E+00  0.00000000000E+00  0.15322076795E+02  0.15322076795E+02  0.00000000000E+00 0.  1.
          2   -1    0    0  501    0  0.00000000000E+00 -0.00000000000E+00 -0.80279084113E+03  0.80279084113E+03  0.00000000000E+00 0. -1.
          5    1    1    2  502    0  0.23623441249E+02  0.31731432232E+02 -0.58430728986E+02  0.70686443239E+02  0.41800000000E+01 0. -1.
         -5    1    1    2    0  502 -0.44188806601E+02 -0.44440263917E+02 -0.40832554881E+03  0.41312808413E+03  0.41800000000E+01 0. -1.
        -11    1    1    2    0    0 -0.32726286849E+02 -0.25386933578E+01 -0.67092008733E+02  0.74691314426E+02  0.00000000000E+00 0.  1.
         11    1    1    2    0    0  0.53291652201E+02  0.15247525043E+02 -0.25362047781E+03  0.25960707614E+03  0.00000000000E+00 0. -1.
</event>
<event>
 7    1  0.2612321E-009  0.1317953E+03  0.7561462E-02  0.1224816E+00
         -2   -1    0    0    0  501 -0.00000000000E+00  0.00000000000E+00  0.19319790309E+02  0.19319790309E+02  0.00000000000E+00 0.  1.
          2   -1    0    0  501    0  0.00000000000E+00 -0.00000000000E+00 -0.98183277060E+03  0.98183277060E+03  0.00000000000E+00 0. -1.
         25    2    1    2    0    0  0.35727441308E+02  0.77053295264E+02 -0.53396485854E+03  0.55495456719E+03  0.12506974499E+03 0.  0.
          5    1    3    3  502    0 -0.41906377673E+02  0.26578694207E+02 -0.28448747841E+03  0.28881338135E+03  0.41800000000E+01 0. -1.
         -5    1    3    3    0  502  0.77633818981E+02  0.50474601057E+02 -0.24947738013E+03  0.26614118584E+03  0.41800000000E+01 0. -1.
        -11    1    1    2    0    0  0.27040443694E+02 -0.89575556262E+01 -0.63694224711E+02  0.69773760538E+02  0.00000000000E+00 0.  1.
         11    1    1    2    0    0 -0.62767885002E+02 -0.68095739637E+02 -0.36485389704E+03  0.37642423319E+03  0.00000000000E+00 0. -1.
</event>
<event>
 7    1  0.2612321E-009  0.1050802E+03  0.7561462E-02  0.1269962E+00
          3   -1    0    0  501    0  0.00000000000E+00  0.00000000000E+00  0.22012349747E+03  0.22012349747E+03  0.00000000000E+00 0. -1.
         -3   -1    0    0    0  501 -0.00000000000E+00 -0.00000000000E+00 -0.66700226918E+02  0.66700226918E+02  0.00000000000E+00 0.  1.
         25    2    1    2    0    0 -0.40306197030E+01  0.39402129479E+02  0.12631983292E+03  0.18212488386E+03  0.12507597463E+03 0.  0.
          5    1    3    3  502    0  0.43951172108E+02  0.47485294705E+02  0.11495966987E+03  0.13198392645E+03  0.41800000000E+01 0.  1.
         -5    1    3    3    0  502 -0.47981791812E+02 -0.80831652262E+01  0.11360163044E+02  0.50140957409E+02  0.41800000000E+01 0.  1.
        -11    1    1    2    0    0  0.41739955213E+02  0.28281003877E+00 -0.36639005200E+01  0.41901408207E+02  0.00000000000E+00 0.  1.
         11    1    1    2    0    0 -0.37709335510E+02 -0.39684939517E+02  0.30767338150E+02  0.62797432320E+02  0.00000000000E+00 0. -1.
</event>
<event>
 7    1  0.2612321E-009  0.1000118E+03  0.7561462E-02  0.1280271E+00
         -2   -1    0    0    0  501 -0.00000000000E+00  0.00000000000E+00  0.10205640262E+03  0.10205640262E+03  0.00000000000E+00 0.  1.
          2   -1    0    0  501    0  0.00000000000E+00 -0.00000000000E+00 -0.14691192871E+03  0.14691192871E+03  0.00000000000E+00 0. -1.
         25    2    1    2    0    0  0.30025782086E+02  0.98942413490E+01 -0.24939966816E+02  0.13141370880E+03  0.12509243508E+03 0.  0.
          5    1    3    3  502    0  0.61004929121E+02  0.48604597366E+02 -0.23752179829E+02  0.81643411913E+02  0.41800000000E+01 0. -1.
         -5    1    3    3    0  502 -0.30979147035E+02 -0.38710356017E+02 -0.11877869874E+01  0.49770296884E+02  0.41800000000E+01 0. -1.
        -11    1    1    2    0    0  0.19712027340E+02 -0.10664200437E+02  0.36193207619E+02  0.42570382552E+02  0.00000000000E+00 0.  1.
         11    1    1    2    0    0 -0.49737809426E+02  0.76995908765E+00 -0.56108766897E+02  0.74984239985E+02  0.00000000000E+00 0. -1.
</event>
<event>
 7    1  0.2612321E-009  0.9851750E+02  0.7561462E-02  0.1283445E+00
          1   -1    0    0  501    0  0.00000000000E+00  0.00000000000E+00  0.12662431904E+04  0.12662431904E+04  0.00000000000E+00 0. -1.
         -1   -1    0    0    0  501 -0.00000000000E+00 -0.00000000000E+00 -0.21941950902E+02  0.21941950902E+02  0.00000000000E+00 0.  1.
         25    2    1    2    0    0 -0.36236123226E+02  0.56665090919E+02  0.10766698397E+04  0.10859968309E+04  0.12508870377E+03 0.  0.
          5    1    3    3  502    0 -0.79188563078E+00  0.83600427293E+02  0.89497197261E+03  0.89887816899E+03  0.41800000000E+01 0. -1.
         -5    1    3    3    0  502 -0.35444237595E+02 -0.26935336374E+02  0.18169786713E+03  0.18711866193E+03  0.41800000000E+01 0. -1.
        -11    1    1    2    0    0  0.11407186566E+02 -0.30400711910E+02  0.16246527016E+03  0.16567827618E+03  0.00000000000E+00 0. -1.
         11    1    1    2    0    0  0.24828936660E+02 -0.26264379008E+02  0.51661295686E+01  0.36510034170E+02  0.00000000000E+00 0.  1.
</event>
<event>
 7    1  0.2612321E-009  0.2222820E+03  0.7561462E-02  0.1132193E+00
         -2   -1    0    0    0  501 -0.00000000000E+00  0.00000000000E+00  0.10084464330E+03  0.10084464330E+03  0.00000000000E+00 0. -1.
          2   -1    0    0  501    0  0.00000000000E+00 -0.00000000000E+00 -0.57419066924E+03  0.57419066924E+03  0.00000000000E+00 0.  1.
         25    2    1    2    0    0  0.17871615756E+03 -0.84199750233E+02 -0.12725107041E+03  0.26621375949E+03  0.12509143818E+03 0.  0.
          5    1    3    3  502    0 -0.16215320911E+02 -0.11343612665E+02  0.33328103071E+01  0.20498639103E+02  0.41800000000E+01 0.  1.
         -5    1    3    3    0  502  0.19493147847E+03 -0.72856137568E+02 -0.13058388072E+03  0.24571512039E+03  0.41800000000E+01 0.  1.
        -11    1    1    2    0    0 -0.79694738958E+02 -0.90125566094E+01 -0.15145555572E+03  0.17138046257E+03  0.00000000000E+00 0.  1.
         11    1    1    2    0    0 -0.99021418607E+02  0.93212306842E+02 -0.19463939980E+03  0.23744109047E+03  0.00000000000E+00 0. -1.
</event>
<event>
 7    1  0.2612321E-009  0.1447944E+03  0.7561462E-02  0.1207020E+00
          2   -1    0    0  501    0  0.00000000000E+00  0.00000000000E+00  0.11481087385E+03  0.11481087385E+03  0.00000000000E+00 0. -1.
         -2   -1    0    0    0  501 -0.00000000000E+00 -0.00000000000E+00 -0.24683475620E+03  0.24683475620E+03  0.00000000000E+00 0.  1.
         25    2    1    2    0    0  0.10133703403E+03 -0.98647137996E+01  0.12905382915E+02  0.16180655192E+03  0.12509318243E+03 0.  0.
          5    1    3    3  502    0  0.68947148910E+02 -0.60930410554E+02 -0.17871773416E+02  0.93824820586E+02  0.41800000000E+01 0.  1.
         -5    1    3    3    0  502  0.32389885117E+02  0.51065696754E+02  0.30777156331E+02  0.67981731330E+02  0.41800000000E+01 0.  1.
        -11    1    1    2    0    0 -0.27613827064E+02 -0.39461174922E+02 -0.41439745412E+02  0.63537077925E+02  0.00000000000E+00 0. -1.
         11    1    1    2    0    0 -0.73723206962E+02  0.49325888722E+02 -0.10348951985E+03  0.13630200021E+03  0.00000000000E+00 0.  1.
</event>
<event>
 7    1  0.2612321E-009  0.1370790E+03  0.7561462E-02  0.1217314E+00
         -1   -1    0    0    0  501 -0.00000000000E+00  0.00000000000E+00  0.18947384525E+03  0.18947384525E+03  0.00000000000E+00 0.  1.
          1   -1    0    0  501    0  0.00000000000E+00 -0.00000000000E+00 -0.10464537904E+03  0.10464537904E+03  0.00000000000E+00 0. -1.
         25    2    1    2    0    0  0.41755589631E+02 -0.80832472599E+02  0.50958036196E+02  0.16285389763E+03  0.12508897885E+03 0.  0.
          5    1    3    3  502    0  0.32015908068E+01 -0.10748850278E+03  0.35194005017E+02  0.11322596347E+03  0.41800000000E+01 0. -1.
         -5    1    3    3    0  502  0.38553998824E+02  0.26656030183E+02  0.15764031180E+02  0.49627934165E+02  0.41800000000E+01 0. -1.
        -11    1    1    2    0    0  0.22912091253E+02  0.16252435634E+02 -0.10092738976E+02  0.29849103332E+02  0.00000000000E+00 0. -1.
         11    1    1    2    0    0 -0.64667680884E+02  0.64580036965E+02  0.43963168995E+02  0.10141622332E+03  0.00000000000E+00 0.  1.
</event>
<event>
 6    1  0.2612321E-009  0.3396997E+03  0.7561462E-02  0.1066924E+00
          2   -1    0    0  501    0  0.00000000000E+00  0.00000000000E+00  0.40870453237E+03  0.40870453237E+03  0.00000000000E+00 0. -1.
         -2   -1    0    0    0  501 -0.00000000000E+00 -0.00000000000E+00 -0.37073121544E+03  0.37073121544E+03  0.00000000000E+00 0.  1.
          5    1    1    2  502    0 -0.56543275050E+02  0.59736764011E+02 -0.25624404675E+00  0.82359947723E+02  0.41800000000E+01 0. -1.
         -5    1    1    2    0  502 -0.26088431588E+03  0.40718134042E+02 -0.15016965211E+03  0.30378773762E+03  0.41800000000E+01 0. -1.
        -11    1    1    2    0    0  0.12562318281E+03 -0.41648115702E+02  0.12715151298E+03  0.18352998898E+03  0.00000000000E+00 0.  1.
         11    1    1    2    0    0  0.19180440813E+03 -0.58806782351E+02  0.61247700111E+02  0.20975807349E+03  0.00000000000E+00 0. -1.
</event>
<event>
 7    1  0.2612321E-009  0.3164174E+03  0.7561462E-02  0.1077310E+00
         -2   -1    0    0    0  501 -0.00000000000E+00  0.00000000000E+00  0.53847063615E+02  0.53847063615E+02  0.00000000000E+00 0.  1.
          2   -1    0    0  501    0  0.00000000000E+00 -0.00000000000E+00 -0.20432520369E+04  0.20432520369E+04  0.00000000000E+00 0. -1.
         25    2    1    2    0    0 -0.15661823651E+03 -0.26856542635E+03 -0.11420417423E+04  0.11901948734E+04  0.12509130765E+03 0.  0.
          5    1    3    3  502    0 -0.16292128957E+03 -0.26709352252E+03 -0.11400910616E+04  0.11822467583E+04  0.41800000000E+01 0. -1.
         -5    1    3    3    0  502  0.63030530670E+01 -0.14719038286E+01 -0.19506807493E+01  0.79481151371E+01  0.41800000000E+01 0. -1.
        -11    1    1    2    0    0  0.10910588279E+03  0.21150722932E+03 -0.73195866246E+03  0.76967713053E+03  0.00000000000E+00 0. -1.
         11    1    1    2    0    0  0.47512353713E+02  0.57058197029E+02 -0.11540456854E+03  0.13722709660E+03  0.00000000000E+00 0.  1.
</event>
<event>
 7    1  0.2612321E-009  0.2174297E+03  0.7561462E-02  0.1135814E+00
         -1   -1    0    0    0  501 -0.00000000000E+00  0.00000000000E+00  0.27889112103E+02  0.27889112103E+02  0.00000000000E+00 0.  1.
          1   -1    0    0  501    0  0.00000000000E+00 -0.00000000000E+00 -0.21011330931E+04  0.21011330931E+04  0.00000000000E+00 0. -1.
         25    2    1    2    0    0 -0.55523235545E+02 -0.20452057118E+03 -0.12773346823E+04  0.13008239787E+04  0.12509052406E+03 0.  0.
          5    1    3    3  502    0 -0.60892741848E+02 -0.12163416468E+03 -0.10494716030E+04  0.10582584343E+04  0.41800000000E+01 0.  1.
         -5    1    3    3    0  502  0.53695063037E+01 -0.82886406501E+02 -0.22786307931E+03  0.24256554433E+03  0.41800000000E+01 0.  1.
        -11    1    1    2    0    0  0.26933118387E+02  0.37585247365E+02 -0.78841064252E+02  0.91399984124E+02  0.00000000000E+00 0.  1.
         11    1    1    2    0    0  0.28590117158E+02  0.16693532381E+03 -0.71706823443E+03  0.73679824238E+03  0.00000000000E+00 0. -1.
</event>
<event>
 7    1  0.2612321E-009  0.1015391E+03  0.7561462E-02  0.1277092E+00
          2   -1    0    0  501    0  0.00000000000E+00  0.00000000000E+00  0.15789885186E+03  0.15789885186E+03  0.00000000000E+00 0. -1.
         -2   -1    0    0    0  501 -0.00000000000E+00 -0.00000000000E+00 -0.81472800314E+02  0.81472800314E+02  0.00000000000E+00 0.  1.
         25    2    1    2    0    0 -0.25271438585E+02  0.15367076952E+02  0.58358903110E+02  0.14117154968E+03  0.12509537243E+03 0.  0.
          5    1    3    3  502    0 -0.57434113321E+02 -0.21198585522E+02 -0.45202711929E+01  0.61530176765E+02  0.41800000000E+01 0. -1.
         -5    1    3    3    0  502  0.32162674737E+02  0.36565662474E+02  0.62879174302E+02  0.79641372912E+02  0.41800000000E+01 0. -1.
        -11    1    1    2    0    0 -0.26842864978E+02 -0.28441165154E+02 -0.55674391709E+01  0.39502349986E+02  0.00000000000E+00 0.  1.
         11    1    1    2    0    0  0.52114303562E+02  0.13074088201E+02  0.23634587603E+02  0.58697752506E+02  0.00000000000E+00 0. -1.
</event>
<event>
 7    1  0.2612321E-009  0.4031991E+03  0.7561462E-02  0.1042678E+00
          1   -1    0    0  501    0  0.00000000000E+00  0.00000000000E+00  0.14990993723E+03  0.14990993723E+03  0.00000000000E+00 0. -1.
         -1   -1    0    0    0  501 -0.00000000000E+00 -0.00000000000E+00 -0.11510137326E+04  0.11510137326E+04  0.00000000000E+00 0.  1.
         25    2    1    2    0    0 -0.22218208234E+03  0.32517160037E+03 -0.39092925107E+03  0.56883721258E+03  0.12509455495E+03 0.  0.
          5    1    3    3  502    0 -0.17768409010E+03  0.32153823385E+03 -0.35995627535E+03  0.51433886132E+03  0.41800000000E+01 0.  1.
         -5    1    3    3    0  502 -0.44497992242E+02  0.36333665278E+01 -0.30972975712E+02  0.54498351263E+02  0.41800000000E+01 0.  1.
        -11    1    1    2    0    0  0.86652971266E+02 -0.14107469162E+03 -0.34004573633E+03  0.37820881645E+03  0.00000000000E+00 0.  1.
         11    1    1    2    0    0  0.13552911107E+03 -0.18409690875E+03 -0.27012880802E+03  0.35387764084E+03  0.00000000000E+00 0. -1.
</event>
<event>
 7    1  0.2612321E-009  0.1240889E+03  0.7561462E-02  0.1236500E+00
          2   -1    0    0  501    0  0.00000000000E+00  0.00000000000E+00  0.31371389794E+03  0.31371389794E+03  0.00000000000E+00 0. -1.
         -2   -1    0    0    0  501 -0.00000000000E+00 -0.00000000000E+00 -0.58943982654E+02  0.58943982654E+02  0.00000000000E+00 0.  1.
         25    2    1    2    0    0 -0.88036719583E+01  0.80908751296E+02  0.12536151162E+03  0.19490189727E+03  0.12509000875E+03 0.  0.
          5    1    3    3  502    0  0.55198428281E+02  0.16322401521E+02  0.40967173258E+02  0.70774776304E+02  0.41800000000E+01 0.  1.
         -5    1    3    3    0  502 -0.64002100240E+02  0.64586349775E+02  0.84394338364E+02  0.12412712097E+03  0.41800000000E+01 0.  1.
        -11    1    1    2    0    0 -0.12398524986E+02 -0.76864261372E+02  0.13465444375E+03  0.15554310438E+03  0.00000000000E+00 0. -1.
         11    1    1    2    0    0  0.21202196944E+02 -0.40444899243E+01 -0.52460400915E+01  0.22212878937E+02  0.00000000000E+00 0.  1.
</event>
<event>
 7    1  0.2612321E-009  0.1042168E+03  0.7561462E-02  0.1271670E+00
          4   -1    0    0  501    0  0.00000000000E+00  0.00000000000E+00  0.94369200991E+02  0.94369200991E+02  0.00000000000E+00 0. -1.
         -4   -1    0    0    0  501 -0.00000000000E+00 -0.00000000000E+00 -0.18559785475E+03  0.18559785475E+03  0.00000000000E+00 0.  1.
         25    2    1    2    0    0 -0.35721686791E+02 -0.45823414523E+02  0.36149268425E+01  0.13797343116E+03  0.12509106996E+03 0.  0.
          5    1    3    3  502    0 -0.77006975047E+02 -0.13497781211E+02 -0.19239174919E+02  0.80621849117E+02  0.41800000000E+01 0.  1.
         -5    1    3    3    0  502  0.41285288256E+02 -0.32325633312E+02  0.22854101761E+02  0.57351582042E+02  0.41800000000E+01 0.  1.
        -11    1    1    2    0    0  0.25061344315E+02 -0.50468695374E+01  0.79793806141E+01  0.26780821234E+02  0.00000000000E+00 0. -1.
         11    1    1    2    0    0  0.10660342476E+02  0.50870284060E+02 -0.10282296121E+03  0.11521280334E+03  0.00000000000E+00 0.  1.
</event>
<event>
 7    1  0.2612321E-009  0.9744534E+02  0.7561462E-02  0.1285762E+00
         -1   -1    0    0    0  501 -0.00000000000E+00  0.00000000000E+00  0.78036497652E+02  0.78036497652E+02  0.00000000000E+00 0. -1.
          1   -1    0    0  501    0  0.00000000000E+00 -0.00000000000E+00 -0.22308442554E+03  0.22308442554E+03  0.00000000000E+00 0.  1.
         25    2    1    2    0    0  0.17230738565E+02 -0.36502436602E+01 -0.16242826474E+03  0.20576773522E+03  0.12508875666E+03 0.  0.
          5    1    3    3  502    0 -0.48504535249E+02  0.18355432882E+02 -0.98400701473E+02  0.11130939900E+03  0.41800000000E+01 0. -1.
         -5    1    3    3    0  502  0.65735273814E+02 -0.22005676542E+02 -0.64027563263E+02  0.94458336217E+02  0.41800000000E+01 0. -1.
        -11    1    1    2    0    0 -0.12693280527E+02  0.37330638430E+02 -0.20518232109E+02  0.44448777093E+02  0.00000000000E+00 0.  1.
         11    1    1    2    0    0 -0.45374580378E+01 -0.33680394770E+02  0.37898568961E+02  0.50904410875E+02  0.00000000000E+00 0. -1.
</event>
<event>
 7    1  0.2612321E-009  0.8567410E+02  0.7561462E-02  0.1313679E+00
         -1   -1    0    0    0  501 -0.00000000000E+00  0.00000000000E+00  0.96821767241E+02  0.96821767241E+02  0.00000000000E+00 0.  1.
          1   -1    0    0  501    0  0.00000000000E+00 -0.00000000000E+00 -0.19730841861E+03  0.19730841861E+03  0.00000000000E+00 0. -1.
         25    2    1    2    0    0  0.61501484805E+01  0.25904170858E+01  0.35424981482E+02  0.13018072869E+03  0.12509020035E+03 0.  0.
          5    1    3    3  502    0 -0.37474786903E+02 -0.89551919475E+00  0.66425299598E+02  0.76386873446E+02  0.41800000000E+01 0. -1.
         -5    1    3    3    0  502  0.43624935384E+02  0.34859362805E+01 -0.31000318116E+02  0.53793855246E+02  0.41800000000E+01 0. -1.
        -11    1    1    2    0    0 -0.47675244478E+02 -0.57569262125E+01 -0.55485691819E+02  0.73380740880E+02  0.00000000000E+00 0.  1.
         11    1    1    2    0    0  0.41525095997E+02  0.31665091267E+01 -0.80425941027E+02  0.90568716275E+02  0.00000000000E+00 0. -1.
</event>
<event>
 7    1  0.2612321E-009  0.8095619E+02  0.7561462E-02  0.1326360E+00
         -1   -1    0    0    0  501 -0.00000000000E+00  0.00000000000E+00  0.67698615399E+02  0.67698615399E+02  0.00000000000E+00 0. -1.
          1   -1    0    0  501    0  0.00000000000E+00 -0.00000000000E+00 -0.19485910287E+03  0.19485910287E+03  0.00000000000E+00 0.  1.
         25    2    1    2    0    0 -0.22791993809E+02 -0.10192719881E+02 -0.38066109239E+02  0.13311535571E+03  0.12508917912E+03 0.  0.
          5    1    3    3  502    0 -0.70840569128E+02 -0.27674928029E+02 -0.20337397663E+02  0.78837618049E+02  0.41800000000E+01 0.  1.
         -5    1    3    3    0  502  0.48048575320E+02  0.17482208148E+02 -0.17728711576E+02  0.54277737666E+02  0.41800000000E+01 0.  1.
        -11    1    1    2    0    0  0.10152696947E+02 -0.75540974742E+01  0.16966857545E+02  0.21166386061E+02  0.00000000000E+00 0. -1.
         11    1    1    2    0    0  0.12639296862E+02  0.17746817356E+02 -0.10606123578E+03  0.10827597650E+03  0.00000000000E+00 0.  1.
</event>
<event>
 7    1  0.2612321E-009  0.8543162E+02  0.7561462E-02  0.1314308E+00
          3   -1    0    0  501    0  0.00000000000E+00  0.00000000000E+00  0.89011306521E+02  0.89011306521E+02  0.00000000000E+00 0. -1.
         -3   -1    0    0    0  501 -0.00000000000E+00 -0.00000000000E+00 -0.18869327652E+03  0.18869327652E+03  0.00000000000E+00 0.  1.
         25    2    1    2    0    0 -0.95737521044E+01  0.32364557642E+02  0.10394225191E+02  0.13000106731E+03  0.12511241451E+03 0.  0.
          5    1    3    3  502    0  0.13800888241E+02  0.47316995026E+02  0.57079908281E+02  0.75531125134E+02  0.41800000000E+01 0. -1.
         -5    1    3    3    0  502 -0.23374640346E+02 -0.14952437384E+02 -0.46685683090E+02  0.54469942176E+02  0.41800000000E+01 0. -1.
        -11    1    1    2    0    0 -0.94594160090E+01  0.28256568913E+02 -0.59310000919E+02  0.66374622010E+02  0.00000000000E+00 0. -1.
         11    1    1    2    0    0  0.19033168113E+02 -0.60621126555E+02 -0.50766194274E+02  0.81328893724E+02  0.00000000000E+00 0.  1.
</event>
<event>
 7    1  0.2612321E-009  0.1640061E+03  0.7561462E-02  0.1184247E+00
          1   -1    0    0  501    0  0.00000000000E+00  0.00000000000E+00  0.68828386453E+02  0.68828386453E+02  0.00000000000E+00 0. -1.
         -1   -1    0    0    0  501 -0.00000000000E+00 -0.00000000000E+00 -0.48697260277E+03  0.48697260277E+03  0.00000000000E+00 0.  1.
         25    2    1    2    0    0 -0.12681532569E+03  0.62595635064E+02 -0.27791418627E+03  0.33598322816E+03  0.12509234315E+03 0.  0.
          5    1    3    3  502    0 -0.11540282607E+03 -0.31587233114E+01 -0.13158590998E+03  0.17510029670E+03  0.41800000000E+01 0. -1.
         -5    1    3    3    0  502 -0.11412499616E+02  0.65754358376E+02 -0.14632827629E+03  0.16088293146E+03  0.41800000000E+01 0. -1.
        -11    1    1    2    0    0  0.72123551589E+02 -0.54357535808E+02 -0.13741592393E+03  0.16443747913E+03  0.00000000000E+00 0. -1.
         11    1    1    2    0    0  0.54691774099E+02 -0.82380992566E+01 -0.28141061089E+01  0.55380281930E+02  0.00000000000E+00 0.  1.
</event>
<event>
 7    1  0.2612321E-009  0.9439165E+02  0.7561462E-02  0.1292552E+00
         -1   -1    0    0    0  501 -0.00000000000E+00  0.00000000000E+00  0.20484530531E+02  0.20484530531E+02  0.00000000000E+00 0.  1.
          1   -1    0    0  501    0  0.00000000000E+00 -0.00000000000E+00 -0.84043651514E+03  0.84043651514E+03  0.00000000000E+00 0. -1.
         25    2    1    2    0    0  0.13796794988E+01 -0.72986925716E+02 -0.48390763168E+03  0.50511779180E+03  0.12509353603E+03 0.  0.
          5    1    3    3  502    0 -0.29591722372E+02 -0.58239596755E+02 -0.99138634760E+02  0.11880009245E+03  0.41800000000E+01 0.  1.
         -5    1    3    3    0  502  0.30971401870E+02 -0.14747328961E+02 -0.38476899692E+03  0.38631769935E+03  0.41800000000E+01 0.  1.
        -11    1    1    2    0    0 -0.23054748949E+02  0.16750008773E+02 -0.21927979406E+02  0.35957204060E+02  0.00000000000E+00 0.  1.
         11    1    1    2    0    0  0.21675069451E+02  0.56236916942E+02 -0.31411637352E+03  0.31984604981E+03  0.00000000000E+00 0. -1.
</event>
<event>
 7    1  0.2612321E-009  0.2491020E+03  0.7561462E-02  0.1113874E+00
          2   -1    0    0  501    0  0.00000000000E+00  0.00000000000E+00  0.98624343535E+03  0.98624343535E+03  0.00000000000E+00 0. -1.
         -2   -1    0    0    0  501 -0.00000000000E+00 -0.00000000000E+00 -0.73826522342E+02  0.73826522342E+02  0.00000000000E+00 0.  1.
         25    2    1    2    0    0  0.23481953712E+03 -0.58658595792E+00  0.61599583924E+03  0.67099947869E+03  0.12509543296E+03 0.  0.
          5    1    3    3  502    0  0.72947905861E+02 -0.40049714012E+02  0.10828298314E+03  0.13663108504E+03  0.41800000000E+01 0. -1.
         -5    1    3    3    0  502  0.16187163126E+03  0.39463128054E+02  0.50771285610E+03  0.53436839366E+03  0.41800000000E+01 0. -1.
        -11    1    1    2    0    0 -0.21713111307E+03 -0.23425759001E+02  0.23511691027E+03  0.32089663125E+03  0.00000000000E+00 0.  1.
         11    1    1    2    0    0 -0.17688424055E+02  0.24012344959E+02  0.61304163493E+02  0.68173847753E+02  0.00000000000E+00 0. -1.
</event>
<event>
 7    1  0.2612321E-009  0.1251486E+03  0.7561462E-02  0.1234837E+00
         -1   -1    0    0    0  501 -0.00000000000E+00  0.00000000000E+00  0.14045843400E+03  0.14045843400E+03  0.00000000000E+00 0.  1.
          1   -1    0    0  501    0  0.00000000000E+00 -0.00000000000E+00 -0.14044473978E+03  0.14044473978E+03  0.00000000000E+00 0. -1.
         25    2    1    2    0    0 -0.28398579206E+02 -0.77031405272E+02  0.34582429513E+02  0.15357899185E+03  0.12510094167E+03 0.  0.
          5    1    3    3  502    0 -0.39024928019E+01  0.23684689949E+02 -0.24203693215E+02  0.34343633373E+02  0.41800000000E+01 0.  1.
         -5    1    3    3    0  502 -0.24496086404E+02 -0.10071609522E+03  0.58786122728E+02  0.11923535848E+03  0.41800000000E+01 0.  1.
        -11    1    1    2    0    0 -0.24417058000E+02 -0.47181605879E+01 -0.32365683671E+01  0.25078459592E+02  0.00000000000E+00 0.  1.
         11    1    1    2    0    0  0.52815637206E+02  0.81749565860E+02 -0.31332166925E+02  0.10224572234E+03  0.00000000000E+00 0. -1.
</event>
<event>
 7    1  0.2612321E-009  0.2232571E+03  0.7561462E-02  0.1131478E+00
          1   -1    0    0  501    0  0.00000000000E+00  0.00000000000E+00  0.50539230289E+03  0.50539230289E+03  0.00000000000E+00 0. -1.
         -1   -1    0    0    0  501 -0.00000000000E+00 -0.00000000000E+00 -0.11309650269E+03  0.11309650269E+03  0.00000000000E+00 0.  1.
         25    2    1    2    0    0  0.15379102078E+03 -0.13919728509E+03  0.23165121172E+03  0.33516819602E+03  0.12509146046E+03 0.  0.
          5    1    3    3  502    0  0.94258175206E+02 -0.13759947535E+03  0.21694973044E+03  0.27368390005E+03  0.41800000000E+01 0. -1.
         -5    1    3    3    0  502  0.59532845578E+02 -0.15978097388E+01  0.14701481280E+02  0.61484295965E+02  0.41800000000E+01 0. -1.
        -11    1    1    2    0    0 -0.63392442403E+02  0.12955608305E+02  0.73348940096E+01  0.65117203645E+02  0.00000000000E+00 0.  1.
         11    1    1    2    0    0 -0.90398578380E+02  0.12624167679E+03  0.15330969448E+03  0.21820340591E+03  0.00000000000E+00 0. -1.
</event>
<event>
 7    1  0.2612321E-009  0.1297809E+03  0.7561462E-02  0.1227781E+00
          1   -1    0    0  501    0  0.00000000000E+00  0.00000000000E+00  0.13227941307E+03  0.13227941307E+03  0.00000000000E+00 0. -1.
         -1   -1    0    0    0  501 -0.00000000000E+00 -0.00000000000E+00 -0.15710372183E+03  0.15710372183E+03  0.00000000000E+00 0.  1.
         25    2    1    2    0    0  0.27529497285E+02 -0.80057487666E+02 -0.51887715624E+02  0.15970753071E+03  0.12508831193E+03 0.  0.
          5    1    3    3  502    0  0.76268197880E+02 -0.50978925261E+02 -0.45367621654E+02  0.10242744907E+03  0.41800000000E+01 0. -1.
         -5    1    3    3    0  502 -0.48738700595E+02 -0.29078562404E+02 -0.65200939698E+01  0.57280081639E+02  0.41800000000E+01 0. -1.
        -11    1    1    2    0    0  0.18852318012E+02  0.65331672522E+00  0.32477459191E+02  0.37558249063E+02  0.00000000000E+00 0. -1.
         11    1    1    2    0    0 -0.46381815298E+02  0.79404170940E+02 -0.54140523184E+01  0.92117355127E+02  0.00000000000E+00 0.  1.
</event>
<event>
 7    1  0.2612321E-009  0.1119474E+03  0.7561462E-02  0.1257006E+00
         -3   -1    0    0    0  501 -0.00000000000E+00  0.00000000000E+00  0.16927283129E+03  0.16927283129E+03  0.00000000000E+00 0.  1.
          3   -1    0    0  501    0  0.00000000000E+00 -0.00000000000E+00 -0.11495970344E+03  0.11495970344E+03  0.00000000000E+00 0. -1.
         25    2    1    2    0    0  0.77324315573E+02 -0.93382779325E+01 -0.11656678303E+02  0.14782014955E+03  0.12509462518E+03 0.  0.
          5    1    3    3  502    0 -0.21555473023E+01 -0.23239476788E+02 -0.52266954440E+02  0.57393611072E+02  0.41800000000E+01 0. -1.
         -5    1    3    3    0  502  0.79479862875E+02  0.13901198855E+02  0.40610276137E+02  0.90426538473E+02  0.41800000000E+01 0. -1.
        -11    1    1    2    0    0  0.18852701544E+02 -0.99202367616E+01  0.12457758166E+02  0.24678557321E+02  0.00000000000E+00 0.  1.
         11    1    1    2    0    0 -0.96177017116E+02  0.19258514694E+02  0.53512047983E+02  0.11173382786E+03  0.00000000000E+00 0. -1.
</event>
<event>
 7    1  0.2612321E-009  0.1649042E+03  0.7561462E-02  0.1183269E+00
          2   -1    0    0  501    0  0.00000000000E+00  0.00000000000E+00  0.23592074927E+03  0.23592074927E+03  0.00000000000E+00 0. -1.
         -2   -1    0    0    0  501 -0.00000000000E+00 -0.00000000000E+00 -0.16982247775E+03  0.16982247775E+03  0.00000000000E+00 0.  1.
         25    2    1    2    0    0  0.28546409725E+02  0.15467753570E+03 -0.25245599716E+02  0.20254627622E+03  0.12509043188E+03 0.  0.
          5    1    3    3  502    0  0.22051794426E+02  0.20786326038E+02 -0.57030803017E+02  0.64717369232E+02  0.41800000000E+01 0.  1.
         -5    1    3    3    0  502  0.64946152986E+01  0.13389120966E+03  0.31785203301E+02  0.13782890699E+03  0.41800000000E+01 0.  1.
        -11    1    1    2    0    0 -0.26827891602E+02 -0.29348816841E+02 -0.11137961542E+02  0.41293377255E+02  0.00000000000E+00 0.  1.
         11    1    1    2    0    0 -0.17185181227E+01 -0.12532871886E+03  0.10248183278E+03  0.16190357354E+03  0.00000000000E+00 0. -1.
</event>
<event>
 7    1  0.2612321E-009  0.1229710E+03  0.7561462E-02  0.1238275E+00
         -1   -1    0    0    0  501 -0.00000000000E+00  0.00000000000E+00  0.28439278357E+02  0.28439278357E+02  0.00000000000E+00 0.  1.
          1   -1    0    0  501    0  0.00000000000E+00 -0.00000000000E+00 -0.61132475884E+03  0.61132475884E+03  0.00000000000E+00 0. -1.
         25    2    1    2    0    0 -0.49952321779E+02 -0.85666683067E+01 -0.28971899501E+03  0.31961419528E+03  0.12509002958E+03 0.  0.
          5    1    3    3  502    0  0.20670695023E+01 -0.52101223961E+02 -0.57861085251E+02  0.78001204484E+02  0.41800000000E+01 0. -1.
         -5    1    3    3    0  502 -0.52019391282E+02  0.43534555654E+02 -0.23185790976E+03  0.24161299080E+03  0.41800000000E+01 0. -1.
        -11    1    1    2    0    0 -0.34072750665E+02  0.22029997623E+02 -0.12912552678E+03  0.13535019320E+03  0.00000000000E+00 0. -1.
         11    1    1    2    0    0  0.84025072444E+02 -0.13463329316E+02 -0.16404095869E+03  0.18479964871E+03  0.00000000000E+00 0.  1.
</event>
<event>
 7    1  0.2612321E-009  0.9895831E+02  0.7561462E-02  0.1282502E+00
         -2   -1    0    0    0  501 -0.00000000000E+00  0.00000000000E+00  0.18029315847E+03  0.18029315847E+03  0.00000000000E+00 0.  1.
          2   -1    0    0  501    0  0.00000000000E+00 -0.00000000000E+00 -0.86046450072E+02  0.86046450072E+02  0.00000000000E+00 0. -1.
         25    2    1    2    0    0 -0.40940045049E+02 -0.79914970466E+01  0.74725723552E+01  0.13207190730E+03  0.12508876067E+03 0.  0.
          5    1    3    3  502    0 -0.79391122809E+02 -0.16889695031E+02  0.29761945981E+02  0.86553209112E+02  0.41800000000E+01 0.  1.
         -5    1    3    3    0  502  0.38451077759E+02  0.88981979846E+01 -0.22289373625E+02  0.45518698189E+02  0.41800000000E+01 0.  1.
        -11    1    1    2    0    0  0.51071740507E+02  0.25225433863E+02  0.96483334812E+02  0.11204320188E+03  0.00000000000E+00 0.  1.
         11    1    1    2    0    0 -0.10131695458E+02 -0.17233936816E+02 -0.97091987674E+01  0.22224499359E+02  0.00000000000E+00 0. -1.
</event>
<event>
 7    1  0.2612321E-009  0.1008794E+03  0.7561462E-02  0.1278458E+00
          4   -1    0    0  501    0  0.00000000000E+00  0.00000000000E+00  0.99947713402E+02  0.99947713402E+02  0.00000000000E+00 0. -1.
         -4   -1    0    0    0  501 -0.00000000000E+00 -0.00000000000E+00 -0.17802008273E+03  0.17802008273E+03  0.00000000000E+00 0.  1.
         25    2    1    2    0    0 -0.35518080209E+02  0.66574474924E+02 -0.45473162886E+02  0.15300066666E+03  0.12509076993E+03 0.  0.
          5    1    3    3  502    0  0.10142971397E+01 -0.15955182835E+02 -0.59334800614E+02  0.61592918602E+02  0.41800000000E+01 0. -1.
         -5    1    3    3    0  502 -0.36532377349E+02  0.82529657759E+02  0.13861637729E+02  0.91407748058E+02  0.41800000000E+01 0. -1.
        -11    1    1    2    0    0  0.17983614619E+02  0.69627896259E+01 -0.44442587599E+02  0.48446201364E+02  0.00000000000E+00 0.  1.
         11    1    1    2    0    0  0.17534465590E+02 -0.73537264550E+02  0.11843381158E+02  0.76520928106E+02  0.00000000000E+00 0. -1.
</event>
<event>
 7    1  0.2612321E-009  0.1765946E+03  0.7561462E-02  0.1171140E+00
         -1   -1    0    0    0  501 -0.00000000000E+00  0.00000000000E+00  0.30910022963E+02  0.30910022963E+02  0.00000000000E+00 0.  1.
          1   -1    0    0  501    0  0.00000000000E+00 -0.00000000000E+00 -0.11798500704E+04  0.11798500704E+04  0.00000000000E+00 0. -1.
         25    2    1    2    0    0  0.10962823256E+03  0.11729967175E+03 -0.61964143866E+03  0.65221644402E+03  0.12511280903E+03 0.  0.
          5    1    3    3  502    0  0.12975236992E+03  0.91106626588E+02 -0.57533384008E+03  0.59679359484E+03  0.41800000000E+01 0. -1.
         -5    1    3    3    0  502 -0.20124137354E+02  0.26193045162E+02 -0.44307598580E+02  0.55422849178E+02  0.41800000000E+01 0. -1.
        -11    1    1    2    0    0 -0.17932829212E+02 -0.28350556587E+02 -0.37015893370E+02  0.49955147726E+02  0.00000000000E+00 0.  1.
         11    1    1    2    0    0 -0.91695403352E+02 -0.88949115163E+02 -0.49228271536E+03  0.50858850157E+03  0.00000000000E+00 0. -1.
</event>
<event>
 7    1  0.2612321E-009  0.9707574E+02  0.7561462E-02  0.1286568E+00
          2   -1    0    0  501    0  0.00000000000E+00  0.00000000000E+00  0.58951497802E+03  0.58951497802E+03  0.00000000000E+00 0. -1.
         -2   -1    0    0    0  501 -0.00000000000E+00 -0.00000000000E+00 -0.20849672735E+02  0.20849672735E+02  0.00000000000E+00 0.  1.
         25    2    1    2    0    0  0.82982455709E+01 -0.14576753003E+02  0.28269964623E+03  0.30959375613E+03  0.12509141155E+03 0.  0.
          5    1    3    3  502    0  0.62176326457E+02  0.59142581505E+01  0.10004969785E+03  0.11801817005E+03  0.41800000000E+01 0. -1.
         -5    1    3    3    0  502 -0.53878080886E+02 -0.20491011154E+02  0.18264994838E+03  0.19157558608E+03  0.41800000000E+01 0. -1.
        -11    1    1    2    0    0 -0.10033081627E+02 -0.28723481200E+02  0.36264280255E+02  0.47337079774E+02  0.00000000000E+00 0.  1.
         11    1    1    2    0    0  0.17348360559E+01  0.43300234203E+02  0.24970137879E+03  0.25343381485E+03  0.00000000000E+00 0. -1.
</event>
<event>
 7    1  0.2612321E-009  0.1219204E+03  0.7561462E-02  0.1239962E+00
          2   -1    0    0  501    0  0.00000000000E+00  0.00000000000E+00  0.17540492919E+03  0.17540492919E+03  0.00000000000E+00 0.  1.
         -2   -1    0    0    0  501 -0.00000000000E+00 -0.00000000000E+00 -0.11238516217E+03  0.11238516217E+03  0.00000000000E+00 0. -1.
         25    2    1    2    0    0 -0.46148737588E+02 -0.77393234730E+02  0.28811685286E+02  0.15683426733E+03  0.12508978950E+03 0.  0.
          5    1    3    3  502    0  0.15083148176E+02  0.26120151846E+02  0.19445516658E+02  0.36129824376E+02  0.41800000000E+01 0. -1.
         -5    1    3    3    0  502 -0.61231885764E+02 -0.10351338658E+03  0.93661686286E+01  0.12070444296E+03  0.41800000000E+01 0. -1.
        -11    1    1    2    0    0  0.30303829800E+02  0.68443168167E+02 -0.16873016692E+02  0.76729968471E+02  0.00000000000E+00 0. -1.
         11    1    1    2    0    0  0.15844907788E+02  0.89500665629E+01  0.51081098423E+02  0.54225855552E+02  0.00000000000E+00 0.  1.
</event>
<event>
 7    1  0.2612321E-009  0.2909296E+03  0.7561462E-02  0.1089865E+00
          1   -1    0    0  501    0  0.00000000000E+00  0.00000000000E+00  0.16044706000E+03  0.16044706000E+03  0.00000000000E+00 0. -1.
         -1   -1    0    0    0  501 -0.00000000000E+00 -0.00000000000E+00 -0.67740571059E+03  0.67740571059E+03  0.00000000000E+00 0.  1.
         25    2    1    2    0    0  0.27908858102E+02 -0.28047655148E+03 -0.95658412666E+02  0.32286903422E+03  0.12509149073E+03 0.  0.
          5    1    3    3  502    0  0.25275414964E+01  0.85038164933E+01 -0.21177746055E+02  0.23338223774E+02  0.41800000000E+01 0. -1.
         -5    1    3    3    0  502  0.25381316606E+02 -0.28898036798E+03 -0.74480666611E+02  0.29953081045E+03  0.41800000000E+01 0. -1.
        -11    1    1    2    0    0 -0.20429636019E+01  0.42935403581E+02 -0.13711151862E+03  0.14369130495E+03  0.00000000000E+00 0.  1.
         11    1    1    2    0    0 -0.25865894501E+02  0.23754114790E+03 -0.28418871930E+03  0.37129243141E+03  0.00000000000E+00 0. -1.
</event>
<event>
 7    1  0.2612321E-009  0.2378094E+03  0.7561462E-02  0.1121261E+00
         -1   -1    0    0    0  501 -0.00000000000E+00  0.00000000000E+00  0.64480917092E+02  0.64480917092E+02  0.00000000000E+00 0.  1.
          1   -1    0    0  501    0  0.00000000000E+00 -0.00000000000E+00 -0.10601756309E+04  0.10601756309E+04  0.00000000000E+00 0. -1.
         25    2    1    2    0    0  0.21374613523E+03  0.55935667516E+02 -0.69576048809E+03  0.74063910841E+03  0.12508965945E+03 0.  0.
          5    1    3    3  502    0  0.15733691034E+03 -0.20141973542E+02 -0.41465700789E+03  0.44398030255E+03  0.41800000000E+01 0. -1.
         -5    1    3    3    0  502  0.56409224894E+02  0.76077641058E+02 -0.28110348019E+03  0.29665880587E+03  0.41800000000E+01 0. -1.
        -11    1    1    2    0    0 -0.17083647383E+03 -0.54079608165E+02 -0.28841776095E+03  0.33955045228E+03  0.00000000000E+00 0. -1.
         11    1    1    2    0    0 -0.42909661409E+02 -0.18560593506E+01 -0.11516464763E+02  0.44466987296E+02  0.00000000000E+00 0.  1.
</event>
<event>
 7    1  0.2612321E-009  0.1021233E+03  0.7561462E-02  0.1275893E+00
          2   -1    0    0  501    0  0.00000000000E+00  0.00000000000E+00  0.39344599257E+03  0.39344599257E+03  0.00000000000E+00 0. -1.
         -2   -1    0    0    0  501 -0.00000000000E+00 -0.00000000000E+00 -0.38807196584E+02  0.38807196584E+02  0.00000000000E+00 0.  1.
         25    2    1    2    0    0  0.35115052986E+02 -0.18540683945E+02  0.27557934061E+03  0.30523457894E+03  0.12508937326E+03 0.  0.
          5    1    3    3  502    0  0.76798026887E+02 -0.26057027762E+02  0.12753478570E+03  0.15119358318E+03  0.41800000000E+01 0.  1.
         -5    1    3    3    0  502 -0.41682973901E+02  0.75163438166E+01  0.14804455491E+03  0.15404099577E+03  0.41800000000E+01 0.  1.
        -11    1    1    2    0    0 -0.27141990333E+02  0.45161790035E+02  0.83641137798E+02  0.98854007762E+02  0.00000000000E+00 0. -1.
         11    1    1    2    0    0 -0.79730626530E+01 -0.26621106090E+02 -0.45816824229E+01  0.28164602453E+02  0.00000000000E+00 0.  1.
</event>
<event>
 7    1  0.2612321E-009  0.1017378E+03  0.7561462E-02  0.1276683E+00
          2   -1    0    0  501    0  0.00000000000E+00  0.00000000000E+00  0.15023516136E+03  0.15023516136E+03  0.00000000000E+00 0. -1.
         -2   -1    0    0    0  501 -0.00000000000E+00 -0.00000000000E+00 -0.14626474087E+03  0.14626474087E+03  0.00000000000E+00 0.  1.
         25    2    1    2    0    0 -0.17841064234E+02  0.61320406313E+02  0.79127277827E+02  0.16120274776E+03  0.12508678581E+03 0.  0.
          5    1    3    3  502    0  0.77118667116E+01 -0.29122753367E+02 -0.95913054099E+01  0.31891584961E+02  0.41800000000E+01 0.  1.
         -5    1    3    3    0  502 -0.25552930946E+02  0.90443159680E+02  0.88718583237E+02  0.12931116280E+03  0.41800000000E+01 0.  1.
        -11    1    1    2    0    0  0.33562801853E+02 -0.46739207512E+02 -0.91669933234E+02  0.10823304415E+03  0.00000000000E+00 0.  1.
         11    1    1    2    0    0 -0.15721737619E+02 -0.14581198801E+02  0.16513075893E+02  0.27064110325E+02  0.00000000000E+00 0. -1.
</event>
<event>
 7    1  0.2612321E-009  0.1057333E+03  0.7561462E-02  0.1268681E+00
         -1   -1    0    0    0  501 -0.00000000000E+00  0.00000000000E+00  0.97057037416E+02  0.97057037416E+02  0.00000000000E+00 0.  1.
          1   -1    0    0  501    0  0.00000000000E+00 -0.00000000000E+00 -0.53325487909E+03  0.53325487909E+03  0.00000000000E+00 0. -1.
         25    2    1    2    0    0  0.55605828886E+02  0.59797913240E+02  0.25928633693E+02  0.15161813823E+03  0.12509183492E+03 0.  0.
          5    1    3    3  502    0  0.42692092628E+01 -0.20548925142E+01  0.62777009454E+02  0.63094168090E+02  0.41800000000E+01 0.  1.
         -5    1    3    3    0  502  0.51336619623E+02  0.61852805754E+02 -0.36848375761E+02  0.88523970145E+02  0.41800000000E+01 0.  1.
        -11    1    1    2    0    0 -0.10838309546E+02 -0.76210099040E+02 -0.27239469124E+03  0.28306238882E+03  0.00000000000E+00 0.  1.
         11    1    1    2    0    0 -0.44767519340E+02  0.16412185800E+02 -0.18973178413E+03  0.19563138946E+03  0.00000000000E+00 0. -1.
</event>
<event>
 7    1  0.2612321E-009  0.9270252E+02  0.7561462E-02  0.1296436E+00
          3   -1    0    0  501    0  0.00000000000E+00  0.00000000000E+00  0.51253791341E+02  0.51253791341E+02  0.00000000000E+00 0. -1.
         -3   -1    0    0    0  501 -0.00000000000E+00 -0.00000000000E+00 -0.24660703559E+03  0.24660703559E+03  0.00000000000E+00 0.  1.
         25    2    1    2    0    0  0.20535593752E+02  0.19551708845E+02 -0.10342416216E+03  0.16477329230E+03  0.12509876341E+03 0.  0.
          5    1    3    3  502    0  0.35122584304E+02  0.68153238392E+02 -0.69704838602E+02  0.10370485406E+03  0.41800000000E+01 0. -1.
         -5    1    3    3    0  502 -0.14586990552E+02 -0.48601529547E+02 -0.33719323560E+02  0.61068438240E+02  0.41800000000E+01 0. -1.
        -11    1    1    2    0    0 -0.15117728491E+02 -0.36715582185E+02 -0.29984776026E+00  0.39707299059E+02  0.00000000000E+00 0. -1.
         11    1    1    2    0    0 -0.54178652603E+01  0.17163873340E+02 -0.91629234327E+02  0.93380235571E+02  0.00000000000E+00 0.  1.
</event>
<event>
 7    1  0.2612321E-009  0.1446630E+03  0.7561462E-02  0.1207189E+00
         -2   -1    0    0    0  501 -0.00000000000E+00  0.00000000000E+00  0.16918260053E+02  0.16918260053E+02  0.00000000000E+00 0. -1.
          2   -1    0    0  501    0  0.00000000000E+00 -0.00000000000E+00 -0.17483226293E+04  0.17483226293E+04  0.00000000000E+00 0.  1.
         25    2    1    2    0    0  0.14309313157E+02  0.12973659177E+03 -0.10603143177E+04  0.10756154450E+04  0.12508314578E+03 0.  0.
          5    1    3    3  502    0  0.15844477101E+02  0.12738752379E+03 -0.53225682171E+03  0.54753394902E+03  0.41800000000E+01 0.  1.
         -5    1    3    3    0  502 -0.15351639438E+01  0.23490679874E+01 -0.52805749604E+03  0.52808149596E+03  0.41800000000E+01 0.  1.
        -11    1    1    2    0    0 -0.36773559967E+02 -0.16316378631E+02 -0.23752166530E+03  0.24090467079E+03  0.00000000000E+00 0.  1.
         11    1    1    2    0    0  0.22464246809E+02 -0.11342021314E+03 -0.43356838624E+03  0.44872077362E+03  0.00000000000E+00 0. -1.
</event>
<event>
 7    1  0.2612321E-009  0.1184685E+03  0.7561462E-02  0.1245645E+00
          1   -1    0    0  501    0  0.00000000000E+00  0.00000000000E+00  0.29390427244E+02  0.29390427244E+02  0.00000000000E+00 0. -1.
         -1   -1    0    0    0  501 -0.00000000000E+00 -0.00000000000E+00 -0.51693753188E+03  0.51693753188E+03  0.00000000000E+00 0.  1.
         25    2    1    2    0    0 -0.23970029873E+02  0.46928837562E+02 -0.34198477866E+03  0.36793698432E+03  0.12508859846E+03 0.  0.
          5    1    3    3  502    0 -0.13294633918E+02  0.89310381858E+02 -0.25403569347E+03  0.26963808625E+03  0.41800000000E+01 0. -1.
         -5    1    3    3    0  502 -0.10675395955E+02 -0.42381544296E+02 -0.87949085189E+02  0.98298898068E+02  0.41800000000E+01 0. -1.
        -11    1    1    2    0    0  0.54121656699E+02 -0.10120515051E+02 -0.86651004741E+02  0.10266438122E+03  0.00000000000E+00 0.  1.
         11    1    1    2    0    0 -0.30151626826E+02 -0.36808322511E+02 -0.58911321230E+02  0.75726593581E+02  0.00000000000E+00 0. -1.
</event>
<event>
 7    1  0.2612321E-009  0.1032717E+03  0.7561462E-02  0.1273563E+00
         -1   -1    0    0    0  501 -0.00000000000E+00  0.00000000000E+00  0.55153608865E+03  0.55153608865E+03  0.00000000000E+00 0.  1.
          1   -1    0    0  501    0  0.00000000000E+00 -0.00000000000E+00 -0.36429174880E+02  0.36429174880E+02  0.00000000000E+00 0. -1.
         25    2    1    2    0    0  0.29573711893E+02 -0.34247493583E+02  0.11655745769E+03  0.17686250421E+03  0.12508880525E+03 0.  0.
          5    1    3    3  502    0 -0.35205208905E+02 -0.15695118077E+02 -0.37027268435E+01  0.38947734871E+02  0.41800000000E+01 0.  1.
         -5    1    3    3    0  502  0.64778920798E+02 -0.18552375505E+02  0.12026018454E+03  0.13791476934E+03  0.41800000000E+01 0.  1.
        -11    1    1    2    0    0  0.24377691708E+02  0.39113984984E+02  0.16189021320E+03  0.16832295389E+03  0.00000000000E+00 0. -1.
         11    1    1    2    0    0 -0.53951403601E+02 -0.48664914009E+01  0.23665924287E+03  0.24277980543E+03  0.00000000000E+00 0.  1.
</event>
<event>
 7    1  0.2612321E-009  0.1063068E+03  0.7561462E-02  0.1267566E+00
         -2   -1    0    0    0  501 -0.00000000000E+00  0.00000000000E+00  0.13618370233E+02  0.13618370233E+02  0.00000000000E+00 0.  1.
          2   -1    0    0  501    0  0.00000000000E+00 -0.00000000000E+00 -0.10016019687E+04  0.10016019687E+04  0.00000000000E+00 0. -1.
         25    2    1    2    0    0  0.40737957568E+02  0.39674661928E+01 -0.62863290336E+03  0.64226258208E+03  0.12508627094E+03 0.  0.
          5    1    3    3  502    0  0.76718570337E+02  0.18493793723E+01 -0.55368446410E+03  0.55899294935E+03  0.41800000000E+01 0. -1.
         -5    1    3    3    0  502 -0.35980612769E+02  0.21180868206E+01 -0.74948439257E+02  0.83269632725E+02  0.41800000000E+01 0. -1.
        -11    1    1    2    0    0 -0.59397454062E+02  0.25464673959E+02 -0.24793792895E+03  0.25622202048E+03  0.00000000000E+00 0.  1.
         11    1    1    2    0    0  0.18659496494E+02 -0.29432140152E+02 -0.11141276617E+03  0.11673573638E+03  0.00000000000E+00 0. -1.
</event>
<event>
 7    1  0.2612321E-009  0.9963436E+02  0.7561462E-02  0.1281067E+00
         -2   -1    0    0    0  501 -0.00000000000E+00  0.00000000000E+00  0.25495167727E+02  0.25495167727E+02  0.00000000000E+00 0.  1.
          2   -1    0    0  501    0  0.00000000000E+00 -0.00000000000E+00 -0.57342674068E+03  0.57342674068E+03  0.00000000000E+00 0. -1.
         25    2    1    2    0    0  0.45637994209E+02 -0.17704799695E+02 -0.25594667031E+03  0.28905501807E+03  0.12509124262E+03 0.  0.
          5    1    3    3  502    0 -0.26023351397E+00  0.33583618826E+02 -0.19217538113E+03  0.19513271557E+03  0.41800000000E+01 0. -1.
         -5    1    3    3    0  502  0.45898227723E+02 -0.51288418522E+02 -0.63771289180E+02  0.93922302496E+02  0.41800000000E+01 0. -1.
        -11    1    1    2    0    0 -0.16854711061E+02 -0.33630234297E+02 -0.62429178506E+02  0.72886735918E+02  0.00000000000E+00 0.  1.
         11    1    1    2    0    0 -0.28783283148E+02  0.51335033992E+02 -0.22955572413E+03  0.23698015441E+03  0.00000000000E+00 0. -1.
</event>
<event>
 7    1  0.2756603E-009  0.1174864E+03  0.7561462E-02  0.1247302E+00
         -2   -1    0    0    0  501 -0.00000000000E+00  0.00000000000E+00  0.34078365292E+02  0.34078365292E+02  0.00000000000E+00 0.  1.
          2   -1    0    0  501    0  0.00000000000E+00 -0.00000000000E+00 -0.61833982596E+03  0.61833982596E+03  0.00000000000E+00 0. -1.
         25    2    1    2    0    0  0.52412305315E+02 -0.77541945948E+02 -0.26485635650E+03  0.30749913196E+03  0.12508806277E+03 0.  0.
          5    1    3    3  502    0  0.49099411186E+02 -0.30780147035E+02 -0.25213872479E+03  0.25874616629E+03  0.41800000000E+01 0.  1.
         -5    1    3    3    0  502  0.33128941288E+01 -0.46761798913E+02 -0.12717631707E+02  0.48752965667E+02  0.41800000000E+01 0.  1.
        -11    1    1    2    0    0 -0.61357105505E+02  0.10594335236E+02 -0.16645286514E+03  0.17771744610E+03  0.00000000000E+00 0.  1.
         11    1    1    2    0    0  0.89448001899E+01  0.66947610712E+02 -0.15295223903E+03  0.16720161319E+03  0.00000000000E+00 0. -1.
</event>
<event>
 7    1  0.2612321E-009  0.2904198E+03  0.7561462E-02  0.1090130E+00
          1   -1    0    0  501    0  0.00000000000E+00  0.00000000000E+00  0.19526345185E+03  0.19526345185E+03  0.00000000000E+00 0. -1.
         -1   -1    0    0    0  501 -0.00000000000E+00 -0.00000000000E+00 -0.50222297013E+03  0.50222297013E+03  0.00000000000E+00 0.  1.
         25    2    1    2    0    0  0.27483733119E+03  0.14679207428E+02 -0.40974704562E+02  0.30508657337E+03  0.12509137897E+03 0.  0.
          5    1    3    3  502    0  0.24637851601E+03  0.45696475531E+02 -0.68042039679E+01  0.25070761979E+03  0.41800000000E+01 0.  1.
         -5    1    3    3    0  502  0.28458815174E+02 -0.31017268102E+02 -0.34170500594E+02  0.54378953580E+02  0.41800000000E+01 0.  1.
        -11    1    1    2    0    0 -0.19723881028E+03 -0.48749528359E+02 -0.19874755933E+03  0.28421867837E+03  0.00000000000E+00 0.  1.
         11    1    1    2    0    0 -0.77598520908E+02  0.34070320931E+02 -0.67237254394E+02  0.10818117024E+03  0.00000000000E+00 0. -1.
</event>
<event>
 7    1  0.2612321E-009  0.1432356E+03  0.7561462E-02  0.1209040E+00
          1   -1    0    0  501    0  0.00000000000E+00  0.00000000000E+00  0.14770468528E+03  0.14770468528E+03  0.00000000000E+00 0. -1.
         -1   -1    0    0    0  501 -0.00000000000E+00 -0.00000000000E+00 -0.24546743195E+03  0.24546743195E+03  0.00000000000E+00 0.  1.
         25    2    1    2    0    0 -0.67835613801E+02  0.68833996575E+02  0.74521660786E+02  0.17475635709E+03  0.12508603772E+03 0.  0.
          5    1    3    3  502    0  0.10881899089E+02  0.77088320889E+02  0.27927089563E+02  0.82815576293E+02  0.41800000000E+01 0. -1.
         -5    1    3    3    0  502 -0.78717512890E+02 -0.82543243145E+01  0.46594571223E+02  0.91940780793E+02  0.41800000000E+01 0. -1.
        -11    1    1    2    0    0 -0.53826749303E+01 -0.54342604507E+02 -0.10297833837E+03  0.11656170052E+03  0.00000000000E+00 0.  1.
         11    1    1    2    0    0  0.73218288731E+02 -0.14491392068E+02 -0.69306069097E+02  0.10185405963E+03  0.00000000000E+00 0. -1.
</event>
<event>
 7    1  0.2612321E-009  0.1354983E+03  0.7561462E-02  0.1219518E+00
          2   -1    0    0  501    0  0.00000000000E+00  0.00000000000E+00  0.10424198187E+04  0.10424198187E+04  0.00000000000E+00 0. -1.
         -2   -1    0    0    0  501 -0.00000000000E+00 -0.00000000000E+00 -0.19781631109E+02  0.19781631109E+02  0.00000000000E+00 0.  1.
         25    2    1    2    0    0 -0.74163701987E+02 -0.33950651501E+02  0.38472242424E+03  0.41269543175E+03  0.12511304586E+03 0.  0.
          5    1    3    3  502    0 -0.35000488676E+02 -0.80507124980E+02  0.24325051574E+03  0.25864013066E+03  0.41800000000E+01 0.  1.
         -5    1    3    3    0  502 -0.39163213311E+02  0.46556473479E+02  0.14147190850E+03  0.15405530109E+03  0.41800000000E+01 0.  1.
        -11    1    1    2    0    0  0.87906770157E+02  0.49894842860E+02  0.53279223738E+03  0.54229573463E+03  0.00000000000E+00 0. -1.
         11    1    1    2    0    0 -0.13743068170E+02 -0.15944191358E+02  0.10512352600E+03  0.10721028346E+03  0.00000000000E+00 0.  1.
</event>
<event>
 7    1  0.2612321E-009  0.1179734E+03  0.7561462E-02  0.1246478E+00
         -2   -1    0    0    0  501 -0.00000000000E+00  0.00000000000E+00  0.40478935821E+02  0.40478935821E+02  0.00000000000E+00 0.  1.
          2   -1    0    0  501    0  0.00000000000E+00 -0.00000000000E+00 -0.42052216153E+03  0.42052216153E+03  0.00000000000E+00 0. -1.
         25    2    1    2    0    0  0.44520944386E+02 -0.56277532877E+02 -0.21328094165E+03  0.25746380065E+03  0.12509825488E+03 0.  0.
          5    1    3    3  502    0 -0.29257126554E+02  0.11179459261E+02 -0.10668473190E+03  0.11126573679E+03  0.41800000000E+01 0. -1.
         -5    1    3    3    0  502  0.73778070939E+02 -0.67456992139E+02 -0.10659620975E+03  0.14619806385E+03  0.41800000000E+01 0. -1.
        -11    1    1    2    0    0 -0.36917759732E+02  0.75269597743E+02 -0.85518427995E+02  0.11975740000E+03  0.00000000000E+00 0.  1.
         11    1    1    2    0    0 -0.76031846532E+01 -0.18992064865E+02 -0.81243856058E+02  0.83779896705E+02  0.00000000000E+00 0. -1.
</event>
<event>
 7    1  0.2612321E-009  0.1383224E+03  0.7561462E-02  0.1215604E+00
         -1   -1    0    0    0  501 -0.00000000000E+00  0.00000000000E+00  0.24662615804E+02  0.24662615804E+02  0.00000000000E+00 0.  1.
          1   -1    0    0  501    0  0.00000000000E+00 -0.00000000000E+00 -0.83242857124E+03  0.83242857124E+03  0.00000000000E+00 0. -1.
         25    2    1    2    0    0  0.83579497566E+02  0.10766566870E+02 -0.46410785183E+03  0.48800086058E+03  0.12508912989E+03 0.  0.
          5    1    3    3  502    0  0.29455177398E+02  0.65586101415E+02 -0.18817741163E+03  0.20148785279E+03  0.41800000000E+01 0. -1.
         -5    1    3    3    0  502  0.54124320168E+02 -0.54819534545E+02 -0.27593044020E+03  0.28651300779E+03  0.41800000000E+01 0. -1.
        -11    1    1    2    0    0 -0.68148140113E+02 -0.50521002181E+02 -0.27919428414E+03  0.29179785633E+03  0.00000000000E+00 0. -1.
         11    1    1    2    0    0 -0.15431357453E+02  0.39754435311E+02 -0.64463819464E+02  0.77292470135E+02  0.00000000000E+00 0.  1.
</event>
<event>
 7    1  0.2612321E-009  0.1224249E+03  0.7561462E-02  0.1239150E+00
         -1   -1    0    0    0  501 -0.00000000000E+00  0.00000000000E+00  0.10138648551E+03  0.10138648551E+03  0.00000000000E+00 0.  1.
          1   -1    0    0  501    0  0.00000000000E+00 -0.00000000000E+00 -0.25841126277E+03  0.25841126277E+03  0.00000000000E+00 0. -1.
         25    2    1    2    0    0 -0.45471750449E+02  0.98218276719E+02 -0.14141947223E+03  0.21762544788E+03  0.12508740332E+03 0.  0.
          5    1    3    3  502    0 -0.37403101852E+02  0.45982686637E+02  0.71773056304E+01  0.59853033462E+02  0.41800000000E+01 0. -1.
         -5    1    3    3    0  502 -0.80686485967E+01  0.52235590082E+02 -0.14859677786E+03  0.15777241442E+03  0.41800000000E+01 0. -1.
        -11    1    1    2    0    0  0.53505558579E+02 -0.25541782108E+02  0.17628788500E+02  0.61854681440E+02  0.00000000000E+00 0.  1.
         11    1    1    2    0    0 -0.80338081299E+01 -0.72676494610E+02 -0.33234093541E+02  0.80317618960E+02  0.00000000000E+00 0. -1.
</event>
<event>
 7    1  0.2612321E-009  0.1472285E+03  0.7561462E-02  0.1203920E+00
          4   -1    0    0  501    0  0.00000000000E+00  0.00000000000E+00  0.62221067979E+03  0.62221067979E+03  0.00000000000E+00 0. -1.
         -4   -1    0    0    0  501 -0.00000000000E+00 -0.00000000000E+00 -0.51393229205E+02  0.51393229205E+02  0.00000000000E+00 0.  1.
         25    2    1    2    0    0  0.10782711354E+03 -0.75090275580E+02  0.39332274414E+03  0.43314622724E+03  0.12509051607E+03 0.  0.
          5    1    3    3  502    0  0.58921067537E+02 -0.20657542783E+02  0.33121798349E+03  0.33707751521E+03  0.41800000000E+01 0.  1.
         -5    1    3    3    0  502  0.48906046002E+02 -0.54432732797E+02  0.62104760655E+02  0.96068712031E+02  0.41800000000E+01 0.  1.
        -11    1    1    2    0    0 -0.34036739213E+02  0.77616025685E+02  0.11984109958E+03  0.14678091227E+03  0.00000000000E+00 0.  1.
         11    1    1    2    0    0 -0.73790374326E+02 -0.25257501051E+01  0.57653606867E+02  0.93676769487E+02  0.00000000000E+00 0. -1.
</event>
<event>
 7    1  0.2612321E-009  0.1402406E+03  0.7561462E-02  0.1213006E+00
         -1   -1    0    0    0  501 -0.00000000000E+00  0.00000000000E+00  0.20048140854E+02  0.20048140854E+02  0.00000000000E+00 0.  1.
          1   -1    0    0  501    0  0.00000000000E+00 -0.00000000000E+00 -0.10958773824E+04  0.10958773824E+04  0.00000000000E+00 0. -1.
         25    2    1    2    0    0 -0.31583865337E+02 -0.85429130948E+02 -0.73060351267E+03  0.74681031981E+03  0.12509390107E+03 0.  0.
          5    1    3    3  502    0  0.42638315449E+01 -0.10770050850E+03 -0.59605474493E+03  0.60573617288E+03  0.41800000000E+01 0.  1.
         -5    1    3    3    0  502 -0.35847696882E+02  0.22271377549E+02 -0.13454876774E+03  0.14107414692E+03  0.41800000000E+01 0.  1.
        -11    1    1    2    0    0 -0.31719450396E+02  0.45136715267E+02 -0.16119471126E+03  0.17037365270E+03  0.00000000000E+00 0.  1.
         11    1    1    2    0    0  0.63303315733E+02  0.40292415680E+02 -0.18403101759E+03  0.19874155072E+03  0.00000000000E+00 0. -1.
</event>
<event>
 7    1  0.2612321E-009  0.7316690E+02  0.7561462E-02  0.1349643E+00
         -1   -1    0    0    0  501 -0.00000000000E+00  0.00000000000E+00  0.23853581704E+02  0.23853581704E+02  0.00000000000E+00 0.  1.
          1   -1    0    0  501    0  0.00000000000E+00 -0.00000000000E+00 -0.11513692722E+04  0.11513692722E+04  0.00000000000E+00 0. -1.
         25    2    1    2    0    0  0.56575495371E+01 -0.69132204985E+02 -0.96666647300E+03  0.97719156338E+03  0.12509201374E+03 0.  0.
          5    1    3    3  502    0  0.65186970705E+01 -0.71581076674E+02 -0.24139688677E+03  0.25190528635E+03  0.41800000000E+01 0.  1.
         -5    1    3    3    0  502 -0.86114753337E+00  0.24488716881E+01 -0.72526958622E+03  0.72528627703E+03  0.41800000000E+01 0.  1.
        -11    1    1    2    0    0 -0.39334197290E+01  0.31759299467E+02  0.89706751348E+00  0.32014522072E+02  0.00000000000E+00 0.  1.
         11    1    1    2    0    0 -0.17241298081E+01  0.37372905519E+02 -0.16174628501E+03  0.16601676844E+03  0.00000000000E+00 0. -1.
</event>
<event>
 7    1  0.2612321E-009  0.2404989E+03  0.7561462E-02  0.1119461E+00
         -1   -1    0    0    0  501 -0.00000000000E+00  0.00000000000E+00  0.98113512271E+03  0.98113512271E+03  0.00000000000E+00 0.  1.
          1   -1    0    0  501    0  0.00000000000E+00 -0.00000000000E+00 -0.59903982791E+02  0.59903982791E+02  0.00000000000E+00 0. -1.
         25    2    1    2    0    0  0.19392698848E+03 -0.96159529864E+02  0.49826901527E+03  0.55746915545E+03  0.12508203569E+03 0.  0.
          5    1    3    3  502    0  0.14433537566E+03 -0.63204131446E+01  0.33110181581E+03  0.36127348799E+03  0.41800000000E+01 0. -1.
         -5    1    3    3    0  502  0.49591612816E+02 -0.89839116720E+02  0.16716719946E+03  0.19619566746E+03  0.41800000000E+01 0. -1.
        -11    1    1    2    0    0 -0.14640210645E+03  0.25500631607E+02  0.28573704164E+03  0.32207066918E+03  0.00000000000E+00 0.  1.
         11    1    1    2    0    0 -0.47524882030E+02  0.70658898257E+02  0.13722508301E+03  0.16149928087E+03  0.00000000000E+00 0. -1.
</event>
<event>
 7    1  0.2612321E-009  0.1139923E+03  0.7561462E-02  0.1253350E+00
          2   -1    0    0  501    0  0.00000000000E+00  0.00000000000E+00  0.70453462670E+03  0.70453462670E+03  0.00000000000E+00 0. -1.
         -2   -1    0    0    0  501 -0.00000000000E+00 -0.00000000000E+00 -0.20373818186E+02  0.20373818186E+02  0.00000000000E+00 0.  1.
         25    2    1    2    0    0 -0.50476857534E+02 -0.67894693704E+01  0.37146903258E+03  0.39526007867E+03  0.12508907859E+03 0.  0.
          5    1    3    3  502    0 -0.74030775274E+02 -0.44357978178E+02  0.19550832403E+03  0.21375023528E+03  0.41800000000E+01 0. -1.
         -5    1    3    3    0  502  0.23553917739E+02  0.37568508807E+02  0.17596070855E+03  0.18150984339E+03  0.41800000000E+01 0. -1.
        -11    1    1    2    0    0  0.76873982416E+01  0.41337848072E+02  0.78128161121E+02  0.88723860010E+02  0.00000000000E+00 0.  1.
         11    1    1    2    0    0  0.42789459293E+02 -0.34548378701E+02  0.23456361481E+03  0.24092450621E+03  0.00000000000E+00 0. -1.
</event>
<event>
 7    1  0.2681573E-009  0.1567929E+03  0.7561462E-02  0.1192366E+00
         -1   -1    0    0    0  501 -0.00000000000E+00  0.00000000000E+00  0.32000349516E+02  0.32000349516E+02  0.00000000000E+00 0.  1.
          1   -1    0    0  501    0  0.00000000000E+00 -0.00000000000E+00 -0.93483259422E+03  0.93483259422E+03  0.00000000000E+00 0. -1.
         25    2    1    2    0    0 -0.87546449190E+02  0.10142551437E+03 -0.49285693077E+03  0.52583900079E+03  0.12508870777E+03 0.  0.
          5    1    3    3  502    0  0.12443557308E+02 -0.16670063314E+02 -0.23729279249E+02  0.31832125645E+02  0.41800000000E+01 0. -1.
         -5    1    3    3    0  502 -0.99990006498E+02  0.11809557768E+03 -0.46912765152E+03  0.49400687514E+03  0.41800000000E+01 0. -1.
        -11    1    1    2    0    0  0.10606337344E+02 -0.32801859639E+02 -0.25350406193E+02  0.42791348212E+02  0.00000000000E+00 0.  1.
         11    1    1    2    0    0  0.76940111845E+02 -0.68623654730E+02 -0.38462490774E+03  0.39820259474E+03  0.00000000000E+00 0. -1.
</event>
<event>
 7    1  0.2612321E-009  0.1390438E+03  0.7561462E-02  0.1214621E+00
          1   -1    0    0  501    0  0.00000000000E+00  0.00000000000E+00  0.73487778059E+02  0.73487778059E+02  0.00000000000E+00 0. -1.
         -1   -1    0    0    0  501 -0.00000000000E+00 -0.00000000000E+00 -0.34281946315E+03  0.34281946315E+03  0.00000000000E+00 0.  1.
         25    2    1    2    0    0 -0.94748326102E+02 -0.66151695137E+02 -0.14353890210E+03  0.22272094880E+03  0.12509161662E+03 0.  0.
          5    1    3    3  502    0 -0.10834745785E+03 -0.83361711907E+02 -0.14623906417E+03  0.20022907612E+03  0.41800000000E+01 0.  1.
         -5    1    3    3    0  502  0.13599131745E+02  0.17210016770E+02  0.27001620701E+01  0.22491872680E+02  0.41800000000E+01 0.  1.
        -11    1    1    2    0    0  0.87716375681E+01  0.19010800285E+02 -0.84737673291E+02  0.87285883325E+02  0.00000000000E+00 0.  1.
         11    1    1    2    0    0  0.85976688534E+02  0.47140894851E+02 -0.41055109693E+02  0.10630040908E+03  0.00000000000E+00 0. -1.
</event>
<event>
 7    1  0.3064119E-009  0.1472396E+03  0.7561462E-02  0.1203907E+00
          1   -1    0    0  501    0  0.00000000000E+00  0.00000000000E+00  0.57433328069E+03  0.57433328069E+03  0.00000000000E+00 0. -1.
         -1   -1    0    0    0  501 -0.00000000000E+00 -0.00000000000E+00 -0.51335403391E+02  0.51335403391E+02  0.00000000000E+00 0.  1.
         25    2    1    2    0    0  0.42869418077E+01 -0.13214121498E+03  0.25752039626E+03  0.31535262749E+03  0.12510334372E+03 0.  0.
          5    1    3    3  502    0 -0.24848966542E+02 -0.29659306017E+02  0.25687840265E+01  0.39002777119E+02  0.41800000000E+01 0.  1.
         -5    1    3    3    0  502  0.29135908350E+02 -0.10248190896E+03  0.25495161224E+03  0.27634985037E+03  0.41800000000E+01 0.  1.
        -11    1    1    2    0    0 -0.34225102431E+02  0.96499300478E+02  0.12090212934E+03  0.15843231207E+03  0.00000000000E+00 0.  1.
         11    1    1    2    0    0  0.29938160623E+02  0.35641914500E+02  0.14457535169E+03  0.15188374452E+03  0.00000000000E+00 0. -1.
</event>
<event>
 7    1  0.2612321E-009  0.1079423E+03  0.7561462E-02  0.1264429E+00
         -2   -1    0    0    0  501 -0.00000000000E+00  0.00000000000E+00  0.16309756592E+03  0.16309756592E+03  0.00000000000E+00 0.  1.
          2   -1    0    0  501    0  0.00000000000E+00 -0.00000000000E+00 -0.88623057913E+02  0.88623057913E+02  0.00000000000E+00 0. -1.
         25    2    1    2    0    0 -0.18317470992E+02  0.19417584260E+02 -0.47386120098E+01  0.12800109959E+03  0.12509698130E+03 0.  0.
          5    1    3    3  502    0  0.47536004452E+02  0.31935153269E+02 -0.16662000067E+02  0.59788129088E+02  0.41800000000E+01 0. -1.
         -5    1    3    3    0  502 -0.65853475444E+02 -0.12517569008E+02  0.11923388057E+02  0.68212970502E+02  0.41800000000E+01 0. -1.
        -11    1    1    2    0    0  0.18483427505E+02 -0.53816942742E+02  0.31936124872E+02  0.65251946257E+02  0.00000000000E+00 0. -1.
         11    1    1    2    0    0 -0.16595651343E+00  0.34399358482E+02  0.47276995141E+02  0.58467577982E+02  0.00000000000E+00 0.  1.
</event>
<event>
 7    1  0.2612321E-009  0.1073810E+03  0.7561462E-02  0.1265498E+00
         -1   -1    0    0    0  501 -0.00000000000E+00  0.00000000000E+00  0.33659888355E+03  0.33659888355E+03  0.00000000000E+00 0.  1.
          1   -1    0    0  501    0  0.00000000000E+00 -0.00000000000E+00 -0.56126149086E+02  0.56126149086E+02  0.00000000000E+00 0. -1.
         25    2    1    2    0    0 -0.23260137639E+01 -0.44261508403E+02  0.25760028700E+03  0.28977572710E+03  0.12509025815E+03 0.  0.
          5    1    3    3  502    0  0.44077078665E+02  0.17618469901E+02  0.54434872655E+02  0.72345194078E+02  0.41800000000E+01 0. -1.
         -5    1    3    3    0  502 -0.46403092429E+02 -0.61879978303E+02  0.20316541435E+03  0.21743053302E+03  0.41800000000E+01 0. -1.
        -11    1    1    2    0    0 -0.29747097711E+02 -0.56933634388E+01 -0.13680598467E+02  0.33233461810E+02  0.00000000000E+00 0. -1.
         11    1    1    2    0    0  0.32073111475E+02  0.49954871841E+02  0.36553045930E+02  0.69715843731E+02  0.00000000000E+00 0.  1.
</event>
<event>
 7    1  0.2612321E-009  0.7804918E+02  0.7561462E-02  0.1334681E+00
          1   -1    0    0  501    0  0.00000000000E+00  0.00000000000E+00  0.79494772450E+02  0.79494772450E+02  0.00000000000E+00 0. -1.
         -1   -1    0    0    0  501 -0.00000000000E+00 -0.00000000000E+00 -0.15865467240E+03  0.15865467240E+03  0.00000000000E+00 0.  1.
         25    2    1    2    0    0 -0.24580047290E+02  0.30059179689E+02 -0.71641122193E+01  0.13117870090E+03  0.12509514002E+03 0.  0.
          5    1    3    3  502    0 -0.36208684976E+01 -0.34165986448E+02 -0.42510077398E+02  0.54817920418E+02  0.41800000000E+01 0.  1.
         -5    1    3    3    0  502 -0.20959178792E+02  0.64225166137E+02  0.35345965178E+02  0.76360780479E+02  0.41800000000E+01 0.  1.
        -11    1    1    2    0    0 -0.40689345179E+01 -0.24223250440E+02 -0.73698445113E+02  0.77683865134E+02  0.00000000000E+00 0.  1.
         11    1    1    2    0    0  0.28648981808E+02 -0.58359292488E+01  0.17026573819E+01  0.29286878820E+02  0.00000000000E+00 0. -1.
</event>
<event>
 7    1  0.2612321E-009  0.2590690E+03  0.7561462E-02  0.1107704E+00
          2   -1    0    0  501    0  0.00000000000E+00  0.00000000000E+00  0.70306201505E+03  0.70306201505E+03  0.00000000000E+00 0.  1.
         -2   -1    0    0    0  501 -0.00000000000E+00 -0.00000000000E+00 -0.11228695319E+03  0.11228695319E+03  0.00000000000E+00 0. -1.
         25    2    1    2    0    0  0.23922885580E+03  0.91999355659E+02  0.35701285801E+03  0.45694652552E+03  0.12509044536E+03 0.  0.
          5    1    3    3  502    0  0.35370164884E+02  0.31674128568E+02  0.81020507964E+01  0.48346815940E+02  0.41800000000E+01 0.  1.
         -5    1    3    3    0  502  0.20385869091E+03  0.60325227091E+02  0.34891080721E+03  0.40859970958E+03  0.41800000000E+01 0.  1.
        -11    1    1    2    0    0 -0.19699448458E+02  0.27903127002E+00  0.61266125073E+02  0.64355918217E+02  0.00000000000E+00 0.  1.
         11    1    1    2    0    0 -0.21952940734E+03 -0.92278386929E+02  0.17249607877E+03  0.29404652450E+03  0.00000000000E+00 0. -1.
</event>
<event>
 6    1  0.2612321E-009  0.1027603E+03  0.7561462E-02  0.1274596E+00
          2   -1    0    0  501    0  0.00000000000E+00  0.00000000000E+00  0.55117649935E+03  0.55117649935E+03  0.00000000000E+00 0. -1.
         -2   -1    0    0    0  501 -0.00000000000E+00 -0.00000000000E+00 -0.24777189642E+02  0.24777189642E+02  0.00000000000E+00 0.  1.
          5    1    1    2  502    0 -0.26279747297E+02 -0.46812008856E+02  0.15218397878E+03  0.16142931917E+03  0.41800000000E+01 0. -1.
         -5    1    1    2    0  502 -0.14905087106E+02  0.70457544618E+02  0.90550062717E+02  0.11577224829E+03  0.41800000000E+01 0. -1.
        -11    1    1    2    0    0 -0.10110746026E+02  0.13019177842E+02  0.13441120176E+02  0.21269459055E+02  0.00000000000E+00 0.  1.
         11    1    1    2    0    0  0.51295580429E+02 -0.36664713603E+02  0.27022414803E+03  0.27748266248E+03  0.00000000000E+00 0. -1.
</event>
<event>
 7    1  0.2612321E-009  0.1277842E+03  0.7561462E-02  0.1230781E+00
         -1   -1    0    0    0  501 -0.00000000000E+00  0.00000000000E+00  0.46230598237E+02  0.46230598237E+02  0.00000000000E+00 0.  1.
          1   -1    0    0  501    0  0.00000000000E+00 -0.00000000000E+00 -0.48858428906E+03  0.48858428906E+03  0.00000000000E+00 0. -1.
         25    2    1    2    0    0 -0.61196322975E+02 -0.69466847733E+02 -0.31748835878E+03  0.35357893975E+03  0.12509426763E+03 0.  0.
          5    1    3    3  502    0 -0.13653293603E+02  0.27720215555E+02 -0.15644357220E+03  0.15952080259E+03  0.41800000000E+01 0.  1.
         -5    1    3    3    0  502 -0.47543029372E+02 -0.97187063289E+02 -0.16104478658E+03  0.19405813716E+03  0.41800000000E+01 0.  1.
        -11    1    1    2    0    0  0.68666229644E+02  0.78563814209E+02 -0.71261066698E+02  0.12635451564E+03  0.00000000000E+00 0.  1.
         11    1    1    2    0    0 -0.74699066697E+01 -0.90969664759E+01 -0.53604265344E+02  0.54881431903E+02  0.00000000000E+00 0. -1.
</event>
<event>
 7    1  0.2612321E-009  0.1706866E+03  0.7561462E-02  0.1177134E+00
         -2   -1    0    0    0  501 -0.00000000000E+00  0.00000000000E+00  0.26578456409E+02  0.26578456409E+02  0.00000000000E+00 0.  1.
          2   -1    0    0  501    0  0.00000000000E+00 -0.00000000000E+00 -0.14578152911E+04  0.14578152911E+04  0.00000000000E+00 0. -1.
         25    2    1    2    0    0 -0.90154715132E+02  0.13164601793E+03 -0.89519808584E+03  0.91787002759E+03  0.12508888030E+03 0.  0.
          5    1    3    3  502    0 -0.43073268334E+02  0.76139272578E+02 -0.75296234357E+03  0.75803842812E+03  0.41800000000E+01 0. -1.
         -5    1    3    3    0  502 -0.47081446798E+02  0.55506745351E+02 -0.14223574226E+03  0.15983159947E+03  0.41800000000E+01 0. -1.
        -11    1    1    2    0    0  0.91560767116E+02 -0.60529960481E+02 -0.36880925885E+03  0.38479542566E+03  0.00000000000E+00 0. -1.
         11    1    1    2    0    0 -0.14060519841E+01 -0.71116057448E+02 -0.16722949005E+03  0.18172829431E+03  0.00000000000E+00 0.  1.
</event>
<event>
 7    1  0.2612321E-009  0.1651524E+03  0.7561462E-02  0.1182999E+00
         -2   -1    0    0    0  501 -0.00000000000E+00  0.00000000000E+00  0.23825437612E+03  0.23825437612E+03  0.00000000000E+00 0.  1.
          2   -1    0    0  501    0  0.00000000000E+00 -0.00000000000E+00 -0.16196571801E+03  0.16196571801E+03  0.00000000000E+00 0. -1.
         25    2    1    2    0    0  0.77870369035E+02 -0.11881364501E+03  0.12274236172E+03  0.22558931340E+03  0.12507747336E+03 0.  0.
          5    1    3    3  502    0  0.85381332309E+02 -0.20117971506E+02  0.39946610979E+02  0.96477504181E+02  0.41800000000E+01 0. -1.
         -5    1    3    3    0  502 -0.75109632736E+01 -0.98695673503E+02  0.82795750744E+02  0.12911180921E+03  0.41800000000E+01 0. -1.
        -11    1    1    2    0    0 -0.11370604778E+02  0.32664134430E+02  0.26533735270E+02  0.43592148817E+02  0.00000000000E+00 0.  1.
         11    1    1    2    0    0 -0.66499764257E+02  0.86149510579E+02 -0.72987438890E+02  0.13103863192E+03  0.00000000000E+00 0. -1.
</event>
<event>
 7    1  0.2612321E-009  0.4812215E+03  0.7561462E-02  0.1018800E+00
         -2   -1    0    0    0  501 -0.00000000000E+00  0.00000000000E+00  0.12508580394E+03  0.12508580394E+03  0.00000000000E+00 0. -1.
          2   -1    0    0  501    0  0.00000000000E+00 -0.00000000000E+00 -0.23370328762E+04  0.23370328762E+04  0.00000000000E+00 0.  1.
         25    2    1    2    0    0  0.30431398664E+03 -0.36225207388E+03 -0.16548479186E+04  0.17256891062E+04  0.12509072844E+03 0.  0.
          5    1    3    3  502    0  0.27299112465E+03 -0.36695768010E+03 -0.15518580076E+04  0.16178574848E+04  0.41800000000E+01 0.  1.
         -5    1    3    3    0  502  0.31322861985E+02  0.47056062193E+01 -0.10298991098E+03  0.10783162141E+03  0.41800000000E+01 0.  1.
        -11    1    1    2    0    0 -0.52543172070E+02  0.62286491206E+02 -0.49600815813E+02  0.95397237104E+02  0.00000000000E+00 0. -1.
         11    1    1    2    0    0 -0.25177081457E+03  0.29996558267E+03 -0.50749833792E+03  0.64103233682E+03  0.00000000000E+00 0.  1.
</event>
<event>
 7    1  0.2612321E-009  0.1315212E+03  0.7561462E-02  0.1225216E+00
         -1   -1    0    0    0  501 -0.00000000000E+00  0.00000000000E+00  0.60465938373E+02  0.60465938373E+02  0.00000000000E+00 0.  1.
          1   -1    0    0  501    0  0.00000000000E+00 -0.00000000000E+00 -0.42190880443E+03  0.42190880443E+03  0.00000000000E+00 0. -1.
         25    2    1    2    0    0 -0.60454527894E+02 -0.88613640069E+02 -0.26361316455E+03  0.31088104509E+03  0.12509195226E+03 0.  0.
          5    1    3    3  502    0 -0.12563572006E+02 -0.84810971998E+02 -0.68279250841E+02  0.10968260030E+03  0.41800000000E+01 0. -1.
         -5    1    3    3    0  502 -0.47890955888E+02 -0.38026680706E+01 -0.19533391371E+03  0.20119844479E+03  0.41800000000E+01 0. -1.
        -11    1    1    2    0    0  0.70114468114E+02  0.42768249268E+02 -0.26776042891E+02  0.86383553164E+02  0.00000000000E+00 0.  1.
         11    1    1    2    0    0 -0.96599402200E+01  0.45845390801E+02 -0.71053658611E+02  0.85110144546E+02  0.00000000000E+00 0. -1.
</event>
<event>
 7    1  0.2612321E-009  0.1252533E+03  0.7561462E-02  0.1234674E+00
         -1   -1    0    0    0  501 -0.00000000000E+00  0.00000000000E+00  0.86973730931E+02  0.86973730931E+02  0.00000000000E+00 0.  1.
          1   -1    0    0  501    0  0.00000000000E+00 -0.00000000000E+00 -0.20072660916E+03  0.20072660916E+03  0.00000000000E+00 0. -1.
         25    2    1    2    0    0  0.56908727446E+02 -0.26593515613E+02 -0.49719645673E+02  0.14854464915E+03  0.12509057236E+03 0.  0.
          5    1    3    3  502    0  0.26984505728E+02  0.49955423314E+02 -0.27925591174E+02  0.63411504557E+02  0.41800000000E+01 0. -1.
         -5    1    3    3    0  502  0.29924221718E+02 -0.76548938927E+02 -0.21794054499E+02  0.85133144590E+02  0.41800000000E+01 0. -1.
        -11    1    1    2    0    0 -0.13470755040E+01  0.50696669946E+02 -0.59849310444E+02  0.78446841342E+02  0.00000000000E+00 0. -1.
         11    1    1    2    0    0 -0.55561651942E+02 -0.24103154332E+02 -0.41839221100E+01  0.60708849598E+02  0.00000000000E+00 0.  1.
</event>
<event>
 7    1  0.2612321E-009  0.1618575E+03  0.7561462E-02  0.1186615E+00
          2   -1    0    0  501    0  0.00000000000E+00  0.00000000000E+00  0.35285220171E+03  0.35285220171E+03  0.00000000000E+00 0. -1.
         -2   -1    0    0    0  501 -0.00000000000E+00 -0.00000000000E+00 -0.12848724801E+03  0.12848724801E+03  0.00000000000E+00 0.  1.
         25    2    1    2    0    0 -0.18485882958E+02 -0.14239875157E+03 -0.11291191777E+02  0.19077019030E+03  0.12508653876E+03 0.  0.
          5    1    3    3  502    0  0.10751138773E+02 -0.17516746125E+01  0.37285179746E+02  0.39068048039E+02  0.41800000000E+01 0.  1.
         -5    1    3    3    0  502 -0.29237021731E+02 -0.14064707696E+03 -0.48576371523E+02  0.15170214226E+03  0.41800000000E+01 0.  1.
        -11    1    1    2    0    0  0.40852749591E+02  0.23050398150E+02  0.48490633822E+02  0.67465617706E+02  0.00000000000E+00 0.  1.
         11    1    1    2    0    0 -0.22366866633E+02  0.11934835342E+03  0.18716551166E+03  0.22310364170E+03  0.00000000000E+00 0. -1.
</event>
<event>
 7    1  0.2612321E-009  0.1456226E+03  0.7561462E-02  0.1205958E+00
         -1   -1    0    0    0  501 -0.00000000000E+00  0.00000000000E+00  0.28774846283E+02  0.28774846283E+02  0.00000000000E+00 0.  1.
          1   -1    0    0  501    0  0.00000000000E+00 -0.00000000000E+00 -0.78191115267E+03  0.78191115267E+03  0.00000000000E+00 0. -1.
         25    2    1    2    0    0 -0.96283463002E+02 -0.15692465299E+02 -0.49973405754E+03  0.52430684958E+03  0.12508711177E+03 0.  0.
          5    1    3    3  502    0 -0.11213630969E+03 -0.48108821821E+02 -0.37339043542E+03  0.39284462622E+03  0.41800000000E+01 0. -1.
         -5    1    3    3    0  502  0.15852846693E+02  0.32416356522E+02 -0.12634362212E+03  0.13146222336E+03  0.41800000000E+01 0. -1.
        -11    1    1    2    0    0  0.96324476667E+02 -0.18961186595E+02 -0.19859623999E+03  0.22153644834E+03  0.00000000000E+00 0.  1.
         11    1    1    2    0    0 -0.41013665467E-01  0.34653651894E+02 -0.54806008849E+02  0.64842701036E+02  0.00000000000E+00 0. -1.
</event>
<event>
 7    1  0.2612321E-009  0.7450833E+02  0.7561462E-02  0.1345400E+00
         -2   -1    0    0    0  501 -0.00000000000E+00  0.00000000000E+00  0.10398194240E+03  0.10398194240E+03  0.00000000000E+00 0.  1.
          2   -1    0    0  501    0  0.00000000000E+00 -0.00000000000E+00 -0.13734368993E+03  0.13734368993E+03  0.00000000000E+00 0. -1.
         25    2    1    2    0    0  0.30574655968E+02 -0.41276582194E+02 -0.22271059673E+02  0.13704932006E+03  0.12509176713E+03 0.  0.
          5    1    3    3  502    0 -0.19315693133E+00  0.97422513951E+01  0.45498671196E+02  0.46717772340E+02  0.41800000000E+01 0. -1.
         -5    1    3    3    0  502  0.30767812900E+02 -0.51018833589E+02 -0.67769730868E+02  0.90331547719E+02  0.41800000000E+01 0. -1.
        -11    1    1    2    0    0 -0.48784327102E+02  0.30029201251E+02  0.24851507741E+02  0.62444062452E+02  0.00000000000E+00 0.  1.
         11    1    1    2    0    0  0.18209671133E+02  0.11247380943E+02 -0.35942195594E+02  0.41832249819E+02  0.00000000000E+00 0. -1.
</event>
<event>
 7    1  0.2612321E-009  0.7616977E+02  0.7561462E-02  0.1340286E+00
          2   -1    0    0  501    0  0.00000000000E+00  0.00000000000E+00  0.33478750258E+03  0.33478750258E+03  0.00000000000E+00 0. -1.
         -2   -1    0    0    0  501 -0.00000000000E+00 -0.00000000000E+00 -0.52897450363E+02  0.52897450363E+02  0.00000000000E+00 0.  1.
         25    2    1    2    0    0  0.90965155898E+01 -0.63816358995E+02  0.93002084884E+02  0.16867774893E+03  0.12509005124E+03 0.  0.
          5    1    3    3  502    0 -0.12477705582E+02 -0.45103274675E+02 -0.20720201594E+02  0.51349758297E+02  0.41800000000E+01 0. -1.
         -5    1    3    3    0  502  0.21574221172E+02 -0.18713084320E+02  0.11372228648E+03  0.11732799063E+03  0.41800000000E+01 0. -1.
        -11    1    1    2    0    0  0.14906031637E+02  0.39965199506E+02  0.17862501300E+03  0.18364722220E+03  0.00000000000E+00 0. -1.
         11    1    1    2    0    0 -0.24002547227E+02  0.23851159489E+02  0.10262954327E+02  0.35359981814E+02  0.00000000000E+00 0.  1.
</event>
<event>
 7    1  0.2612321E-009  0.9313153E+02  0.7561462E-02  0.1295441E+00
         -1   -1    0    0    0  501 -0.00000000000E+00  0.00000000000E+00  0.11451274316E+03  0.11451274316E+03  0.00000000000E+00 0.  1.
          1   -1    0    0  501    0  0.00000000000E+00 -0.00000000000E+00 -0.11238780711E+03  0.11238780711E+03  0.00000000000E+00 0. -1.
         25    2    1    2    0    0 -0.20984160792E+02 -0.13332489025E+02 -0.17588962339E+02  0.12874233332E+03  0.12508847479E+03 0.  0.
          5    1    3    3  502    0 -0.24121554105E+02 -0.57994792143E+02  0.24117103395E+02  0.67411811757E+02  0.41800000000E+01 0. -1.
         -5    1    3    3    0  502  0.31373933132E+01  0.44662303118E+02 -0.41706065734E+02  0.61330521567E+02  0.41800000000E+01 0. -1.
        -11    1    1    2    0    0  0.48306295770E+02  0.86610510846E+00 -0.16553052592E+02  0.51071047563E+02  0.00000000000E+00 0. -1.
         11    1    1    2    0    0 -0.27322134978E+02  0.12466383917E+02  0.36266950975E+02  0.47087169386E+02  0.00000000000E+00 0.  1.
</event>
<event>
 7    1  0.2612321E-009  0.8440136E+02  0.7561462E-02  0.1317006E+00
         -2   -1    0    0    0  501 -0.00000000000E+00  0.00000000000E+00  0.26557919328E+02  0.26557919328E+02  0.00000000000E+00 0.  1.
          2   -1    0    0  501    0  0.00000000000E+00 -0.00000000000E+00 -0.45721293050E+03  0.45721293050E+03  0.00000000000E+00 0. -1.
         25    2    1    2    0    0  0.70214180177E+01  0.38282816237E+01 -0.29732286654E+03  0.32266594258E+03  0.12509383470E+03 0.  0.
          5    1    3    3  502    0 -0.98899731822E+01 -0.35717782723E+02 -0.20636131753E+02  0.42625038486E+02  0.41800000000E+01 0. -1.
         -5    1    3    3    0  502  0.16911391200E+02  0.39546064347E+02 -0.27668673479E+03  0.28004090409E+03  0.41800000000E+01 0. -1.
        -11    1    1    2    0    0 -0.40775439602E+02  0.21496620146E+02 -0.52084607483E+02  0.69552480107E+02  0.00000000000E+00 0. -1.
         11    1    1    2    0    0  0.33754021584E+02 -0.25324901770E+02 -0.81247537146E+02  0.91552427139E+02  0.00000000000E+00 0.  1.
</event>
<event>
 7    1  0.2612321E-009  0.1464186E+03  0.7561462E-02  0.1204944E+00
         -2   -1    0    0    0  501 -0.00000000000E+00  0.00000000000E+00  0.12266093224E+03  0.12266093224E+03  0.00000000000E+00 0.  1.
          2   -1    0    0  501    0  0.00000000000E+00 -0.00000000000E+00 -0.19256487996E+03  0.19256487996E+03  0.00000000000E+00 0. -1.
         25    2    1    2    0    0 -0.25043265295E+02  0.10197324814E+03 -0.74433052694E+01  0.16348952381E+03  0.12509081953E+03 0.  0.
          5    1    3    3  502    0 -0.70994879811E+02  0.42944575413E+02  0.16765161250E+02  0.84752891092E+02  0.41800000000E+01 0. -1.
         -5    1    3    3    0  502  0.45951614516E+02  0.59028672731E+02 -0.24208466519E+02  0.78736632721E+02  0.41800000000E+01 0. -1.
        -11    1    1    2    0    0 -0.21261991012E+02 -0.81462931202E+02 -0.22284230064E+02  0.87091149558E+02  0.00000000000E+00 0.  1.
         11    1    1    2    0    0  0.46305256307E+02 -0.20510316943E+02 -0.40176412385E+02  0.64645138834E+02  0.00000000000E+00 0. -1.
</event>
<event>
 7    1  0.2612321E-009  0.2184882E+03  0.7561462E-02  0.1135015E+00
          2   -1    0    0  501    0  0.00000000000E+00  0.00000000000E+00  0.47139255451E+03  0.47139255451E+03  0.00000000000E+00 0. -1.
         -2   -1    0    0    0  501 -0.00000000000E+00 -0.00000000000E+00 -0.12408261327E+03  0.12408261327E+03  0.00000000000E+00 0.  1.
         25    2    1    2    0    0  0.18048449630E+03  0.10944000763E+03  0.11251132164E+03  0.26992157930E+03  0.12508834000E+03 0.  0.
          5    1    3    3  502    0  0.12719101552E+03  0.59561517592E+02  0.13354032125E+03  0.19384431538E+03  0.41800000000E+01 0. -1.
         -5    1    3    3    0  502  0.53293480775E+02  0.49878490037E+02 -0.21028999604E+02  0.76077263921E+02  0.41800000000E+01 0. -1.
        -11    1    1    2    0    0 -0.51913882850E+02  0.37629226090E+01  0.74963755857E+02  0.91262125284E+02  0.00000000000E+00 0. -1.
         11    1    1    2    0    0 -0.12857061345E+03 -0.11320293024E+03  0.15983486374E+03  0.23429146319E+03  0.00000000000E+00 0.  1.
</event>
<event>
 7    1  0.2612321E-009  0.1210505E+03  0.7561462E-02  0.1241374E+00
          2   -1    0    0  501    0  0.00000000000E+00  0.00000000000E+00  0.62930237114E+02  0.62930237114E+02  0.00000000000E+00 0. -1.
         -2   -1    0    0    0  501 -0.00000000000E+00 -0.00000000000E+00 -0.28782780032E+03  0.28782780032E+03  0.00000000000E+00 0.  1.
         25    2    1    2    0    0  0.69351179363E+02 -0.30953349540E+01 -0.17443553830E+03  0.22559759937E+03  0.12508937861E+03 0.  0.
          5    1    3    3  502    0  0.23515141253E+02  0.51196586196E+02 -0.12985802035E+03  0.14161437129E+03  0.41800000000E+01 0. -1.
         -5    1    3    3    0  502  0.45836038110E+02 -0.54291921150E+02 -0.44577517944E+02  0.83983228074E+02  0.41800000000E+01 0. -1.
        -11    1    1    2    0    0  0.57769264998E+01  0.33050451447E+02 -0.17261979123E+02  0.37731699456E+02  0.00000000000E+00 0. -1.
         11    1    1    2    0    0 -0.75128105863E+02 -0.29955116493E+02 -0.33200045784E+02  0.87428738609E+02  0.00000000000E+00 0.  1.
</event>
<event>
 7    1  0.2612321E-009  0.1304559E+03  0.7561462E-02  0.1226781E+00
          1   -1    0    0  501    0  0.00000000000E+00  0.00000000000E+00  0.17743980045E+04  0.17743980045E+04  0.00000000000E+00 0. -1.
         -1   -1    0    0    0  501 -0.00000000000E+00 -0.00000000000E+00 -0.20109465407E+02  0.20109465407E+02  0.00000000000E+00 0.  1.
         25    2    1    2    0    0  0.11491574405E+03  0.60091816159E+01  0.13994733209E+04  0.14097569485E+04  0.12508932623E+03 0.  0.
          5    1    3    3  502    0  0.75740096080E+02  0.28604165879E+02  0.12693329770E+04  0.12719191953E+04  0.41800000000E+01 0. -1.
         -5    1    3    3    0  502  0.39175647969E+02 -0.22594984263E+02  0.13014034388E+03  0.13783775322E+03  0.41800000000E+01 0. -1.
        -11    1    1    2    0    0 -0.10199794612E+02 -0.25900676631E+02  0.22602449891E+02  0.35857378615E+02  0.00000000000E+00 0.  1.
         11    1    1    2    0    0 -0.10471594944E+03  0.19891495016E+02  0.33221276835E+03  0.34889314281E+03  0.00000000000E+00 0. -1.
</event>
<event>
 7    1  0.2612321E-009  0.1006599E+03  0.7561462E-02  0.1278914E+00
          2   -1    0    0  501    0  0.00000000000E+00  0.00000000000E+00  0.17438763491E+03  0.17438763491E+03  0.00000000000E+00 0.  1.
         -2   -1    0    0    0  501 -0.00000000000E+00 -0.00000000000E+00 -0.11257410979E+03  0.11257410979E+03  0.00000000000E+00 0. -1.
         25    2    1    2    0    0 -0.69737548001E+02 -0.55417470881E+02  0.36396532236E+02  0.15782093542E+03  0.12509323890E+03 0.  0.
          5    1    3    3  502    0  0.17148530608E+01 -0.23715703401E+02 -0.41101315377E+02  0.47667240685E+02  0.41800000000E+01 0. -1.
         -5    1    3    3    0  502 -0.71452401062E+02 -0.31701767481E+02  0.77497847613E+02  0.11015369473E+03  0.41800000000E+01 0. -1.
        -11    1    1    2    0    0  0.61444737244E+02  0.23281090955E+02 -0.23709322763E+02  0.69854111668E+02  0.00000000000E+00 0.  1.
         11    1    1    2    0    0  0.82928107573E+01  0.32136379926E+02  0.49126315642E+02  0.59286697610E+02  0.00000000000E+00 0. -1.
</event>
<event>
 7    1  0.2612321E-009  0.9129687E+02  0.7561462E-02  0.1299741E+00
         -1   -1    0    0    0  501 -0.00000000000E+00  0.00000000000E+00  0.69826509979E+02  0.69826509979E+02  0.00000000000E+00 0.  1.
          1   -1    0    0  501    0  0.00000000000E+00 -0.00000000000E+00 -0.18881683413E+03  0.18881683413E+03  0.00000000000E+00 0. -1.
         25    2    1    2    0    0  0.21445665898E+02 -0.31086421654E+02 -0.79063042643E+02  0.15271997602E+03  0.12508454808E+03 0.  0.
          5    1    3    3  502    0  0.68024444952E+02 -0.45202071162E+02 -0.47874538925E+02  0.94762842009E+02  0.41800000000E+01 0. -1.
         -5    1    3    3    0  502 -0.46578779053E+02  0.14115649508E+02 -0.31188503717E+02  0.57957134015E+02  0.41800000000E+01 0. -1.
        -11    1    1    2    0    0 -0.62163554810E+01 -0.79324029905E+01  0.25961061150E+02  0.27848568881E+02  0.00000000000E+00 0.  1.
         11    1    1    2    0    0 -0.15229310417E+02  0.39018824645E+02 -0.65888342656E+02  0.78074799202E+02  0.00000000000E+00 0. -1.
</event>
<event>
 7    1  0.2612321E-009  0.9826655E+02  0.7561462E-02  0.1283984E+00
          4   -1    0    0  501    0  0.00000000000E+00  0.00000000000E+00  0.54238209089E+02  0.54238209089E+02  0.00000000000E+00 0. -1.
         -4   -1    0    0    0  501 -0.00000000000E+00 -0.00000000000E+00 -0.24658690136E+03  0.24658690136E+03  0.00000000000E+00 0.  1.
         25    2    1    2    0    0 -0.28856675015E+02 -0.26580002903E+02 -0.10042014599E+03  0.16514622669E+03  0.12509942534E+03 0.  0.
          5    1    3    3  502    0  0.31246713789E+02 -0.10184955314E+01  0.13066192497E+02  0.34140770966E+02  0.41800000000E+01 0.  1.
         -5    1    3    3    0  502 -0.60103388804E+02 -0.25561507371E+02 -0.11348633849E+03  0.13100545572E+03  0.41800000000E+01 0.  1.
        -11    1    1    2    0    0  0.85089568276E+01  0.59900983183E+02 -0.51190094837E+02  0.79252482245E+02  0.00000000000E+00 0. -1.
         11    1    1    2    0    0  0.20347718188E+02 -0.33320980281E+02 -0.40738451438E+02  0.56426401514E+02  0.00000000000E+00 0.  1.
</event>
<event>
 7    1  0.2612321E-009  0.1085856E+03  0.7561462E-02  0.1263212E+00
          2   -1    0    0  501    0  0.00000000000E+00  0.00000000000E+00  0.17292462496E+04  0.17292462496E+04  0.00000000000E+00 0. -1.
         -2   -1    0    0    0  501 -0.00000000000E+00 -0.00000000000E+00 -0.78108337839E+01  0.78108337839E+01  0.00000000000E+00 0.  1.
         25    2    1    2    0    0 -0.34073384105E+01 -0.58855209315E+01  0.12743574967E+04  0.12804999971E+04  0.12508782399E+03 0.  0.
          5    1    3    3  502    0 -0.34976992254E+02 -0.55508864371E+02  0.73228006337E+03  0.73522526318E+03  0.41800000000E+01 0.  1.
         -5    1    3    3    0  502  0.31569653844E+02  0.49623343439E+02  0.54207743335E+03  0.54527473387E+03  0.41800000000E+01 0.  1.
        -11    1    1    2    0    0 -0.20813740599E+02  0.43215474194E+02  0.24169653657E+03  0.24641023680E+03  0.00000000000E+00 0. -1.
         11    1    1    2    0    0  0.24221079010E+02 -0.37329953263E+02  0.20538138253E+03  0.21014684953E+03  0.00000000000E+00 0.  1.
</event>
<event>
 7    1  0.2612321E-009  0.9658635E+02  0.7561462E-02  0.1287643E+00
          2   -1    0    0  501    0  0.00000000000E+00  0.00000000000E+00  0.65053114715E+03  0.65053114715E+03  0.00000000000E+00 0.  1.
         -2   -1    0    0    0  501 -0.00000000000E+00 -0.00000000000E+00 -0.21882453177E+02  0.21882453177E+02  0.00000000000E+00 0. -1.
         25    2    1    2    0    0 -0.43223901177E+01 -0.31556352981E+02  0.45239732163E+03  0.47045291708E+03  0.12509246220E+03 0.  0.
          5    1    3    3  502    0  0.41391298624E+02 -0.33988346330E+02  0.38585332312E+03  0.38957503341E+03  0.41800000000E+01 0. -1.
         -5    1    3    3    0  502 -0.45713688742E+02  0.24319933498E+01  0.66543998512E+02  0.80877883676E+02  0.41800000000E+01 0. -1.
        -11    1    1    2    0    0 -0.21892683458E+02  0.54445161744E+02  0.77183886549E+02  0.96958329034E+02  0.00000000000E+00 0. -1.
         11    1    1    2    0    0  0.26215073575E+02 -0.22888808763E+02  0.99067485789E+02  0.10500235421E+03  0.00000000000E+00 0.  1.
</event>
<event>
 7    1  0.2612321E-009  0.7661402E+02  0.7561462E-02  0.1338945E+00
          3   -1    0    0  501    0  0.00000000000E+00  0.00000000000E+00  0.94794667867E+02  0.94794667867E+02  0.00000000000E+00 0. -1.
         -3   -1    0    0    0  501 -0.00000000000E+00 -0.00000000000E+00 -0.13153661349E+03  0.13153661349E+03  0.00000000000E+00 0.  1.
         25    2    1    2    0    0 -0.26966253170E+02  0.46812447578E+01 -0.23198284251E+02  0.13013332284E+03  0.12508968166E+03 0.  0.
          5    1    3    3  502    0 -0.32301057635E+02  0.23614910799E+02 -0.69134529106E+02  0.79987985667E+02  0.41800000000E+01 0. -1.
         -5    1    3    3    0  502  0.53348044651E+01 -0.18933666042E+02  0.45936244855E+02  0.50145337169E+02  0.41800000000E+01 0. -1.
        -11    1    1    2    0    0 -0.30691782703E+02 -0.15245329619E+02 -0.15354483261E+02  0.37552173797E+02  0.00000000000E+00 0.  1.
         11    1    1    2    0    0  0.57658035873E+02  0.10564084862E+02  0.18108218921E+01  0.58645784721E+02  0.00000000000E+00 0. -1.
</event>
<event>
 7    1  0.2612321E-009  0.6806150E+02  0.7561462E-02  0.1366812E+00
          2   -1    0    0  501    0  0.00000000000E+00  0.00000000000E+00  0.14460139008E+03  0.14460139008E+03  0.00000000000E+00 0. -1.
         -2   -1    0    0    0  501 -0.00000000000E+00 -0.00000000000E+00 -0.10854557216E+03  0.10854557216E+03  0.00000000000E+00 0.  1.
         25    2    1    2    0    0  0.36995753928E+02  0.25900696598E+02  0.66505178878E+02  0.14865051565E+03  0.12503801459E+03 0.  0.
          5    1    3    3  502    0 -0.52859081154E+00  0.29481475577E+01  0.95605101450E+02  0.95743296400E+02  0.41800000000E+01 0.  1.
         -5    1    3    3    0  502  0.37524344740E+02  0.22952549040E+02 -0.29099922571E+02  0.52907219254E+02  0.41800000000E+01 0.  1.
        -11    1    1    2    0    0 -0.35026575906E+02  0.20345621240E+02 -0.40335456207E+02  0.57164275127E+02  0.00000000000E+00 0.  1.
         11    1    1    2    0    0 -0.19691780222E+01 -0.46246317837E+02  0.98860952439E+01  0.47332171456E+02  0.00000000000E+00 0. -1.
</event>
<event>
 7    1  0.2612321E-009  0.8885512E+02  0.7561462E-02  0.1305648E+00
          2   -1    0    0  501    0  0.00000000000E+00  0.00000000000E+00  0.14609697438E+04  0.14609697438E+04  0.00000000000E+00 0. -1.
         -2   -1    0    0    0  501 -0.00000000000E+00 -0.00000000000E+00 -0.13276799515E+02  0.13276799515E+02  0.00000000000E+00 0.  1.
         25    2    1    2    0    0 -0.95468660771E+01 -0.47408429596E+02  0.11788984813E+04  0.11865031873E+04  0.12509789188E+03 0.  0.
          5    1    3    3  502    0 -0.19521229926E+02  0.61434086432E+01  0.31447382556E+02  0.37752220560E+02  0.41800000000E+01 0.  1.
         -5    1    3    3    0  502  0.99743638488E+01 -0.53551838239E+02  0.11474510987E+04  0.11487509668E+04  0.41800000000E+01 0.  1.
        -11    1    1    2    0    0  0.40486147316E+01  0.74467586989E+02  0.18291419187E+03  0.19753332474E+03  0.00000000000E+00 0.  1.
         11    1    1    2    0    0  0.54982513455E+01 -0.27059157393E+02  0.85880271187E+02  0.90210031293E+02  0.00000000000E+00 0. -1.
</event>
<event>
 7    1  0.2612321E-009  0.1298617E+03  0.7561462E-02  0.1227661E+00
         -1   -1    0    0    0  501 -0.00000000000E+00  0.00000000000E+00  0.94981092437E+02  0.94981092437E+02  0.00000000000E+00 0.  1.
          1   -1    0    0  501    0  0.00000000000E+00 -0.00000000000E+00 -0.11200333957E+04  0.11200333957E+04  0.00000000000E+00 0. -1.
         25    2    1    2    0    0 -0.38963491959E+02  0.80880455879E+02 -0.10691553420E+04  0.10801850730E+04  0.12508734829E+03 0.  0.
          5    1    3    3  502    0 -0.74841744189E+02  0.42927433890E+02 -0.41274623413E+03  0.42168824675E+03  0.41800000000E+01 0.  1.
         -5    1    3    3    0  502  0.35878252230E+02  0.37953021990E+02 -0.65640910790E+03  0.65849682626E+03  0.41800000000E+01 0.  1.
        -11    1    1    2    0    0  0.61588629316E+02 -0.37729808851E+02  0.50783038024E+01  0.72405019899E+02  0.00000000000E+00 0. -1.
         11    1    1    2    0    0 -0.22625137357E+02 -0.43150647028E+02  0.39024734974E+02  0.62424395224E+02  0.00000000000E+00 0.  1.
</event>
<event>
 7    1  0.2612321E-009  0.1275271E+03  0.7561462E-02  0.1231172E+00
         -2   -1    0    0    0  501 -0.00000000000E+00  0.00000000000E+00  0.81358638938E+02  0.81358638938E+02  0.00000000000E+00 0.  1.
          2   -1    0    0  501    0  0.00000000000E+00 -0.00000000000E+00 -0.30178780239E+03  0.30178780239E+03  0.00000000000E+00 0. -1.
         25    2    1    2    0    0 -0.52553084662E+02  0.45227511740E+02 -0.22687038047E+03  0.26818793487E+03  0.12508894574E+03 0.  0.
          5    1    3    3  502    0 -0.83345200573E+02  0.63055842310E+02 -0.14467085876E+03  0.17852056319E+03  0.41800000000E+01 0. -1.
         -5    1    3    3    0  502  0.30792115911E+02 -0.17828330570E+02 -0.82199521716E+02  0.89667371678E+02  0.41800000000E+01 0. -1.
        -11    1    1    2    0    0  0.28822153964E+02 -0.72775119459E+02  0.70699037593E+01  0.78593371925E+02  0.00000000000E+00 0.  1.
         11    1    1    2    0    0  0.23730930698E+02  0.27547607719E+02 -0.62868673889E+00  0.36365134537E+02  0.00000000000E+00 0. -1.
</event>
<event>
 7    1  0.2612321E-009  0.9726382E+02  0.7561462E-02  0.1286157E+00
          2   -1    0    0  501    0  0.00000000000E+00  0.00000000000E+00  0.37841620741E+03  0.37841620741E+03  0.00000000000E+00 0. -1.
         -2   -1    0    0    0  501 -0.00000000000E+00 -0.00000000000E+00 -0.41415321763E+02  0.41415321763E+02  0.00000000000E+00 0.  1.
         25    2    1    2    0    0  0.32568999822E+01 -0.41583740465E+02  0.10861583210E+03  0.17083688762E+03  0.12509207937E+03 0.  0.
          5    1    3    3  502    0  0.50393495389E+02 -0.25278160825E+02  0.10669649021E+03  0.12074809818E+03  0.41800000000E+01 0.  1.
         -5    1    3    3    0  502 -0.47136595407E+02 -0.16305579639E+02  0.19193418932E+01  0.50088789437E+02  0.41800000000E+01 0.  1.
        -11    1    1    2    0    0 -0.33488023239E+02 -0.34903993852E+01  0.14948749249E+03  0.15323231056E+03  0.00000000000E+00 0. -1.
         11    1    1    2    0    0  0.30231123257E+02  0.45074139850E+02  0.78897561058E+02  0.95762330995E+02  0.00000000000E+00 0.  1.
</event>
<event>
 7    1  0.2612321E-009  0.3877216E+02  0.7561462E-02  0.1517446E+00
         -1   -1    0    0    0  501 -0.00000000000E+00  0.00000000000E+00  0.13295930519E+03  0.13295930519E+03  0.00000000000E+00 0.  1.
          1   -1    0    0  501    0  0.00000000000E+00 -0.00000000000E+00 -0.97456793123E+02  0.97456793123E+02  0.00000000000E+00 0. -1.
         25    2    1    2    0    0  0.26012234421E+02 -0.11312143551E+02  0.40528573110E+01  0.12832426666E+03  0.12508433487E+03 0.  0.
          5    1    3    3  502    0  0.92224817112E+01  0.50582286163E+01 -0.59441295391E+02  0.60509336828E+02  0.41800000000E+01 0. -1.
         -5    1    3    3    0  502  0.16789752710E+02 -0.16370372168E+02  0.63494152702E+02  0.67814929833E+02  0.41800000000E+01 0. -1.
        -11    1    1    2    0    0 -0.12165971318E+02 -0.10832214813E+02  0.60718054334E+02  0.62865172059E+02  0.00000000000E+00 0.  1.
         11    1    1    2    0    0 -0.13846263103E+02  0.22144358364E+02 -0.29268399576E+02  0.39226659595E+02  0.00000000000E+00 0. -1.
</event>
<event>
 7    1  0.2612321E-009  0.8664357E+02  0.7561462E-02  0.1311190E+00
         -3   -1    0    0    0  501 -0.00000000000E+00  0.00000000000E+00  0.85615685831E+02  0.85615685831E+02  0.00000000000E+00 0.  1.
          3   -1    0    0  501    0  0.00000000000E+00 -0.00000000000E+00 -0.29371380296E+03  0.29371380296E+03  0.00000000000E+00 0. -1.
         25    2    1    2    0    0  0.31206755077E+02 -0.56479268298E+02  0.29161514167E+01  0.14078538718E+03  0.12509297341E+03 0.  0.
          5    1    3    3  502    0  0.22897626351E+01 -0.21628040307E+02  0.62224042468E+02  0.66047853875E+02  0.41800000000E+01 0.  1.
         -5    1    3    3    0  502  0.28916992442E+02 -0.34851227991E+02 -0.59307891051E+02  0.74737533310E+02  0.41800000000E+01 0.  1.
        -11    1    1    2    0    0 -0.60245552379E+02  0.39040449305E+02 -0.17474814327E+03  0.18891955124E+03  0.00000000000E+00 0. -1.
         11    1    1    2    0    0  0.29038797302E+02  0.17438818993E+02 -0.36266125269E+02  0.49624550361E+02  0.00000000000E+00 0.  1.
</event>
<event>
 7    1  0.2612321E-009  0.5908777E+02  0.7561462E-02  0.1401700E+00
          2   -1    0    0  501    0  0.00000000000E+00  0.00000000000E+00  0.73779326210E+03  0.73779326210E+03  0.00000000000E+00 0. -1.
         -2   -1    0    0    0  501 -0.00000000000E+00 -0.00000000000E+00 -0.18657435028E+02  0.18657435028E+02  0.00000000000E+00 0.  1.
         25    2    1    2    0    0  0.31403745323E+01 -0.23910670695E+02  0.53179733242E+03  0.54684412097E+03  0.12509399564E+03 0.  0.
          5    1    3    3  502    0  0.63424287965E+01 -0.35320505687E+01 -0.49195173846E+01  0.97147226186E+01  0.41800000000E+01 0. -1.
         -5    1    3    3    0  502 -0.32020542642E+01 -0.20378620127E+02  0.53671684981E+03  0.53712939835E+03  0.41800000000E+01 0. -1.
        -11    1    1    2    0    0  0.26605465926E+02  0.45007385118E+02  0.74452368010E+02  0.90976209168E+02  0.00000000000E+00 0. -1.
         11    1    1    2    0    0 -0.29745840458E+02 -0.21096714422E+02  0.11288612664E+03  0.11863036699E+03  0.00000000000E+00 0.  1.
</event>
<event>
 7    1  0.2612321E-009  0.1871746E+03  0.7561462E-02  0.1161035E+00
          3   -1    0    0  501    0  0.00000000000E+00  0.00000000000E+00  0.16486118973E+03  0.16486118973E+03  0.00000000000E+00 0. -1.
         -3   -1    0    0    0  501 -0.00000000000E+00 -0.00000000000E+00 -0.23831528892E+03  0.23831528892E+03  0.00000000000E+00 0.  1.
         25    2    1    2    0    0 -0.14479248113E+03  0.67901161949E+02 -0.80063949477E+02  0.21824950841E+03  0.12508869465E+03 0.  0.
          5    1    3    3  502    0  0.22316315464E+02  0.15510130406E+02 -0.65186541575E+01  0.28258579814E+02  0.41800000000E+01 0.  1.
         -5    1    3    3    0  502 -0.16710879659E+03  0.52391031543E+02 -0.73545295320E+02  0.18999092859E+03  0.41800000000E+01 0.  1.
        -11    1    1    2    0    0  0.94907484961E+02 -0.10285626071E+02 -0.30424808505E+02  0.10019428017E+03  0.00000000000E+00 0.  1.
         11    1    1    2    0    0  0.49884996166E+02 -0.57615535878E+02  0.37034658793E+02  0.84732690084E+02  0.00000000000E+00 0. -1.
</event>
<event>
 7    1  0.2612321E-009  0.1055647E+03  0.7561462E-02  0.1269011E+00
          2   -1    0    0  501    0  0.00000000000E+00  0.00000000000E+00  0.26992810610E+04  0.26992810610E+04  0.00000000000E+00 0. -1.
         -2   -1    0    0    0  501 -0.00000000000E+00 -0.00000000000E+00 -0.19187914841E+02  0.19187914841E+02  0.00000000000E+00 0.  1.
         25    2    1    2    0    0 -0.43115170777E+02 -0.53617802097E+02  0.24852298664E+04  0.24893269879E+04  0.12509027612E+03 0.  0.
          5    1    3    3  502    0 -0.61376356073E+02 -0.60388709692E+02  0.93413433405E+03  0.93810355494E+03  0.41800000000E+01 0.  1.
         -5    1    3    3    0  502  0.18261185296E+02  0.67709075943E+01  0.15510955323E+04  0.15512234330E+04  0.41800000000E+01 0.  1.
        -11    1    1    2    0    0 -0.41420631472E+01 -0.18403262122E+02  0.96784600293E+02  0.98605758441E+02  0.00000000000E+00 0. -1.
         11    1    1    2    0    0  0.47257233924E+02  0.72021064220E+02  0.98078679511E+02  0.13053622955E+03  0.00000000000E+00 0.  1.
</event>
<event>
 7    1  0.2612321E-009  0.9971430E+02  0.7561462E-02  0.1280898E+00
          1   -1    0    0  501    0  0.00000000000E+00  0.00000000000E+00  0.12796610277E+03  0.12796610277E+03  0.00000000000E+00 0. -1.
         -1   -1    0    0    0  501 -0.00000000000E+00 -0.00000000000E+00 -0.16803357555E+03  0.16803357555E+03  0.00000000000E+00 0.  1.
         25    2    1    2    0    0  0.50804064567E+02 -0.53386957743E+02  0.43634522406E+02  0.15160052034E+03  0.12509007150E+03 0.  0.
          5    1    3    3  502    0 -0.57001934039E+01 -0.33800979676E+02  0.75996957974E+02  0.83474597652E+02  0.41800000000E+01 0. -1.
         -5    1    3    3    0  502  0.56504257971E+02 -0.19585978067E+02 -0.32362435567E+02  0.68125922684E+02  0.41800000000E+01 0. -1.
        -11    1    1    2    0    0 -0.66931091973E+02  0.23407530293E+02 -0.22541346041E+02  0.74402928897E+02  0.00000000000E+00 0. -1.
         11    1    1    2    0    0  0.16127027406E+02  0.29979427450E+02 -0.61160649140E+02  0.69996229087E+02  0.00000000000E+00 0.  1.
</event>
<event>
 7    1  0.2612321E-009  0.1165583E+03  0.7561462E-02  0.1248885E+00
         -1   -1    0    0    0  501 -0.00000000000E+00  0.00000000000E+00  0.86195542239E+02  0.86195542239E+02  0.00000000000E+00 0.  1.
          1   -1    0    0  501    0  0.00000000000E+00 -0.00000000000E+00 -0.63761776497E+03  0.63761776497E+03  0.00000000000E+00 0. -1.
         25    2    1    2    0    0 -0.44948473785E+02  0.90897316733E+02 -0.56614577304E+03  0.58860970381E+03  0.12513057019E+03 0.  0.
          5    1    3    3  502    0  0.11707371570E+02  0.33558785416E+02 -0.30808801121E+02  0.47221914978E+02  0.41800000000E+01 0.  1.
         -5    1    3    3    0  502 -0.56655845354E+02  0.57338531317E+02 -0.53533697192E+03  0.54138778883E+03  0.41800000000E+01 0.  1.
        -11    1    1    2    0    0 -0.13602639706E+02 -0.10647487311E+02  0.30077284892E+02  0.34684922654E+02  0.00000000000E+00 0.  1.
         11    1    1    2    0    0  0.58551113490E+02 -0.80249829423E+02 -0.15353734577E+02  0.10051868075E+03  0.00000000000E+00 0. -1.
</event>
<event>
 7    1  0.2612321E-009  0.1861858E+03  0.7561462E-02  0.1161947E+00
         -2   -1    0    0    0  501 -0.00000000000E+00  0.00000000000E+00  0.26654438089E+02  0.26654438089E+02  0.00000000000E+00 0. -1.
          2   -1    0    0  501    0  0.00000000000E+00 -0.00000000000E+00 -0.16251370725E+04  0.16251370725E+04  0.00000000000E+00 0.  1.
         25    2    1    2    0    0  0.96037120407E+02 -0.14124651716E+03 -0.10150509078E+04  0.10368940900E+04  0.12508917346E+03 0.  0.
          5    1    3    3  502    0 -0.16012444594E+02 -0.45573172776E+02 -0.11422961229E+03  0.12409346954E+03  0.41800000000E+01 0. -1.
         -5    1    3    3    0  502  0.11204956500E+03 -0.95673344382E+02 -0.90082129548E+03  0.91280062042E+03  0.41800000000E+01 0. -1.
        -11    1    1    2    0    0 -0.48674618135E+02  0.34362791687E+02 -0.90941158912E+02  0.10872126879E+03  0.00000000000E+00 0. -1.
         11    1    1    2    0    0 -0.47362502272E+02  0.10688372547E+03 -0.49249056774E+03  0.50617615186E+03  0.00000000000E+00 0.  1.
</event>
<event>
 7    1  0.5490451E-009  0.1625886E+03  0.7561462E-02  0.1185805E+00
         -4   -1    0    0    0  501 -0.00000000000E+00  0.00000000000E+00  0.83270057838E+02  0.83270057838E+02  0.00000000000E+00 0.  1.
          4   -1    0    0  501    0  0.00000000000E+00 -0.00000000000E+00 -0.34281140351E+03  0.34281140351E+03  0.00000000000E+00 0. -1.
         25    2    1    2    0    0 -0.89307356443E+02  0.92627783338E+02 -0.14695540093E+03  0.23194453418E+03  0.12508663764E+03 0.  0.
          5    1    3    3  502    0 -0.32657915957E+02  0.10631792030E+03 -0.57971676952E+02  0.12549194150E+03  0.41800000000E+01 0. -1.
         -5    1    3    3    0  502 -0.56649440485E+02 -0.13690136962E+02 -0.88983723978E+02  0.10645259269E+03  0.41800000000E+01 0. -1.
        -11    1    1    2    0    0  0.17650386891E+02 -0.80942591716E+02 -0.42025612482E+02  0.92894517683E+02  0.00000000000E+00 0.  1.
         11    1    1    2    0    0  0.71656969551E+02 -0.11685191622E+02 -0.70560332255E+02  0.10124240948E+03  0.00000000000E+00 0. -1.
</event>
<event>
 7    1  0.2612321E-009  0.1147802E+03  0.7561462E-02  0.1251965E+00
          1   -1    0    0  501    0  0.00000000000E+00  0.00000000000E+00  0.69217601683E+02  0.69217601683E+02  0.00000000000E+00 0. -1.
         -1   -1    0    0    0  501 -0.00000000000E+00 -0.00000000000E+00 -0.33328142172E+03  0.33328142172E+03  0.00000000000E+00 0.  1.
         25    2    1    2    0    0  0.10431081091E+03 -0.21796891938E+02 -0.15600502298E+03  0.22658412859E+03  0.12508777064E+03 0.  0.
          5    1    3    3  502    0  0.80562440371E+02 -0.37232134699E+02 -0.24733436901E+02  0.92226644489E+02  0.41800000000E+01 0.  1.
         -5    1    3    3    0  502  0.23748370541E+02  0.15435242761E+02 -0.13127158608E+03  0.13435748410E+03  0.41800000000E+01 0.  1.
        -11    1    1    2    0    0 -0.64349972864E+02 -0.40717465385E+01 -0.11084037195E+03  0.12823059768E+03  0.00000000000E+00 0.  1.
         11    1    1    2    0    0 -0.39960838048E+02  0.25868638477E+02  0.27815748928E+01  0.47684297133E+02  0.00000000000E+00 0. -1.
</event>
<event>
 7    1  0.2612321E-009  0.1350687E+03  0.7561462E-02  0.1220123E+00
          1   -1    0    0  501    0  0.00000000000E+00  0.00000000000E+00  0.59339966447E+02  0.59339966447E+02  0.00000000000E+00 0. -1.
         -1   -1    0    0    0  501 -0.00000000000E+00 -0.00000000000E+00 -0.36044724630E+03  0.36044724630E+03  0.00000000000E+00 0.  1.
         25    2    1    2    0    0 -0.24521251932E+01  0.86573035698E+02 -0.96745208999E+02  0.18029969276E+03  0.12508972906E+03 0.  0.
          5    1    3    3  502    0  0.50093921427E+02  0.76742674942E+02 -0.34180559252E+02  0.97901083508E+02  0.41800000000E+01 0. -1.
         -5    1    3    3    0  502 -0.52546046620E+02  0.98303607555E+01 -0.62564649747E+02  0.82398609247E+02  0.41800000000E+01 0. -1.
        -11    1    1    2    0    0 -0.33153193989E+02 -0.82532402231E+02 -0.14962113447E+03  0.17406095361E+03  0.00000000000E+00 0.  1.
         11    1    1    2    0    0  0.35605319182E+02 -0.40406334668E+01 -0.54740936377E+02  0.65426566380E+02  0.00000000000E+00 0. -1.
</event>
<event>
 7    1  0.2612321E-009  0.8827411E+02  0.7561462E-02  0.1307086E+00
         -2   -1    0    0    0  501 -0.00000000000E+00  0.00000000000E+00  0.19278722824E+03  0.19278722824E+03  0.00000000000E+00 0.  1.
          2   -1    0    0  501    0  0.00000000000E+00 -0.00000000000E+00 -0.84895427727E+02  0.84895427727E+02  0.00000000000E+00 0. -1.
         25    2    1    2    0    0 -0.45700429965E+02  0.47550665008E+02  0.42738096316E+02  0.14772835319E+03  0.12509007322E+03 0.  0.
          5    1    3    3  502    0 -0.13969661161E+02  0.57031852837E+02 -0.31186335362E+02  0.66617141820E+02  0.41800000000E+01 0.  1.
         -5    1    3    3    0  502 -0.31730768804E+02 -0.94811878294E+01  0.73924431678E+02  0.81111211374E+02  0.41800000000E+01 0.  1.
        -11    1    1    2    0    0  0.22965845073E+02  0.79680285678E+01  0.65600310306E+02  0.69959418461E+02  0.00000000000E+00 0.  1.
         11    1    1    2    0    0  0.22734584892E+02 -0.55518693576E+02 -0.44660610856E+00  0.59994884312E+02  0.00000000000E+00 0. -1.
</event>
<event>
 7    1  0.2612321E-009  0.8451767E+02  0.7561462E-02  0.1316699E+00
         -2   -1    0    0    0  501 -0.00000000000E+00  0.00000000000E+00  0.71613765555E+02  0.71613765555E+02  0.00000000000E+00 0.  1.
          2   -1    0    0  501    0  0.00000000000E+00 -0.00000000000E+00 -0.17751399581E+03  0.17751399581E+03  0.00000000000E+00 0. -1.
         25    2    1    2    0    0 -0.18109278593E+02 -0.11367094333E+02 -0.94888334183E+02  0.15845617772E+03  0.12508959785E+03 0.  0.
          5    1    3    3  502    0  0.39486019624E+02  0.59233275194E+01 -0.89310762115E+02  0.97918926588E+02  0.41800000000E+01 0. -1.
         -5    1    3    3    0  502 -0.57595298217E+02 -0.17290421852E+02 -0.55775720685E+01  0.60537251133E+02  0.41800000000E+01 0. -1.
        -11    1    1    2    0    0 -0.24757609546E+02  0.52540175029E+01 -0.33415715412E+02  0.41918420376E+02  0.00000000000E+00 0. -1.
         11    1    1    2    0    0  0.42866888139E+02  0.61130768298E+01  0.22403819344E+02  0.48753163264E+02  0.00000000000E+00 0.  1.
</event>
<event>
 7    1  0.4966484E-009  0.1494566E+03  0.7561462E-02  0.1201142E+00
          2   -1    0    0  501    0  0.00000000000E+00  0.00000000000E+00  0.33293916654E+03  0.33293916654E+03  0.00000000000E+00 0. -1.
         -2   -1    0    0    0  501 -0.00000000000E+00 -0.00000000000E+00 -0.90374643882E+02  0.90374643882E+02  0.00000000000E+00 0.  1.
         25    2    1    2    0    0  0.11854710586E+03 -0.27472986006E+02  0.20088904269E+03  0.26610670753E+03  0.12509272982E+03 0.  0.
          5    1    3    3  502    0 -0.25159402901E+02 -0.12626904156E+02  0.47336968286E+02  0.55233099039E+02  0.41800000000E+01 0.  1.
         -5    1    3    3    0  502  0.14370650876E+03 -0.14846081850E+02  0.15355207440E+03  0.21087360849E+03  0.41800000000E+01 0.  1.
        -11    1    1    2    0    0 -0.61897893409E+02  0.30875676393E+02 -0.21354671367E+02  0.72392531316E+02  0.00000000000E+00 0.  1.
         11    1    1    2    0    0 -0.56649212452E+02 -0.34026903871E+01  0.63030151340E+02  0.84814571573E+02  0.00000000000E+00 0. -1.
</event>
<event>
 7    1  0.2612321E-009  0.1958631E+03  0.7561462E-02  0.1153277E+00
          1   -1    0    0  501    0  0.00000000000E+00  0.00000000000E+00  0.16524813391E+04  0.16524813391E+04  0.00000000000E+00 0. -1.
         -1   -1    0    0    0  501 -0.00000000000E+00 -0.00000000000E+00 -0.29930476555E+02  0.29930476555E+02  0.00000000000E+00 0.  1.
         25    2    1    2    0    0 -0.66508837500E+02 -0.17208707790E+03  0.10639332499E+04  0.10870323057E+04  0.12509150882E+03 0.  0.
          5    1    3    3  502    0 -0.36698184653E+02 -0.14464394145E+03  0.10009721378E+04  0.10120431412E+04  0.41800000000E+01 0.  1.
         -5    1    3    3    0  502 -0.29810652847E+02 -0.27443136447E+02  0.62961112112E+02  0.74989164548E+02  0.41800000000E+01 0.  1.
        -11    1    1    2    0    0 -0.17820670126E+02  0.51990064527E+02  0.10348053742E+03  0.11716981146E+03  0.00000000000E+00 0. -1.
         11    1    1    2    0    0  0.84329507626E+02  0.12009701337E+03  0.45513707526E+03  0.47820969852E+03  0.00000000000E+00 0.  1.
</event>
<event>
 7    1  0.2612321E-009  0.9895401E+02  0.7561462E-02  0.1282511E+00
         -2   -1    0    0    0  501 -0.00000000000E+00  0.00000000000E+00  0.18995360588E+03  0.18995360588E+03  0.00000000000E+00 0. -1.
          2   -1    0    0  501    0  0.00000000000E+00 -0.00000000000E+00 -0.16458000010E+03  0.16458000010E+03  0.00000000000E+00 0.  1.
         25    2    1    2    0    0  0.24031259729E+02 -0.39577737789E+02  0.14501895412E+03  0.19702139201E+03  0.12507211153E+03 0.  0.
          5    1    3    3  502    0 -0.38206280911E+02 -0.56721593341E+02  0.79412560820E+02  0.10488510985E+03  0.41800000000E+01 0. -1.
         -5    1    3    3    0  502  0.62237540640E+02  0.17143855552E+02  0.65606393301E+02  0.92136282159E+02  0.41800000000E+01 0. -1.
        -11    1    1    2    0    0  0.12983036648E+02  0.16827213772E+02  0.79738194040E+01  0.22700135678E+02  0.00000000000E+00 0. -1.
         11    1    1    2    0    0 -0.37014296377E+02  0.22750524017E+02 -0.12761916774E+03  0.13481207830E+03  0.00000000000E+00 0.  1.
</event>
<event>
 7    1  0.2612321E-009  0.1742637E+03  0.7561462E-02  0.1173473E+00
          1   -1    0    0  501    0  0.00000000000E+00  0.00000000000E+00  0.46804620236E+03  0.46804620236E+03  0.00000000000E+00 0. -1.
         -1   -1    0    0    0  501 -0.00000000000E+00 -0.00000000000E+00 -0.69378295001E+02  0.69378295001E+02  0.00000000000E+00 0.  1.
         25    2    1    2    0    0  0.41118289557E+02  0.12903700754E+03  0.18888135976E+03  0.26393919415E+03  0.12508583889E+03 0.  0.
          5    1    3    3  502    0 -0.31484051386E+02  0.78651185993E+02  0.13770346563E+03  0.16173117014E+03  0.41800000000E+01 0.  1.
         -5    1    3    3    0  502  0.72602340942E+02  0.50385821543E+02  0.51177894138E+02  0.10220802401E+03  0.41800000000E+01 0.  1.
        -11    1    1    2    0    0  0.38688695847E+02 -0.39467137667E+02  0.72619244417E+02  0.91258012261E+02  0.00000000000E+00 0.  1.
         11    1    1    2    0    0 -0.79806985404E+02 -0.89569869869E+02  0.13716730318E+03  0.18222729096E+03  0.00000000000E+00 0. -1.
</event>
<event>
 7    1  0.2612321E-009  0.1723526E+03  0.7561462E-02  0.1175416E+00
         -1   -1    0    0    0  501 -0.00000000000E+00  0.00000000000E+00  0.14555281070E+03  0.14555281070E+03  0.00000000000E+00 0.  1.
          1   -1    0    0  501    0  0.00000000000E+00 -0.00000000000E+00 -0.35580874404E+03  0.35580874404E+03  0.00000000000E+00 0. -1.
         25    2    1    2    0    0 -0.10073284434E+03 -0.12573048913E+03  0.20892267053E+02  0.20504065711E+03  0.12509964996E+03 0.  0.
          5    1    3    3  502    0 -0.44034759426E+02 -0.11763717922E+03  0.56154624536E+02  0.13765311558E+03  0.41800000000E+01 0.  1.
         -5    1    3    3    0  502 -0.56698084915E+02 -0.80933099143E+01 -0.35262357483E+02  0.67387541531E+02  0.41800000000E+01 0.  1.
        -11    1    1    2    0    0  0.87944677488E+02  0.10227683077E+03 -0.11535698045E+03  0.17748816679E+03  0.00000000000E+00 0.  1.
         11    1    1    2    0    0  0.12788166853E+02  0.23453658363E+02 -0.11579121994E+03  0.11883273083E+03  0.00000000000E+00 0. -1.
</event>
<event>
 7    1  0.2612321E-009  0.1785535E+03  0.7561462E-02  0.1169210E+00
          1   -1    0    0  501    0  0.00000000000E+00  0.00000000000E+00  0.46425635782E+02  0.46425635782E+02  0.00000000000E+00 0. -1.
         -1   -1    0    0    0  501 -0.00000000000E+00 -0.00000000000E+00 -0.87041574999E+03  0.87041574999E+03  0.00000000000E+00 0.  1.
         25    2    1    2    0    0  0.32306785358E+02  0.15123301735E+03 -0.25910305976E+03  0.32664538428E+03  0.12509059749E+03 0.  0.
          5    1    3    3  502    0 -0.34919918609E+02  0.91558453600E+02 -0.81410863341E+02  0.12746588646E+03  0.41800000000E+01 0. -1.
         -5    1    3    3    0  502  0.67226703967E+02  0.59674563748E+02 -0.17769219642E+03  0.19917949782E+03  0.41800000000E+01 0. -1.
        -11    1    1    2    0    0  0.18301946070E+02 -0.77334565454E+02 -0.31022503360E+03  0.32024235778E+03  0.00000000000E+00 0.  1.
         11    1    1    2    0    0 -0.50608731428E+02 -0.73898451895E+02 -0.25466202086E+03  0.26995364372E+03  0.00000000000E+00 0. -1.
</event>
<event>
 7    1  0.2612321E-009  0.1022655E+03  0.7561462E-02  0.1275603E+00
          1   -1    0    0  501    0  0.00000000000E+00  0.00000000000E+00  0.10445943997E+03  0.10445943997E+03  0.00000000000E+00 0. -1.
         -1   -1    0    0    0  501 -0.00000000000E+00 -0.00000000000E+00 -0.12288556756E+03  0.12288556756E+03  0.00000000000E+00 0.  1.
         25    2    1    2    0    0  0.54936646999E+01 -0.35107641316E+02 -0.10273549675E+02  0.13044413690E+03  0.12508956870E+03 0.  0.
          5    1    3    3  502    0 -0.22784139695E+02 -0.76340893608E+02 -0.39639019730E+01  0.79876366826E+02  0.41800000000E+01 0.  1.
         -5    1    3    3    0  502  0.28277804395E+02  0.41233252292E+02 -0.63096477023E+01  0.50567770073E+02  0.41800000000E+01 0.  1.
        -11    1    1    2    0    0 -0.25872526586E+02 -0.78473355713E+01  0.26663276021E+02  0.37972339877E+02  0.00000000000E+00 0. -1.
         11    1    1    2    0    0  0.20378861887E+02  0.42954976887E+02 -0.34815853935E+02  0.58928530750E+02  0.00000000000E+00 0.  1.
</event>
<event>
 7    1  0.2612321E-009  0.1625579E+03  0.7561462E-02  0.1185839E+00
         -2   -1    0    0    0  501 -0.00000000000E+00  0.00000000000E+00  0.41778468738E+02  0.41778468738E+02  0.00000000000E+00 0.  1.
          2   -1    0    0  501    0  0.00000000000E+00 -0.00000000000E+00 -0.77316617850E+03  0.77316617850E+03  0.00000000000E+00 0. -1.
         25    2    1    2    0    0  0.11254237446E+03 -0.68449006564E+02 -0.49952866836E+03  0.53153133711E+03  0.12508244989E+03 0.  0.
          5    1    3    3  502    0 -0.18425093685E+02  0.92151050668E+01 -0.13239353985E+03  0.13405194528E+03  0.41800000000E+01 0.  1.
         -5    1    3    3    0  502  0.13096746814E+03 -0.77664111631E+02 -0.36713512850E+03  0.39747939183E+03  0.41800000000E+01 0.  1.
        -11    1    1    2    0    0 -0.36786955879E+02  0.66496001817E+02 -0.16772088916E+03  0.18413390519E+03  0.00000000000E+00 0. -1.
         11    1    1    2    0    0 -0.75755418578E+02  0.19530047471E+01 -0.64138152246E+02  0.99279404938E+02  0.00000000000E+00 0.  1.
</event>
<event>
 7    1  0.2612321E-009  0.9070169E+02  0.7561462E-02  0.1301161E+00
         -2   -1    0    0    0  501 -0.00000000000E+00  0.00000000000E+00  0.55874290505E+02  0.55874290505E+02  0.00000000000E+00 0.  1.
          2   -1    0    0  501    0  0.00000000000E+00 -0.00000000000E+00 -0.21948936708E+03  0.21948936708E+03  0.00000000000E+00 0. -1.
         25    2    1    2    0    0 -0.18143547063E+02 -0.13676448244E+02 -0.10108910049E+03  0.16242541824E+03  0.12508707653E+03 0.  0.
          5    1    3    3  502    0  0.45136627220E+02  0.51107017819E+01 -0.51652085750E+01  0.45908454223E+02  0.41800000000E+01 0. -1.
         -5    1    3    3    0  502 -0.63280174283E+02 -0.18787150025E+02 -0.95923891914E+02  0.11651696402E+03  0.41800000000E+01 0. -1.
        -11    1    1    2    0    0  0.25111852536E+02 -0.21943762742E+02  0.73944772111E+01  0.34158632207E+02  0.00000000000E+00 0.  1.
         11    1    1    2    0    0 -0.69683054725E+01  0.35620210985E+02 -0.69920453293E+02  0.78779607136E+02  0.00000000000E+00 0. -1.
</event>
<event>
 7    1  0.2612321E-009  0.8768661E+02  0.7561462E-02  0.1308553E+00
          1   -1    0    0  501    0  0.00000000000E+00  0.00000000000E+00  0.16058747514E+03  0.16058747514E+03  0.00000000000E+00 0. -1.
         -1   -1    0    0    0  501 -0.00000000000E+00 -0.00000000000E+00 -0.86448007893E+02  0.86448007893E+02  0.00000000000E+00 0.  1.
         25    2    1    2    0    0  0.14157908389E+02 -0.10399376150E+02  0.87077569320E+02  0.15341557444E+03  0.12508094182E+03 0.  0.
          5    1    3    3  502    0  0.32642017227E+01 -0.62664070783E+02  0.16861976400E+02  0.65109441927E+02  0.41800000000E+01 0. -1.
         -5    1    3    3    0  502  0.10893706666E+02  0.52264694632E+02  0.70215592920E+02  0.88306132511E+02  0.41800000000E+01 0. -1.
        -11    1    1    2    0    0  0.44368112061E+01 -0.21531156919E+02  0.29858913899E+02  0.37078710215E+02  0.00000000000E+00 0. -1.
         11    1    1    2    0    0 -0.18594719595E+02  0.31930533070E+02 -0.42797015969E+02  0.56541198384E+02  0.00000000000E+00 0.  1.
</event>
<event>
 7    1  0.2612321E-009  0.1205822E+03  0.7561462E-02  0.1242140E+00
         -4   -1    0    0    0  501 -0.00000000000E+00  0.00000000000E+00  0.41151394287E+03  0.41151394287E+03  0.00000000000E+00 0.  1.
          4   -1    0    0  501    0  0.00000000000E+00 -0.00000000000E+00 -0.64037319487E+02  0.64037319487E+02  0.00000000000E+00 0. -1.
         25    2    1    2    0    0  0.49756028699E+01  0.95360017356E+02  0.28290562226E+03  0.32373080794E+03  0.12509098835E+03 0.  0.
          5    1    3    3  502    0  0.28756827347E+02  0.10695292441E+03  0.14112591720E+03  0.17944325026E+03  0.41800000000E+01 0. -1.
         -5    1    3    3    0  502 -0.23781224477E+02 -0.11592907055E+02  0.14177970507E+03  0.14428755768E+03  0.41800000000E+01 0. -1.
        -11    1    1    2    0    0  0.13952433309E+02 -0.72688036630E+02  0.87372416280E+02  0.11450834114E+03  0.00000000000E+00 0.  1.
         11    1    1    2    0    0 -0.18928036179E+02 -0.22671980726E+02 -0.22801415163E+02  0.37312113275E+02  0.00000000000E+00 0. -1.
</event>
<event>
 7    1  0.2612321E-009  0.1202241E+03  0.7561462E-02  0.1242728E+00
         -1   -1    0    0    0  501 -0.00000000000E+00  0.00000000000E+00  0.18656747216E+02  0.18656747216E+02  0.00000000000E+00 0.  1.
          1   -1    0    0  501    0  0.00000000000E+00 -0.00000000000E+00 -0.90983114193E+03  0.90983114193E+03  0.00000000000E+00 0. -1.
         25    2    1    2    0    0  0.33027485485E+02  0.48680258476E+02 -0.64563003611E+03  0.66026231444E+03  0.12509035929E+03 0.  0.
          5    1    3    3  502    0  0.35597075750E+02 -0.34170861924E+02 -0.33902359554E+03  0.34262117614E+03  0.41800000000E+01 0.  1.
         -5    1    3    3    0  502 -0.25695902647E+01  0.82851120400E+02 -0.30660644057E+03  0.31764113830E+03  0.41800000000E+01 0.  1.
        -11    1    1    2    0    0 -0.18082441403E+02  0.26055877412E+02 -0.74355816138E+02  0.80837310868E+02  0.00000000000E+00 0.  1.
         11    1    1    2    0    0 -0.14945044082E+02 -0.74736135888E+02 -0.17118854247E+03  0.18738826383E+03  0.00000000000E+00 0. -1.
</event>
<event>
 6    1  0.2612321E-009  0.1229467E+03  0.7561462E-02  0.1238314E+00
          2   -1    0    0  501    0  0.00000000000E+00  0.00000000000E+00  0.13639939587E+03  0.13639939587E+03  0.00000000000E+00 0.  1.
         -2   -1    0    0    0  501 -0.00000000000E+00 -0.00000000000E+00 -0.15476530074E+03  0.15476530074E+03  0.00000000000E+00 0. -1.
          5    1    1    2  502    0  0.74630922543E+02 -0.82358605131E+02  0.97947729896E+01  0.11165179988E+03  0.41800000000E+01 0. -1.
         -5    1    1    2    0  502 -0.23074233447E+02  0.18634912411E+02  0.31360250531E+02  0.43366091858E+02  0.41800000000E+01 0. -1.
        -11    1    1    2    0    0 -0.61565715012E+02  0.28024896046E+02 -0.70276935299E+02  0.97542707048E+02  0.00000000000E+00 0. -1.
         11    1    1    2    0    0  0.10009025915E+02  0.35698796675E+02  0.10756006916E+02  0.38604097821E+02  0.00000000000E+00 0.  1.
</event>
<event>
 7    1  0.2612321E-009  0.1980810E+03  0.7561462E-02  0.1151368E+00
         -2   -1    0    0    0  501 -0.00000000000E+00  0.00000000000E+00  0.23315958071E+03  0.23315958071E+03  0.00000000000E+00 0.  1.
          2   -1    0    0  501    0  0.00000000000E+00 -0.00000000000E+00 -0.20188177064E+03  0.20188177064E+03  0.00000000000E+00 0. -1.
         25    2    1    2    0    0 -0.11579109111E+03 -0.12715616767E+03 -0.59475983890E+02  0.22081942040E+03  0.12509019150E+03 0.  0.
          5    1    3    3  502    0 -0.95870787275E+02 -0.15243829938E+03 -0.48291250855E+02  0.18648903528E+03  0.41800000000E+01 0.  1.
         -5    1    3    3    0  502 -0.19920303831E+02  0.25282131720E+02 -0.11184733035E+02  0.34330385114E+02  0.41800000000E+01 0.  1.
        -11    1    1    2    0    0  0.84723801712E+02  0.12680843207E+03  0.99315393663E+02  0.18199463849E+03  0.00000000000E+00 0.  1.
         11    1    1    2    0    0  0.31067289393E+02  0.34773559889E+00 -0.85615997072E+01  0.32227292468E+02  0.00000000000E+00 0. -1.
</event>
<event>
 7    1  0.2612321E-009  0.1305834E+03  0.7561462E-02  0.1226593E+00
         -2   -1    0    0    0  501 -0.00000000000E+00  0.00000000000E+00  0.67185203120E+02  0.67185203120E+02  0.00000000000E+00 0.  1.
          2   -1    0    0  501    0  0.00000000000E+00 -0.00000000000E+00 -0.27373087181E+03  0.27373087181E+03  0.00000000000E+00 0. -1.
         25    2    1    2    0    0 -0.13492655927E+02  0.71906124158E+02 -0.69525720349E+02  0.16073257293E+03  0.12509433143E+03 0.  0.
          5    1    3    3  502    0  0.42748806239E+02  0.76598506725E+02 -0.48784732175E+02  0.10046001275E+03  0.41800000000E+01 0.  1.
         -5    1    3    3    0  502 -0.56241462166E+02 -0.46923825669E+01 -0.20740988173E+02  0.60272560184E+02  0.41800000000E+01 0.  1.
        -11    1    1    2    0    0 -0.22777829919E+02 -0.76845793658E+02 -0.99471981340E+02  0.12774498272E+03  0.00000000000E+00 0. -1.
         11    1    1    2    0    0  0.36270485846E+02  0.49396694991E+01 -0.37547966999E+02  0.52438519277E+02  0.00000000000E+00 0.  1.
</event>
<event>
 7    1  0.2612321E-009  0.9458874E+02  0.7561462E-02  0.1292105E+00
         -3   -1    0    0    0  501 -0.00000000000E+00  0.00000000000E+00  0.10966589642E+03  0.10966589642E+03  0.00000000000E+00 0.  1.
          3   -1    0    0  501    0  0.00000000000E+00 -0.00000000000E+00 -0.18882291761E+03  0.18882291761E+03  0.00000000000E+00 0. -1.
         25    2    1    2    0    0  0.36050671383E+02 -0.60040557402E+02  0.21349734847E+02  0.14493967655E+03  0.12508868542E+03 0.  0.
          5    1    3    3  502    0  0.37714394199E+02 -0.50105389415E+02 -0.45254037101E+02  0.77448859592E+02  0.41800000000E+01 0. -1.
         -5    1    3    3    0  502 -0.16637228160E+01 -0.99351679863E+01  0.66603771948E+02  0.67490816962E+02  0.41800000000E+01 0. -1.
        -11    1    1    2    0    0 -0.65572603455E+02  0.26469019428E+02 -0.69451304266E+02  0.99115382145E+02  0.00000000000E+00 0. -1.
         11    1    1    2    0    0  0.29521932072E+02  0.33571537973E+02 -0.31055451773E+02  0.54433755336E+02  0.00000000000E+00 0.  1.
</event>
<event>
 7    1  0.2612321E-009  0.1608013E+03  0.7561462E-02  0.1187795E+00
         -1   -1    0    0    0  501 -0.00000000000E+00  0.00000000000E+00  0.79756760786E+02  0.79756760786E+02  0.00000000000E+00 0.  1.
          1   -1    0    0  501    0  0.00000000000E+00 -0.00000000000E+00 -0.37476631770E+03  0.37476631770E+03  0.00000000000E+00 0. -1.
         25    2    1    2    0    0 -0.11224565396E+03 -0.71426208329E+02 -0.12172295398E+03  0.21946588375E+03  0.12509199230E+03 0.  0.
          5    1    3    3  502    0  0.14922592721E+02 -0.41396220310E+02 -0.55036712228E+01  0.44543165878E+02  0.41800000000E+01 0.  1.
         -5    1    3    3    0  502 -0.12716824669E+03 -0.30029988020E+02 -0.11621928275E+03  0.17492271788E+03  0.41800000000E+01 0.  1.
        -11    1    1    2    0    0  0.73824637673E+01 -0.11027560370E+02 -0.55615657417E+02  0.57176998950E+02  0.00000000000E+00 0.  1.
         11    1    1    2    0    0  0.10486319020E+03  0.82453768700E+02 -0.11767094552E+03  0.17788019578E+03  0.00000000000E+00 0. -1.
</event>
<event>
 7    1  0.2612321E-009  0.3723020E+03  0.7561462E-02  0.1053816E+00
         -2   -1    0    0    0  501 -0.00000000000E+00  0.00000000000E+00  0.67737384018E+02  0.67737384018E+02  0.00000000000E+00 0. -1.
          2   -1    0    0  501    0  0.00000000000E+00 -0.00000000000E+00 -0.24365188042E+04  0.24365188042E+04  0.00000000000E+00 0.  1.
         25    2    1    2    0    0 -0.32482162421E+03 -0.17770557448E+03 -0.15881300717E+04  0.16355097500E+04  0.12508660612E+03 0.  0.
          5    1    3    3  502    0 -0.31086672162E+03 -0.16014858091E+03 -0.15626665156E+04  0.16013212663E+04  0.41800000000E+01 0.  1.
         -5    1    3    3    0  502 -0.13954902589E+02 -0.17556993563E+02 -0.25463556119E+02  0.34188483726E+02  0.41800000000E+01 0.  1.
        -11    1    1    2    0    0  0.12497527011E+03  0.88978291666E+02 -0.41814821018E+03  0.44540305365E+03  0.00000000000E+00 0.  1.
         11    1    1    2    0    0  0.19984635410E+03  0.88727282810E+02 -0.36250313837E+03  0.42334338460E+03  0.00000000000E+00 0. -1.
</event>
<event>
 7    1  0.2612321E-009  0.1930296E+03  0.7561462E-02  0.1155757E+00
         -2   -1    0    0    0  501 -0.00000000000E+00  0.00000000000E+00  0.53757191236E+02  0.53757191236E+02  0.00000000000E+00 0.  1.
          2   -1    0    0  501    0  0.00000000000E+00 -0.00000000000E+00 -0.10095114306E+04  0.10095114306E+04  0.00000000000E+00 0. -1.
         25    2    1    2    0    0  0.18505188756E+03  0.37550755760E+02 -0.30418627997E+03  0.37925096637E+03  0.12509093580E+03 0.  0.
          5    1    3    3  502    0  0.14169904898E+03  0.33471118619E+01 -0.11636076489E+03  0.18343152304E+03  0.41800000000E+01 0. -1.
         -5    1    3    3    0  502  0.43352838580E+02  0.34203643898E+02 -0.18782551509E+03  0.19581944333E+03  0.41800000000E+01 0. -1.
        -11    1    1    2    0    0 -0.19137835840E+02 -0.24556731947E+01 -0.12879644028E+02  0.23198541371E+02  0.00000000000E+00 0.  1.
         11    1    1    2    0    0 -0.16591405172E+03 -0.35095082565E+02 -0.63868831541E+03  0.66081911414E+03  0.00000000000E+00 0. -1.
</event>
<event>
 7    1  0.2612321E-009  0.1436716E+03  0.7561462E-02  0.1208472E+00
          2   -1    0    0  501    0  0.00000000000E+00  0.00000000000E+00  0.20974743871E+03  0.20974743871E+03  0.00000000000E+00 0.  1.
         -2   -1    0    0    0  501 -0.00000000000E+00 -0.00000000000E+00 -0.18944861828E+03  0.18944861828E+03  0.00000000000E+00 0. -1.
         25    2    1    2    0    0 -0.99181699264E+02 -0.82776076151E+02  0.11613371623E+03  0.21403784180E+03  0.12504506958E+03 0.  0.
          5    1    3    3  502    0 -0.96052587245E+02 -0.24963399586E+02  0.19376420829E+02  0.10120370013E+03  0.41800000000E+01 0. -1.
         -5    1    3    3    0  502 -0.31291120183E+01 -0.57812676565E+02  0.96757295400E+02  0.11283414167E+03  0.41800000000E+01 0. -1.
        -11    1    1    2    0    0  0.84335392458E+02  0.63167902159E+02 -0.11350492257E+03  0.15487417387E+03  0.00000000000E+00 0. -1.
         11    1    1    2    0    0  0.14846306806E+02  0.19608173992E+02  0.17670026769E+02  0.30284041327E+02  0.00000000000E+00 0.  1.
</event>
<event>
 6    1  0.2612321E-009  0.1748859E+03  0.7561462E-02  0.1172846E+00
          1   -1    0    0  501    0  0.00000000000E+00  0.00000000000E+00  0.56141890321E+02  0.56141890321E+02  0.00000000000E+00 0. -1.
         -1   -1    0    0    0  501 -0.00000000000E+00 -0.00000000000E+00 -0.78462457485E+03  0.78462457485E+03  0.00000000000E+00 0.  1.
          5    1    1    2  502    0 -0.24879011721E+02 -0.62879189745E+02 -0.33220472331E+03  0.33904307738E+03  0.41800000000E+01 0.  1.
         -5    1    1    2    0  502 -0.11510713425E+03 -0.13666182201E+02 -0.21102389703E+03  0.24080069437E+03  0.41800000000E+01 0.  1.
        -11    1    1    2    0    0  0.24470424275E+02  0.36152159281E+02 -0.62703397961E+01  0.44103258905E+02  0.00000000000E+00 0. -1.
         11    1    1    2    0    0  0.11551572170E+03  0.40393212665E+02 -0.17898372439E+03  0.21681943452E+03  0.00000000000E+00 0.  1.
</event>
<event>
 7    1  0.2612321E-009  0.9757805E+02  0.7561462E-02  0.1285473E+00
         -2   -1    0    0    0  501 -0.00000000000E+00  0.00000000000E+00  0.22479289793E+02  0.22479289793E+02  0.00000000000E+00 0.  1.
          2   -1    0    0  501    0  0.00000000000E+00 -0.00000000000E+00 -0.62277115530E+03  0.62277115530E+03  0.00000000000E+00 0. -1.
         25    2    1    2    0    0  0.16418686344E+02 -0.40501530638E+02 -0.28854927319E+03  0.31751834183E+03  0.12508903667E+03 0.  0.
          5    1    3    3  502    0  0.18859214326E+02 -0.78521374920E+02 -0.25162404588E+03  0.26429795525E+03  0.41800000000E+01 0. -1.
         -5    1    3    3    0  502 -0.24405279816E+01  0.38019844283E+02 -0.36925227318E+02  0.53220386588E+02  0.41800000000E+01 0. -1.
        -11    1    1    2    0    0 -0.80622273544E+01  0.56949761190E+02 -0.30086772973E+03  0.30631628361E+03  0.00000000000E+00 0. -1.
         11    1    1    2    0    0 -0.83564589900E+01 -0.16448230552E+02 -0.10874862580E+02  0.21415819650E+02  0.00000000000E+00 0.  1.
</event>
<event>
 7    1  0.2612321E-009  0.1190245E+03  0.7561462E-02  0.1244715E+00
         -2   -1    0    0    0  501 -0.00000000000E+00  0.00000000000E+00  0.52946053106E+02  0.52946053106E+02  0.00000000000E+00 0.  1.
          2   -1    0    0  501    0  0.00000000000E+00 -0.00000000000E+00 -0.35775711347E+03  0.35775711347E+03  0.00000000000E+00 0. -1.
         25    2    1    2    0    0 -0.80108490471E+02  0.23444492203E+02 -0.18208995835E+03  0.23615464469E+03  0.12508096905E+03 0.  0.
          5    1    3    3  502    0  0.12928965882E+02  0.15269902211E+02  0.98255115700E+01  0.22679090589E+02  0.41800000000E+01 0. -1.
         -5    1    3    3    0  502 -0.93037456353E+02  0.81745899913E+01 -0.19191546992E+03  0.21347555410E+03  0.41800000000E+01 0. -1.
        -11    1    1    2    0    0  0.67348363667E+02  0.26646917477E+02 -0.70888355004E+02  0.10134603680E+03  0.00000000000E+00 0. -1.
         11    1    1    2    0    0  0.12760126804E+02 -0.50091409680E+02 -0.51832747010E+02  0.73202485084E+02  0.00000000000E+00 0.  1.
</event>
<event>
 7    1  0.2612321E-009  0.2879626E+03  0.7561462E-02  0.1091418E+00
         -2   -1    0    0    0  501 -0.00000000000E+00  0.00000000000E+00  0.29631874920E+03  0.29631874920E+03  0.00000000000E+00 0.  1.
          2   -1    0    0  501    0  0.00000000000E+00 -0.00000000000E+00 -0.31820566520E+03  0.31820566520E+03  0.00000000000E+00 0. -1.
         25    2    1    2    0    0  0.19400706401E+03 -0.21068215873E+03 -0.27930221734E+02  0.31377711867E+03  0.12510103927E+03 0.  0.
          5    1    3    3  502    0  0.61939133024E+02 -0.66312080678E+02 -0.68670842926E+02  0.11387232022E+03  0.41800000000E+01 0.  1.
         -5    1    3    3    0  502  0.13206793098E+03 -0.14437007805E+03  0.40740621191E+02  0.19990479846E+03  0.41800000000E+01 0.  1.
        -11    1    1    2    0    0 -0.11484220111E+03  0.15358046738E+03  0.42726524212E+02  0.19647200052E+03  0.00000000000E+00 0. -1.
         11    1    1    2    0    0 -0.79164862897E+02  0.57101691350E+02 -0.36683218475E+02  0.10427529521E+03  0.00000000000E+00 0.  1.
</event>
<event>
 7    1  0.2612321E-009  0.1232116E+03  0.7561462E-02  0.1237891E+00
         -1   -1    0    0    0  501 -0.00000000000E+00  0.00000000000E+00  0.52183462492E+02  0.52183462492E+02  0.00000000000E+00 0.  1.
          1   -1    0    0  501    0  0.00000000000E+00 -0.00000000000E+00 -0.36700511142E+03  0.36700511142E+03  0.00000000000E+00 0. -1.
         25    2    1    2    0    0 -0.24227339640E+02 -0.56995453870E+02 -0.83118967730E+02  0.16245697277E+03  0.12509220383E+03 0.  0.
          5    1    3    3  502    0 -0.23295665531E+02  0.37090353213E+02 -0.37482526689E+02  0.57799606755E+02  0.41800000000E+01 0. -1.
         -5    1    3    3    0  502 -0.93167410883E+00 -0.94085807083E+02 -0.45636441041E+02  0.10465736602E+03  0.41800000000E+01 0. -1.
        -11    1    1    2    0    0  0.33861606732E+02  0.78054701970E+02 -0.20106554665E+03  0.21832658784E+03  0.00000000000E+00 0. -1.
         11    1    1    2    0    0 -0.96342670920E+01 -0.21059248101E+02 -0.30637134554E+02  0.38405013301E+02  0.00000000000E+00 0.  1.
</event>
<event>
 7    1  0.2612321E-009  0.1091640E+03  0.7561462E-02  0.1262126E+00
         -4   -1    0    0    0  501 -0.00000000000E+00  0.00000000000E+00  0.14839707457E+03  0.14839707457E+03  0.00000000000E+00 0.  1.
          4   -1    0    0  501    0  0.00000000000E+00 -0.00000000000E+00 -0.14710644766E+03  0.14710644766E+03  0.00000000000E+00 0. -1.
         25    2    1    2    0    0 -0.59322312638E+02  0.68027709933E+02  0.44498877037E+02  0.16054470898E+03  0.12509015720E+03 0.  0.
          5    1    3    3  502    0 -0.81161164019E+01 -0.16379820956E+02 -0.30971920301E+02  0.36206382409E+02  0.41800000000E+01 0.  1.
         -5    1    3    3    0  502 -0.51206196236E+02  0.84407530890E+02  0.75470797339E+02  0.12433832657E+03  0.41800000000E+01 0.  1.
        -11    1    1    2    0    0  0.51240441465E+02 -0.25058887169E+02 -0.64688811300E+02  0.86244843180E+02  0.00000000000E+00 0. -1.
         11    1    1    2    0    0  0.80818711722E+01 -0.42968822765E+02  0.21480561178E+02  0.48713970070E+02  0.00000000000E+00 0.  1.
</event>
<event>
 7    1  0.2612321E-009  0.1183365E+03  0.7561462E-02  0.1245867E+00
          1   -1    0    0  501    0  0.00000000000E+00  0.00000000000E+00  0.88017339833E+03  0.88017339833E+03  0.00000000000E+00 0. -1.
         -1   -1    0    0    0  501 -0.00000000000E+00 -0.00000000000E+00 -0.17693364650E+02  0.17693364650E+02  0.00000000000E+00 0.  1.
         25    2    1    2    0    0 -0.25211424238E+02  0.50388686155E+01  0.55307050606E+03  0.56761927027E+03  0.12507455858E+03 0.  0.
          5    1    3    3  502    0  0.45550936551E+02 -0.18760430764E+02  0.15870554868E+03  0.16622805168E+03  0.41800000000E+01 0.  1.
         -5    1    3    3    0  502 -0.70762360789E+02  0.23799299379E+02  0.39436495738E+03  0.40139121860E+03  0.41800000000E+01 0.  1.
        -11    1    1    2    0    0  0.59540171223E+02 -0.33098360532E+02  0.22230339430E+03  0.23250662910E+03  0.00000000000E+00 0. -1.
         11    1    1    2    0    0 -0.34328746984E+02  0.28059491917E+02  0.87106133314E+02  0.97740863599E+02  0.00000000000E+00 0.  1.
</event>
<event>
 7    1  0.2612321E-009  0.7877845E+02  0.7561462E-02  0.1332554E+00
          4   -1    0    0  501    0  0.00000000000E+00  0.00000000000E+00  0.55378245284E+02  0.55378245284E+02  0.00000000000E+00 0. -1.
         -4   -1    0    0    0  501 -0.00000000000E+00 -0.00000000000E+00 -0.26092722092E+03  0.26092722092E+03  0.00000000000E+00 0.  1.
         25    2    1    2    0    0  0.27750268050E+02  0.36646356743E+02 -0.13441546307E+03  0.18928234080E+03  0.12508898827E+03 0.  0.
          5    1    3    3  502    0  0.33163321897E+02  0.68629378416E+01  0.14636860566E+02  0.37129717509E+02  0.41800000000E+01 0.  1.
         -5    1    3    3    0  502 -0.54130538473E+01  0.29783418901E+02 -0.14905232363E+03  0.15215262329E+03  0.41800000000E+01 0.  1.
        -11    1    1    2    0    0  0.21887105370E+02  0.10625338022E+02  0.47236966547E+01  0.24784198588E+02  0.00000000000E+00 0.  1.
         11    1    1    2    0    0 -0.49637373420E+02 -0.47271694765E+02 -0.75857209230E+02  0.10223892682E+03  0.00000000000E+00 0. -1.
</event>
<event>
 7    1  0.2612321E-009  0.9090343E+02  0.7561462E-02  0.1300679E+00
          1   -1    0    0  501    0  0.00000000000E+00  0.00000000000E+00  0.12094450556E+03  0.12094450556E+03  0.00000000000E+00 0. -1.
         -1   -1    0    0    0  501 -0.00000000000E+00 -0.00000000000E+00 -0.10983672683E+03  0.10983672683E+03  0.00000000000E+00 0.  1.
         25    2    1    2    0    0  0.11433090883E+01 -0.41197543858E+02 -0.59010619042E+00  0.13171073505E+03  0.12509526260E+03 0.  0.
          5    1    3    3  502    0  0.39085635539E+02 -0.39132785941E+02  0.45563596529E+02  0.71781443073E+02  0.41800000000E+01 0. -1.
         -5    1    3    3    0  502 -0.37942326450E+02 -0.20647579173E+01 -0.46153702720E+02  0.59929291974E+02  0.41800000000E+01 0. -1.
        -11    1    1    2    0    0  0.10920991100E+02  0.62599280836E+02 -0.12303027174E+02  0.64724821247E+02  0.00000000000E+00 0.  1.
         11    1    1    2    0    0 -0.12064300189E+02 -0.21401736978E+02  0.24000912093E+02  0.34345676089E+02  0.00000000000E+00 0. -1.
</event>
<event>
 7    1  0.2612321E-009  0.1139374E+03  0.7561462E-02  0.1253447E+00
          1   -1    0    0  501    0  0.00000000000E+00  0.00000000000E+00  0.88398028384E+03  0.88398028384E+03  0.00000000000E+00 0. -1.
         -1   -1    0    0    0  501 -0.00000000000E+00 -0.00000000000E+00 -0.20233166770E+02  0.20233166770E+02  0.00000000000E+00 0.  1.
         25    2    1    2    0    0  0.48495891728E+02  0.60086828553E+02  0.47206307495E+03  0.49442172807E+03  0.12508804887E+03 0.  0.
          5    1    3    3  502    0  0.70234225600E+02  0.60189018196E+02  0.18866807808E+03  0.21016346124E+03  0.41800000000E+01 0. -1.
         -5    1    3    3    0  502 -0.21738333872E+02 -0.10218964345E+00  0.28339499688E+03  0.28425826683E+03  0.41800000000E+01 0. -1.
        -11    1    1    2    0    0  0.21562240235E+02 -0.29896417414E+02  0.69174900478E+02  0.78382988169E+02  0.00000000000E+00 0.  1.
         11    1    1    2    0    0 -0.70058131963E+02 -0.30190411139E+02  0.32250914164E+03  0.33140873437E+03  0.00000000000E+00 0. -1.
</event>
<event>
 7    1  0.2612321E-009  0.7948948E+02  0.7561462E-02  0.1330506E+00
         -2   -1    0    0    0  501 -0.00000000000E+00  0.00000000000E+00  0.11873161610E+03  0.11873161610E+03  0.00000000000E+00 0.  1.
          2   -1    0    0  501    0  0.00000000000E+00 -0.00000000000E+00 -0.10396524042E+03  0.10396524042E+03  0.00000000000E+00 0. -1.
         25    2    1    2    0    0 -0.21660382963E+02 -0.14845182461E+02  0.34904730001E+02  0.13249809933E+03  0.12509138467E+03 0.  0.
          5    1    3    3  502    0  0.53487749644E+01  0.26458401659E+02  0.67763651268E+02  0.73061900093E+02  0.41800000000E+01 0.  1.
         -5    1    3    3    0  502 -0.27009157927E+02 -0.41303584121E+02 -0.32858921267E+02  0.59436199239E+02  0.41800000000E+01 0.  1.
        -11    1    1    2    0    0  0.50475678388E+02  0.18055937248E+01 -0.27803398757E+02  0.57654863280E+02  0.00000000000E+00 0. -1.
         11    1    1    2    0    0 -0.28815295425E+02  0.13039588737E+02  0.76650444386E+01  0.32543893914E+02  0.00000000000E+00 0.  1.
</event>
<event>
 7    1  0.2612321E-009  0.9892769E+02  0.7561462E-02  0.1282567E+00
          2   -1    0    0  501    0  0.00000000000E+00  0.00000000000E+00  0.27533843348E+03  0.27533843348E+03  0.00000000000E+00 0. -1.
         -2   -1    0    0    0  501 -0.00000000000E+00 -0.00000000000E+00 -0.63164982799E+02  0.63164982799E+02  0.00000000000E+00 0.  1.
         25    2    1    2    0    0  0.43115358703E+02 -0.60026968615E+02  0.12085945770E+03  0.18898821861E+03  0.12508943657E+03 0.  0.
          5    1    3    3  502    0  0.45856653426E+02 -0.33990806046E+01 -0.91710219338E+01  0.47074052892E+02  0.41800000000E+01 0.  1.
         -5    1    3    3    0  502 -0.27412947226E+01 -0.56627888010E+02  0.13003047963E+03  0.14191416572E+03  0.41800000000E+01 0.  1.
        -11    1    1    2    0    0 -0.28578544162E+02 -0.42875072654E+01  0.76720575773E+02  0.81982697271E+02  0.00000000000E+00 0. -1.
         11    1    1    2    0    0 -0.14536814542E+02  0.64314475880E+02  0.14593417212E+02  0.67532500403E+02  0.00000000000E+00 0.  1.
</event>
<event>
 7    1  0.2612321E-009  0.8096873E+02  0.7561462E-02  0.1326325E+00
         -1   -1    0    0    0  501 -0.00000000000E+00  0.00000000000E+00  0.15566761741E+02  0.15566761741E+02  0.00000000000E+00 0.  1.
          1   -1    0    0  501    0  0.00000000000E+00 -0.00000000000E+00 -0.51883740624E+03  0.51883740624E+03  0.00000000000E+00 0. -1.
         25    2    1    2    0    0 -0.17779630592E+02  0.12899959176E+02 -0.41820980394E+03  0.43706766359E+03  0.12508468424E+03 0.  0.
          5    1    3    3  502    0  0.48540592984E+02 -0.30330872008E+00 -0.26650077934E+03  0.27091773465E+03  0.41800000000E+01 0.  1.
         -5    1    3    3    0  502 -0.66320223576E+02  0.13203267896E+02 -0.15170902461E+03  0.16614992894E+03  0.41800000000E+01 0.  1.
        -11    1    1    2    0    0  0.21071203259E+02  0.92932183156E+01 -0.29557566688E+02  0.37470111582E+02  0.00000000000E+00 0.  1.
         11    1    1    2    0    0 -0.32915726671E+01 -0.22193177492E+02 -0.55503273865E+02  0.59866392806E+02  0.00000000000E+00 0. -1.
</event>
<event>
 7    1  0.2612321E-009  0.1255465E+03  0.7561462E-02  0.1234218E+00
         -1   -1    0    0    0  501 -0.00000000000E+00  0.00000000000E+00  0.27144037217E+02  0.27144037217E+02  0.00000000000E+00 0.  1.
          1   -1    0    0  501    0  0.00000000000E+00 -0.00000000000E+00 -0.74367007963E+03  0.74367007963E+03  0.00000000000E+00 0. -1.
         25    2    1    2    0    0 -0.72879810580E+02  0.35363085312E+02 -0.28248231514E+03  0.31938416661E+03  0.12509185791E+03 0.  0.
          5    1    3    3  502    0 -0.93634132206E+02  0.55264586017E+02 -0.15992560038E+03  0.19343007843E+03  0.41800000000E+01 0.  1.
         -5    1    3    3    0  502  0.20754321626E+02 -0.19901500704E+02 -0.12255671476E+03  0.12595408818E+03  0.41800000000E+01 0.  1.
        -11    1    1    2    0    0 -0.76861095304E+01 -0.31658479927E+02 -0.55200509456E+02  0.64097050441E+02  0.00000000000E+00 0. -1.
         11    1    1    2    0    0  0.80565920110E+02 -0.37046053852E+01 -0.37884321781E+03  0.38733289980E+03  0.00000000000E+00 0.  1.
</event>
<event>
 7    1  0.2612321E-009  0.1052477E+03  0.7561462E-02  0.1269632E+00
         -2   -1    0    0    0  501 -0.00000000000E+00  0.00000000000E+00  0.49517648317E+03  0.49517648317E+03  0.00000000000E+00 0. -1.
          2   -1    0    0  501    0  0.00000000000E+00 -0.00000000000E+00 -0.24882776779E+02  0.24882776779E+02  0.00000000000E+00 0.  1.
         25    2    1    2    0    0 -0.93086343628E+01 -0.43900258413E+02  0.30981171079E+03  0.33711308675E+03  0.12509218102E+03 0.  0.
          5    1    3    3  502    0 -0.65459234045E+02 -0.23182912706E+02  0.12836894257E+03  0.14600827572E+03  0.41800000000E+01 0.  1.
         -5    1    3    3    0  502  0.56150599682E+02 -0.20717345707E+02  0.18144276822E+03  0.19110481103E+03  0.41800000000E+01 0.  1.
        -11    1    1    2    0    0 -0.28374483544E+02  0.95448868328E+01  0.97028843584E+02  0.10154217187E+03  0.00000000000E+00 0. -1.
         11    1    1    2    0    0  0.37683117907E+02  0.34355371580E+02  0.63453152019E+02  0.81404001332E+02  0.00000000000E+00 0.  1.
</event>
<event>
 7    1  0.2612321E-009  0.1220127E+03  0.7561462E-02  0.1239813E+00
         -3   -1    0    0    0  501 -0.00000000000E+00  0.00000000000E+00  0.57179040199E+02  0.57179040199E+02  0.00000000000E+00 0.  1.
          3   -1    0    0  501    0  0.00000000000E+00 -0.00000000000E+00 -0.27590435261E+03  0.27590435261E+03  0.00000000000E+00 0. -1.
         25    2    1    2    0    0  0.53332957625E+02 -0.25717001789E+02 -0.15477328623E+03  0.20762386635E+03  0.12508849347E+03 0.  0.
          5    1    3    3  502    0 -0.48197332753E+01  0.44852944296E+02 -0.66431056480E+02  0.80408793710E+02  0.41800000000E+01 0. -1.
         -5    1    3    3    0  502  0.58152690900E+02 -0.70569946085E+02 -0.88342229748E+02  0.12721507264E+03  0.41800000000E+01 0. -1.
        -11    1    1    2    0    0 -0.48415552510E+02  0.57415946748E+02 -0.37845998785E+02  0.84100988638E+02  0.00000000000E+00 0. -1.
         11    1    1    2    0    0 -0.49174051142E+01 -0.31698944959E+02 -0.26106027402E+02  0.41358537828E+02  0.00000000000E+00 0.  1.
</event>
<event>
 7    1  0.2612321E-009  0.6986124E+02  0.7561462E-02  0.1360566E+00
         -1   -1    0    0    0  501 -0.00000000000E+00  0.00000000000E+00  0.29984377198E+02  0.29984377198E+02  0.00000000000E+00 0.  1.
          1   -1    0    0  501    0  0.00000000000E+00 -0.00000000000E+00 -0.58644128881E+03  0.58644128881E+03  0.00000000000E+00 0. -1.
         25    2    1    2    0    0  0.28224775750E+02  0.57099430240E+02 -0.39661905914E+03  0.42072812238E+03  0.12509393269E+03 0.  0.
          5    1    3    3  502    0  0.36533734174E+02  0.42856845514E+02 -0.39950333833E+03  0.40347467414E+03  0.41800000000E+01 0.  1.
         -5    1    3    3    0  502 -0.83089584242E+01  0.14242584726E+02  0.28842791913E+01  0.17253448242E+02  0.41800000000E+01 0.  1.
        -11    1    1    2    0    0 -0.63749194770E+01 -0.33415465653E+02 -0.14328822367E+01  0.34048290627E+02  0.00000000000E+00 0.  1.
         11    1    1    2    0    0 -0.21849856272E+02 -0.23683964587E+02 -0.15840497024E+03  0.16164925300E+03  0.00000000000E+00 0. -1.
</event>
<event>
 7    1  0.2612321E-009  0.1312696E+03  0.7561462E-02  0.1225584E+00
          2   -1    0    0  501    0  0.00000000000E+00  0.00000000000E+00  0.14395206111E+03  0.14395206111E+03  0.00000000000E+00 0. -1.
         -2   -1    0    0    0  501 -0.00000000000E+00 -0.00000000000E+00 -0.20835834680E+03  0.20835834680E+03  0.00000000000E+00 0.  1.
         25    2    1    2    0    0  0.76015515899E+02 -0.89712090676E+02  0.33048802209E+02  0.17483162070E+03  0.12508898592E+03 0.  0.
          5    1    3    3  502    0  0.71557833589E+02 -0.21660313702E+02  0.65228595876E+02  0.99307274948E+02  0.41800000000E+01 0. -1.
         -5    1    3    3    0  502  0.44576823100E+01 -0.68051776974E+02 -0.32179793667E+02  0.75524345753E+02  0.41800000000E+01 0.  1.
        -11    1    1    2    0    0 -0.21318774946E+02  0.12510306515E+02 -0.76740915491E+02  0.80623607242E+02  0.00000000000E+00 0.  1.
         11    1    1    2    0    0 -0.54696740953E+02  0.77201784162E+02 -0.20714172399E+02  0.96855179969E+02  0.00000000000E+00 0. -1.
</event>
<event>
 7    1  0.2612321E-009  0.8810785E+02  0.7561462E-02  0.1307500E+00
          2   -1    0    0  501    0  0.00000000000E+00  0.00000000000E+00  0.20002775298E+03  0.20002775298E+03  0.00000000000E+00 0.  1.
         -2   -1    0    0    0  501 -0.00000000000E+00 -0.00000000000E+00 -0.61367469808E+02  0.61367469808E+02  0.00000000000E+00 0. -1.
         25    2    1    2    0    0 -0.14698362688E+02  0.16655051381E+02  0.99765618895E+02  0.16153453922E+03  0.12508715380E+03 0.  0.
          5    1    3    3  502    0 -0.27796744725E+01  0.68348550534E+02  0.32735405154E+02  0.75949523375E+02  0.41800000000E+01 0. -1.
         -5    1    3    3    0  502 -0.11918688216E+02 -0.51693499153E+02  0.67030213741E+02  0.85585015848E+02  0.41800000000E+01 0. -1.
        -11    1    1    2    0    0  0.17484907203E+02  0.14789638100E+02 -0.21691756859E+02  0.31543425474E+02  0.00000000000E+00 0.  1.
         11    1    1    2    0    0 -0.27865445142E+01 -0.31444689481E+02  0.60586421135E+02  0.68317258089E+02  0.00000000000E+00 0. -1.
</event>
<event>
 7    1  0.2612321E-009  0.1120900E+03  0.7561462E-02  0.1256748E+00
          4   -1    0    0  501    0  0.00000000000E+00  0.00000000000E+00  0.42763152975E+03  0.42763152975E+03  0.00000000000E+00 0. -1.
         -4   -1    0    0    0  501 -0.00000000000E+00 -0.00000000000E+00 -0.38297733810E+02  0.38297733810E+02  0.00000000000E+00 0.  1.
         25    2    1    2    0    0  0.60620708023E+02  0.86985279704E+01  0.16046114730E+03  0.21247439559E+03  0.12508818632E+03 0.  0.
          5    1    3    3  502    0  0.81134167721E+02 -0.22490103081E+02  0.55329121930E+02  0.10083323878E+03  0.41800000000E+01 0.  1.
         -5    1    3    3    0  502 -0.20513459697E+02  0.31188631052E+02  0.10513202537E+03  0.11164115681E+03  0.41800000000E+01 0.  1.
        -11    1    1    2    0    0  0.16519501983E+02 -0.18219888763E+02  0.99805340367E+02  0.10279087634E+03  0.00000000000E+00 0. -1.
         11    1    1    2    0    0 -0.77140210006E+02  0.95213607929E+01  0.12906730827E+03  0.15066399163E+03  0.00000000000E+00 0.  1.
</event>
<event>
 7    1  0.2612321E-009  0.1039390E+03  0.7561462E-02  0.1272224E+00
          1   -1    0    0  501    0  0.00000000000E+00  0.00000000000E+00  0.37109882791E+03  0.37109882791E+03  0.00000000000E+00 0. -1.
         -1   -1    0    0    0  501 -0.00000000000E+00 -0.00000000000E+00 -0.31330564469E+02  0.31330564469E+02  0.00000000000E+00 0.  1.
         25    2    1    2    0    0  0.56899465678E+01  0.52361588657E+01  0.20359009244E+03  0.23907336143E+03  0.12508938227E+03 0.  0.
          5    1    3    3  502    0  0.63954679068E+01  0.61322339503E+02  0.65918320469E+02  0.90355014832E+02  0.41800000000E+01 0. -1.
         -5    1    3    3    0  502 -0.70552133906E+00 -0.56086180637E+02  0.13767177197E+03  0.14871834660E+03  0.41800000000E+01 0. -1.
        -11    1    1    2    0    0  0.64579484159E+01 -0.46435482099E+02  0.63458113377E+02  0.78897980005E+02  0.00000000000E+00 0. -1.
         11    1    1    2    0    0 -0.12147894984E+02  0.41199323233E+02  0.72720057623E+02  0.84458050937E+02  0.00000000000E+00 0.  1.
</event>
<event>
 7    1  0.2612321E-009  0.7498418E+02  0.7561462E-02  0.1343920E+00
         -1   -1    0    0    0  501 -0.00000000000E+00  0.00000000000E+00  0.15926027664E+03  0.15926027664E+03  0.00000000000E+00 0. -1.
          1   -1    0    0  501    0  0.00000000000E+00 -0.00000000000E+00 -0.79243904218E+02  0.79243904218E+02  0.00000000000E+00 0.  1.
         25    2    1    2    0    0  0.65166141495E+01  0.22160459994E+02  0.54913964235E+02  0.13855431890E+03  0.12509277986E+03 0.  0.
          5    1    3    3  502    0 -0.28787328659E+02  0.29842376702E+02 -0.26499462776E+02  0.49385946037E+02  0.41800000000E+01 0. -1.
         -5    1    3    3    0  502  0.35303942809E+02 -0.76819167081E+01  0.81413427011E+02  0.89168372867E+02  0.41800000000E+01 0. -1.
        -11    1    1    2    0    0 -0.37092200234E+02 -0.68166760068E+01 -0.20513498501E+02  0.42931363951E+02  0.00000000000E+00 0.  1.
         11    1    1    2    0    0  0.30575586084E+02 -0.15343783987E+02  0.45615906687E+02  0.57018498001E+02  0.00000000000E+00 0. -1.
</event>
<event>
 7    1  0.2612321E-009  0.1025465E+03  0.7561462E-02  0.1275030E+00
          2   -1    0    0  501    0  0.00000000000E+00  0.00000000000E+00  0.13224517394E+03  0.13224517394E+03  0.00000000000E+00 0. -1.
         -2   -1    0    0    0  501 -0.00000000000E+00 -0.00000000000E+00 -0.14841212172E+03  0.14841212172E+03  0.00000000000E+00 0.  1.
         25    2    1    2    0    0  0.70100593581E+02  0.27267569815E+02  0.36844613153E+02  0.15054168023E+03  0.12509060070E+03 0.  0.
          5    1    3    3  502    0  0.49728980565E+02  0.48372550304E+02 -0.31308073493E+02  0.76226917796E+02  0.41800000000E+01 0. -1.
         -5    1    3    3    0  502  0.20371613017E+02 -0.21104980489E+02  0.68152686646E+02  0.74314762432E+02  0.41800000000E+01 0. -1.
        -11    1    1    2    0    0  0.12965847326E+02 -0.18280413794E+02  0.10901119106E+02  0.24922301722E+02  0.00000000000E+00 0. -1.
         11    1    1    2    0    0 -0.83066440908E+02 -0.89871560207E+01 -0.63912680041E+02  0.10519331371E+03  0.00000000000E+00 0.  1.
</event>
<event>
 7    1  0.2612321E-009  0.1445727E+03  0.7561462E-02  0.1207305E+00
         -2   -1    0    0    0  501 -0.00000000000E+00  0.00000000000E+00  0.58736038556E+02  0.58736038556E+02  0.00000000000E+00 0.  1.
          2   -1    0    0  501    0  0.00000000000E+00 -0.00000000000E+00 -0.39887197236E+03  0.39887197236E+03  0.00000000000E+00 0. -1.
         25    2    1    2    0    0 -0.15999265759E+02  0.10610891201E+03 -0.19132742594E+03  0.25252349565E+03  0.12508738635E+03 0.  0.
          5    1    3    3  502    0 -0.42246087714E+02  0.11981110662E+03 -0.18040923393E+03  0.22069072768E+03  0.41800000000E+01 0.  1.
         -5    1    3    3    0  502  0.26246821954E+02 -0.13702194609E+02 -0.10918192011E+02  0.31832767969E+02  0.41800000000E+01 0.  1.
        -11    1    1    2    0    0  0.31083907032E+02 -0.69724309680E+01 -0.72124705598E+02  0.78846669096E+02  0.00000000000E+00 0.  1.
         11    1    1    2    0    0 -0.15084641273E+02 -0.99136481042E+02 -0.76683802264E+02  0.12623784617E+03  0.00000000000E+00 0. -1.
</event>
<event>
 7    1  0.2612321E-009  0.1077031E+03  0.7561462E-02  0.1264884E+00
         -1   -1    0    0    0  501 -0.00000000000E+00  0.00000000000E+00  0.79328485870E+02  0.79328485870E+02  0.00000000000E+00 0.  1.
          1   -1    0    0  501    0  0.00000000000E+00 -0.00000000000E+00 -0.20391756223E+03  0.20391756223E+03  0.00000000000E+00 0. -1.
         25    2    1    2    0    0  0.48074932641E+02 -0.36405773996E+02 -0.39086818088E+02  0.14425876462E+03  0.12508490034E+03 0.  0.
          5    1    3    3  502    0  0.61607888986E+02 -0.54842699857E+02 -0.68125321867E+02  0.10705972909E+03  0.41800000000E+01 0.  1.
         -5    1    3    3    0  502 -0.13532956344E+02  0.18436925861E+02  0.29038503779E+02  0.37199035529E+02  0.41800000000E+01 0.  1.
        -11    1    1    2    0    0 -0.67454390726E+02 -0.97716701851E+00 -0.53386405445E+02  0.86029982971E+02  0.00000000000E+00 0.  1.
         11    1    1    2    0    0  0.19379458085E+02  0.37382941014E+02 -0.32115852825E+02  0.52957300509E+02  0.00000000000E+00 0. -1.
</event>
<event>
 6    1  0.2612321E-009  0.2425589E+03  0.7561462E-02  0.1118100E+00
          1   -1    0    0  501    0  0.00000000000E+00  0.00000000000E+00  0.92723594692E+03  0.92723594692E+03  0.00000000000E+00 0. -1.
         -1   -1    0    0    0  501 -0.00000000000E+00 -0.00000000000E+00 -0.16464775094E+03  0.16464775094E+03  0.00000000000E+00 0.  1.
          5    1    1    2  502    0 -0.15378133507E+03  0.17445889421E+03 -0.41101866850E+02  0.23620211820E+03  0.41800000000E+01 0.  1.
         -5    1    1    2    0  502 -0.34857498458E+01 -0.19577722230E+02  0.24713776133E+01  0.20469923473E+02  0.41800000000E+01 0.  1.
        -11    1    1    2    0    0  0.73196067396E+02 -0.12129170477E+03  0.41462428340E+03  0.43815823433E+03  0.00000000000E+00 0. -1.
         11    1    1    2    0    0  0.84071017516E+02 -0.33589467209E+02  0.38659440182E+03  0.39705342186E+03  0.00000000000E+00 0.  1.
</event>
<event>
 7    1  0.2785041E-009  0.9908600E+02  0.7561462E-02  0.1282230E+00
          1   -1    0    0  501    0  0.00000000000E+00  0.00000000000E+00  0.92373815577E+03  0.92373815577E+03  0.00000000000E+00 0. -1.
         -1   -1    0    0    0  501 -0.00000000000E+00 -0.00000000000E+00 -0.19311606642E+02  0.19311606642E+02  0.00000000000E+00 0.  1.
         25    2    1    2    0    0  0.60678342565E+02 -0.49597864990E+02  0.49647438583E+03  0.51795422467E+03  0.12509178073E+03 0.  0.
          5    1    3    3  502    0  0.41779022770E+02 -0.28418131329E+02  0.48403252720E+03  0.48668063114E+03  0.41800000000E+01 0.  1.
         -5    1    3    3    0  502  0.18899319795E+02 -0.21179733661E+02  0.12441858622E+02  0.31273593535E+02  0.41800000000E+01 0.  1.
        -11    1    1    2    0    0  0.16632888461E+02  0.36842286854E+02  0.16178811152E+03  0.16676150668E+03  0.00000000000E+00 0.  1.
         11    1    1    2    0    0 -0.77311231026E+02  0.12755578136E+02  0.24616405178E+03  0.25833403106E+03  0.00000000000E+00 0. -1.
</event>
<event>
 7    1  0.2612321E-009  0.9954831E+02  0.7561462E-02  0.1281249E+00
          2   -1    0    0  501    0  0.00000000000E+00  0.00000000000E+00  0.53613113414E+03  0.53613113414E+03  0.00000000000E+00 0. -1.
         -2   -1    0    0    0  501 -0.00000000000E+00 -0.00000000000E+00 -0.22954361887E+02  0.22954361887E+02  0.00000000000E+00 0.  1.
         25    2    1    2    0    0 -0.39235275279E+01  0.18753177821E+02  0.30939564189E+03  0.33426604481E+03  0.12506418252E+03 0.  0.
          5    1    3    3  502    0 -0.32458463617E+02 -0.32342302627E+02  0.23528506656E+03  0.23974175970E+03  0.41800000000E+01 0. -1.
         -5    1    3    3    0  502  0.28534936089E+02  0.51095480448E+02  0.74110575327E+02  0.94524285108E+02  0.41800000000E+01 0. -1.
        -11    1    1    2    0    0 -0.42536208574E+02 -0.21907002766E+02  0.11528447411E+03  0.12481889192E+03  0.00000000000E+00 0. -1.
         11    1    1    2    0    0  0.46459736102E+02  0.31538249457E+01  0.88496656258E+02  0.10000055929E+03  0.00000000000E+00 0.  1.
</event>
<event>
 7    1  0.2612321E-009  0.1596991E+03  0.7561462E-02  0.1189037E+00
         -1   -1    0    0    0  501 -0.00000000000E+00  0.00000000000E+00  0.52294279463E+03  0.52294279463E+03  0.00000000000E+00 0.  1.
          1   -1    0    0  501    0  0.00000000000E+00 -0.00000000000E+00 -0.58926270098E+02  0.58926270098E+02  0.00000000000E+00 0. -1.
         25    2    1    2    0    0  0.20992587422E+02  0.13416253081E+03  0.24854383373E+03  0.30961675490E+03  0.12509286243E+03 0.  0.
          5    1    3    3  502    0 -0.22482338530E+02  0.13576521412E+03  0.21129688406E+03  0.25219336733E+03  0.41800000000E+01 0. -1.
         -5    1    3    3    0  502  0.43474925952E+02 -0.16026833170E+01  0.37246949666E+02  0.57423387568E+02  0.41800000000E+01 0. -1.
        -11    1    1    2    0    0 -0.16670472077E+02 -0.35084646417E+02  0.14622491561E+03  0.15129627556E+03  0.00000000000E+00 0.  1.
         11    1    1    2    0    0 -0.43221153452E+01 -0.99077884390E+02  0.69247775193E+02  0.12095603427E+03  0.00000000000E+00 0. -1.
</event>
<event>
 7    1  0.2612321E-009  0.2460186E+03  0.7561462E-02  0.1115847E+00
         -2   -1    0    0    0  501 -0.00000000000E+00  0.00000000000E+00  0.22817102818E+02  0.22817102818E+02  0.00000000000E+00 0.  1.
          2   -1    0    0  501    0  0.00000000000E+00 -0.00000000000E+00 -0.28847619988E+04  0.28847619988E+04  0.00000000000E+00 0. -1.
         25    2    1    2    0    0  0.19725085403E+03 -0.11915556638E+03 -0.16337862211E+04  0.16546937045E+04  0.12509153013E+03 0.  0.
          5    1    3    3  502    0 -0.52448169180E+01 -0.16547335422E+02 -0.29965663040E+02  0.34881739858E+02  0.41800000000E+01 0. -1.
         -5    1    3    3    0  502  0.20249567095E+03 -0.10260823096E+03 -0.16038205581E+04  0.16198119646E+04  0.41800000000E+01 0. -1.
        -11    1    1    2    0    0 -0.29065126367E+02  0.63741829117E+02 -0.38696735300E+03  0.39325759323E+03  0.00000000000E+00 0. -1.
         11    1    1    2    0    0 -0.16818572766E+03  0.55413737266E+02 -0.84119132188E+03  0.85962780392E+03  0.00000000000E+00 0.  1.
</event>
<event>
 7    1  0.2639898E-009  0.1458478E+03  0.7561462E-02  0.1205670E+00
          2   -1    0    0  501    0  0.00000000000E+00  0.00000000000E+00  0.64236199211E+03  0.64236199211E+03  0.00000000000E+00 0. -1.
         -2   -1    0    0    0  501 -0.00000000000E+00 -0.00000000000E+00 -0.40929459199E+02  0.40929459199E+02  0.00000000000E+00 0.  1.
         25    2    1    2    0    0  0.79404287395E+02  0.88757278311E+02  0.35153692990E+03  0.39167069760E+03  0.12507928271E+03 0.  0.
          5    1    3    3  502    0  0.90175346938E+02  0.79412558771E+01  0.19897253361E+03  0.21863713836E+03  0.41800000000E+01 0. -1.
         -5    1    3    3    0  502 -0.10771059544E+02  0.80816022433E+02  0.15256439629E+03  0.17303355924E+03  0.41800000000E+01 0. -1.
        -11    1    1    2    0    0 -0.73330755871E+02 -0.77821414193E+02  0.25619578049E+03  0.27761457131E+03  0.00000000000E+00 0. -1.
         11    1    1    2    0    0 -0.60735315237E+01 -0.10935864117E+02 -0.63001774796E+01  0.14006182401E+02  0.00000000000E+00 0.  1.
</event>
<event>
 7    1  0.2612321E-009  0.1362440E+03  0.7561462E-02  0.1218474E+00
          1   -1    0    0  501    0  0.00000000000E+00  0.00000000000E+00  0.82364202643E+02  0.82364202643E+02  0.00000000000E+00 0. -1.
         -1   -1    0    0    0  501 -0.00000000000E+00 -0.00000000000E+00 -0.27043508941E+03  0.27043508941E+03  0.00000000000E+00 0.  1.
         25    2    1    2    0    0  0.54837113717E+02  0.85041591551E+02 -0.91667630933E+02  0.18518192390E+03  0.12510079554E+03 0.  0.
          5    1    3    3  502    0  0.55622647507E+02  0.10569941475E+03 -0.34722264637E+02  0.12445623028E+03  0.41800000000E+01 0. -1.
         -5    1    3    3    0  502 -0.78553379040E+00 -0.20657823203E+02 -0.56945366296E+02  0.60725693618E+02  0.41800000000E+01 0. -1.
        -11    1    1    2    0    0  0.10612561997E+02 -0.61374244456E+02 -0.22819269892E+02  0.66333576966E+02  0.00000000000E+00 0. -1.
         11    1    1    2    0    0 -0.65449675713E+02 -0.23667347095E+02 -0.73583985937E+02  0.10128379118E+03  0.00000000000E+00 0.  1.
</event>
<event>
 7    1  0.2672035E-009  0.1310127E+03  0.7561462E-02  0.1225961E+00
         -3   -1    0    0    0  501 -0.00000000000E+00  0.00000000000E+00  0.23027631297E+03  0.23027631297E+03  0.00000000000E+00 0.  1.
          3   -1    0    0  501    0  0.00000000000E+00 -0.00000000000E+00 -0.84981176886E+02  0.84981176886E+02  0.00000000000E+00 0. -1.
         25    2    1    2    0    0  0.47255998765E+02  0.66121932367E+02  0.11780227821E+03  0.19007646251E+03  0.12508575254E+03 0.  0.
          5    1    3    3  502    0  0.48752373494E+02  0.99243523413E+02  0.10943648839E+03  0.15562740200E+03  0.41800000000E+01 0.  1.
         -5    1    3    3    0  502 -0.14963747286E+01 -0.33121591046E+02  0.83657898192E+01  0.34449060511E+02  0.41800000000E+01 0.  1.
        -11    1    1    2    0    0 -0.70329714128E+02 -0.33245073068E+02  0.33260038465E+02  0.84603390779E+02  0.00000000000E+00 0.  1.
         11    1    1    2    0    0  0.23073715362E+02 -0.32876859299E+02 -0.57671805877E+01  0.40577636574E+02  0.00000000000E+00 0. -1.
</event>
<event>
 7    1  0.3421205E-009  0.2414436E+03  0.7561462E-02  0.1118835E+00
          2   -1    0    0  501    0  0.00000000000E+00  0.00000000000E+00  0.10954095458E+04  0.10954095458E+04  0.00000000000E+00 0. -1.
         -2   -1    0    0    0  501 -0.00000000000E+00 -0.00000000000E+00 -0.58265938054E+02  0.58265938054E+02  0.00000000000E+00 0.  1.
         25    2    1    2    0    0 -0.13339150488E+03 -0.18401395575E+03  0.49496106312E+03  0.55883098313E+03  0.12510469304E+03 0.  0.
          5    1    3    3  502    0 -0.14466355037E+03 -0.11421726826E+03  0.39927253559E+03  0.43978307977E+03  0.41800000000E+01 0.  1.
         -5    1    3    3    0  502  0.11272045496E+02 -0.69796687490E+02  0.95688527527E+02  0.11904790336E+03  0.41800000000E+01 0.  1.
        -11    1    1    2    0    0  0.55956277928E+02  0.65750607452E+02  0.32051317623E+03  0.33193816225E+03  0.00000000000E+00 0. -1.
         11    1    1    2    0    0  0.77435226951E+02  0.11826334830E+03  0.22166936841E+03  0.26290633849E+03  0.00000000000E+00 0.  1.
</event>
<event>
 7    1  0.2612321E-009  0.8553895E+02  0.7561462E-02  0.1314029E+00
         -1   -1    0    0    0  501 -0.00000000000E+00  0.00000000000E+00  0.23354798221E+03  0.23354798221E+03  0.00000000000E+00 0.  1.
          1   -1    0    0  501    0  0.00000000000E+00 -0.00000000000E+00 -0.64603074523E+02  0.64603074523E+02  0.00000000000E+00 0. -1.
         25    2    1    2    0    0  0.16683180480E+02 -0.34906578521E+02  0.44848772333E+02  0.13840792044E+03  0.12509413386E+03 0.  0.
          5    1    3    3  502    0  0.10411884931E+01 -0.57946354183E+02  0.76485482287E+02  0.96053971481E+02  0.41800000000E+01 0. -1.
         -5    1    3    3    0  502  0.15641991986E+02  0.23039775662E+02 -0.31636709954E+02  0.42353948961E+02  0.41800000000E+01 0. -1.
        -11    1    1    2    0    0 -0.80712001219E+01  0.58832303252E+02  0.39284524635E+02  0.71201531255E+02  0.00000000000E+00 0. -1.
         11    1    1    2    0    0 -0.86119803577E+01 -0.23925724730E+02  0.84811610717E+02  0.88541605034E+02  0.00000000000E+00 0.  1.
</event>
<event>
 7    1  0.2612321E-009  0.1222413E+03  0.7561462E-02  0.1239445E+00
          2   -1    0    0  501    0  0.00000000000E+00  0.00000000000E+00  0.30570822856E+02  0.30570822856E+02  0.00000000000E+00 0. -1.
         -2   -1    0    0    0  501 -0.00000000000E+00 -0.00000000000E+00 -0.58906624017E+03  0.58906624017E+03  0.00000000000E+00 0.  1.
         25    2    1    2    0    0  0.23233808403E+02  0.64176244825E+02 -0.22458223252E+03  0.26597483683E+03  0.12508810659E+03 0.  0.
          5    1    3    3  502    0  0.60962508591E+02  0.29497137410E+01 -0.15136212655E+03  0.16325775332E+03  0.41800000000E+01 0. -1.
         -5    1    3    3    0  502 -0.37728700187E+02  0.61226531084E+02 -0.73220105967E+02  0.10271708351E+03  0.41800000000E+01 0. -1.
        -11    1    1    2    0    0 -0.57058212275E+02 -0.41139642386E+02 -0.25803898648E+03  0.26745509587E+03  0.00000000000E+00 0. -1.
         11    1    1    2    0    0  0.33824403872E+02 -0.23036602439E+02 -0.75874198315E+02  0.86207130326E+02  0.00000000000E+00 0.  1.
</event>
<event>
 7    1  0.2612321E-009  0.1151780E+03  0.7561462E-02  0.1251271E+00
         -2   -1    0    0    0  501 -0.00000000000E+00  0.00000000000E+00  0.41585527804E+02  0.41585527804E+02  0.00000000000E+00 0.  1.
          2   -1    0    0  501    0  0.00000000000E+00 -0.00000000000E+00 -0.52609048858E+03  0.52609048858E+03  0.00000000000E+00 0. -1.
         25    2    1    2    0    0 -0.14510738522E+02 -0.60896900074E+02 -0.11191442142E+03  0.17914038975E+03  0.12508975797E+03 0.  0.
          5    1    3    3  502    0 -0.45385506598E+02 -0.82484585384E+02 -0.50359166342E+02  0.10685068587E+03  0.41800000000E+01 0. -1.
         -5    1    3    3    0  502  0.30874768076E+02  0.21587685310E+02 -0.61555255075E+02  0.72289703888E+02  0.41800000000E+01 0. -1.
        -11    1    1    2    0    0 -0.26661867384E+02  0.25256053901E+01 -0.38528544518E+02  0.46922090722E+02  0.00000000000E+00 0.  1.
         11    1    1    2    0    0  0.41172605907E+02  0.58371294684E+02 -0.33406199484E+03  0.34161353591E+03  0.00000000000E+00 0. -1.
</event>
<event>
 7    1  0.2825888E-009  0.1097611E+03  0.7561462E-02  0.1261013E+00
         -1   -1    0    0    0  501 -0.00000000000E+00  0.00000000000E+00  0.34261142016E+02  0.34261142016E+02  0.00000000000E+00 0.  1.
          1   -1    0    0  501    0  0.00000000000E+00 -0.00000000000E+00 -0.51164438534E+03  0.51164438534E+03  0.00000000000E+00 0. -1.
         25    2    1    2    0    0  0.20111742733E+02  0.27957365699E+01 -0.11363041877E+03  0.17021252524E+03  0.12509249914E+03 0.  0.
          5    1    3    3  502    0  0.36550913862E+02 -0.54593240432E+02 -0.70421262411E+02  0.96400299816E+02  0.41800000000E+01 0. -1.
         -5    1    3    3    0  502 -0.16439171129E+02  0.57388977002E+02 -0.43209156359E+02  0.73812225424E+02  0.41800000000E+01 0. -1.
        -11    1    1    2    0    0 -0.32314971322E+02 -0.41882222680E+02 -0.19570857496E+03  0.20273190242E+03  0.00000000000E+00 0.  1.
         11    1    1    2    0    0  0.12203228589E+02  0.39086486110E+02 -0.16804424960E+03  0.17296109969E+03  0.00000000000E+00 0. -1.
</event>
<event>
 7    1  0.2612321E-009  0.9529130E+02  0.7561462E-02  0.1290521E+00
         -1   -1    0    0    0  501 -0.00000000000E+00  0.00000000000E+00  0.87391546427E+03  0.87391546427E+03  0.00000000000E+00 0.  1.
          1   -1    0    0  501    0  0.00000000000E+00 -0.00000000000E+00 -0.20027840123E+02  0.20027840123E+02  0.00000000000E+00 0. -1.
         25    2    1    2    0    0  0.49602464494E+02 -0.15601335384E+02  0.65346692232E+03  0.66735995556E+03  0.12508591276E+03 0.  0.
          5    1    3    3  502    0 -0.37871489007E+02  0.17385477454E+02  0.20384290852E+03  0.20810071662E+03  0.41800000000E+01 0. -1.
         -5    1    3    3    0  502  0.87473953501E+02 -0.32986812837E+02  0.44962401381E+03  0.45925923894E+03  0.41800000000E+01 0. -1.
        -11    1    1    2    0    0 -0.66238880288E+01  0.96912252750E+01 -0.76674961160E+01  0.14020921390E+02  0.00000000000E+00 0. -1.
         11    1    1    2    0    0 -0.42978576465E+02  0.59101101086E+01  0.20808819794E+03  0.21256242744E+03  0.00000000000E+00 0.  1.
</event>
<event>
 7    1  0.2612321E-009  0.1786472E+03  0.7561462E-02  0.1169119E+00
          2   -1    0    0  501    0  0.00000000000E+00  0.00000000000E+00  0.41381094719E+03  0.41381094719E+03  0.00000000000E+00 0. -1.
         -2   -1    0    0    0  501 -0.00000000000E+00 -0.00000000000E+00 -0.84821501988E+02  0.84821501988E+02  0.00000000000E+00 0.  1.
         25    2    1    2    0    0 -0.12626315195E+03  0.85965849243E+02  0.17159359775E+03  0.26158283698E+03  0.12509479221E+03 0.  0.
          5    1    3    3  502    0 -0.69302671689E+02 -0.97069041021E+01  0.11958549630E+03  0.13861907378E+03  0.41800000000E+01 0. -1.
         -5    1    3    3    0  502 -0.56960480257E+02  0.95672753345E+02  0.52008101451E+02  0.12296376320E+03  0.41800000000E+01 0. -1.
        -11    1    1    2    0    0  0.13243840080E+03 -0.53693335512E+02  0.11513663984E+03  0.18351934535E+03  0.00000000000E+00 0. -1.
         11    1    1    2    0    0 -0.61752488493E+01 -0.32272513731E+02  0.42259207622E+02  0.53530266857E+02  0.00000000000E+00 0.  1.
</event>
<event>
 7    1  0.2612321E-009  0.1025120E+03  0.7561462E-02  0.1275101E+00
          1   -1    0    0  501    0  0.00000000000E+00  0.00000000000E+00  0.17367833434E+03  0.17367833434E+03  0.00000000000E+00 0. -1.
         -1   -1    0    0    0  501 -0.00000000000E+00 -0.00000000000E+00 -0.90866020196E+02  0.90866020196E+02  0.00000000000E+00 0.  1.
         25    2    1    2    0    0 -0.46052674288E+02 -0.88088212569E+01  0.84162352714E+02  0.15788708444E+03  0.12508631290E+03 0.  0.
          5    1    3    3  502    0  0.11524445023E+02 -0.51930626635E+02  0.96326861849E+01  0.54220511422E+02  0.41800000000E+01 0. -1.
         -5    1    3    3    0  502 -0.57577119311E+02  0.43121805378E+02  0.74529666529E+02  0.10366657301E+03  0.41800000000E+01 0. -1.
        -11    1    1    2    0    0 -0.50325710769E+01  0.25403187785E+02  0.33714203128E+02  0.42512306617E+02  0.00000000000E+00 0. -1.
         11    1    1    2    0    0  0.51085245365E+02 -0.16594366528E+02 -0.35064241698E+02  0.64144963484E+02  0.00000000000E+00 0.  1.
</event>
<event>
 7    1  0.2612321E-009  0.1896055E+03  0.7561462E-02  0.1158818E+00
          1   -1    0    0  501    0  0.00000000000E+00  0.00000000000E+00  0.57959998346E+02  0.57959998346E+02  0.00000000000E+00 0. -1.
         -1   -1    0    0    0  501 -0.00000000000E+00 -0.00000000000E+00 -0.79549861895E+03  0.79549861895E+03  0.00000000000E+00 0.  1.
         25    2    1    2    0    0 -0.11105008255E+03 -0.12912812555E+03 -0.23920288957E+03  0.31917381326E+03  0.12509079520E+03 0.  0.
          5    1    3    3  502    0 -0.14664960952E+02 -0.10880195098E+03 -0.15200490525E+03  0.18755236399E+03  0.41800000000E+01 0. -1.
         -5    1    3    3    0  502 -0.96385121595E+02 -0.20326174579E+02 -0.87197984320E+02  0.13162144927E+03  0.41800000000E+01 0. -1.
        -11    1    1    2    0    0  0.84741787117E+02  0.90150449279E+02 -0.45059525397E+03  0.46727332140E+03  0.00000000000E+00 0.  1.
         11    1    1    2    0    0  0.26308295430E+02  0.38977676276E+02 -0.47740477060E+02  0.67011482644E+02  0.00000000000E+00 0. -1.
</event>
<event>
 7    1  0.2612321E-009  0.5799249E+02  0.7561462E-02  0.1406455E+00
          2   -1    0    0  501    0  0.00000000000E+00  0.00000000000E+00  0.25110072186E+03  0.25110072186E+03  0.00000000000E+00 0. -1.
         -2   -1    0    0    0  501 -0.00000000000E+00 -0.00000000000E+00 -0.58077593058E+02  0.58077593058E+02  0.00000000000E+00 0.  1.
         25    2    1    2    0    0 -0.33663067843E+02 -0.24866914512E+02  0.66006248134E+02  0.14749845807E+03  0.12508958696E+03 0.  0.
          5    1    3    3  502    0 -0.31574033081E+02 -0.25980957396E+02  0.10263332827E+03  0.11055768713E+03  0.41800000000E+01 0. -1.
         -5    1    3    3    0  502 -0.20890347626E+01  0.11140428847E+01 -0.36627080136E+02  0.36940770933E+02  0.41800000000E+01 0. -1.
        -11    1    1    2    0    0  0.57924839397E-01  0.34983738539E+02  0.57705342299E+01  0.35456513968E+02  0.00000000000E+00 0.  1.
         11    1    1    2    0    0  0.33605143004E+02 -0.10116824027E+02  0.12124634644E+03  0.12622334288E+03  0.00000000000E+00 0. -1.
</event>
<event>
 7    1  0.2612321E-009  0.1385755E+03  0.7561462E-02  0.1215259E+00
         -1   -1    0    0    0  501 -0.00000000000E+00  0.00000000000E+00  0.15364597894E+03  0.15364597894E+03  0.00000000000E+00 0.  1.
          1   -1    0    0  501    0  0.00000000000E+00 -0.00000000000E+00 -0.15398929140E+03  0.15398929140E+03  0.00000000000E+00 0. -1.
         25    2    1    2    0    0  0.93664105685E+02  0.47628239330E+02 -0.24236611028E+02  0.16516253372E+03  0.12509930198E+03 0.  0.
          5    1    3    3  502    0  0.46486694399E+02 -0.22832220171E+02  0.34102582793E+02  0.62151279852E+02  0.41800000000E+01 0. -1.
         -5    1    3    3    0  502  0.47177411287E+02  0.70460459501E+02 -0.58339193821E+02  0.10301125387E+03  0.41800000000E+01 0. -1.
        -11    1    1    2    0    0 -0.10212392750E+03 -0.64940901590E+02  0.22954119158E+02  0.12318079743E+03  0.00000000000E+00 0. -1.
         11    1    1    2    0    0  0.84598218182E+01  0.17312662260E+02  0.93917940804E+00  0.19291939189E+02  0.00000000000E+00 0.  1.
</event>
<event>
 7    1  0.2612321E-009  0.9746650E+02  0.7561462E-02  0.1285716E+00
          1   -1    0    0  501    0  0.00000000000E+00  0.00000000000E+00  0.62565092932E+03  0.62565092932E+03  0.00000000000E+00 0. -1.
         -1   -1    0    0    0  501 -0.00000000000E+00 -0.00000000000E+00 -0.29459839666E+02  0.29459839666E+02  0.00000000000E+00 0.  1.
         25    2    1    2    0    0  0.12112007943E+02 -0.69300160655E+02  0.42936206940E+03  0.45271259192E+03  0.12509073202E+03 0.  0.
          5    1    3    3  502    0  0.46595145336E+02 -0.74803110491E+02  0.39031563642E+03  0.40016294349E+03  0.41800000000E+01 0.  1.
         -5    1    3    3    0  502 -0.34483137393E+02  0.55029498365E+01  0.39046432981E+02  0.52549648428E+02  0.41800000000E+01 0.  1.
        -11    1    1    2    0    0 -0.12518876745E+02  0.33955250548E+02  0.47386271067E+01  0.36498436975E+02  0.00000000000E+00 0.  1.
         11    1    1    2    0    0  0.40686880206E+00  0.35344910106E+02  0.16209039315E+03  0.16589974010E+03  0.00000000000E+00 0. -1.
</event>
<event>
 7    1  0.2612321E-009  0.1125284E+03  0.7561462E-02  0.1255958E+00
          2   -1    0    0  501    0  0.00000000000E+00  0.00000000000E+00  0.10864102103E+04  0.10864102103E+04  0.00000000000E+00 0. -1.
         -2   -1    0    0    0  501 -0.00000000000E+00 -0.00000000000E+00 -0.13532382299E+02  0.13532382299E+02  0.00000000000E+00 0.  1.
         25    2    1    2    0    0  0.23492313928E+02 -0.49738111060E+02  0.56314693439E+03  0.57948951130E+03  0.12509138855E+03 0.  0.
          5    1    3    3  502    0  0.61918293283E+02 -0.53033387413E+02  0.48940341751E+03  0.49616488458E+03  0.41800000000E+01 0.  1.
         -5    1    3    3    0  502 -0.38425979355E+02  0.32952763529E+01  0.73743516881E+02  0.83324626717E+02  0.41800000000E+01 0.  1.
        -11    1    1    2    0    0 -0.50956727076E+02  0.37859594870E+01  0.22446108560E+03  0.23020360656E+03  0.00000000000E+00 0. -1.
         11    1    1    2    0    0  0.27464413148E+02  0.45952151573E+02  0.28526980797E+03  0.29024947470E+03  0.00000000000E+00 0.  1.
</event>
<event>
 7    1  0.2612321E-009  0.1508468E+03  0.7561462E-02  0.1199436E+00
         -2   -1    0    0    0  501 -0.00000000000E+00  0.00000000000E+00  0.39140274841E+02  0.39140274841E+02  0.00000000000E+00 0.  1.
          2   -1    0    0  501    0  0.00000000000E+00 -0.00000000000E+00 -0.68550064089E+03  0.68550064089E+03  0.00000000000E+00 0. -1.
         25    2    1    2    0    0  0.16188327975E+02  0.11276070040E+03 -0.26220943794E+03  0.31205476570E+03  0.12508936779E+03 0.  0.
          5    1    3    3  502    0  0.25867726143E+02 -0.16642590469E+02 -0.97530807815E+02  0.10235158009E+03  0.41800000000E+01 0.  1.
         -5    1    3    3    0  502 -0.96793981681E+01  0.12940329087E+03 -0.16467863012E+03  0.20970318561E+03  0.41800000000E+01 0.  1.
        -11    1    1    2    0    0 -0.43508382296E+02 -0.27938223853E+02 -0.76851825112E+02  0.92626814180E+02  0.00000000000E+00 0.  1.
         11    1    1    2    0    0  0.27320054321E+02 -0.84822476545E+02 -0.30729910300E+03  0.31995933585E+03  0.00000000000E+00 0. -1.
</event>
<event>
 7    1  0.2612321E-009  0.8994114E+02  0.7561462E-02  0.1302994E+00
          1   -1    0    0  501    0  0.00000000000E+00  0.00000000000E+00  0.20380951318E+03  0.20380951318E+03  0.00000000000E+00 0. -1.
         -1   -1    0    0    0  501 -0.00000000000E+00 -0.00000000000E+00 -0.74419365548E+02  0.74419365548E+02  0.00000000000E+00 0.  1.
         25    2    1    2    0    0  0.29838719762E+02  0.11181041508E+02  0.20735802082E+02  0.13074052783E+03  0.12509095588E+03 0.  0.
          5    1    3    3  502    0  0.13284859519E+02  0.51464722839E+02  0.53919133026E+02  0.75827768631E+02  0.41800000000E+01 0.  1.
         -5    1    3    3    0  502  0.16553860242E+02 -0.40283681332E+02 -0.33183330944E+02  0.54912759201E+02  0.41800000000E+01 0.  1.
        -11    1    1    2    0    0  0.24541394926E+02  0.69235341812E+01  0.78884420632E+02  0.82903360661E+02  0.00000000000E+00 0. -1.
         11    1    1    2    0    0 -0.54380114687E+02 -0.18104575689E+02  0.29769924921E+02  0.64584990238E+02  0.00000000000E+00 0.  1.
</event>
<event>
 7    1  0.2612321E-009  0.1183017E+03  0.7561462E-02  0.1245925E+00
          2   -1    0    0  501    0  0.00000000000E+00  0.00000000000E+00  0.25542231658E+02  0.25542231658E+02  0.00000000000E+00 0.  1.
         -2   -1    0    0    0  501 -0.00000000000E+00 -0.00000000000E+00 -0.75266118264E+03  0.75266118264E+03  0.00000000000E+00 0. -1.
         25    2    1    2    0    0  0.21146035833E+01 -0.56361722363E+02 -0.36711112168E+03  0.39191691874E+03  0.12508868950E+03 0.  0.
          5    1    3    3  502    0  0.51533236684E+02 -0.17120679655E+02 -0.27399256953E+03  0.27935316843E+03  0.41800000000E+01 0.  1.
         -5    1    3    3    0  502 -0.49418633101E+02 -0.39241042709E+02 -0.93118552152E+02  0.11256375032E+03  0.41800000000E+01 0.  1.
        -11    1    1    2    0    0 -0.48247419669E+02  0.54414981227E+02 -0.10877969817E+03  0.13085039709E+03  0.00000000000E+00 0.  1.
         11    1    1    2    0    0  0.46132816086E+02  0.19467411367E+01 -0.25122813114E+03  0.25543609847E+03  0.00000000000E+00 0. -1.
</event>
<event>
 7    1  0.2713858E-009  0.1117666E+03  0.7561462E-02  0.1257333E+00
         -2   -1    0    0    0  501 -0.00000000000E+00  0.00000000000E+00  0.60876146844E+02  0.60876146844E+02  0.00000000000E+00 0.  1.
          2   -1    0    0  501    0  0.00000000000E+00 -0.00000000000E+00 -0.33489865585E+03  0.33489865585E+03  0.00000000000E+00 0. -1.
         25    2    1    2    0    0 -0.91809706921E+02 -0.12440161731E+02 -0.15451110554E+03  0.21930348290E+03  0.12504621534E+03 0.  0.
          5    1    3    3  502    0 -0.85962572294E+01 -0.41457020118E+02 -0.11503050679E+03  0.12264611713E+03  0.41800000000E+01 0. -1.
         -5    1    3    3    0  502 -0.83213449692E+02  0.29016858388E+02 -0.39480598745E+02  0.96657365770E+02  0.41800000000E+01 0. -1.
        -11    1    1    2    0    0  0.65038667918E+02  0.10907865082E+02 -0.13752210307E+02  0.67365667320E+02  0.00000000000E+00 0.  1.
         11    1    1    2    0    0  0.26771039003E+02  0.15322966484E+01 -0.10575919317E+03  0.10910565247E+03  0.00000000000E+00 0. -1.
</event>
<event>
 7    1  0.2612321E-009  0.1559569E+03  0.7561462E-02  0.1193338E+00
         -2   -1    0    0    0  501 -0.00000000000E+00  0.00000000000E+00  0.40768658454E+03  0.40768658454E+03  0.00000000000E+00 0.  1.
          2   -1    0    0  501    0  0.00000000000E+00 -0.00000000000E+00 -0.69354945820E+02  0.69354945820E+02  0.00000000000E+00 0. -1.
         25    2    1    2    0    0  0.12689756844E+03 -0.77172667098E+01  0.16532034834E+03  0.24318994433E+03  0.12509189570E+03 0.  0.
          5    1    3    3  502    0  0.14385534282E+03  0.18126792817E+02  0.14915867518E+03  0.20805942193E+03  0.41800000000E+01 0.  1.
         -5    1    3    3    0  502 -0.16957774380E+02 -0.25844059526E+02  0.16161673167E+02  0.35130522403E+02  0.41800000000E+01 0.  1.
        -11    1    1    2    0    0 -0.90762508981E+02  0.27022557172E+02  0.16763104439E+03  0.19253108496E+03  0.00000000000E+00 0.  1.
         11    1    1    2    0    0 -0.36135059454E+02 -0.19305290462E+02  0.53802459900E+01  0.41320501068E+02  0.00000000000E+00 0. -1.
</event>
<event>
 7    1  0.2612321E-009  0.1044112E+03  0.7561462E-02  0.1271284E+00
          1   -1    0    0  501    0  0.00000000000E+00  0.00000000000E+00  0.70860360731E+02  0.70860360731E+02  0.00000000000E+00 0. -1.
         -1   -1    0    0    0  501 -0.00000000000E+00 -0.00000000000E+00 -0.18983096087E+03  0.18983096087E+03  0.00000000000E+00 0.  1.
         25    2    1    2    0    0  0.58055342231E+01 -0.20201495680E+02 -0.10921871845E+03  0.16738588321E+03  0.12508997075E+03 0.  0.
          5    1    3    3  502    0 -0.53426480694E+02  0.78550613059E+01 -0.22608095058E+02  0.58691474590E+02  0.41800000000E+01 0.  1.
         -5    1    3    3    0  502  0.59232014917E+02 -0.28056556986E+02 -0.86610623392E+02  0.10869440862E+03  0.41800000000E+01 0.  1.
        -11    1    1    2    0    0 -0.46193636746E+02  0.88598298638E+01  0.80762202871E+01  0.47723935244E+02  0.00000000000E+00 0. -1.
         11    1    1    2    0    0  0.40388102523E+02  0.11341665816E+02 -0.17828101973E+02  0.45581503144E+02  0.00000000000E+00 0.  1.
</event>
<event>
 7    1  0.2612321E-009  0.1902116E+03  0.7561462E-02  0.1158271E+00
         -4   -1    0    0    0  501 -0.00000000000E+00  0.00000000000E+00  0.20622059110E+03  0.20622059110E+03  0.00000000000E+00 0.  1.
          4   -1    0    0  501    0  0.00000000000E+00 -0.00000000000E+00 -0.20203969740E+03  0.20203969740E+03  0.00000000000E+00 0. -1.
         25    2    1    2    0    0  0.13829028793E+03 -0.10165431844E+03  0.19425487692E+02  0.21327640163E+03  0.12510663342E+03 0.  0.
          5    1    3    3  502    0 -0.14940738983E+02 -0.98100666266E+01 -0.23182890876E+02  0.29569949576E+02  0.41800000000E+01 0.  1.
         -5    1    3    3    0  502  0.15323102692E+03 -0.91844251815E+02  0.42608378568E+02  0.18370645205E+03  0.41800000000E+01 0.  1.
        -11    1    1    2    0    0 -0.13941104318E+03  0.78114603306E+02 -0.35740043575E+02  0.16375188831E+03  0.00000000000E+00 0. -1.
         11    1    1    2    0    0  0.11207552462E+01  0.23539715136E+02  0.20495449583E+02  0.31231998568E+02  0.00000000000E+00 0.  1.
</event>
<event>
 7    1  0.2612321E-009  0.9777391E+02  0.7561462E-02  0.1285048E+00
         -3   -1    0    0    0  501 -0.00000000000E+00  0.00000000000E+00  0.64987936001E+03  0.64987936001E+03  0.00000000000E+00 0. -1.
          3   -1    0    0  501    0  0.00000000000E+00 -0.00000000000E+00 -0.22353749791E+02  0.22353749791E+02  0.00000000000E+00 0.  1.
         25    2    1    2    0    0  0.35787537728E+02 -0.47699890749E+01  0.45916192611E+03  0.47726377566E+03  0.12509011359E+03 0.  0.
          5    1    3    3  502    0  0.74270577000E+02 -0.79145541098E+01  0.17303986885E+03  0.18851797629E+03  0.41800000000E+01 0. -1.
         -5    1    3    3    0  502 -0.38483039272E+02  0.31445650349E+01  0.28612205726E+03  0.28874579937E+03  0.41800000000E+01 0. -1.
        -11    1    1    2    0    0 -0.58347402524E+02 -0.18980832165E+01  0.58612035243E+02  0.82724801459E+02  0.00000000000E+00 0.  1.
         11    1    1    2    0    0  0.22559864796E+02  0.66680722914E+01  0.10975164887E+03  0.11224453268E+03  0.00000000000E+00 0. -1.
</event>
<event>
 7    1  0.2612321E-009  0.8854029E+02  0.7561462E-02  0.1306426E+00
          3   -1    0    0  501    0  0.00000000000E+00  0.00000000000E+00  0.28634895519E+03  0.28634895519E+03  0.00000000000E+00 0. -1.
         -3   -1    0    0    0  501 -0.00000000000E+00 -0.00000000000E+00 -0.50227641306E+02  0.50227641306E+02  0.00000000000E+00 0.  1.
         25    2    1    2    0    0 -0.43909643942E+02  0.25533743110E+02  0.13805676602E+03  0.19310003097E+03  0.12509165619E+03 0.  0.
          5    1    3    3  502    0  0.17854028335E+02 -0.35111265144E+02  0.14499654386E+02  0.42181508331E+02  0.41800000000E+01 0.  1.
         -5    1    3    3    0  502 -0.61763672277E+02  0.60645008254E+02  0.12355711164E+03  0.15091852264E+03  0.41800000000E+01 0.  1.
        -11    1    1    2    0    0  0.27913152216E+02 -0.15541724829E+02 -0.10234461591E+02  0.33547480999E+02  0.00000000000E+00 0.  1.
         11    1    1    2    0    0  0.15996491726E+02 -0.99920182816E+01  0.10829900946E+03  0.10992908453E+03  0.00000000000E+00 0. -1.
</event>
<event>
 7    1  0.2612321E-009  0.1115869E+03  0.7561462E-02  0.1257659E+00
          2   -1    0    0  501    0  0.00000000000E+00  0.00000000000E+00  0.32292003976E+03  0.32292003976E+03  0.00000000000E+00 0. -1.
         -2   -1    0    0    0  501 -0.00000000000E+00 -0.00000000000E+00 -0.59608325269E+02  0.59608325269E+02  0.00000000000E+00 0.  1.
         25    2    1    2    0    0 -0.26306649841E+02  0.71840504827E+02  0.89281966092E+02  0.17167231545E+03  0.12508803486E+03 0.  0.
          5    1    3    3  502    0  0.17688286047E+02  0.67756811466E+02  0.10353072082E+03  0.12505975978E+03  0.41800000000E+01 0.  1.
         -5    1    3    3    0  502 -0.43994935889E+02  0.40836933610E+01 -0.14248754723E+02  0.46612555674E+02  0.41800000000E+01 0.  1.
        -11    1    1    2    0    0 -0.11651319543E+02 -0.69651325864E+02  0.15023019616E+03  0.16600051892E+03  0.00000000000E+00 0. -1.
         11    1    1    2    0    0  0.37957969385E+02 -0.21891789626E+01  0.23799552241E+02  0.44855530665E+02  0.00000000000E+00 0.  1.
</event>
<event>
 7    1  0.2612321E-009  0.9632207E+02  0.7561462E-02  0.1288226E+00
          1   -1    0    0  501    0  0.00000000000E+00  0.00000000000E+00  0.11334065911E+03  0.11334065911E+03  0.00000000000E+00 0. -1.
         -1   -1    0    0    0  501 -0.00000000000E+00 -0.00000000000E+00 -0.13042570790E+03  0.13042570790E+03  0.00000000000E+00 0.  1.
         25    2    1    2    0    0  0.91205747045E+00 -0.42871260454E+02  0.21971157384E+02  0.13407457448E+03  0.12511787620E+03 0.  0.
          5    1    3    3  502    0  0.40613343378E+02 -0.18484440158E+01  0.54588507771E+02  0.68192653463E+02  0.41800000000E+01 0.  1.
         -5    1    3    3    0  502 -0.39701285908E+02 -0.41022816438E+02 -0.32617350387E+02  0.65881921022E+02  0.41800000000E+01 0.  1.
        -11    1    1    2    0    0  0.14110363952E+02  0.65703950150E+02 -0.69998163406E+01  0.67565589356E+02  0.00000000000E+00 0. -1.
         11    1    1    2    0    0 -0.15022421423E+02 -0.22832689697E+02 -0.32056389831E+02  0.42126203166E+02  0.00000000000E+00 0.  1.
</event>
<event>
 7    1  0.2612321E-009  0.2236247E+03  0.7561462E-02  0.1131209E+00
          1   -1    0    0  501    0  0.00000000000E+00  0.00000000000E+00  0.50171724042E+02  0.50171724042E+02  0.00000000000E+00 0.  1.
         -1   -1    0    0    0  501 -0.00000000000E+00 -0.00000000000E+00 -0.11024790801E+04  0.11024790801E+04  0.00000000000E+00 0. -1.
         25    2    1    2    0    0  0.12877705288E+03  0.16216090121E+03 -0.61189860526E+03  0.65798691564E+03  0.12508873172E+03 0.  0.
          5    1    3    3  502    0  0.13082696911E+02 -0.20019385003E+02 -0.41053437465E+02  0.47694757176E+02  0.41800000000E+01 0. -1.
         -5    1    3    3    0  502  0.11569435597E+03  0.18218028621E+03 -0.57084516779E+03  0.61029215846E+03  0.41800000000E+01 0. -1.
        -11    1    1    2    0    0 -0.94177395350E+02 -0.11547090969E+03 -0.39084516505E+03  0.41828561513E+03  0.00000000000E+00 0. -1.
         11    1    1    2    0    0 -0.34599657530E+02 -0.46689991519E+02 -0.49563585702E+02  0.76378273330E+02  0.00000000000E+00 0.  1.
</event>
<event>
 7    1  0.2612321E-009  0.1507369E+03  0.7561462E-02  0.1199570E+00
          2   -1    0    0  501    0  0.00000000000E+00  0.00000000000E+00  0.63832557977E+03  0.63832557977E+03  0.00000000000E+00 0. -1.
         -2   -1    0    0    0  501 -0.00000000000E+00 -0.00000000000E+00 -0.43605494114E+02  0.43605494114E+02  0.00000000000E+00 0.  1.
         25    2    1    2    0    0 -0.11743856346E+03 -0.41447750344E+02  0.28780769622E+03  0.33762120460E+03  0.12508027661E+03 0.  0.
          5    1    3    3  502    0 -0.56356561034E+02  0.42610080760E+02  0.14031611593E+03  0.15715522817E+03  0.41800000000E+01 0.  1.
         -5    1    3    3    0  502 -0.61082002428E+02 -0.84057831105E+02  0.14749158029E+03  0.18046597643E+03  0.41800000000E+01 0.  1.
        -11    1    1    2    0    0  0.46311625879E+02  0.28594732572E+02  0.39366171939E+02  0.67172322541E+02  0.00000000000E+00 0.  1.
         11    1    1    2    0    0  0.71126937583E+02  0.12853017772E+02  0.26754621750E+03  0.27713754674E+03  0.00000000000E+00 0. -1.
</event>
<event>
 7    1  0.2612321E-009  0.4508981E+03  0.7561462E-02  0.1027455E+00
          2   -1    0    0  501    0  0.00000000000E+00  0.00000000000E+00  0.15028945817E+04  0.15028945817E+04  0.00000000000E+00 0. -1.
         -2   -1    0    0    0  501 -0.00000000000E+00 -0.00000000000E+00 -0.13999868540E+03  0.13999868540E+03  0.00000000000E+00 0.  1.
         25    2    1    2    0    0 -0.12333660016E+03  0.42449417365E+03  0.80808008673E+03  0.92954195089E+03  0.12509033330E+03 0.  0.
          5    1    3    3  502    0  0.16566096698E+02  0.13697717661E+03  0.20924256111E+03  0.25067330184E+03  0.41800000000E+01 0.  1.
         -5    1    3    3    0  502 -0.13990269686E+03  0.28751699704E+03  0.59883752562E+03  0.67886864905E+03  0.41800000000E+01 0.  1.
        -11    1    1    2    0    0  0.25802611718E+01 -0.58995290053E+02  0.11202180490E+03  0.12663327671E+03  0.00000000000E+00 0. -1.
         11    1    1    2    0    0  0.12075633899E+03 -0.36549888360E+03  0.44279400466E+03  0.58671803951E+03  0.00000000000E+00 0.  1.
</event>
<event>
 7    1  0.2612321E-009  0.6840461E+02  0.7561462E-02  0.1365604E+00
         -1   -1    0    0    0  501 -0.00000000000E+00  0.00000000000E+00  0.33423186517E+02  0.33423186517E+02  0.00000000000E+00 0.  1.
          1   -1    0    0  501    0  0.00000000000E+00 -0.00000000000E+00 -0.40236329742E+03  0.40236329742E+03  0.00000000000E+00 0. -1.
         25    2    1    2    0    0  0.65139583822E+01 -0.41181593036E+02 -0.21203621615E+03  0.24968980372E+03  0.12508911170E+03 0.  0.
          5    1    3    3  502    0  0.60745299118E+01 -0.90175196777E+01 -0.21661740080E+03  0.21693037202E+03  0.41800000000E+01 0.  1.
         -5    1    3    3    0  502  0.43942847047E+00 -0.32164073359E+02  0.45811846559E+01  0.32759431699E+02  0.41800000000E+01 0.  1.
        -11    1    1    2    0    0 -0.42372452035E+02  0.37664685106E+02 -0.12769393407E+03  0.13971325633E+03  0.00000000000E+00 0. -1.
         11    1    1    2    0    0  0.35858493653E+02  0.35169079304E+01 -0.29209960692E+02  0.46383423893E+02  0.00000000000E+00 0.  1.
</event>
<event>
 7    1  0.2612321E-009  0.2006534E+03  0.7561462E-02  0.1149189E+00
         -1   -1    0    0    0  501 -0.00000000000E+00  0.00000000000E+00  0.10158135338E+03  0.10158135338E+03  0.00000000000E+00 0.  1.
          1   -1    0    0  501    0  0.00000000000E+00 -0.00000000000E+00 -0.48932500429E+03  0.48932500429E+03  0.00000000000E+00 0. -1.
         25    2    1    2    0    0 -0.10962440464E+02  0.19316276633E+03 -0.17953300255E+03  0.29208048135E+03  0.12508748611E+03 0.  0.
          5    1    3    3  502    0  0.29980134886E+02  0.68426740779E+02 -0.68740914322E+01  0.75138225122E+02  0.41800000000E+01 0.  1.
         -5    1    3    3    0  502 -0.40942575350E+02  0.12473602555E+03 -0.17265891112E+03  0.21694225622E+03  0.41800000000E+01 0.  1.
        -11    1    1    2    0    0  0.18984420971E+02 -0.11454774885E+03 -0.59605002754E+02  0.13051571307E+03  0.00000000000E+00 0.  1.
         11    1    1    2    0    0 -0.80219805068E+01 -0.78615017485E+02 -0.14860564560E+03  0.16831016324E+03  0.00000000000E+00 0. -1.
</event>
<event>
 7    1  0.2612321E-009  0.8652219E+02  0.7561462E-02  0.1311499E+00
          2   -1    0    0  501    0  0.00000000000E+00  0.00000000000E+00  0.28877704389E+03  0.28877704389E+03  0.00000000000E+00 0.  1.
         -2   -1    0    0    0  501 -0.00000000000E+00 -0.00000000000E+00 -0.48093488295E+02  0.48093488295E+02  0.00000000000E+00 0. -1.
         25    2    1    2    0    0  0.42301239443E+02  0.48120611262E+01  0.15856427102E+03  0.20640945626E+03  0.12509870023E+03 0.  0.
          5    1    3    3  502    0 -0.80572378389E+01 -0.15229641079E+02  0.15039693000E+03  0.15143833729E+03  0.41800000000E+01 0. -1.
         -5    1    3    3    0  502  0.50358477282E+02  0.20041702205E+02  0.81673410249E+01  0.54971118970E+02  0.41800000000E+01 0. -1.
        -11    1    1    2    0    0  0.26537050365E+02  0.13426746119E+02  0.18923521399E+02  0.35250421495E+02  0.00000000000E+00 0. -1.
         11    1    1    2    0    0 -0.68838289808E+02 -0.18238807245E+02  0.63195763173E+02  0.95210654427E+02  0.00000000000E+00 0.  1.
</event>
<event>
 7    1  0.2612321E-009  0.1591206E+03  0.7561462E-02  0.1189693E+00
          1   -1    0    0  501    0  0.00000000000E+00  0.00000000000E+00  0.38431261923E+03  0.38431261923E+03  0.00000000000E+00 0. -1.
         -1   -1    0    0    0  501 -0.00000000000E+00 -0.00000000000E+00 -0.78265148123E+02  0.78265148123E+02  0.00000000000E+00 0.  1.
         25    2    1    2    0    0 -0.94363414876E+02 -0.97771640289E+02  0.15142578021E+03  0.23883167017E+03  0.12508817711E+03 0.  0.
          5    1    3    3  502    0 -0.75600840645E+02 -0.11015159689E+03  0.16491794003E+03  0.21228344436E+03  0.41800000000E+01 0. -1.
         -5    1    3    3    0  502 -0.18762574231E+02  0.12379956604E+02 -0.13492159818E+02  0.26548225814E+02  0.41800000000E+01 0. -1.
        -11    1    1    2    0    0  0.19799583331E+02  0.83473661860E+02  0.83350072928E+02  0.11961233373E+03  0.00000000000E+00 0. -1.
         11    1    1    2    0    0  0.74563831546E+02  0.14297978429E+02  0.71271617967E+02  0.10413376345E+03  0.00000000000E+00 0.  1.
</event>
<event>
 7    1  0.2612321E-009  0.1045167E+03  0.7561462E-02  0.1271075E+00
         -1   -1    0    0    0  501 -0.00000000000E+00  0.00000000000E+00  0.85807457195E+02  0.85807457195E+02  0.00000000000E+00 0.  1.
          1   -1    0    0  501    0  0.00000000000E+00 -0.00000000000E+00 -0.19685023408E+03  0.19685023408E+03  0.00000000000E+00 0. -1.
         25    2    1    2    0    0  0.69306371541E+02  0.16005169181E+02 -0.61621069081E+02  0.15653506975E+03  0.12508610367E+03 0.  0.
          5    1    3    3  502    0  0.44429498578E+02 -0.20167840896E+02  0.28172355980E+02  0.56496691866E+02  0.41800000000E+01 0.  1.
         -5    1    3    3    0  502  0.24876872962E+02  0.36173010077E+02 -0.89793425061E+02  0.10003837789E+03  0.41800000000E+01 0.  1.
        -11    1    1    2    0    0 -0.11432141768E+02  0.36236085050E+02 -0.14085723461E+02  0.40523515772E+02  0.00000000000E+00 0. -1.
         11    1    1    2    0    0 -0.57874229773E+02 -0.52241254231E+02 -0.35335984343E+02  0.85599105748E+02  0.00000000000E+00 0.  1.
</event>
<event>
 7    1  0.2612321E-009  0.6369666E+02  0.7561462E-02  0.1382942E+00
         -2   -1    0    0    0  501 -0.00000000000E+00  0.00000000000E+00  0.62653428007E+02  0.62653428007E+02  0.00000000000E+00 0.  1.
          2   -1    0    0  501    0  0.00000000000E+00 -0.00000000000E+00 -0.19793836656E+03  0.19793836656E+03  0.00000000000E+00 0. -1.
         25    2    1    2    0    0 -0.37048388199E+01 -0.22388340476E+01 -0.53859999319E+02  0.13621233927E+03  0.12503664916E+03 0.  0.
          5    1    3    3  502    0  0.14978808967E+02  0.15356357242E+02 -0.89480350594E+02  0.92110737530E+02  0.41800000000E+01 0.  1.
         -5    1    3    3    0  502 -0.18683647787E+02 -0.17595191289E+02  0.35620351275E+02  0.44101601741E+02  0.41800000000E+01 0.  1.
        -11    1    1    2    0    0 -0.21587020051E+02  0.33172643975E+02 -0.73739948032E+02  0.83689925790E+02  0.00000000000E+00 0. -1.
         11    1    1    2    0    0  0.25291858871E+02 -0.30933809927E+02 -0.76849912024E+01  0.40689529508E+02  0.00000000000E+00 0.  1.
</event>
<event>
 7    1  0.2612321E-009  0.9124477E+02  0.7561462E-02  0.1299865E+00
         -1   -1    0    0    0  501 -0.00000000000E+00  0.00000000000E+00  0.51783174476E+03  0.51783174476E+03  0.00000000000E+00 0.  1.
          1   -1    0    0  501    0  0.00000000000E+00 -0.00000000000E+00 -0.31654524519E+02  0.31654524519E+02  0.00000000000E+00 0. -1.
         25    2    1    2    0    0  0.30054404056E+02  0.31221257254E+02  0.15522772677E+03  0.20401209377E+03  0.12508898090E+03 0.  0.
          5    1    3    3  502    0 -0.49081116916E+01 -0.20112976667E+02  0.13774346885E+03  0.13935335303E+03  0.41800000000E+01 0.  1.
         -5    1    3    3    0  502  0.34962515748E+02  0.51334233921E+02  0.17484257919E+02  0.64658740745E+02  0.41800000000E+01 0.  1.
        -11    1    1    2    0    0 -0.48176335094E+02  0.14191984150E+02  0.16868396193E+03  0.17600184854E+03  0.00000000000E+00 0.  1.
         11    1    1    2    0    0  0.18121931038E+02 -0.45413241404E+02  0.16226553155E+03  0.16947232697E+03  0.00000000000E+00 0. -1.
</event>
<event>
 7    1  0.2612321E-009  0.1957509E+03  0.7561462E-02  0.1153374E+00
         -1   -1    0    0    0  501 -0.00000000000E+00  0.00000000000E+00  0.77023909791E+02  0.77023909791E+02  0.00000000000E+00 0.  1.
          1   -1    0    0  501    0  0.00000000000E+00 -0.00000000000E+00 -0.52504657884E+03  0.52504657884E+03  0.00000000000E+00 0. -1.
         25    2    1    2    0    0 -0.69740340466E+02 -0.15454780130E+03 -0.21891004311E+03  0.30383790551E+03  0.12508848021E+03 0.  0.
          5    1    3    3  502    0 -0.99846991011E+02 -0.10944843823E+03 -0.11894540411E+03  0.19003648019E+03  0.41800000000E+01 0.  1.
         -5    1    3    3    0  502  0.30106650545E+02 -0.45099363073E+02 -0.99964638991E+02  0.11380142532E+03  0.41800000000E+01 0.  1.
        -11    1    1    2    0    0 -0.24000514169E+01  0.95913371072E+02 -0.94736404161E+02  0.13483368003E+03  0.00000000000E+00 0. -1.
         11    1    1    2    0    0  0.72140391883E+02  0.58634430228E+02 -0.13437622179E+03  0.16339890309E+03  0.00000000000E+00 0.  1.
</event>
<event>
 7    1  0.2612321E-009  0.1267308E+03  0.7561462E-02  0.1232389E+00
          2   -1    0    0  501    0  0.00000000000E+00  0.00000000000E+00  0.40887112944E+03  0.40887112944E+03  0.00000000000E+00 0. -1.
         -2   -1    0    0    0  501 -0.00000000000E+00 -0.00000000000E+00 -0.40507245375E+02  0.40507245375E+02  0.00000000000E+00 0.  1.
         25    2    1    2    0    0  0.36265614253E+02  0.53834558997E+02  0.16787600127E+03  0.21920012532E+03  0.12511190439E+03 0.  0.
          5    1    3    3  502    0 -0.37345817024E+02 -0.14401818614E+02  0.53959457982E+02  0.67314321911E+02  0.41800000000E+01 0. -1.
         -5    1    3    3    0  502  0.73611431277E+02  0.68236377611E+02  0.11391654329E+03  0.15188580341E+03  0.41800000000E+01 0. -1.
        -11    1    1    2    0    0 -0.46130749723E+02  0.10796479202E+02  0.92886587826E+02  0.10427141618E+03  0.00000000000E+00 0. -1.
         11    1    1    2    0    0  0.98651354698E+01 -0.64631038199E+02  0.10760129497E+03  0.12590683332E+03  0.00000000000E+00 0.  1.
</event>
<event>
 7    1  0.2612321E-009  0.1216939E+03  0.7561462E-02  0.1240329E+00
          3   -1    0    0  501    0  0.00000000000E+00  0.00000000000E+00  0.29374813412E+03  0.29374813412E+03  0.00000000000E+00 0. -1.
         -3   -1    0    0    0  501 -0.00000000000E+00 -0.00000000000E+00 -0.70148541501E+02  0.70148541501E+02  0.00000000000E+00 0.  1.
         25    2    1    2    0    0 -0.18302095360E+02 -0.85083903306E+02  0.40433551409E+02  0.15765948510E+03  0.12508958336E+03 0.  0.
          5    1    3    3  502    0  0.19588122938E+02 -0.10530518852E+03  0.16928210550E+02  0.10852149096E+03  0.41800000000E+01 0.  1.
         -5    1    3    3    0  502 -0.37890218298E+02  0.20221285210E+02  0.23505340859E+02  0.49137994131E+02  0.41800000000E+01 0.  1.
        -11    1    1    2    0    0  0.18856544061E+02  0.18364192657E+02  0.35469176640E+02  0.44168714237E+02  0.00000000000E+00 0.  1.
         11    1    1    2    0    0 -0.55444870117E+00  0.66719710649E+02  0.14769686457E+03  0.16206847628E+03  0.00000000000E+00 0. -1.
</event>
<event>
 7    1  0.2612321E-009  0.1416412E+03  0.7561462E-02  0.1211138E+00
          2   -1    0    0  501    0  0.00000000000E+00  0.00000000000E+00  0.48101843183E+03  0.48101843183E+03  0.00000000000E+00 0. -1.
         -2   -1    0    0    0  501 -0.00000000000E+00 -0.00000000000E+00 -0.44356860445E+02  0.44356860445E+02  0.00000000000E+00 0.  1.
         25    2    1    2    0    0  0.58186180460E+02 -0.70501158219E+02  0.20556144423E+03  0.25740079918E+03  0.12507445444E+03 0.  0.
          5    1    3    3  502    0  0.48843346344E+02  0.27390667147E+02  0.82968570755E+02  0.10018571386E+03  0.41800000000E+01 0.  1.
         -5    1    3    3    0  502  0.93428341165E+01 -0.97891825366E+02  0.12259287348E+03  0.15721508532E+03  0.41800000000E+01 0.  1.
        -11    1    1    2    0    0 -0.78538974791E+02  0.74164553245E+02  0.15372350949E+03  0.18788206112E+03  0.00000000000E+00 0.  1.
         11    1    1    2    0    0  0.20352794331E+02 -0.36633950260E+01  0.77376617666E+02  0.80092431988E+02  0.00000000000E+00 0. -1.
</event>
<event>
 7    1  0.3022328E-009  0.1346421E+03  0.7561462E-02  0.1220726E+00
          1   -1    0    0  501    0  0.00000000000E+00  0.00000000000E+00  0.77247568620E+03  0.77247568620E+03  0.00000000000E+00 0. -1.
         -1   -1    0    0    0  501 -0.00000000000E+00 -0.00000000000E+00 -0.36123010879E+02  0.36123010879E+02  0.00000000000E+00 0.  1.
         25    2    1    2    0    0  0.68170349292E+02  0.76091044395E+02  0.21072426356E+03  0.26549693459E+03  0.12508742327E+03 0.  0.
          5    1    3    3  502    0  0.99319491270E+02  0.49997908577E+02  0.10850784457E+03  0.15542064516E+03  0.41800000000E+01 0. -1.
         -5    1    3    3    0  502 -0.31149141978E+02  0.26093135819E+02  0.10221641899E+03  0.11007628943E+03  0.41800000000E+01 0. -1.
        -11    1    1    2    0    0 -0.55788027274E+02 -0.85165941224E+02  0.51361413928E+03  0.52360770201E+03  0.00000000000E+00 0. -1.
         11    1    1    2    0    0 -0.12382322018E+02  0.90748968290E+01  0.12014272479E+02  0.19494060486E+02  0.00000000000E+00 0.  1.
</event>
<event>
 7    1  0.2612321E-009  0.9144733E+02  0.7561462E-02  0.1299384E+00
          1   -1    0    0  501    0  0.00000000000E+00  0.00000000000E+00  0.57036826512E+03  0.57036826512E+03  0.00000000000E+00 0. -1.
         -1   -1    0    0    0  501 -0.00000000000E+00 -0.00000000000E+00 -0.34577910971E+02  0.34577910971E+02  0.00000000000E+00 0.  1.
         25    2    1    2    0    0  0.35046945879E+02  0.60572499359E+02  0.41292315568E+03  0.43709300353E+03  0.12508974835E+03 0.  0.
          5    1    3    3  502    0  0.24389510228E+02  0.38445704974E+02  0.33078099491E+02  0.56431848331E+02  0.41800000000E+01 0. -1.
         -5    1    3    3    0  502  0.10657435651E+02  0.22126794384E+02  0.37984505619E+03  0.38066115519E+03  0.41800000000E+01 0. -1.
        -11    1    1    2    0    0  0.29518715693E+02 -0.14124109038E+02  0.51352688571E+02  0.60892886741E+02  0.00000000000E+00 0.  1.
         11    1    1    2    0    0 -0.64565661572E+02 -0.46448390321E+02  0.71514509905E+02  0.10696028583E+03  0.00000000000E+00 0. -1.
</event>
<event>
 7    1  0.2612321E-009  0.1217430E+03  0.7561462E-02  0.1240249E+00
         -2   -1    0    0    0  501 -0.00000000000E+00  0.00000000000E+00  0.45192623457E+02  0.45192623457E+02  0.00000000000E+00 0.  1.
          2   -1    0    0  501    0  0.00000000000E+00 -0.00000000000E+00 -0.46008881947E+03  0.46008881947E+03  0.00000000000E+00 0. -1.
         25    2    1    2    0    0 -0.59302808565E+02  0.74960876179E+02 -0.23698058747E+03  0.28450584389E+03  0.12509124793E+03 0.  0.
          5    1    3    3  502    0  0.41350698979E+01  0.81788308439E+02 -0.78097811358E+02  0.11323942220E+03  0.41800000000E+01 0.  1.
         -5    1    3    3    0  502 -0.63437878463E+02 -0.68274322598E+01 -0.15888277611E+03  0.17126642169E+03  0.41800000000E+01 0.  1.
        -11    1    1    2    0    0  0.26640068646E+02 -0.49189672848E+02 -0.23194676465E+02  0.60558320557E+02  0.00000000000E+00 0.  1.
         11    1    1    2    0    0  0.32662739919E+02 -0.25771203331E+02 -0.15472093208E+03  0.16021727848E+03  0.00000000000E+00 0. -1.
</event>
<event>
 7    1  0.2612321E-009  0.1605985E+03  0.7561462E-02  0.1188023E+00
         -2   -1    0    0    0  501 -0.00000000000E+00  0.00000000000E+00  0.57420517304E+02  0.57420517304E+02  0.00000000000E+00 0.  1.
          2   -1    0    0  501    0  0.00000000000E+00 -0.00000000000E+00 -0.73721308887E+03  0.73721308887E+03  0.00000000000E+00 0. -1.
         25    2    1    2    0    0 -0.20820448362E+02 -0.15215356413E+03 -0.50913152836E+03  0.54630302517E+03  0.12509150248E+03 0.  0.
          5    1    3    3  502    0 -0.68204332829E+01 -0.14725612125E+03 -0.27831228275E+03  0.31496997108E+03  0.41800000000E+01 0. -1.
         -5    1    3    3    0  502 -0.14000015080E+02 -0.48974428817E+01 -0.23081924561E+03  0.23133305408E+03  0.41800000000E+01 0. -1.
        -11    1    1    2    0    0 -0.95406252780E+01  0.14536156009E+02  0.93299184492E+01  0.19732479329E+02  0.00000000000E+00 0.  1.
         11    1    1    2    0    0  0.30361073640E+02  0.13761740812E+03 -0.17999096166E+03  0.22859810168E+03  0.00000000000E+00 0. -1.
</event>
<event>
 7    1  0.2612321E-009  0.1053135E+03  0.7561462E-02  0.1269503E+00
          2   -1    0    0  501    0  0.00000000000E+00  0.00000000000E+00  0.76763977193E+03  0.76763977193E+03  0.00000000000E+00 0. -1.
         -2   -1    0    0    0  501 -0.00000000000E+00 -0.00000000000E+00 -0.20161869277E+02  0.20161869277E+02  0.00000000000E+00 0.  1.
         25    2    1    2    0    0 -0.58392195229E+02  0.10000573942E+02  0.41211922672E+03  0.43474190743E+03  0.12509440077E+03 0.  0.
          5    1    3    3  502    0 -0.27327963141E+02  0.63811525612E+02  0.28257795992E+03  0.29100945724E+03  0.41800000000E+01 0. -1.
         -5    1    3    3    0  502 -0.31064232088E+02 -0.53810951670E+02  0.12954126680E+03  0.14373245019E+03  0.41800000000E+01 0. -1.
        -11    1    1    2    0    0 -0.23537654347E+01  0.13479943646E+02  0.25258307132E+01  0.13915060661E+02  0.00000000000E+00 0.  1.
         11    1    1    2    0    0  0.60745960664E+02 -0.23480517587E+02  0.33283284521E+03  0.33914467311E+03  0.00000000000E+00 0. -1.
</event>
<event>
 7    1  0.2612321E-009  0.1733776E+03  0.7561462E-02  0.1174371E+00
          2   -1    0    0  501    0  0.00000000000E+00  0.00000000000E+00  0.66342545196E+03  0.66342545196E+03  0.00000000000E+00 0. -1.
         -2   -1    0    0    0  501 -0.00000000000E+00 -0.00000000000E+00 -0.87367485438E+02  0.87367485438E+02  0.00000000000E+00 0.  1.
         25    2    1    2    0    0 -0.16424652245E+03 -0.15212114791E+02  0.51089277885E+03  0.55124142475E+03  0.12508936130E+03 0.  0.
          5    1    3    3  502    0 -0.11774805388E+03 -0.33601008180E+02  0.18751051342E+03  0.22398950196E+03  0.41800000000E+01 0. -1.
         -5    1    3    3    0  502 -0.46498468566E+02  0.18388893389E+02  0.32338226542E+03  0.32725192279E+03  0.41800000000E+01 0. -1.
        -11    1    1    2    0    0  0.33749970343E+02  0.26732152903E+02 -0.15436269546E+02  0.45737806183E+02  0.00000000000E+00 0.  1.
         11    1    1    2    0    0  0.13049655211E+03 -0.11520038112E+02  0.80601457217E+02  0.15381370646E+03  0.00000000000E+00 0. -1.
</event>
<event>
 7    1  0.4517097E-009  0.3107525E+03  0.7561462E-02  0.1079986E+00
         -2   -1    0    0    0  501 -0.00000000000E+00  0.00000000000E+00  0.16896425032E+03  0.16896425032E+03  0.00000000000E+00 0. -1.
          2   -1    0    0  501    0  0.00000000000E+00 -0.00000000000E+00 -0.67899440448E+03  0.67899440448E+03  0.00000000000E+00 0.  1.
         25    2    1    2    0    0  0.26104393702E+02 -0.30949397421E+03 -0.35779864468E+03  0.49003594909E+03  0.12508957519E+03 0.  0.
          5    1    3    3  502    0  0.15476561450E+02 -0.23380917039E+03 -0.17695440048E+03  0.29366066192E+03  0.41800000000E+01 0. -1.
         -5    1    3    3    0  502  0.10627832252E+02 -0.75684803824E+02 -0.18084424421E+03  0.19637528717E+03  0.41800000000E+01 0. -1.
        -11    1    1    2    0    0 -0.93139015016E+01  0.12666351261E+03 -0.11339343103E+03  0.17025999057E+03  0.00000000000E+00 0.  1.
         11    1    1    2    0    0 -0.16790492201E+02  0.18283046160E+03 -0.38838078441E+02  0.18766271514E+03  0.00000000000E+00 0. -1.
</event>
<event>
 7    1  0.2612321E-009  0.2833067E+03  0.7561462E-02  0.1093896E+00
         -1   -1    0    0    0  501 -0.00000000000E+00  0.00000000000E+00  0.79742044700E+02  0.79742044700E+02  0.00000000000E+00 0.  1.
          1   -1    0    0  501    0  0.00000000000E+00 -0.00000000000E+00 -0.11408384614E+04  0.11408384614E+04  0.00000000000E+00 0. -1.
         25    2    1    2    0    0 -0.57977491550E+02 -0.26344466376E+03 -0.70308843411E+03  0.76337764207E+03  0.12509035870E+03 0.  0.
          5    1    3    3  502    0  0.26425490775E+02 -0.16462337557E+03 -0.37228377261E+03  0.40793607599E+03  0.41800000000E+01 0.  1.
         -5    1    3    3    0  502 -0.84402982325E+02 -0.98821288195E+02 -0.33080466150E+03  0.35544156608E+03  0.41800000000E+01 0.  1.
        -11    1    1    2    0    0  0.23576187832E+02  0.95003502635E+02 -0.20451824873E+03  0.22673600554E+03  0.00000000000E+00 0. -1.
         11    1    1    2    0    0  0.34401303718E+02  0.16844116113E+03 -0.15348973385E+03  0.23046685848E+03  0.00000000000E+00 0.  1.
</event>
<event>
 7    1  0.2612321E-009  0.1094089E+03  0.7561462E-02  0.1261668E+00
          2   -1    0    0  501    0  0.00000000000E+00  0.00000000000E+00  0.38082060280E+03  0.38082060280E+03  0.00000000000E+00 0. -1.
         -2   -1    0    0    0  501 -0.00000000000E+00 -0.00000000000E+00 -0.35390316497E+02  0.35390316497E+02  0.00000000000E+00 0.  1.
         25    2    1    2    0    0 -0.44682977666E+02 -0.72252577358E+01  0.16214214636E+03  0.20972743159E+03  0.12508695813E+03 0.  0.
          5    1    3    3  502    0  0.25495361677E+02  0.36197205816E+02  0.29211943894E+02  0.53207717880E+02  0.41800000000E+01 0. -1.
         -5    1    3    3    0  502 -0.70178339344E+02 -0.43422463552E+02  0.13293020246E+03  0.15651971371E+03  0.41800000000E+01 0. -1.
        -11    1    1    2    0    0 -0.22158949311E+02 -0.72661316781E+01  0.25755556466E+02  0.34744271370E+02  0.00000000000E+00 0.  1.
         11    1    1    2    0    0  0.66841926977E+02  0.14491389414E+02  0.15753258348E+03  0.17173921634E+03  0.00000000000E+00 0. -1.
</event>
<event>
 7    1  0.2612321E-009  0.9022182E+02  0.7561462E-02  0.1302315E+00
          1   -1    0    0  501    0  0.00000000000E+00  0.00000000000E+00  0.15608703940E+03  0.15608703940E+03  0.00000000000E+00 0. -1.
         -1   -1    0    0    0  501 -0.00000000000E+00 -0.00000000000E+00 -0.80248997390E+02  0.80248997390E+02  0.00000000000E+00 0.  1.
         25    2    1    2    0    0 -0.90684273201E+01  0.12370875473E+02  0.70716581929E+02  0.14451105200E+03  0.12508930513E+03 0.  0.
          5    1    3    3  502    0  0.37409588820E+01 -0.53114623093E+02  0.10288532137E+02  0.54391950261E+02  0.41800000000E+01 0.  1.
         -5    1    3    3    0  502 -0.12809386202E+02  0.65485498565E+02  0.60428049792E+02  0.90119101743E+02  0.41800000000E+01 0.  1.
        -11    1    1    2    0    0  0.11099180773E+02 -0.35378766152E+02  0.37050530697E+02  0.52417465917E+02  0.00000000000E+00 0. -1.
         11    1    1    2    0    0 -0.20307534526E+01  0.23007890679E+02 -0.31929070615E+02  0.39407518870E+02  0.00000000000E+00 0.  1.
</event>
<event>
 7    1  0.2612321E-009  0.9513724E+02  0.7561462E-02  0.1290867E+00
          1   -1    0    0  501    0  0.00000000000E+00  0.00000000000E+00  0.29018326038E+03  0.29018326038E+03  0.00000000000E+00 0. -1.
         -1   -1    0    0    0  501 -0.00000000000E+00 -0.00000000000E+00 -0.47139438711E+02  0.47139438711E+02  0.00000000000E+00 0.  1.
         25    2    1    2    0    0 -0.61358552957E+01 -0.46968588716E+01  0.74858095667E+02  0.14598246777E+03  0.12508971663E+03 0.  0.
          5    1    3    3  502    0  0.34064778269E+02 -0.51060338625E+02  0.23519247451E+02  0.65864973238E+02  0.41800000000E+01 0.  1.
         -5    1    3    3    0  502 -0.40200633564E+02  0.46363479753E+02  0.51338848216E+02  0.80117494531E+02  0.41800000000E+01 0.  1.
        -11    1    1    2    0    0  0.15934511579E+02 -0.28488930913E+02  0.18115063261E+02  0.37332068799E+02  0.00000000000E+00 0.  1.
         11    1    1    2    0    0 -0.97986562837E+01  0.33185789785E+02  0.15007066274E+03  0.15400816253E+03  0.00000000000E+00 0. -1.
</event>
<event>
 7    1  0.2612321E-009  0.1291013E+03  0.7561462E-02  0.1228795E+00
         -1   -1    0    0    0  501 -0.00000000000E+00  0.00000000000E+00  0.27462964157E+03  0.27462964157E+03  0.00000000000E+00 0.  1.
          1   -1    0    0  501    0  0.00000000000E+00 -0.00000000000E+00 -0.66200519175E+02  0.66200519175E+02  0.00000000000E+00 0. -1.
         25    2    1    2    0    0  0.36792509433E+02 -0.73264755692E+02  0.11572201688E+03  0.18910485979E+03  0.12509056571E+03 0.  0.
          5    1    3    3  502    0  0.51938402260E+02 -0.10046481330E+03  0.68183936910E+02  0.13212606856E+03  0.41800000000E+01 0. -1.
         -5    1    3    3    0  502 -0.15145892827E+02  0.27200057603E+02  0.47538079970E+02  0.56978791233E+02  0.41800000000E+01 0. -1.
        -11    1    1    2    0    0  0.24517047399E+02  0.29129640533E+02  0.93004848831E+01  0.39193374310E+02  0.00000000000E+00 0. -1.
         11    1    1    2    0    0 -0.61309556832E+02  0.44135115159E+02  0.83406620633E+02  0.11253192665E+03  0.00000000000E+00 0.  1.
</event>
<event>
 7    1  0.2612321E-009  0.1445648E+03  0.7561462E-02  0.1207315E+00
         -1   -1    0    0    0  501 -0.00000000000E+00  0.00000000000E+00  0.18365664418E+02  0.18365664418E+02  0.00000000000E+00 0.  1.
          1   -1    0    0  501    0  0.00000000000E+00 -0.00000000000E+00 -0.16603267483E+04  0.16603267483E+04  0.00000000000E+00 0. -1.
         25    2    1    2    0    0  0.54588172555E+02  0.11265949714E+03 -0.11202163724E+04  0.11341093712E+04  0.12508922383E+03 0.  0.
          5    1    3    3  502    0  0.61087972949E+02  0.54514028538E+02 -0.95998209215E+03  0.96347631491E+03  0.41800000000E+01 0.  1.
         -5    1    3    3    0  502 -0.64998003942E+01  0.58145468597E+02 -0.16023428029E+03  0.17063305631E+03  0.41800000000E+01 0.  1.
        -11    1    1    2    0    0 -0.35460965706E+02 -0.12828628386E+01 -0.64881287668E+02  0.73950708687E+02  0.00000000000E+00 0.  1.
         11    1    1    2    0    0 -0.19127206850E+02 -0.11137663430E+03 -0.45686342378E+03  0.47063233283E+03  0.00000000000E+00 0. -1.
</event>
<event>
 7    1  0.2612321E-009  0.1326213E+03  0.7561462E-02  0.1223617E+00
         -1   -1    0    0    0  501 -0.00000000000E+00  0.00000000000E+00  0.45817677767E+02  0.45817677767E+02  0.00000000000E+00 0.  1.
          1   -1    0    0  501    0  0.00000000000E+00 -0.00000000000E+00 -0.42253806470E+03  0.42253806470E+03  0.00000000000E+00 0. -1.
         25    2    1    2    0    0 -0.37984238061E+02  0.63404361542E+02 -0.23179366633E+03  0.27356614230E+03  0.12508882867E+03 0.  0.
          5    1    3    3  502    0 -0.21288252293E+02  0.99613943392E+02 -0.19017488314E+03  0.21577786258E+03  0.41800000000E+01 0.  1.
         -5    1    3    3    0  502 -0.16695985768E+02 -0.36209581850E+02 -0.41618783191E+02  0.57788279718E+02  0.41800000000E+01 0.  1.
        -11    1    1    2    0    0 -0.26634887442E+02  0.70993439087E+01 -0.98247919528E+01  0.29263363612E+02  0.00000000000E+00 0. -1.
         11    1    1    2    0    0  0.64619125502E+02 -0.70503705451E+02 -0.13510192865E+03  0.16552623656E+03  0.00000000000E+00 0.  1.
</event>
<event>
 7    1  0.2612321E-009  0.1338488E+03  0.7561462E-02  0.1221854E+00
          1   -1    0    0  501    0  0.00000000000E+00  0.00000000000E+00  0.14382186303E+04  0.14382186303E+04  0.00000000000E+00 0. -1.
         -1   -1    0    0    0  501 -0.00000000000E+00 -0.00000000000E+00 -0.13475624133E+02  0.13475624133E+02  0.00000000000E+00 0.  1.
         25    2    1    2    0    0 -0.20194194077E+02 -0.78372318822E+02  0.92962876870E+03  0.94149213743E+03  0.12509105252E+03 0.  0.
          5    1    3    3  502    0  0.15944367483E+02  0.27855710306E+02  0.31791167112E+03  0.31955510711E+03  0.41800000000E+01 0. -1.
         -5    1    3    3    0  502 -0.36138561560E+02 -0.10622802913E+03  0.61171709759E+03  0.62193703032E+03  0.41800000000E+01 0. -1.
        -11    1    1    2    0    0  0.56064157174E+02  0.62080709861E+02  0.32622262695E+03  0.33677649353E+03  0.00000000000E+00 0.  1.
         11    1    1    2    0    0 -0.35869963096E+02  0.16291608961E+02  0.16889161051E+03  0.17342562347E+03  0.00000000000E+00 0. -1.
</event>
<event>
 7    1  0.2612321E-009  0.1057762E+03  0.7561462E-02  0.1268598E+00
         -2   -1    0    0    0  501 -0.00000000000E+00  0.00000000000E+00  0.68209751119E+02  0.68209751119E+02  0.00000000000E+00 0.  1.
          2   -1    0    0  501    0  0.00000000000E+00 -0.00000000000E+00 -0.16981366990E+03  0.16981366990E+03  0.00000000000E+00 0. -1.
         25    2    1    2    0    0  0.56211220057E+01  0.16043167172E+02 -0.55499357280E+02  0.13790110467E+03  0.12509019061E+03 0.  0.
          5    1    3    3  502    0 -0.43016376468E+02 -0.34578385349E+02 -0.30945974459E+02  0.63412925442E+02  0.41800000000E+01 0. -1.
         -5    1    3    3    0  502  0.48637498474E+02  0.50621552521E+02 -0.24553382821E+02  0.74488179233E+02  0.41800000000E+01 0. -1.
        -11    1    1    2    0    0 -0.40592553804E+02  0.10553439234E+02 -0.96642684564E+01  0.43041010546E+02  0.00000000000E+00 0.  1.
         11    1    1    2    0    0  0.34971431798E+02 -0.26596606406E+02 -0.36440293042E+02  0.57081305796E+02  0.00000000000E+00 0. -1.
</event>
<event>
 7    1  0.2612321E-009  0.8089247E+02  0.7561462E-02  0.1326538E+00
          2   -1    0    0  501    0  0.00000000000E+00  0.00000000000E+00  0.41597842219E+02  0.41597842219E+02  0.00000000000E+00 0. -1.
         -2   -1    0    0    0  501 -0.00000000000E+00 -0.00000000000E+00 -0.30979973408E+03  0.30979973408E+03  0.00000000000E+00 0.  1.
         25    2    1    2    0    0 -0.18643994315E+02  0.29235092483E+02 -0.16965571411E+03  0.21361173270E+03  0.12507846282E+03 0.  0.
          5    1    3    3  502    0  0.71837082304E+01  0.42008284701E+02 -0.17819649424E+03  0.18326964999E+03  0.41800000000E+01 0.  1.
         -5    1    3    3    0  502 -0.25827702545E+02 -0.12773192218E+02  0.85407801283E+01  0.30342082714E+02  0.41800000000E+01 0.  1.
        -11    1    1    2    0    0 -0.31519941491E+02 -0.23582959561E+02 -0.68594479846E+02  0.79087706748E+02  0.00000000000E+00 0. -1.
         11    1    1    2    0    0  0.50163935806E+02 -0.56521329217E+01 -0.29951697902E+02  0.58698136847E+02  0.00000000000E+00 0.  1.
</event>
<event>
 7    1  0.2612321E-009  0.1056231E+03  0.7561462E-02  0.1268897E+00
          2   -1    0    0  501    0  0.00000000000E+00  0.00000000000E+00  0.43679448594E+02  0.43679448594E+02  0.00000000000E+00 0. -1.
         -2   -1    0    0    0  501 -0.00000000000E+00 -0.00000000000E+00 -0.32605784374E+03  0.32605784374E+03  0.00000000000E+00 0.  1.
         25    2    1    2    0    0 -0.25498313938E+02  0.16335379410E+02 -0.97662087493E+02  0.16156405268E+03  0.12509217062E+03 0.  0.
          5    1    3    3  502    0 -0.60227348253E+02 -0.28935902267E+02 -0.31175400852E+02  0.73851187776E+02  0.41800000000E+01 0. -1.
         -5    1    3    3    0  502  0.34729034316E+02  0.45271281677E+02 -0.66486686641E+02  0.87712864904E+02  0.41800000000E+01 0. -1.
        -11    1    1    2    0    0 -0.29037390743E+02 -0.14653854520E+02 -0.30497056215E+02  0.44586723935E+02  0.00000000000E+00 0. -1.
         11    1    1    2    0    0  0.54535704681E+02 -0.16815248897E+01 -0.15421925144E+03  0.16358651572E+03  0.00000000000E+00 0.  1.
</event>
<event>
 7    1  0.2612321E-009  0.7801868E+02  0.7561462E-02  0.1334770E+00
         -1   -1    0    0    0  501 -0.00000000000E+00  0.00000000000E+00  0.19597565506E+03  0.19597565506E+03  0.00000000000E+00 0.  1.
          1   -1    0    0  501    0  0.00000000000E+00 -0.00000000000E+00 -0.69334212460E+02  0.69334212460E+02  0.00000000000E+00 0. -1.
         25    2    1    2    0    0  0.91453182685E+01  0.35222526908E+02  0.10210956344E+03  0.16552574886E+03  0.12509255509E+03 0.  0.
          5    1    3    3  502    0 -0.32213632054E+02  0.21867360506E+02 -0.13915352991E+02  0.41557297729E+02  0.41800000000E+01 0.  1.
         -5    1    3    3    0  502  0.41358950323E+02  0.13355166402E+02  0.11602491644E+03  0.12396845113E+03  0.41800000000E+01 0.  1.
        -11    1    1    2    0    0  0.26263940494E+02 -0.51576255485E+01 -0.21542553564E+02  0.34358074533E+02  0.00000000000E+00 0. -1.
         11    1    1    2    0    0 -0.35409258762E+02 -0.30064901360E+02  0.46074432718E+02  0.65426044127E+02  0.00000000000E+00 0.  1.
</event>
<event>
 7    1  0.2612321E-009  0.1194786E+03  0.7561462E-02  0.1243960E+00
          1   -1    0    0  501    0  0.00000000000E+00  0.00000000000E+00  0.43993145806E+03  0.43993145806E+03  0.00000000000E+00 0. -1.
         -1   -1    0    0    0  501 -0.00000000000E+00 -0.00000000000E+00 -0.37923964288E+02  0.37923964288E+02  0.00000000000E+00 0.  1.
         25    2    1    2    0    0 -0.79504317718E+01 -0.68107326350E+02  0.19527824550E+03  0.24183332180E+03  0.12509174672E+03 0.  0.
          5    1    3    3  502    0  0.28608586601E+02  0.19464944572E+02  0.10558669333E+03  0.11119063586E+03  0.41800000000E+01 0.  1.
         -5    1    3    3    0  502 -0.36559018372E+02 -0.87572270922E+02  0.89691552175E+02  0.13064268594E+03  0.41800000000E+01 0.  1.
        -11    1    1    2    0    0 -0.31649386037E+02  0.15748883225E+01  0.32641417227E+02  0.45493142651E+02  0.00000000000E+00 0. -1.
         11    1    1    2    0    0  0.39599817808E+02  0.66532438027E+02  0.17408783104E+03  0.19052895790E+03  0.00000000000E+00 0.  1.
</event>
<event>
 6    1  0.2612321E-009  0.1407577E+03  0.7561462E-02  0.1212313E+00
          2   -1    0    0  501    0  0.00000000000E+00  0.00000000000E+00  0.10782376406E+03  0.10782376406E+03  0.00000000000E+00 0. -1.
         -2   -1    0    0    0  501 -0.00000000000E+00 -0.00000000000E+00 -0.24996904575E+03  0.24996904575E+03  0.00000000000E+00 0.  1.
          5    1    1    2  502    0 -0.49012732638E+02 -0.26362241777E+02 -0.29131519671E+02  0.62955012434E+02  0.41800000000E+01 0.  1.
         -5    1    1    2    0  502  0.71729007584E+02 -0.80034283893E+02 -0.10545770922E+03  0.15062980436E+03  0.41800000000E+01 0.  1.
        -11    1    1    2    0    0  0.14189770089E+02  0.24275295176E+02 -0.39665155133E+02  0.48620613559E+02  0.00000000000E+00 0.  1.
         11    1    1    2    0    0 -0.36906045036E+02  0.82121230494E+02  0.32109102340E+02  0.95587379456E+02  0.00000000000E+00 0. -1.
</event>
<event>
 7    1  0.2612321E-009  0.1234602E+03  0.7561462E-02  0.1237496E+00
         -1   -1    0    0    0  501 -0.00000000000E+00  0.00000000000E+00  0.40779975354E+02  0.40779975354E+02  0.00000000000E+00 0.  1.
          1   -1    0    0  501    0  0.00000000000E+00 -0.00000000000E+00 -0.66405496546E+03  0.66405496546E+03  0.00000000000E+00 0. -1.
         25    2    1    2    0    0 -0.76506360078E+02  0.93406374167E+02 -0.27214471466E+03  0.32293347703E+03  0.12508121762E+03 0.  0.
          5    1    3    3  502    0 -0.59227537665E+02  0.73788515201E+02 -0.66821369334E+02  0.11591037052E+03  0.41800000000E+01 0.  1.
         -5    1    3    3    0  502 -0.17278822413E+02  0.19617858966E+02 -0.20532334533E+03  0.20702310652E+03  0.41800000000E+01 0.  1.
        -11    1    1    2    0    0  0.48722069572E+02 -0.82649331630E+02 -0.33405925676E+03  0.34756343178E+03  0.00000000000E+00 0. -1.
         11    1    1    2    0    0  0.27784290506E+02 -0.10757042537E+02 -0.17071018683E+02  0.34338032004E+02  0.00000000000E+00 0.  1.
</event>
<event>
 7    1  0.2612321E-009  0.1509939E+03  0.7561462E-02  0.1199257E+00
         -3   -1    0    0    0  501 -0.00000000000E+00  0.00000000000E+00  0.13378824626E+03  0.13378824626E+03  0.00000000000E+00 0.  1.
          3   -1    0    0  501    0  0.00000000000E+00 -0.00000000000E+00 -0.17365879757E+03  0.17365879757E+03  0.00000000000E+00 0. -1.
         25    2    1    2    0    0 -0.61301072282E+02 -0.83857147964E+02 -0.47352826552E+01  0.16266579244E+03  0.12509154408E+03 0.  0.
          5    1    3    3  502    0 -0.28948905566E+02 -0.11427251854E+03 -0.50382030262E+01  0.11806398060E+03  0.41800000000E+01 0.  1.
         -5    1    3    3    0  502 -0.32352166716E+02  0.30415370571E+02  0.30292037098E+00  0.44601811835E+02  0.41800000000E+01 0.  1.
        -11    1    1    2    0    0  0.86013235306E+02  0.71236029165E+02 -0.34981395460E+02  0.11703224567E+03  0.00000000000E+00 0.  1.
         11    1    1    2    0    0 -0.24712163024E+02  0.12621118799E+02 -0.15387319128E+00  0.27749005713E+02  0.00000000000E+00 0. -1.
</event>
<event>
 7    1  0.2612321E-009  0.1750183E+03  0.7561462E-02  0.1172713E+00
         -1   -1    0    0    0  501 -0.00000000000E+00  0.00000000000E+00  0.15625497892E+04  0.15625497892E+04  0.00000000000E+00 0.  1.
          1   -1    0    0  501    0  0.00000000000E+00 -0.00000000000E+00 -0.35427763795E+02  0.35427763795E+02  0.00000000000E+00 0. -1.
         25    2    1    2    0    0 -0.90306667289E+02 -0.13351415557E+03  0.12364339751E+04  0.12531548070E+04  0.12508665634E+03 0.  0.
          5    1    3    3  502    0 -0.79237255571E+02 -0.14931800602E+03  0.11987071456E+04  0.12105745342E+04  0.41800000000E+01 0.  1.
         -5    1    3    3    0  502 -0.11069411718E+02  0.15803850449E+02  0.37726829520E+02  0.42580272785E+02  0.41800000000E+01 0.  1.
        -11    1    1    2    0    0  0.64032746206E+02  0.92843339227E+02  0.26915813155E+03  0.29183244851E+03  0.00000000000E+00 0.  1.
         11    1    1    2    0    0  0.26273921083E+02  0.40670816341E+02  0.21529918815E+02  0.52990297556E+02  0.00000000000E+00 0. -1.
</event>
<event>
 7    1  0.2612321E-009  0.1065791E+03  0.7561462E-02  0.1267039E+00
          2   -1    0    0  501    0  0.00000000000E+00  0.00000000000E+00  0.19048823331E+03  0.19048823331E+03  0.00000000000E+00 0. -1.
         -2   -1    0    0    0  501 -0.00000000000E+00 -0.00000000000E+00 -0.92316587625E+02  0.92316587625E+02  0.00000000000E+00 0.  1.
         25    2    1    2    0    0 -0.50608485410E+02 -0.57516517532E+02  0.53137055249E+02  0.15601318930E+03  0.12508876852E+03 0.  0.
          5    1    3    3  502    0  0.11518713040E+02 -0.17154378451E+02  0.75598871928E+02  0.78483216594E+02  0.41800000000E+01 0.  1.
         -5    1    3    3    0  502 -0.62127198450E+02 -0.40362139082E+02 -0.22461816679E+02  0.77529972701E+02  0.41800000000E+01 0.  1.
        -11    1    1    2    0    0  0.41973216499E+02 -0.15202876615E+02  0.10670043158E+02  0.45899108723E+02  0.00000000000E+00 0.  1.
         11    1    1    2    0    0  0.86352689114E+01  0.72719394147E+02  0.34364547280E+02  0.80892522918E+02  0.00000000000E+00 0. -1.
</event>
<event>
 7    1  0.2612321E-009  0.1097515E+03  0.7561462E-02  0.1261031E+00
          1   -1    0    0  501    0  0.00000000000E+00  0.00000000000E+00  0.32285375210E+03  0.32285375210E+03  0.00000000000E+00 0. -1.
         -1   -1    0    0    0  501 -0.00000000000E+00 -0.00000000000E+00 -0.51885752867E+02  0.51885752867E+02  0.00000000000E+00 0.  1.
         25    2    1    2    0    0 -0.50762860821E+02 -0.43621433979E+02  0.10987958573E+03  0.17944591499E+03  0.12509042932E+03 0.  0.
          5    1    3    3  502    0 -0.80971256228E+02 -0.52743039520E+02  0.11145815938E+03  0.14757562890E+03  0.41800000000E+01 0. -1.
         -5    1    3    3    0  502  0.30208395407E+02  0.91216055407E+01 -0.15785736538E+01  0.31870286090E+02  0.41800000000E+01 0. -1.
        -11    1    1    2    0    0  0.65283111334E+02  0.35715361814E+02  0.16247208151E+03  0.17870268315E+03  0.00000000000E+00 0. -1.
         11    1    1    2    0    0 -0.14520250513E+02  0.79060721655E+01 -0.13836680062E+01  0.16590906823E+02  0.00000000000E+00 0.  1.
</event>
<event>
 7    1  0.2612321E-009  0.1476154E+03  0.7561462E-02  0.1203434E+00
          2   -1    0    0  501    0  0.00000000000E+00  0.00000000000E+00  0.32114537763E+03  0.32114537763E+03  0.00000000000E+00 0. -1.
         -2   -1    0    0    0  501 -0.00000000000E+00 -0.00000000000E+00 -0.83766191573E+02  0.83766191573E+02  0.00000000000E+00 0.  1.
         25    2    1    2    0    0 -0.49361190526E+02 -0.11231998058E+03  0.12768019228E+03  0.21679148403E+03  0.12507602039E+03 0.  0.
          5    1    3    3  502    0 -0.13871529868E+02  0.21457075106E+02 -0.34102740297E+01  0.26113746992E+02  0.41800000000E+01 0.  1.
         -5    1    3    3    0  502 -0.35489660658E+02 -0.13377705569E+03  0.13109046631E+03  0.19067773703E+03  0.41800000000E+01 0.  1.
        -11    1    1    2    0    0 -0.80026582170E+01  0.26218324701E+02  0.73605486667E+02  0.78544323513E+02  0.00000000000E+00 0. -1.
         11    1    1    2    0    0  0.57363848743E+02  0.86101655884E+02  0.36093507107E+02  0.10957576166E+03  0.00000000000E+00 0.  1.
</event>
<event>
 7    1  0.2612321E-009  0.1749790E+03  0.7561462E-02  0.1172753E+00
         -2   -1    0    0    0  501 -0.00000000000E+00  0.00000000000E+00  0.43478388044E+03  0.43478388044E+03  0.00000000000E+00 0.  1.
          2   -1    0    0  501    0  0.00000000000E+00 -0.00000000000E+00 -0.95290490355E+02  0.95290490355E+02  0.00000000000E+00 0. -1.
         25    2    1    2    0    0  0.54392917799E+02  0.14292067344E+03  0.27969083385E+03  0.34243198021E+03  0.12509112730E+03 0.  0.
          5    1    3    3  502    0  0.31268832245E+02  0.14600234332E+03  0.28148682609E+03  0.31866397629E+03  0.41800000000E+01 0. -1.
         -5    1    3    3    0  502  0.23124085553E+02 -0.30816698801E+01 -0.17959922452E+01  0.23768003914E+02  0.41800000000E+01 0. -1.
        -11    1    1    2    0    0 -0.76153294535E+02 -0.80646873366E+02  0.46891954191E+02  0.12042465620E+03  0.00000000000E+00 0. -1.
         11    1    1    2    0    0  0.21760376736E+02 -0.62273800073E+02  0.12910602050E+02  0.67217734390E+02  0.00000000000E+00 0.  1.
</event>
<event>
 7    1  0.2612321E-009  0.1254996E+03  0.7561462E-02  0.1234290E+00
          2   -1    0    0  501    0  0.00000000000E+00  0.00000000000E+00  0.88538309450E+03  0.88538309450E+03  0.00000000000E+00 0. -1.
         -2   -1    0    0    0  501 -0.00000000000E+00 -0.00000000000E+00 -0.27826535914E+02  0.27826535914E+02  0.00000000000E+00 0.  1.
         25    2    1    2    0    0 -0.50349938437E+01  0.87373054981E+02  0.25098895394E+03  0.29377291381E+03  0.12509063910E+03 0.  0.
          5    1    3    3  502    0 -0.47341777440E+02  0.55821524291E+02  0.57500406928E+02  0.93172182878E+02  0.41800000000E+01 0. -1.
         -5    1    3    3    0  502  0.42306783596E+02  0.31551530691E+02  0.19348854701E+03  0.20060073093E+03  0.41800000000E+01 0. -1.
        -11    1    1    2    0    0 -0.33438200438E+02 -0.49737127255E+01  0.19858417122E+03  0.20144111826E+03  0.00000000000E+00 0.  1.
         11    1    1    2    0    0  0.38473194282E+02 -0.82399342256E+02  0.40798343343E+03  0.41799559834E+03  0.00000000000E+00 0. -1.
</event>
<event>
 7    1  0.2612321E-009  0.1176622E+03  0.7561462E-02  0.1247004E+00
         -2   -1    0    0    0  501 -0.00000000000E+00  0.00000000000E+00  0.29126883653E+02  0.29126883653E+02  0.00000000000E+00 0.  1.
          2   -1    0    0  501    0  0.00000000000E+00 -0.00000000000E+00 -0.53513076655E+03  0.53513076655E+03  0.00000000000E+00 0. -1.
         25    2    1    2    0    0  0.90290701135E+01 -0.57643351477E+02 -0.25181599793E+03  0.28716442190E+03  0.12509127993E+03 0.  0.
          5    1    3    3  502    0  0.46020070907E+02  0.20355883117E+02 -0.11092109979E+03  0.12187358894E+03  0.41800000000E+01 0.  1.
         -5    1    3    3    0  502 -0.36991000793E+02 -0.77999234594E+02 -0.14089489815E+03  0.16529083296E+03  0.41800000000E+01 0.  1.
        -11    1    1    2    0    0  0.95769842969E+01 -0.18062259531E+02 -0.12142289884E+03  0.12313197883E+03  0.00000000000E+00 0. -1.
         11    1    1    2    0    0 -0.18606054410E+02  0.75705611008E+02 -0.13276498612E+03  0.15396124947E+03  0.00000000000E+00 0.  1.
</event>
<event>
 7    1  0.2612321E-009  0.1429502E+03  0.7561462E-02  0.1209413E+00
          1   -1    0    0  501    0  0.00000000000E+00  0.00000000000E+00  0.10345881529E+04  0.10345881529E+04  0.00000000000E+00 0. -1.
         -1   -1    0    0    0  501 -0.00000000000E+00 -0.00000000000E+00 -0.21408976526E+02  0.21408976526E+02  0.00000000000E+00 0.  1.
         25    2    1    2    0    0 -0.93898408691E+02  0.41332040123E+02  0.52761630475E+03  0.55186170205E+03  0.12508846651E+03 0.  0.
          5    1    3    3  502    0  0.24135639755E+02 -0.19077503605E+01  0.18993769563E+03  0.19152015361E+03  0.41800000000E+01 0.  1.
         -5    1    3    3    0  502 -0.11803404845E+03  0.43239790484E+02  0.33767860912E+03  0.36034154843E+03  0.41800000000E+01 0.  1.
        -11    1    1    2    0    0  0.81479364409E+02  0.10595158635E+02  0.29002623772E+03  0.30144047966E+03  0.00000000000E+00 0.  1.
         11    1    1    2    0    0  0.12419044281E+02 -0.51927198759E+02  0.19553663392E+03  0.20269494773E+03  0.00000000000E+00 0. -1.
</event>
<event>
 7    1  0.3134485E-009  0.1006539E+03  0.7561462E-02  0.1278927E+00
          1   -1    0    0  501    0  0.00000000000E+00  0.00000000000E+00  0.14859564497E+03  0.14859564497E+03  0.00000000000E+00 0. -1.
         -1   -1    0    0    0  501 -0.00000000000E+00 -0.00000000000E+00 -0.10001035993E+03  0.10001035993E+03  0.00000000000E+00 0.  1.
         25    2    1    2    0    0 -0.47849093934E+02 -0.27314224998E+02  0.23735665198E+02  0.13873312315E+03  0.12509154639E+03 0.  0.
          5    1    3    3  502    0  0.59938204231E+01  0.44947480111E+02  0.35050477850E+00  0.45538962496E+02  0.41800000000E+01 0. -1.
         -5    1    3    3    0  502 -0.53842914357E+02 -0.72261705109E+02  0.23385160419E+02  0.93194160652E+02  0.41800000000E+01 0. -1.
        -11    1    1    2    0    0  0.18711028301E+02 -0.75006702449E+01  0.52828875076E+02  0.56544254137E+02  0.00000000000E+00 0. -1.
         11    1    1    2    0    0  0.29138065633E+02  0.34814895243E+02 -0.27979255231E+02  0.53328627611E+02  0.00000000000E+00 0.  1.
</event>
<event>
 7    1  0.2612321E-009  0.9423461E+02  0.7561462E-02  0.1292909E+00
         -2   -1    0    0    0  501 -0.00000000000E+00  0.00000000000E+00  0.39000942948E+03  0.39000942948E+03  0.00000000000E+00 0.  1.
          2   -1    0    0  501    0  0.00000000000E+00 -0.00000000000E+00 -0.41669024263E+02  0.41669024263E+02  0.00000000000E+00 0. -1.
         25    2    1    2    0    0 -0.35720675653E+01 -0.25466741895E+02  0.29908068257E+03  0.32520375588E+03  0.12508762345E+03 0.  0.
          5    1    3    3  502    0 -0.95922168992E+01  0.33835322385E+02  0.21866433962E+02  0.41622746187E+02  0.41800000000E+01 0.  1.
         -5    1    3    3    0  502  0.60201493339E+01 -0.59302064280E+02  0.27721424861E+03  0.28358100969E+03  0.41800000000E+01 0.  1.
        -11    1    1    2    0    0 -0.43085357613E+02  0.13050101443E+02  0.15708167176E+02  0.47680181463E+02  0.00000000000E+00 0.  1.
         11    1    1    2    0    0  0.46657425178E+02  0.12416640452E+02  0.33551555471E+02  0.58794516402E+02  0.00000000000E+00 0. -1.
</event>
<event>
 7    1  0.2612321E-009  0.1149647E+03  0.7561462E-02  0.1251643E+00
         -4   -1    0    0    0  501 -0.00000000000E+00  0.00000000000E+00  0.22691821517E+03  0.22691821517E+03  0.00000000000E+00 0.  1.
          4   -1    0    0  501    0  0.00000000000E+00 -0.00000000000E+00 -0.65950685536E+02  0.65950685536E+02  0.00000000000E+00 0. -1.
         25    2    1    2    0    0 -0.60903894916E+01 -0.41840675564E+02  0.44818460667E+02  0.13944010906E+03  0.12508842721E+03 0.  0.
          5    1    3    3  502    0 -0.64462081616E+02 -0.20792957241E+02  0.35400240471E+02  0.76539901114E+02  0.41800000000E+01 0.  1.
         -5    1    3    3    0  502  0.58371692124E+02 -0.21047718323E+02  0.94182201953E+01  0.62900207946E+02  0.41800000000E+01 0.  1.
        -11    1    1    2    0    0  0.13455241869E+02  0.69737778376E+02  0.76425462027E+02  0.10433241353E+03  0.00000000000E+00 0.  1.
         11    1    1    2    0    0 -0.73648523778E+01 -0.27897102812E+02  0.39723606941E+02  0.49096378118E+02  0.00000000000E+00 0. -1.
</event>
<event>
 7    1  0.2612321E-009  0.2933627E+03  0.7561462E-02  0.1088606E+00
         -2   -1    0    0    0  501 -0.00000000000E+00  0.00000000000E+00  0.27764446084E+03  0.27764446084E+03  0.00000000000E+00 0.  1.
          2   -1    0    0  501    0  0.00000000000E+00 -0.00000000000E+00 -0.33034497051E+03  0.33034497051E+03  0.00000000000E+00 0. -1.
         25    2    1    2    0    0  0.19976384003E+03  0.19676493687E+03  0.49041207407E+01  0.30707006835E+03  0.12508374919E+03 0.  0.
          5    1    3    3  502    0 -0.15937697745E+02  0.22125384900E+02 -0.93743246174E+01  0.29135772316E+02  0.41800000000E+01 0.  1.
         -5    1    3    3    0  502  0.21570153778E+03  0.17463955197E+03  0.14278445358E+02  0.27793429604E+03  0.41800000000E+01 0.  1.
        -11    1    1    2    0    0 -0.62468235072E+02 -0.45451332179E+02  0.24017815021E+02  0.80900923532E+02  0.00000000000E+00 0.  1.
         11    1    1    2    0    0 -0.13729560496E+03 -0.15131360469E+03 -0.81622445425E+02  0.22001843946E+03  0.00000000000E+00 0. -1.
</event>
<event>
 7    1  0.2612321E-009  0.1336180E+03  0.7561462E-02  0.1222184E+00
         -2   -1    0    0    0  501 -0.00000000000E+00  0.00000000000E+00  0.20762697364E+02  0.20762697364E+02  0.00000000000E+00 0.  1.
          2   -1    0    0  501    0  0.00000000000E+00 -0.00000000000E+00 -0.95256973934E+03  0.95256973934E+03  0.00000000000E+00 0. -1.
         25    2    1    2    0    0 -0.71274933285E+02 -0.42400964084E+02 -0.61364749632E+03  0.63173643703E+03  0.12509883401E+03 0.  0.
          5    1    3    3  502    0 -0.13976991957E+02 -0.78154514230E+02 -0.26873488182E+03  0.28024880643E+03  0.41800000000E+01 0. -1.
         -5    1    3    3    0  502 -0.57297941328E+02  0.35753550146E+02 -0.34491261449E+03  0.35148763060E+03  0.41800000000E+01 0. -1.
        -11    1    1    2    0    0  0.17533930314E+01  0.50088535304E+02 -0.90716859650E+02  0.10364113267E+03  0.00000000000E+00 0.  1.
         11    1    1    2    0    0  0.69521540254E+02 -0.76875712198E+01 -0.22744268601E+03  0.23795486700E+03  0.00000000000E+00 0. -1.
</event>
<event>
 7    1  0.2612321E-009  0.9693739E+02  0.7561462E-02  0.1286871E+00
         -1   -1    0    0    0  501 -0.00000000000E+00  0.00000000000E+00  0.11937573119E+03  0.11937573119E+03  0.00000000000E+00 0.  1.
          1   -1    0    0  501    0  0.00000000000E+00 -0.00000000000E+00 -0.15553434862E+03  0.15553434862E+03  0.00000000000E+00 0. -1.
         25    2    1    2    0    0 -0.35326589866E+02  0.35536451976E+02  0.46466592244E+02  0.14253851083E+03  0.12508907028E+03 0.  0.
          5    1    3    3  502    0  0.25824863616E+02 -0.41319505817E+01 -0.27798091197E+02  0.38395349595E+02  0.41800000000E+01 0.  1.
         -5    1    3    3    0  502 -0.61151453481E+02  0.39668402557E+02  0.74264683441E+02  0.10414316123E+03  0.41800000000E+01 0.  1.
        -11    1    1    2    0    0 -0.24711582681E+02 -0.21421342191E+02 -0.56728418826E+02  0.65480147544E+02  0.00000000000E+00 0. -1.
         11    1    1    2    0    0  0.60038172546E+02 -0.14115109785E+02 -0.25896790841E+02  0.66891421444E+02  0.00000000000E+00 0.  1.
</event>
<event>
 7    1  0.2612321E-009  0.3740843E+03  0.7561462E-02  0.1053142E+00
          2   -1    0    0  501    0  0.00000000000E+00  0.00000000000E+00  0.22733415510E+04  0.22733415510E+04  0.00000000000E+00 0.  1.
         -2   -1    0    0    0  501 -0.00000000000E+00 -0.00000000000E+00 -0.12950047584E+03  0.12950047584E+03  0.00000000000E+00 0. -1.
         25    2    1    2    0    0  0.35657107473E+03  0.34942733359E+02  0.19479339182E+04  0.19845554468E+04  0.12509934469E+03 0.  0.
          5    1    3    3  502    0  0.10850626628E+03  0.68401506960E+02  0.60011490101E+03  0.61368374819E+03  0.41800000000E+01 0. -1.
         -5    1    3    3    0  502  0.24806480845E+03 -0.33458773601E+02  0.13478190172E+04  0.13708716987E+04  0.41800000000E+01 0. -1.
        -11    1    1    2    0    0 -0.26943463182E+03  0.13533926793E+02  0.14700269786E+03  0.30722627032E+03  0.00000000000E+00 0.  1.
         11    1    1    2    0    0 -0.87136442909E+02 -0.48476660153E+02  0.48904459113E+02  0.11106030967E+03  0.00000000000E+00 0. -1.
</event>
<event>
 7    1  0.2612321E-009  0.7885797E+02  0.7561462E-02  0.1332324E+00
         -1   -1    0    0    0  501 -0.00000000000E+00  0.00000000000E+00  0.37003865064E+02  0.37003865064E+02  0.00000000000E+00 0.  1.
          1   -1    0    0  501    0  0.00000000000E+00 -0.00000000000E+00 -0.55522800372E+03  0.55522800372E+03  0.00000000000E+00 0. -1.
         25    2    1    2    0    0  0.10569744158E+02  0.40744909833E+02 -0.10946283138E+03  0.17146796597E+03  0.12508910716E+03 0.  0.
          5    1    3    3  502    0 -0.39961136966E+01  0.42446024544E+02  0.15516575255E+02  0.45561721126E+02  0.41800000000E+01 0. -1.
         -5    1    3    3    0  502  0.14565857855E+02 -0.17011147113E+01 -0.12497940664E+03  0.12590624484E+03  0.41800000000E+01 0. -1.
        -11    1    1    2    0    0  0.27664160189E+02  0.15430516822E+02 -0.11933670125E+03  0.12346924667E+03  0.00000000000E+00 0.  1.
         11    1    1    2    0    0 -0.38233904347E+02 -0.56175426655E+02 -0.28942460601E+03  0.29729465614E+03  0.00000000000E+00 0. -1.
</event>
<event>
 7    1  0.2612321E-009  0.8795592E+02  0.7561462E-02  0.1307879E+00
         -1   -1    0    0    0  501 -0.00000000000E+00  0.00000000000E+00  0.31439405093E+03  0.31439405093E+03  0.00000000000E+00 0.  1.
          1   -1    0    0  501    0  0.00000000000E+00 -0.00000000000E+00 -0.54011562371E+02  0.54011562371E+02  0.00000000000E+00 0. -1.
         25    2    1    2    0    0 -0.19075778954E+02 -0.48489878771E+02  0.20679750520E+03  0.24724014875E+03  0.12508928534E+03 0.  0.
          5    1    3    3  502    0 -0.39969666038E+02 -0.60505854573E+02  0.21033455638E+03  0.22252332608E+03  0.41800000000E+01 0.  1.
         -5    1    3    3    0  502  0.20893887084E+02  0.12015975803E+02 -0.35370511743E+01  0.24716822671E+02  0.41800000000E+01 0.  1.
        -11    1    1    2    0    0  0.35851968932E+02  0.50483694018E+02  0.72805764402E+02  0.95575343934E+02  0.00000000000E+00 0.  1.
         11    1    1    2    0    0 -0.16776189977E+02 -0.19938152476E+01 -0.19220781045E+02  0.25590120621E+02  0.00000000000E+00 0. -1.
</event>
<event>
 7    1  0.2612321E-009  0.9515721E+02  0.7561462E-02  0.1290822E+00
          1   -1    0    0  501    0  0.00000000000E+00  0.00000000000E+00  0.20743625630E+03  0.20743625630E+03  0.00000000000E+00 0. -1.
         -1   -1    0    0    0  501 -0.00000000000E+00 -0.00000000000E+00 -0.85603253361E+02  0.85603253361E+02  0.00000000000E+00 0.  1.
         25    2    1    2    0    0  0.20495226975E+02  0.66563078215E+02  0.10498586514E+03  0.17753976321E+03  0.12509051895E+03 0.  0.
          5    1    3    3  502    0  0.35002462144E+02  0.55232112592E+02 -0.52186910668E+01  0.65730249916E+02  0.41800000000E+01 0. -1.
         -5    1    3    3    0  502 -0.14507235168E+02  0.11330965622E+02  0.11020455621E+03  0.11180951329E+03  0.41800000000E+01 0. -1.
        -11    1    1    2    0    0  0.23502274202E+02 -0.55906259827E+02  0.30946898775E+02  0.68085074166E+02  0.00000000000E+00 0. -1.
         11    1    1    2    0    0 -0.43997501177E+02 -0.10656818388E+02 -0.14099760978E+02  0.47414672282E+02  0.00000000000E+00 0.  1.
</event>
<event>
 7    1  0.2612321E-009  0.9511499E+02  0.7561462E-02  0.1290917E+00
          3   -1    0    0  501    0  0.00000000000E+00  0.00000000000E+00  0.14026684191E+03  0.14026684191E+03  0.00000000000E+00 0. -1.
         -3   -1    0    0    0  501 -0.00000000000E+00 -0.00000000000E+00 -0.11534452959E+03  0.11534452959E+03  0.00000000000E+00 0.  1.
         25    2    1    2    0    0  0.53373381686E+02 -0.43215374272E+02  0.23792335149E+02  0.14467246057E+03  0.12509100363E+03 0.  0.
          5    1    3    3  502    0  0.42360193996E+02 -0.13617490509E+00  0.69032928510E+02  0.81101308237E+02  0.41800000000E+01 0. -1.
         -5    1    3    3    0  502  0.11013187689E+02 -0.43079199367E+02 -0.45240593362E+02  0.63571152333E+02  0.41800000000E+01 0. -1.
        -11    1    1    2    0    0  0.12891203038E+02  0.33671385174E+02 -0.19361846279E+02  0.40924642779E+02  0.00000000000E+00 0.  1.
         11    1    1    2    0    0 -0.66264584724E+02  0.95439890985E+01  0.20491823452E+02  0.70014268152E+02  0.00000000000E+00 0. -1.
</event>
<event>
 7    1  0.2612321E-009  0.1518542E+03  0.7561462E-02  0.1198213E+00
         -1   -1    0    0    0  501 -0.00000000000E+00  0.00000000000E+00  0.51011293366E+03  0.51011293366E+03  0.00000000000E+00 0.  1.
          1   -1    0    0  501    0  0.00000000000E+00 -0.00000000000E+00 -0.54938712755E+02  0.54938712755E+02  0.00000000000E+00 0. -1.
         25    2    1    2    0    0  0.10416659400E+03  0.70961883723E+02  0.25593205668E+03  0.31150474055E+03  0.12509083700E+03 0.  0.
          5    1    3    3  502    0  0.90889370955E+02  0.10307498625E+03  0.22993988472E+03  0.26790885302E+03  0.41800000000E+01 0.  1.
         -5    1    3    3    0  502  0.13277223049E+02 -0.32113102532E+02  0.25992171965E+02  0.43595887530E+02  0.41800000000E+01 0.  1.
        -11    1    1    2    0    0 -0.24501134112E+02 -0.37541215217E+02  0.10602698486E+02  0.46065883557E+02  0.00000000000E+00 0.  1.
         11    1    1    2    0    0 -0.79665459892E+02 -0.33420668506E+02  0.18863946574E+03  0.20748102231E+03  0.00000000000E+00 0. -1.
</event>
<event>
 7    1  0.2612321E-009  0.1564282E+03  0.7561462E-02  0.1192789E+00
         -1   -1    0    0    0  501 -0.00000000000E+00  0.00000000000E+00  0.23083535787E+03  0.23083535787E+03  0.00000000000E+00 0.  1.
          1   -1    0    0  501    0  0.00000000000E+00 -0.00000000000E+00 -0.14839159986E+03  0.14839159986E+03  0.00000000000E+00 0. -1.
         25    2    1    2    0    0 -0.77072207444E+02 -0.94100117565E+02 -0.45541312951E+02  0.18032263342E+03  0.12508910285E+03 0.  0.
          5    1    3    3  502    0 -0.10527126480E+03 -0.85112891667E+02 -0.12882235867E+02  0.13605024043E+03  0.41800000000E+01 0.  1.
         -5    1    3    3    0  502  0.28199057356E+02 -0.89872258988E+01 -0.32659077084E+02  0.44272392990E+02  0.41800000000E+01 0.  1.
        -11    1    1    2    0    0  0.28524221056E+02  0.94775079519E+02  0.10773811661E+03  0.14629917517E+03  0.00000000000E+00 0.  1.
         11    1    1    2    0    0  0.48547986387E+02 -0.67496195374E+00  0.20246954354E+02  0.52605149144E+02  0.00000000000E+00 0. -1.
</event>
<event>
 7    1  0.2612321E-009  0.8681561E+02  0.7561462E-02  0.1310752E+00
          2   -1    0    0  501    0  0.00000000000E+00  0.00000000000E+00  0.15737607581E+03  0.15737607581E+03  0.00000000000E+00 0. -1.
         -2   -1    0    0    0  501 -0.00000000000E+00 -0.00000000000E+00 -0.16933311573E+03  0.16933311573E+03  0.00000000000E+00 0.  1.
         25    2    1    2    0    0  0.14437677739E+02 -0.69070732476E+02  0.96928348092E+02  0.17327049618E+03  0.12509335537E+03 0.  0.
          5    1    3    3  502    0  0.15651703103E+02 -0.42854336880E+02  0.12588786906E+03  0.13396528646E+03  0.41800000000E+01 0.  1.
         -5    1    3    3    0  502 -0.12140253641E+01 -0.26216395596E+02 -0.28959520972E+02  0.39305209713E+02  0.41800000000E+01 0.  1.
        -11    1    1    2    0    0  0.29466211507E+02  0.21288460480E+02 -0.15032096389E+02  0.39337260860E+02  0.00000000000E+00 0. -1.
         11    1    1    2    0    0 -0.43903889246E+02  0.47782271996E+02 -0.93853291619E+02  0.11410143450E+03  0.00000000000E+00 0.  1.
</event>
<event>
 7    1  0.2612321E-009  0.9962619E+02  0.7561462E-02  0.1281084E+00
         -1   -1    0    0    0  501 -0.00000000000E+00  0.00000000000E+00  0.48716410953E+02  0.48716410953E+02  0.00000000000E+00 0.  1.
          1   -1    0    0  501    0  0.00000000000E+00 -0.00000000000E+00 -0.37071746539E+03  0.37071746539E+03  0.00000000000E+00 0. -1.
         25    2    1    2    0    0  0.67802078625E+01 -0.47756946492E+01 -0.51126223319E+02  0.13538969348E+03  0.12509076669E+03 0.  0.
          5    1    3    3  502    0 -0.27113252298E+02  0.45594333006E+02  0.38883928668E+01  0.53353197201E+02  0.41800000000E+01 0. -1.
         -5    1    3    3    0  502  0.33893460161E+02 -0.50370027655E+02 -0.55014616185E+02  0.82036496279E+02  0.41800000000E+01 0. -1.
        -11    1    1    2    0    0 -0.10102333700E+02  0.44342970157E+02 -0.15642577718E+03  0.16290297700E+03  0.00000000000E+00 0.  1.
         11    1    1    2    0    0  0.33221258372E+01 -0.39567275508E+02 -0.11444905394E+03  0.12114120587E+03  0.00000000000E+00 0. -1.
</event>
<event>
 7    1  0.2612321E-009  0.1168329E+03  0.7561462E-02  0.1248415E+00
          1   -1    0    0  501    0  0.00000000000E+00  0.00000000000E+00  0.67778985022E+03  0.67778985022E+03  0.00000000000E+00 0. -1.
         -1   -1    0    0    0  501 -0.00000000000E+00 -0.00000000000E+00 -0.37932848496E+02  0.37932848496E+02  0.00000000000E+00 0.  1.
         25    2    1    2    0    0 -0.36120905723E+02 -0.84742811013E+02  0.50495609671E+03  0.52830730457E+03  0.12506752021E+03 0.  0.
          5    1    3    3  502    0 -0.43659578582E+02 -0.41174421805E+02  0.46402969627E+03  0.46791294408E+03  0.41800000000E+01 0. -1.
         -5    1    3    3    0  502  0.75386728586E+01 -0.43568389208E+02  0.40926400437E+02  0.60394360493E+02  0.41800000000E+01 0. -1.
        -11    1    1    2    0    0  0.36541664049E+02 -0.71220578589E+01  0.28788191468E+02  0.47061416124E+02  0.00000000000E+00 0. -1.
         11    1    1    2    0    0 -0.42075832532E+00  0.91864868872E+02  0.10611271355E+03  0.14035397803E+03  0.00000000000E+00 0.  1.
</event>
<event>
 7    1  0.2612321E-009  0.3075388E+03  0.7561462E-02  0.1081532E+00
         -2   -1    0    0    0  501 -0.00000000000E+00  0.00000000000E+00  0.18075943191E+03  0.18075943191E+03  0.00000000000E+00 0. -1.
          2   -1    0    0  501    0  0.00000000000E+00 -0.00000000000E+00 -0.78004943744E+03  0.78004943744E+03  0.00000000000E+00 0.  1.
         25    2    1    2    0    0  0.60041514793E+02 -0.29652516361E+03 -0.55090629278E+03  0.64084091056E+03  0.12508866084E+03 0.  0.
          5    1    3    3  502    0  0.59425427022E+01 -0.10895833988E+03 -0.32176747748E+03  0.33979260676E+03  0.41800000000E+01 0. -1.
         -5    1    3    3    0  502  0.54098972091E+02 -0.18756682373E+03 -0.22913881530E+03  0.30104830380E+03  0.41800000000E+01 0. -1.
        -11    1    1    2    0    0  0.14138317461E+02  0.91538276914E+02 -0.42458347183E+02  0.10189140988E+03  0.00000000000E+00 0.  1.
         11    1    1    2    0    0 -0.74179832254E+02  0.20498688670E+03 -0.59253655723E+01  0.21807654892E+03  0.00000000000E+00 0. -1.
</event>
<event>
 7    1  0.2612321E-009  0.6650234E+02  0.7561462E-02  0.1372408E+00
          2   -1    0    0  501    0  0.00000000000E+00  0.00000000000E+00  0.13316023175E+03  0.13316023175E+03  0.00000000000E+00 0. -1.
         -2   -1    0    0    0  501 -0.00000000000E+00 -0.00000000000E+00 -0.13572538874E+03  0.13572538874E+03  0.00000000000E+00 0.  1.
         25    2    1    2    0    0  0.45131195713E+02 -0.19536216503E+02 -0.64937300594E+02  0.14927395181E+03  0.12508945239E+03 0.  0.
          5    1    3    3  502    0  0.56144976290E+02 -0.78723125624E+01  0.21861130546E+02  0.60906593210E+02  0.41800000000E+01 0.  1.
         -5    1    3    3    0  502 -0.11013780577E+02 -0.11663903941E+02 -0.86798431141E+02  0.88367358602E+02  0.41800000000E+01 0.  1.
        -11    1    1    2    0    0 -0.11438300954E+01  0.15350177203E+02  0.72636065101E+02  0.74249136297E+02  0.00000000000E+00 0. -1.
         11    1    1    2    0    0 -0.43987365618E+02  0.41860393001E+01 -0.10263921503E+02  0.45362532377E+02  0.00000000000E+00 0.  1.
</event>
<event>
 7    1  0.2612321E-009  0.1044151E+03  0.7561462E-02  0.1271276E+00
          3   -1    0    0  501    0  0.00000000000E+00  0.00000000000E+00  0.45061076774E+03  0.45061076774E+03  0.00000000000E+00 0. -1.
         -3   -1    0    0    0  501 -0.00000000000E+00 -0.00000000000E+00 -0.47070070548E+02  0.47070070548E+02  0.00000000000E+00 0.  1.
         25    2    1    2    0    0  0.27350330069E+02 -0.11420568207E+02  0.61432249078E+02  0.14248022270E+03  0.12509285631E+03 0.  0.
          5    1    3    3  502    0  0.26789700976E+02  0.55262030210E+02  0.25642965336E+02  0.66682937342E+02  0.41800000000E+01 0. -1.
         -5    1    3    3    0  502  0.56062909265E+00 -0.66682598417E+02  0.35789283742E+02  0.75797285357E+02  0.41800000000E+01 0. -1.
        -11    1    1    2    0    0  0.20046448373E+02 -0.16047279801E+02  0.35944754697E+02  0.44174660968E+02  0.00000000000E+00 0.  1.
         11    1    1    2    0    0 -0.47396778442E+02  0.27467848008E+02  0.30616369342E+03  0.31102595462E+03  0.00000000000E+00 0. -1.
</event>
<event>
 7    1  0.2612321E-009  0.1255294E+03  0.7561462E-02  0.1234244E+00
          1   -1    0    0  501    0  0.00000000000E+00  0.00000000000E+00  0.74012055519E+03  0.74012055519E+03  0.00000000000E+00 0. -1.
         -1   -1    0    0    0  501 -0.00000000000E+00 -0.00000000000E+00 -0.27875550270E+02  0.27875550270E+02  0.00000000000E+00 0.  1.
         25    2    1    2    0    0 -0.52340765846E+02  0.70178718024E+02  0.46093935100E+03  0.48556970170E+03  0.12509293216E+03 0.  0.
          5    1    3    3  502    0 -0.53376627191E+02  0.10298161966E+03  0.39641829533E+03  0.41306078921E+03  0.41800000000E+01 0. -1.
         -5    1    3    3    0  502  0.10358613454E+01 -0.32802901634E+02  0.64521055675E+02  0.72508912485E+02  0.41800000000E+01 0. -1.
        -11    1    1    2    0    0  0.14726619334E+02 -0.61587473360E+02  0.22956792364E+03  0.23814139026E+03  0.00000000000E+00 0. -1.
         11    1    1    2    0    0  0.37614146512E+02 -0.85912446642E+01  0.21737730279E+02  0.44285013497E+02  0.00000000000E+00 0.  1.
</event>
<event>
 7    1  0.3025752E-009  0.8868480E+02  0.7561462E-02  0.1306068E+00
         -1   -1    0    0    0  501 -0.00000000000E+00  0.00000000000E+00  0.52946511389E+02  0.52946511389E+02  0.00000000000E+00 0.  1.
          1   -1    0    0  501    0  0.00000000000E+00 -0.00000000000E+00 -0.28698002304E+03  0.28698002304E+03  0.00000000000E+00 0. -1.
         25    2    1    2    0    0 -0.28317638221E+02 -0.38240239257E+02 -0.84505012376E+02  0.15828127517E+03  0.12509060883E+03 0.  0.
          5    1    3    3  502    0 -0.60280013005E+01  0.26889811727E+02 -0.84854578084E+02  0.89315007676E+02  0.41800000000E+01 0. -1.
         -5    1    3    3    0  502 -0.22289636921E+02 -0.65130050984E+02  0.34956570822E+00  0.68966267489E+02  0.41800000000E+01 0. -1.
        -11    1    1    2    0    0 -0.17352024994E+02 -0.45600650442E+01  0.16551448866E+01  0.18017393518E+02  0.00000000000E+00 0.  1.
         11    1    1    2    0    0  0.45669663215E+02  0.42800304301E+02 -0.15118364416E+03  0.16362786575E+03  0.00000000000E+00 0. -1.
</event>
<event>
 7    1  0.2612321E-009  0.1028853E+03  0.7561462E-02  0.1274343E+00
          2   -1    0    0  501    0  0.00000000000E+00  0.00000000000E+00  0.28699653425E+03  0.28699653425E+03  0.00000000000E+00 0. -1.
         -2   -1    0    0    0  501 -0.00000000000E+00 -0.00000000000E+00 -0.60895218985E+02  0.60895218985E+02  0.00000000000E+00 0.  1.
         25    2    1    2    0    0 -0.19924658863E+02 -0.42480438542E+02  0.45339198749E+02  0.14108355309E+03  0.12508935335E+03 0.  0.
          5    1    3    3  502    0 -0.70948929380E+02 -0.40591875220E+02  0.21775287860E+02  0.84694075799E+02  0.41800000000E+01 0. -1.
         -5    1    3    3    0  502  0.51024270517E+02 -0.18885633216E+01  0.23563910889E+02  0.56389477295E+02  0.41800000000E+01 0. -1.
        -11    1    1    2    0    0 -0.18204752407E+01 -0.12988068930E+02 -0.31487360329E+01  0.13487720461E+02  0.00000000000E+00 0.  1.
         11    1    1    2    0    0  0.21745134104E+02  0.55468507472E+02  0.18391085255E+03  0.19332047968E+03  0.00000000000E+00 0. -1.
</event>
<event>
 7    1  0.2612321E-009  0.1344829E+03  0.7561462E-02  0.1220952E+00
         -1   -1    0    0    0  501 -0.00000000000E+00  0.00000000000E+00  0.40557581034E+02  0.40557581034E+02  0.00000000000E+00 0. -1.
          1   -1    0    0  501    0  0.00000000000E+00 -0.00000000000E+00 -0.64494512261E+03  0.64494512261E+03  0.00000000000E+00 0.  1.
         25    2    1    2    0    0  0.10648785938E+03 -0.15518732892E+02 -0.42962014595E+03  0.46021954103E+03  0.12509220948E+03 0.  0.
          5    1    3    3  502    0  0.11972832497E+03 -0.45134726096E+02 -0.37817420151E+03  0.39925582574E+03  0.41800000000E+01 0. -1.
         -5    1    3    3    0  502 -0.13240465589E+02  0.29615993203E+02 -0.51445944446E+02  0.60963715293E+02  0.41800000000E+01 0. -1.
        -11    1    1    2    0    0 -0.35992557990E+02 -0.26922065137E+00  0.19404814003E+00  0.35994087918E+02  0.00000000000E+00 0. -1.
         11    1    1    2    0    0 -0.70495301389E+02  0.15787953544E+02 -0.17496144377E+03  0.18928907470E+03  0.00000000000E+00 0.  1.
</event>
<event>
 7    1  0.2612321E-009  0.1312320E+03  0.7561462E-02  0.1225639E+00
         -1   -1    0    0    0  501 -0.00000000000E+00  0.00000000000E+00  0.21180729440E+02  0.21180729440E+02  0.00000000000E+00 0.  1.
          1   -1    0    0  501    0  0.00000000000E+00 -0.00000000000E+00 -0.13389540234E+04  0.13389540234E+04  0.00000000000E+00 0. -1.
         25    2    1    2    0    0  0.74342158893E+02  0.67987435783E+02 -0.10289017829E+04  0.10413611114E+04  0.12508012461E+03 0.  0.
          5    1    3    3  502    0  0.57215620891E+02 -0.70262730487E-01 -0.79637430342E+03  0.79843793482E+03  0.41800000000E+01 0.  1.
         -5    1    3    3    0  502  0.17126538002E+02  0.68057698513E+02 -0.23252747947E+03  0.24292317663E+03  0.41800000000E+01 0.  1.
        -11    1    1    2    0    0 -0.31826655121E+02  0.19637419821E+02 -0.81229661326E+02  0.89424952404E+02  0.00000000000E+00 0.  1.
         11    1    1    2    0    0 -0.42515503772E+02 -0.87624855604E+02 -0.20764184978E+03  0.22934868903E+03  0.00000000000E+00 0. -1.
</event>
<event>
 7    1  0.2612321E-009  0.1197202E+03  0.7561462E-02  0.1243559E+00
          4   -1    0    0  501    0  0.00000000000E+00  0.00000000000E+00  0.64462783583E+03  0.64462783583E+03  0.00000000000E+00 0. -1.
         -4   -1    0    0    0  501 -0.00000000000E+00 -0.00000000000E+00 -0.37967651162E+02  0.37967651162E+02  0.00000000000E+00 0.  1.
         25    2    1    2    0    0  0.10699277844E+03  0.15768787389E+02  0.47113689955E+03  0.49931314924E+03  0.12509010190E+03 0.  0.
          5    1    3    3  502    0  0.50276426709E+02 -0.23684861556E+02  0.58071865970E+02  0.80489165525E+02  0.41800000000E+01 0. -1.
         -5    1    3    3    0  502  0.56716351728E+02  0.39453648945E+02  0.41306503358E+03  0.41882398371E+03  0.41800000000E+01 0. -1.
        -11    1    1    2    0    0 -0.55851801777E+02 -0.27147747231E+02  0.38639193517E+02  0.73139669244E+02  0.00000000000E+00 0.  1.
         11    1    1    2    0    0 -0.51140976660E+02  0.11378959842E+02  0.96884091600E+02  0.11014266851E+03  0.00000000000E+00 0. -1.
</event>
<event>
 7    1  0.2612321E-009  0.1552794E+03  0.7561462E-02  0.1194132E+00
         -1   -1    0    0    0  501 -0.00000000000E+00  0.00000000000E+00  0.84525347838E+02  0.84525347838E+02  0.00000000000E+00 0.  1.
          1   -1    0    0  501    0  0.00000000000E+00 -0.00000000000E+00 -0.34671668030E+03  0.34671668030E+03  0.00000000000E+00 0. -1.
         25    2    1    2    0    0 -0.81387358392E+02 -0.10291842888E+03 -0.12138981654E+03  0.21817168024E+03  0.12508912578E+03 0.  0.
          5    1    3    3  502    0 -0.17629592350E+02 -0.10212404807E+03 -0.32487979778E+02  0.10868792459E+03  0.41800000000E+01 0.  1.
         -5    1    3    3    0  502 -0.63757766042E+02 -0.79438081158E+00 -0.88901836765E+02  0.10948375565E+03  0.41800000000E+01 0.  1.
        -11    1    1    2    0    0  0.14569225927E+02  0.63951407122E+02 -0.11341407371E+03  0.13101449130E+03  0.00000000000E+00 0. -1.
         11    1    1    2    0    0  0.66818132465E+02  0.38967021760E+02 -0.27387442213E+02  0.82055856597E+02  0.00000000000E+00 0.  1.
</event>
<event>
 7    1  0.2612321E-009  0.1002217E+03  0.7561462E-02  0.1279830E+00
         -1   -1    0    0    0  501 -0.00000000000E+00  0.00000000000E+00  0.17922118406E+02  0.17922118406E+02  0.00000000000E+00 0.  1.
          1   -1    0    0  501    0  0.00000000000E+00 -0.00000000000E+00 -0.77942781891E+03  0.77942781891E+03  0.00000000000E+00 0. -1.
         25    2    1    2    0    0  0.23573126790E+02  0.46002973794E+02 -0.44418516471E+03  0.46434961644E+03  0.12509252511E+03 0.  0.
          5    1    3    3  502    0 -0.38962364442E+02  0.33084703406E+02 -0.83199746958E+02  0.97736041133E+02  0.41800000000E+01 0.  1.
         -5    1    3    3    0  502  0.62535491232E+02  0.12918270387E+02 -0.36098541775E+03  0.36661357531E+03  0.41800000000E+01 0.  1.
        -11    1    1    2    0    0  0.23981184007E+02 -0.12962794516E+02 -0.32810973964E+02  0.42657839145E+02  0.00000000000E+00 0.  1.
         11    1    1    2    0    0 -0.47554310798E+02 -0.33040179278E+02 -0.28450956183E+03  0.29034248173E+03  0.00000000000E+00 0. -1.
</event>
<event>
 7    1  0.2612321E-009  0.1462207E+03  0.7561462E-02  0.1205195E+00
         -2   -1    0    0    0  501 -0.00000000000E+00  0.00000000000E+00  0.19448520307E+03  0.19448520307E+03  0.00000000000E+00 0.  1.
          2   -1    0    0  501    0  0.00000000000E+00 -0.00000000000E+00 -0.21496141774E+03  0.21496141774E+03  0.00000000000E+00 0. -1.
         25    2    1    2    0    0 -0.64373823602E+02  0.87305393912E+02 -0.14308325243E+03  0.21883740274E+03  0.12510304049E+03 0.  0.
          5    1    3    3  502    0 -0.82235772736E+01  0.92484205621E+02 -0.13164549116E+03  0.16114888537E+03  0.41800000000E+01 0.  1.
         -5    1    3    3    0  502 -0.56150246328E+02 -0.51788117087E+01 -0.11437761275E+02  0.57688517371E+02  0.41800000000E+01 0.  1.
        -11    1    1    2    0    0  0.70634670017E+02 -0.10366284269E+03  0.92793663067E+02  0.15603174507E+03  0.00000000000E+00 0. -1.
         11    1    1    2    0    0 -0.62608464146E+01  0.16357448778E+02  0.29813374703E+02  0.34577473006E+02  0.00000000000E+00 0.  1.
</event>
<event>
 7    1  0.2612321E-009  0.3610872E+03  0.7561462E-02  0.1058154E+00
          1   -1    0    0  501    0  0.00000000000E+00  0.00000000000E+00  0.17164635445E+04  0.17164635445E+04  0.00000000000E+00 0. -1.
         -1   -1    0    0    0  501 -0.00000000000E+00 -0.00000000000E+00 -0.95531448248E+02  0.95531448248E+02  0.00000000000E+00 0.  1.
         25    2    1    2    0    0 -0.31451904457E+03 -0.16598988163E+03  0.11792373033E+04  0.12380314911E+04  0.12508591191E+03 0.  0.
          5    1    3    3  502    0 -0.17745773271E+03 -0.65571273557E+02  0.43063107327E+03  0.47037371576E+03  0.41800000000E+01 0.  1.
         -5    1    3    3    0  502 -0.13706131186E+03 -0.10041860807E+03  0.74860623003E+03  0.76765777538E+03  0.41800000000E+01 0.  1.
        -11    1    1    2    0    0  0.24425996434E+03  0.92171043675E+02  0.35167858654E+03  0.43799116396E+03  0.00000000000E+00 0.  1.
         11    1    1    2    0    0  0.70259080228E+02  0.73818837952E+02  0.90016206420E+02  0.13597233766E+03  0.00000000000E+00 0. -1.
</event>
<event>
 7    1  0.2612321E-009  0.1005407E+03  0.7561462E-02  0.1279163E+00
         -2   -1    0    0    0  501 -0.00000000000E+00  0.00000000000E+00  0.85594204262E+02  0.85594204262E+02  0.00000000000E+00 0.  1.
          2   -1    0    0  501    0  0.00000000000E+00 -0.00000000000E+00 -0.29831199815E+03  0.29831199815E+03  0.00000000000E+00 0. -1.
         25    2    1    2    0    0  0.61332072746E+02 -0.13779274487E+02 -0.23260457035E+03  0.27148526491E+03  0.12509145201E+03 0.  0.
          5    1    3    3  502    0  0.23024360833E+02 -0.56678169272E+02 -0.19038645644E+03  0.20001752738E+03  0.41800000000E+01 0. -1.
         -5    1    3    3    0  502  0.38307711914E+02  0.42898894785E+02 -0.42218113904E+02  0.71467737528E+02  0.41800000000E+01 0. -1.
        -11    1    1    2    0    0 -0.55615404484E+02  0.31195381718E+02  0.47334474724E+02  0.79415222431E+02  0.00000000000E+00 0.  1.
         11    1    1    2    0    0 -0.57166682622E+01 -0.17416107231E+02 -0.27447698266E+02  0.33005715069E+02  0.00000000000E+00 0. -1.
</event>
<event>
 7    1  0.2612321E-009  0.1460996E+03  0.7561462E-02  0.1205349E+00
         -1   -1    0    0    0  501 -0.00000000000E+00  0.00000000000E+00  0.28315513238E+02  0.28315513238E+02  0.00000000000E+00 0.  1.
          1   -1    0    0  501    0  0.00000000000E+00 -0.00000000000E+00 -0.15261637942E+04  0.15261637942E+04  0.00000000000E+00 0. -1.
         25    2    1    2    0    0 -0.12416212198E+03  0.28768802299E+02 -0.12424197829E+04  0.12551887494E+04  0.12509197849E+03 0.  0.
          5    1    3    3  502    0 -0.81793500209E+02  0.64564563489E+02 -0.50399138758E+03  0.51466838905E+03  0.41800000000E+01 0. -1.
         -5    1    3    3    0  502 -0.42368621774E+02 -0.35795761190E+02 -0.73842839534E+03  0.74052036033E+03  0.41800000000E+01 0. -1.
        -11    1    1    2    0    0  0.20849857389E+02 -0.19520497296E+02 -0.14500204835E+03  0.14778822819E+03  0.00000000000E+00 0. -1.
         11    1    1    2    0    0  0.10331226459E+03 -0.92483050034E+01 -0.11042644972E+03  0.15150232988E+03  0.00000000000E+00 0.  1.
</event>
<event>
 7    1  0.2612321E-009  0.1232795E+03  0.7561462E-02  0.1237783E+00
          1   -1    0    0  501    0  0.00000000000E+00  0.00000000000E+00  0.13545947119E+03  0.13545947119E+03  0.00000000000E+00 0. -1.
         -1   -1    0    0    0  501 -0.00000000000E+00 -0.00000000000E+00 -0.13037705546E+03  0.13037705546E+03  0.00000000000E+00 0.  1.
         25    2    1    2    0    0  0.64458223994E+02  0.39964414406E+02  0.70451734937E+01  0.14645181292E+03  0.12508589840E+03 0.  0.
          5    1    3    3  502    0  0.11701580328E+02 -0.43566098456E+02 -0.92384719247E+01  0.46235848434E+02  0.41800000000E+01 0. -1.
         -5    1    3    3    0  502  0.52756643666E+02  0.83530512862E+02  0.16283645418E+02  0.10021596449E+03  0.41800000000E+01 0. -1.
        -11    1    1    2    0    0 -0.17566869859E+02 -0.51219494914E+02  0.29639033638E+02  0.61729279041E+02  0.00000000000E+00 0. -1.
         11    1    1    2    0    0 -0.46891354135E+02  0.11255080508E+02 -0.31601791400E+02  0.57655434692E+02  0.00000000000E+00 0.  1.
</event>
<event>
 7    1  0.2612321E-009  0.1354932E+03  0.7561462E-02  0.1219525E+00
         -1   -1    0    0    0  501 -0.00000000000E+00  0.00000000000E+00  0.38798645797E+02  0.38798645797E+02  0.00000000000E+00 0.  1.
          1   -1    0    0  501    0  0.00000000000E+00 -0.00000000000E+00 -0.71456725828E+03  0.71456725828E+03  0.00000000000E+00 0. -1.
         25    2    1    2    0    0 -0.76117062384E+02 -0.86368852328E+02 -0.25157821584E+03  0.30363025167E+03  0.12508535170E+03 0.  0.
          5    1    3    3  502    0 -0.34961554175E+02 -0.97569470318E+02 -0.23641554923E+03  0.25817028513E+03  0.41800000000E+01 0.  1.
         -5    1    3    3    0  502 -0.41155508209E+02  0.11200617990E+02 -0.15162666607E+02  0.45459966541E+02  0.41800000000E+01 0.  1.
        -11    1    1    2    0    0  0.48946539328E+02  0.83880497180E+02 -0.40473930333E+03  0.41622782846E+03  0.00000000000E+00 0. -1.
         11    1    1    2    0    0  0.27170523056E+02  0.24883551477E+01 -0.19451093316E+02  0.33507823947E+02  0.00000000000E+00 0.  1.
</event>
<event>
 7    1  0.2612321E-009  0.1058232E+03  0.7561462E-02  0.1268506E+00
         -2   -1    0    0    0  501 -0.00000000000E+00  0.00000000000E+00  0.14418180565E+03  0.14418180565E+03  0.00000000000E+00 0.  1.
          2   -1    0    0  501    0  0.00000000000E+00 -0.00000000000E+00 -0.88453134725E+02  0.88453134725E+02  0.00000000000E+00 0. -1.
         25    2    1    2    0    0  0.19335265274E+02 -0.52650726863E+02  0.25324059191E+02  0.13940859595E+03  0.12508995614E+03 0.  0.
          5    1    3    3  502    0  0.55261534577E+02 -0.64989239116E+02 -0.11690118248E+02  0.86206552357E+02  0.41800000000E+01 0. -1.
         -5    1    3    3    0  502 -0.35926269303E+02  0.12338512253E+02  0.37014177439E+02  0.53202043590E+02  0.41800000000E+01 0. -1.
        -11    1    1    2    0    0  0.12614872542E+02  0.54573943940E+02  0.17118077005E+02  0.58570290479E+02  0.00000000000E+00 0. -1.
         11    1    1    2    0    0 -0.31950137816E+02 -0.19232170773E+01  0.13286534731E+02  0.34656053952E+02  0.00000000000E+00 0.  1.
</event>
<event>
 7    1  0.2612321E-009  0.1129742E+03  0.7561462E-02  0.1255159E+00
          1   -1    0    0  501    0  0.00000000000E+00  0.00000000000E+00  0.61076471600E+02  0.61076471600E+02  0.00000000000E+00 0. -1.
         -1   -1    0    0    0  501 -0.00000000000E+00 -0.00000000000E+00 -0.21123914543E+03  0.21123914543E+03  0.00000000000E+00 0.  1.
         25    2    1    2    0    0  0.27938717741E+02  0.20269757605E+02 -0.75561272835E+02  0.15017843941E+03  0.12511044197E+03 0.  0.
          5    1    3    3  502    0 -0.24846301296E+02  0.58664805105E+02 -0.44122946937E+02  0.77609309316E+02  0.41800000000E+01 0.  1.
         -5    1    3    3    0  502  0.52785019037E+02 -0.38395047500E+02 -0.31438325898E+02  0.72569130094E+02  0.41800000000E+01 0.  1.
        -11    1    1    2    0    0 -0.58515519955E+02  0.25059095618E+01 -0.46049977590E+02  0.74504671628E+02  0.00000000000E+00 0.  1.
         11    1    1    2    0    0  0.30576802214E+02 -0.22775667167E+02 -0.28551423402E+02  0.47632505989E+02  0.00000000000E+00 0. -1.
</event>
<event>
 7    1  0.2612321E-009  0.1168682E+03  0.7561462E-02  0.1248355E+00
         -2   -1    0    0    0  501 -0.00000000000E+00  0.00000000000E+00  0.10040955635E+03  0.10040955635E+03  0.00000000000E+00 0.  1.
          2   -1    0    0  501    0  0.00000000000E+00 -0.00000000000E+00 -0.17069314069E+03  0.17069314069E+03  0.00000000000E+00 0. -1.
         25    2    1    2    0    0  0.47954663000E+02  0.30911606633E+02  0.89718300862E+01  0.13778586316E+03  0.12509705522E+03 0.  0.
          5    1    3    3  502    0  0.81677024681E+02  0.16174417740E+01  0.31410125167E+02  0.87623175254E+02  0.41800000000E+01 0.  1.
         -5    1    3    3    0  502 -0.33722361681E+02  0.29294164859E+02 -0.22438295081E+02  0.50162687909E+02  0.41800000000E+01 0.  1.
        -11    1    1    2    0    0 -0.65664004936E+02 -0.48867554801E+02 -0.57767305787E+02  0.10018413584E+03  0.00000000000E+00 0.  1.
         11    1    1    2    0    0  0.17709341936E+02  0.17955948169E+02 -0.21488108632E+02  0.33132698034E+02  0.00000000000E+00 0. -1.
</event>
<event>
 7    1  0.2612321E-009  0.1283077E+03  0.7561462E-02  0.1229989E+00
          2   -1    0    0  501    0  0.00000000000E+00  0.00000000000E+00  0.28895188023E+03  0.28895188023E+03  0.00000000000E+00 0. -1.
         -2   -1    0    0    0  501 -0.00000000000E+00 -0.00000000000E+00 -0.93633722399E+02  0.93633722399E+02  0.00000000000E+00 0.  1.
         25    2    1    2    0    0 -0.81607885480E+02  0.74787487335E+02  0.16670286634E+03  0.23598797407E+03  0.12508981983E+03 0.  0.
          5    1    3    3  502    0 -0.95344244570E+02  0.85215922671E+02  0.87943171718E+02  0.15525383184E+03  0.41800000000E+01 0. -1.
         -5    1    3    3    0  502  0.13736359091E+02 -0.10428435337E+02  0.78759694619E+02  0.80734142227E+02  0.41800000000E+01 0. -1.
        -11    1    1    2    0    0  0.46144985514E+02 -0.47063719427E+02 -0.30227027844E+02  0.72512251287E+02  0.00000000000E+00 0.  1.
         11    1    1    2    0    0  0.35462899966E+02 -0.27723767907E+02  0.58842319343E+02  0.74085377279E+02  0.00000000000E+00 0. -1.
</event>
<event>
 7    1  0.2612321E-009  0.1168732E+03  0.7561462E-02  0.1248346E+00
          1   -1    0    0  501    0  0.00000000000E+00  0.00000000000E+00  0.13163229503E+03  0.13163229503E+03  0.00000000000E+00 0. -1.
         -1   -1    0    0    0  501 -0.00000000000E+00 -0.00000000000E+00 -0.11761459739E+03  0.11761459739E+03  0.00000000000E+00 0.  1.
         25    2    1    2    0    0  0.52409488762E+02  0.23239917643E+02  0.29425551151E+02  0.14071066491E+03  0.12508708916E+03 0.  0.
          5    1    3    3  502    0 -0.27769436231E+02  0.37725334237E+02  0.35465315380E+02  0.58903339692E+02  0.41800000000E+01 0.  1.
         -5    1    3    3    0  502  0.80178924993E+02 -0.14485416595E+02 -0.60397642296E+01  0.81807325215E+02  0.41800000000E+01 0.  1.
        -11    1    1    2    0    0 -0.54602411006E+02  0.22705183906E+02  0.24702559664E+01  0.59186576421E+02  0.00000000000E+00 0. -1.
         11    1    1    2    0    0  0.21929222439E+01 -0.45945101548E+02 -0.17878109474E+02  0.49349651089E+02  0.00000000000E+00 0.  1.
</event>
<event>
 7    1  0.2612321E-009  0.9052153E+02  0.7561462E-02  0.1301594E+00
          2   -1    0    0  501    0  0.00000000000E+00  0.00000000000E+00  0.52650345177E+03  0.52650345177E+03  0.00000000000E+00 0. -1.
         -2   -1    0    0    0  501 -0.00000000000E+00 -0.00000000000E+00 -0.23012305583E+02  0.23012305583E+02  0.00000000000E+00 0.  1.
         25    2    1    2    0    0 -0.14105433976E+02 -0.22801816075E+02  0.39963852667E+03  0.41961517032E+03  0.12508818120E+03 0.  0.
          5    1    3    3  502    0  0.36271529929E+02  0.29261849130E+02  0.88295929489E+02  0.99927590095E+02  0.41800000000E+01 0. -1.
         -5    1    3    3    0  502 -0.50376963906E+02 -0.52063665206E+02  0.31134259718E+03  0.31968758022E+03  0.41800000000E+01 0. -1.
        -11    1    1    2    0    0  0.17408008286E+02  0.40289253979E+02  0.10313996726E+03  0.11208976575E+03  0.00000000000E+00 0.  1.
         11    1    1    2    0    0 -0.33025743091E+01 -0.17487437904E+02  0.71265224653E+00  0.17810821282E+02  0.00000000000E+00 0. -1.
</event>
<event>
 7    1  0.2612321E-009  0.7938667E+02  0.7561462E-02  0.1330801E+00
          3   -1    0    0  501    0  0.00000000000E+00  0.00000000000E+00  0.16967746009E+03  0.16967746009E+03  0.00000000000E+00 0. -1.
         -3   -1    0    0    0  501 -0.00000000000E+00 -0.00000000000E+00 -0.90150186549E+02  0.90150186549E+02  0.00000000000E+00 0.  1.
         25    2    1    2    0    0 -0.38074383793E+02 -0.44502219436E+02  0.27419522598E+02  0.14081992244E+03  0.12509322165E+03 0.  0.
          5    1    3    3  502    0 -0.49602265271E+02 -0.25468600719E+02 -0.40619922701E+02  0.69112118061E+02  0.41800000000E+01 0. -1.
         -5    1    3    3    0  502  0.11527881478E+02 -0.19033618717E+02  0.68039445300E+02  0.71707804384E+02  0.41800000000E+01 0. -1.
        -11    1    1    2    0    0  0.50843466059E+02  0.44316113502E+02  0.69882371340E+02  0.97121170612E+02  0.00000000000E+00 0. -1.
         11    1    1    2    0    0 -0.12769082267E+02  0.18610593430E+00 -0.17774620399E+02  0.21886553582E+02  0.00000000000E+00 0.  1.
</event>
<event>
 7    1  0.2612321E-009  0.1312354E+03  0.7561462E-02  0.1225634E+00
         -1   -1    0    0    0  501 -0.00000000000E+00  0.00000000000E+00  0.88202207559E+02  0.88202207559E+02  0.00000000000E+00 0.  1.
          1   -1    0    0  501    0  0.00000000000E+00 -0.00000000000E+00 -0.27396044030E+03  0.27396044030E+03  0.00000000000E+00 0. -1.
         25    2    1    2    0    0 -0.95658312419E+02  0.47770434944E+02 -0.14087010522E+03  0.21661989608E+03  0.12508903087E+03 0.  0.
          5    1    3    3  502    0 -0.10434044789E+03  0.13186919287E+02 -0.45408688741E+02  0.11463090909E+03  0.41800000000E+01 0.  1.
         -5    1    3    3    0  502  0.86821354674E+01  0.34583515657E+02 -0.95461416476E+02  0.10198898699E+03  0.41800000000E+01 0.  1.
        -11    1    1    2    0    0  0.90235987425E+02 -0.59710423324E+02 -0.10466659323E+02  0.10870795296E+03  0.00000000000E+00 0.  1.
         11    1    1    2    0    0  0.54223249935E+01  0.11939988379E+02 -0.34421468201E+02  0.36834798818E+02  0.00000000000E+00 0. -1.
</event>
<event>
 7    1  0.2612321E-009  0.1634485E+03  0.7561462E-02  0.1184858E+00
         -1   -1    0    0    0  501 -0.00000000000E+00  0.00000000000E+00  0.58475438648E+03  0.58475438648E+03  0.00000000000E+00 0.  1.
          1   -1    0    0  501    0  0.00000000000E+00 -0.00000000000E+00 -0.52107955002E+02  0.52107955002E+02  0.00000000000E+00 0. -1.
         25    2    1    2    0    0 -0.99463370473E+02 -0.91545423482E+02  0.31848322938E+03  0.36790437499E+03  0.12509410503E+03 0.  0.
          5    1    3    3  502    0 -0.59354519709E+02  0.19870456118E+02  0.14310577847E+03  0.15625149685E+03  0.41800000000E+01 0. -1.
         -5    1    3    3    0  502 -0.40108850764E+02 -0.11141587960E+03  0.17537745091E+03  0.21165287814E+03  0.41800000000E+01 0. -1.
        -11    1    1    2    0    0  0.11532039702E+02 -0.70894941789E+01 -0.38072397877E+01  0.14062145718E+02  0.00000000000E+00 0. -1.
         11    1    1    2    0    0  0.87931330771E+02  0.98634917661E+02  0.21797044188E+03  0.25489582077E+03  0.00000000000E+00 0.  1.
</event>
<event>
 7    1  0.2612321E-009  0.1135585E+03  0.7561462E-02  0.1254118E+00
          1   -1    0    0  501    0  0.00000000000E+00  0.00000000000E+00  0.23206384864E+02  0.23206384864E+02  0.00000000000E+00 0. -1.
         -1   -1    0    0    0  501 -0.00000000000E+00 -0.00000000000E+00 -0.96594938435E+03  0.96594938435E+03  0.00000000000E+00 0.  1.
         25    2    1    2    0    0 -0.55428654684E+02  0.53660276098E+02 -0.74432467700E+03  0.75869547627E+03  0.12509132638E+03 0.  0.
          5    1    3    3  502    0 -0.94534336735E+02  0.24400359703E+02 -0.47541805491E+03  0.48535751535E+03  0.41800000000E+01 0.  1.
         -5    1    3    3    0  502  0.39105682051E+02  0.29259916395E+02 -0.26890662209E+03  0.27333796092E+03  0.41800000000E+01 0.  1.
        -11    1    1    2    0    0  0.18659177110E+02 -0.33743315742E+02 -0.18116615136E+03  0.18522405526E+03  0.00000000000E+00 0.  1.
         11    1    1    2    0    0  0.36769477574E+02 -0.19916960356E+02 -0.17252171124E+02  0.45236237679E+02  0.00000000000E+00 0. -1.
</event>
<event>
 7    1  0.2612321E-009  0.1328574E+03  0.7561462E-02  0.1223276E+00
          1   -1    0    0  501    0  0.00000000000E+00  0.00000000000E+00  0.60004876569E+02  0.60004876569E+02  0.00000000000E+00 0. -1.
         -1   -1    0    0    0  501 -0.00000000000E+00 -0.00000000000E+00 -0.41517512410E+03  0.41517512410E+03  0.00000000000E+00 0.  1.
         25    2    1    2    0    0  0.28203983894E+02  0.10546542029E+03 -0.24020494649E+03  0.29200357433E+03  0.12509696846E+03 0.  0.
          5    1    3    3  502    0  0.50302602593E+02  0.84954092085E+02 -0.24211497683E+03  0.26150465387E+03  0.41800000000E+01 0. -1.
         -5    1    3    3    0  502 -0.22098618699E+02  0.20511328202E+02  0.19100303431E+01  0.30498920455E+02  0.41800000000E+01 0. -1.
        -11    1    1    2    0    0 -0.55448982755E+02 -0.88267305303E+02 -0.10822296180E+03  0.15025949665E+03  0.00000000000E+00 0.  1.
         11    1    1    2    0    0  0.27244998861E+02 -0.17198114984E+02 -0.67423392474E+01  0.32916929694E+02  0.00000000000E+00 0. -1.
</event>
<event>
 7    1  0.2612321E-009  0.1099625E+03  0.7561462E-02  0.1260639E+00
          3   -1    0    0  501    0  0.00000000000E+00  0.00000000000E+00  0.10967274784E+03  0.10967274784E+03  0.00000000000E+00 0. -1.
         -3   -1    0    0    0  501 -0.00000000000E+00 -0.00000000000E+00 -0.16716091246E+03  0.16716091246E+03  0.00000000000E+00 0.  1.
         25    2    1    2    0    0 -0.11524118024E+02  0.78817957534E+02 -0.29951026027E+02  0.15130886052E+03  0.12510887893E+03 0.  0.
          5    1    3    3  502    0  0.49187201352E+02  0.56381958106E+02  0.92753224186E+01  0.75510330304E+02  0.41800000000E+01 0. -1.
         -5    1    3    3    0  502 -0.60711319375E+02  0.22435999427E+02 -0.39226348446E+02  0.75798530217E+02  0.41800000000E+01 0. -1.
        -11    1    1    2    0    0  0.37226522844E+00 -0.31901982181E+02 -0.59609305224E+02  0.67610238261E+02  0.00000000000E+00 0.  1.
         11    1    1    2    0    0  0.11151852795E+02 -0.46915975353E+02  0.32072166630E+02  0.57914561523E+02  0.00000000000E+00 0. -1.
</event>
<event>
 7    1  0.2612321E-009  0.1158805E+03  0.7561462E-02  0.1250052E+00
          2   -1    0    0  501    0  0.00000000000E+00  0.00000000000E+00  0.10555514018E+03  0.10555514018E+03  0.00000000000E+00 0. -1.
         -2   -1    0    0    0  501 -0.00000000000E+00 -0.00000000000E+00 -0.19831926664E+03  0.19831926664E+03  0.00000000000E+00 0.  1.
         25    2    1    2    0    0  0.79118422869E+02 -0.28668690733E+02 -0.99377939611E+02  0.18056996667E+03  0.12509164367E+03 0.  0.
          5    1    3    3  502    0  0.56449216727E+02  0.18744860504E+02  0.87584654009E+01  0.60266632398E+02  0.41800000000E+01 0.  1.
         -5    1    3    3    0  502  0.22669206142E+02 -0.47413551237E+02 -0.10813640501E+03  0.12030333427E+03  0.41800000000E+01 0.  1.
        -11    1    1    2    0    0 -0.88869400121E+02  0.45592439949E+02 -0.59856879360E+01  0.10006132779E+03  0.00000000000E+00 0.  1.
         11    1    1    2    0    0  0.97509772523E+01 -0.16923749215E+02  0.12599501082E+02  0.23243112365E+02  0.00000000000E+00 0. -1.
</event>
<event>
 7    1  0.2612321E-009  0.2440160E+03  0.7561462E-02  0.1117146E+00
         -2   -1    0    0    0  501 -0.00000000000E+00  0.00000000000E+00  0.12202389697E+03  0.12202389697E+03  0.00000000000E+00 0.  1.
          2   -1    0    0  501    0  0.00000000000E+00 -0.00000000000E+00 -0.80356616795E+03  0.80356616795E+03  0.00000000000E+00 0. -1.
         25    2    1    2    0    0  0.20895141381E+03 -0.10385937234E+03 -0.83940401370E+02  0.27774169207E+03  0.12508794497E+03 0.  0.
          5    1    3    3  502    0  0.22740282765E+02 -0.29982053740E+02  0.29034523054E+02  0.47712890665E+02  0.41800000000E+01 0.  1.
         -5    1    3    3    0  502  0.18621113105E+03 -0.73877318602E+02 -0.11297492442E+03  0.23002880141E+03  0.41800000000E+01 0.  1.
        -11    1    1    2    0    0 -0.20386655589E+03  0.11745438357E+03 -0.57031772177E+03  0.61694360245E+03  0.00000000000E+00 0. -1.
         11    1    1    2    0    0 -0.50848579216E+01 -0.13595011233E+02 -0.27284147837E+02  0.30904770404E+02  0.00000000000E+00 0.  1.
</event>
<event>
 7    1  0.2612321E-009  0.1110503E+03  0.7561462E-02  0.1258637E+00
          2   -1    0    0  501    0  0.00000000000E+00  0.00000000000E+00  0.30139050709E+02  0.30139050709E+02  0.00000000000E+00 0. -1.
         -2   -1    0    0    0  501 -0.00000000000E+00 -0.00000000000E+00 -0.51477832392E+03  0.51477832392E+03  0.00000000000E+00 0.  1.
         25    2    1    2    0    0 -0.52259266390E+02 -0.72095744522E+01 -0.35570563013E+03  0.38073227870E+03  0.12509022284E+03 0.  0.
          5    1    3    3  502    0  0.86961154606E+01 -0.46796647091E+02 -0.23469945735E+03  0.23951379143E+03  0.41800000000E+01 0.  1.
         -5    1    3    3    0  502 -0.60955381851E+02  0.39587072639E+02 -0.12100617278E+03  0.14121848728E+03  0.41800000000E+01 0.  1.
        -11    1    1    2    0    0  0.76724860585E+02  0.70880045407E+01 -0.10136855031E+03  0.12732842193E+03  0.00000000000E+00 0.  1.
         11    1    1    2    0    0 -0.24465594194E+02  0.12156991144E+00 -0.27565092766E+02  0.36856673992E+02  0.00000000000E+00 0. -1.
</event>
<event>
 7    1  0.2612321E-009  0.1245841E+03  0.7561462E-02  0.1235721E+00
          2   -1    0    0  501    0  0.00000000000E+00  0.00000000000E+00  0.25170478494E+04  0.25170478494E+04  0.00000000000E+00 0. -1.
         -2   -1    0    0    0  501 -0.00000000000E+00 -0.00000000000E+00 -0.86464516228E+01  0.86464516228E+01  0.00000000000E+00 0.  1.
         25    2    1    2    0    0 -0.23808675716E+02 -0.72802913802E+02  0.19180047653E+04  0.19236059996E+04  0.12510253650E+03 0.  0.
          5    1    3    3  502    0  0.36354246782E+02 -0.69706978291E+02  0.13753756270E+04  0.13776270475E+04  0.41800000000E+01 0. -1.
         -5    1    3    3    0  502 -0.60162922498E+02 -0.30959355103E+01  0.54262913830E+03  0.54597895215E+03  0.41800000000E+01 0. -1.
        -11    1    1    2    0    0  0.31636709859E+01 -0.17314162564E+02  0.36418676688E+02  0.40448844867E+02  0.00000000000E+00 0. -1.
         11    1    1    2    0    0  0.20645004730E+02  0.90117076365E+02  0.55397795574E+03  0.56163945652E+03  0.00000000000E+00 0.  1.
</event>
<event>
 7    1  0.2612321E-009  0.1015403E+03  0.7561462E-02  0.1277090E+00
         -1   -1    0    0    0  501 -0.00000000000E+00  0.00000000000E+00  0.25274488274E+02  0.25274488274E+02  0.00000000000E+00 0.  1.
          1   -1    0    0  501    0  0.00000000000E+00 -0.00000000000E+00 -0.58239411556E+03  0.58239411556E+03  0.00000000000E+00 0. -1.
         25    2    1    2    0    0 -0.55393632034E+02  0.99549804945E+01 -0.32236798266E+03  0.35033757948E+03  0.12509095589E+03 0.  0.
          5    1    3    3  502    0 -0.92318614691E+02 -0.13182724792E+02 -0.21524205405E+03  0.23461271296E+03  0.41800000000E+01 0.  1.
         -5    1    3    3    0  502  0.36924982657E+02  0.23137705287E+02 -0.10712592861E+03  0.11572486652E+03  0.41800000000E+01 0.  1.
        -11    1    1    2    0    0  0.96545092792E+01  0.11850592191E+02  0.18201765524E+01  0.15393476780E+02  0.00000000000E+00 0.  1.
         11    1    1    2    0    0  0.45739122754E+02 -0.21805572686E+02 -0.23657182117E+03  0.24193754757E+03  0.00000000000E+00 0. -1.
</event>
<event>
 7    1  0.2612321E-009  0.1312178E+03  0.7561462E-02  0.1225660E+00
          4   -1    0    0  501    0  0.00000000000E+00  0.00000000000E+00  0.91871025419E+02  0.91871025419E+02  0.00000000000E+00 0. -1.
         -4   -1    0    0    0  501 -0.00000000000E+00 -0.00000000000E+00 -0.25922281599E+03  0.25922281599E+03  0.00000000000E+00 0.  1.
         25    2    1    2    0    0 -0.50504221741E+02 -0.58618127262E+02 -0.11193063461E+01  0.14709245633E+03  0.12509267207E+03 0.  0.
          5    1    3    3  502    0 -0.64030288336E+02  0.17739231657E+02  0.13863415973E+02  0.68001653411E+02  0.41800000000E+01 0.  1.
         -5    1    3    3    0  502  0.13526066595E+02 -0.76357358919E+02 -0.14982722320E+02  0.79090802921E+02  0.41800000000E+01 0.  1.
        -11    1    1    2    0    0  0.63061657527E+02  0.51401176796E+01 -0.91866001183E+02  0.11154620403E+03  0.00000000000E+00 0. -1.
         11    1    1    2    0    0 -0.12557435786E+02  0.53478009583E+02 -0.74366483042E+02  0.92455181048E+02  0.00000000000E+00 0.  1.
</event>
<event>
 7    1  0.2612321E-009  0.1399339E+03  0.7561462E-02  0.1213418E+00
         -4   -1    0    0    0  501 -0.00000000000E+00  0.00000000000E+00  0.22498255013E+02  0.22498255013E+02  0.00000000000E+00 0.  1.
          4   -1    0    0  501    0  0.00000000000E+00 -0.00000000000E+00 -0.91155781445E+03  0.91155781445E+03  0.00000000000E+00 0. -1.
         25    2    1    2    0    0  0.82636327021E+02  0.42624456346E+02 -0.52009574408E+03  0.54294615659E+03  0.12508133003E+03 0.  0.
          5    1    3    3  502    0  0.28298363442E+02 -0.44268624456E+02 -0.19931957662E+03  0.20617049864E+03  0.41800000000E+01 0.  1.
         -5    1    3    3    0  502  0.54337963579E+02  0.86893080802E+02 -0.32077616746E+03  0.33677565795E+03  0.41800000000E+01 0.  1.
        -11    1    1    2    0    0 -0.77822949410E+02 -0.65189574076E+02 -0.24815431270E+03  0.26811686805E+03  0.00000000000E+00 0. -1.
         11    1    1    2    0    0 -0.48133776107E+01  0.22565117730E+02 -0.12080950266E+03  0.12299304483E+03  0.00000000000E+00 0.  1.
</event>
<event>
 7    1  0.2612321E-009  0.7164146E+02  0.7561462E-02  0.1354599E+00
          4   -1    0    0  501    0  0.00000000000E+00  0.00000000000E+00  0.45754622523E+03  0.45754622523E+03  0.00000000000E+00 0. -1.
         -4   -1    0    0    0  501 -0.00000000000E+00 -0.00000000000E+00 -0.30847499377E+02  0.30847499377E+02  0.00000000000E+00 0.  1.
         25    2    1    2    0    0  0.38104860312E+02  0.22600341460E+01  0.18242724938E+03  0.22446038540E+03  0.12508267332E+03 0.  0.
          5    1    3    3  502    0  0.40963010823E+02 -0.20060161559E+02  0.19363347843E+03  0.19897681952E+03  0.41800000000E+01 0.  1.
         -5    1    3    3    0  502 -0.28581505113E+01  0.22320195705E+02 -0.11206229047E+02  0.25483565883E+02  0.41800000000E+01 0.  1.
        -11    1    1    2    0    0  0.28711469673E+00  0.26576286930E+02  0.16783979967E+02  0.31433794638E+02  0.00000000000E+00 0.  1.
         11    1    1    2    0    0 -0.38391975009E+02 -0.28836321076E+02  0.22748749650E+03  0.23249954456E+03  0.00000000000E+00 0. -1.
</event>
<event>
 7    1  0.2612321E-009  0.1207932E+03  0.7561462E-02  0.1241794E+00
          3   -1    0    0  501    0  0.00000000000E+00  0.00000000000E+00  0.28620433647E+02  0.28620433647E+02  0.00000000000E+00 0. -1.
         -3   -1    0    0    0  501 -0.00000000000E+00 -0.00000000000E+00 -0.59758099351E+03  0.59758099351E+03  0.00000000000E+00 0.  1.
         25    2    1    2    0    0 -0.47726413955E+02 -0.40041094570E+02 -0.41237679897E+03  0.43540902863E+03  0.12508116581E+03 0.  0.
          5    1    3    3  502    0 -0.82922710925E+02 -0.54410595857E+02 -0.32959278191E+03  0.34421731975E+03  0.41800000000E+01 0. -1.
         -5    1    3    3    0  502  0.35196296970E+02  0.14369501287E+02 -0.82784017056E+02  0.91191708875E+02  0.41800000000E+01 0. -1.
        -11    1    1    2    0    0 -0.23143504876E+02  0.10103641418E+01 -0.62777010066E+02  0.66914838761E+02  0.00000000000E+00 0.  1.
         11    1    1    2    0    0  0.70869918831E+02  0.39030730429E+02 -0.93806750826E+02  0.12387755977E+03  0.00000000000E+00 0. -1.
</event>
<event>
 7    1  0.2612321E-009  0.1288150E+03  0.7561462E-02  0.1229225E+00
         -2   -1    0    0    0  501 -0.00000000000E+00  0.00000000000E+00  0.17809462911E+03  0.17809462911E+03  0.00000000000E+00 0.  1.
          2   -1    0    0  501    0  0.00000000000E+00 -0.00000000000E+00 -0.13791155282E+03  0.13791155282E+03  0.00000000000E+00 0. -1.
         25    2    1    2    0    0 -0.11070147001E+03  0.72727897205E+01  0.40740763811E+01  0.16724444052E+03  0.12508555414E+03 0.  0.
          5    1    3    3  502    0 -0.91899073254E+02  0.17999116229E+02 -0.51856162566E+02  0.10712582250E+03  0.41800000000E+01 0.  1.
         -5    1    3    3    0  502 -0.18802396753E+02 -0.10726326509E+02  0.55930238947E+02  0.60118618021E+02  0.41800000000E+01 0.  1.
        -11    1    1    2    0    0  0.67835367079E+02 -0.47696223834E+02  0.34512319192E+02  0.89820192445E+02  0.00000000000E+00 0. -1.
         11    1    1    2    0    0  0.42866102927E+02  0.40423434114E+02  0.15966807160E+01  0.58941548971E+02  0.00000000000E+00 0.  1.
</event>
<event>
 7    1  0.2612321E-009  0.1134066E+03  0.7561462E-02  0.1254388E+00
          2   -1    0    0  501    0  0.00000000000E+00  0.00000000000E+00  0.33106447369E+03  0.33106447369E+03  0.00000000000E+00 0. -1.
         -2   -1    0    0    0  501 -0.00000000000E+00 -0.00000000000E+00 -0.62276024212E+02  0.62276024212E+02  0.00000000000E+00 0.  1.
         25    2    1    2    0    0  0.78560072364E+02 -0.20309518971E+02  0.21673752323E+03  0.26307081412E+03  0.12508772017E+03 0.  0.
          5    1    3    3  502    0  0.94772236119E+02 -0.52965455185E+02  0.13365679482E+03  0.17224612444E+03  0.41800000000E+01 0. -1.
         -5    1    3    3    0  502 -0.16212163755E+02  0.32655936214E+02  0.83080728406E+02  0.90824689684E+02  0.41800000000E+01 0. -1.
        -11    1    1    2    0    0 -0.49068084576E+02  0.16293299596E+02 -0.17527194485E+02  0.54592591825E+02  0.00000000000E+00 0.  1.
         11    1    1    2    0    0 -0.29491987788E+02  0.40162193750E+01  0.69578120741E+02  0.75677091960E+02  0.00000000000E+00 0. -1.
</event>
<event>
 7    1  0.2612321E-009  0.1636219E+03  0.7561462E-02  0.1184667E+00
         -4   -1    0    0    0  501 -0.00000000000E+00  0.00000000000E+00  0.66846094777E+02  0.66846094777E+02  0.00000000000E+00 0.  1.
          4   -1    0    0  501    0  0.00000000000E+00 -0.00000000000E+00 -0.44395101081E+03  0.44395101081E+03  0.00000000000E+00 0. -1.
         25    2    1    2    0    0 -0.72691998825E+02  0.10041979324E+03 -0.27146304867E+03  0.32358781650E+03  0.12509447081E+03 0.  0.
          5    1    3    3  502    0 -0.10846908071E+03  0.77517016272E+02 -0.20874578668E+03  0.24772304120E+03  0.41800000000E+01 0. -1.
         -5    1    3    3    0  502  0.35777081884E+02  0.22902776971E+02 -0.62717261985E+02  0.75864775305E+02  0.41800000000E+01 0. -1.
        -11    1    1    2    0    0 -0.20099653909E+02 -0.15402653234E+02 -0.34008445030E+02  0.42400614939E+02  0.00000000000E+00 0. -1.
         11    1    1    2    0    0  0.92791652733E+02 -0.85017140009E+02 -0.71633422331E+02  0.14480867414E+03  0.00000000000E+00 0.  1.
</event>
<event>
 7    1  0.2612321E-009  0.1524323E+03  0.7561462E-02  0.1197516E+00
         -2   -1    0    0    0  501 -0.00000000000E+00  0.00000000000E+00  0.19710968464E+03  0.19710968464E+03  0.00000000000E+00 0.  1.
          2   -1    0    0  501    0  0.00000000000E+00 -0.00000000000E+00 -0.13895634080E+03  0.13895634080E+03  0.00000000000E+00 0. -1.
         25    2    1    2    0    0  0.67780245797E+02 -0.99277292224E+02  0.50928906259E+02  0.18080613059E+03  0.12508781273E+03 0.  0.
          5    1    3    3  502    0 -0.34827280878E+02 -0.41368047452E+02  0.57134767373E+01  0.54537794783E+02  0.41800000000E+01 0.  1.
         -5    1    3    3    0  502  0.10260752668E+03 -0.57909244771E+02  0.45215429522E+02  0.12626833581E+03  0.41800000000E+01 0.  1.
        -11    1    1    2    0    0 -0.24808311290E+02  0.83250835337E+02  0.43155574913E+02  0.96997719248E+02  0.00000000000E+00 0.  1.
         11    1    1    2    0    0 -0.42971934508E+02  0.16026456887E+02 -0.35931137328E+02  0.58262175598E+02  0.00000000000E+00 0. -1.
</event>
<event>
 7    1  0.2612321E-009  0.1019590E+03  0.7561462E-02  0.1276230E+00
         -1   -1    0    0    0  501 -0.00000000000E+00  0.00000000000E+00  0.73605440605E+02  0.73605440605E+02  0.00000000000E+00 0.  1.
          1   -1    0    0  501    0  0.00000000000E+00 -0.00000000000E+00 -0.19211667919E+03  0.19211667919E+03  0.00000000000E+00 0. -1.
         25    2    1    2    0    0 -0.92168445899E+01  0.13758512212E+02 -0.14185630550E+02  0.12697091284E+03  0.12508450628E+03 0.  0.
          5    1    3    3  502    0 -0.40128875165E+02  0.58611283648E+02 -0.12946705838E+02  0.72323570050E+02  0.41800000000E+01 0. -1.
         -5    1    3    3    0  502  0.30912030575E+02 -0.44852771436E+02 -0.12389247114E+01  0.54647342792E+02  0.41800000000E+01 0. -1.
        -11    1    1    2    0    0 -0.30220209054E+02 -0.22572127264E+02 -0.14783785730E+02  0.40513235923E+02  0.00000000000E+00 0.  1.
         11    1    1    2    0    0  0.39437053644E+02  0.88136150522E+01 -0.89541822303E+02  0.98237971028E+02  0.00000000000E+00 0. -1.
</event>
<event>
 7    1  0.2612321E-009  0.1008551E+03  0.7561462E-02  0.1278508E+00
         -1   -1    0    0    0  501 -0.00000000000E+00  0.00000000000E+00  0.19015309264E+03  0.19015309264E+03  0.00000000000E+00 0.  1.
          1   -1    0    0  501    0  0.00000000000E+00 -0.00000000000E+00 -0.99468843131E+02  0.99468843131E+02  0.00000000000E+00 0. -1.
         25    2    1    2    0    0 -0.44429638498E+02 -0.64188167971E+02  0.13820169080E+02  0.14811545179E+03  0.12511225480E+03 0.  0.
          5    1    3    3  502    0 -0.20142415212E+02 -0.79074078648E+02  0.54546007710E+02  0.98240348950E+02  0.41800000000E+01 0. -1.
         -5    1    3    3    0  502 -0.24287223285E+02  0.14885910677E+02 -0.40725838630E+02  0.49875102844E+02  0.41800000000E+01 0. -1.
        -11    1    1    2    0    0  0.26870277730E+02  0.68111887754E+02  0.12005104356E+02  0.74198137505E+02  0.00000000000E+00 0. -1.
         11    1    1    2    0    0  0.17559360767E+02 -0.39237197823E+01  0.64858976070E+02  0.67308346468E+02  0.00000000000E+00 0.  1.
</event>
<event>
 7    1  0.2612321E-009  0.2960496E+03  0.7561462E-02  0.1087232E+00
         -1   -1    0    0    0  501 -0.00000000000E+00  0.00000000000E+00  0.14049073321E+03  0.14049073321E+03  0.00000000000E+00 0.  1.
          1   -1    0    0  501    0  0.00000000000E+00 -0.00000000000E+00 -0.64696162784E+03  0.64696162784E+03  0.00000000000E+00 0. -1.
         25    2    1    2    0    0  0.66301820137E+01 -0.28040124444E+03 -0.28074965533E+03  0.41609833513E+03  0.12509451762E+03 0.  0.
          5    1    3    3  502    0 -0.57355044742E+02 -0.15514349749E+03 -0.13546767097E+03  0.21384122205E+03  0.41800000000E+01 0. -1.
         -5    1    3    3    0  502  0.63985226755E+02 -0.12525774695E+03 -0.14528198436E+03  0.20225711309E+03  0.41800000000E+01 0. -1.
        -11    1    1    2    0    0 -0.28868777849E+02  0.21303683235E+03 -0.20594138990E+03  0.29770783387E+03  0.00000000000E+00 0.  1.
         11    1    1    2    0    0  0.22238595835E+02  0.67364412091E+02 -0.19779849391E+02  0.73646192047E+02  0.00000000000E+00 0. -1.
</event>
<event>
 7    1  0.2612321E-009  0.1134248E+03  0.7561462E-02  0.1254356E+00
          1   -1    0    0  501    0  0.00000000000E+00  0.00000000000E+00  0.30629765497E+03  0.30629765497E+03  0.00000000000E+00 0. -1.
         -1   -1    0    0    0  501 -0.00000000000E+00 -0.00000000000E+00 -0.45061487081E+02  0.45061487081E+02  0.00000000000E+00 0.  1.
         25    2    1    2    0    0 -0.43972879894E+02 -0.16124685189E+02  0.15606864065E+03  0.20542044520E+03  0.12508604667E+03 0.  0.
          5    1    3    3  502    0 -0.85942417273E+02 -0.19994766586E+02  0.84416820011E+02  0.12218658551E+03  0.41800000000E+01 0. -1.
         -5    1    3    3    0  502  0.41969537378E+02  0.38700813966E+01  0.71651820640E+02  0.83233859690E+02  0.41800000000E+01 0. -1.
        -11    1    1    2    0    0 -0.11317032887E+02 -0.24873366552E+02  0.52793655096E+02  0.59446863798E+02  0.00000000000E+00 0. -1.
         11    1    1    2    0    0  0.55289912781E+02  0.40998051741E+02  0.52373872139E+02  0.86491833052E+02  0.00000000000E+00 0.  1.
</event>
<event>
 7    1  0.2612321E-009  0.2064317E+03  0.7561462E-02  0.1144423E+00
         -1   -1    0    0    0  501 -0.00000000000E+00  0.00000000000E+00  0.37014802035E+03  0.37014802035E+03  0.00000000000E+00 0.  1.
          1   -1    0    0  501    0  0.00000000000E+00 -0.00000000000E+00 -0.14761327471E+03  0.14761327471E+03  0.00000000000E+00 0. -1.
         25    2    1    2    0    0 -0.39355813238E+02 -0.17806686176E+03  0.22195919912E+03  0.31332205880E+03  0.12509252240E+03 0.  0.
          5    1    3    3  502    0 -0.84098258969E+02 -0.10222130105E+03  0.14396631493E+03  0.19561565322E+03  0.41800000000E+01 0.  1.
         -5    1    3    3    0  502  0.44742445731E+02 -0.75845560713E+02  0.77992884191E+02  0.11770640558E+03  0.41800000000E+01 0.  1.
        -11    1    1    2    0    0  0.22766032108E+02  0.17360311525E+03  0.22561500192E+02  0.17653712112E+03  0.00000000000E+00 0.  1.
         11    1    1    2    0    0  0.16589781130E+02  0.44637465163E+01 -0.21985953669E+02  0.27902115146E+02  0.00000000000E+00 0. -1.
</event>
<event>
 7    1  0.2612321E-009  0.1146971E+03  0.7561462E-02  0.1252111E+00
          2   -1    0    0  501    0  0.00000000000E+00  0.00000000000E+00  0.10620244450E+03  0.10620244450E+03  0.00000000000E+00 0. -1.
         -2   -1    0    0    0  501 -0.00000000000E+00 -0.00000000000E+00 -0.17235353794E+03  0.17235353794E+03  0.00000000000E+00 0.  1.
         25    2    1    2    0    0  0.25651883166E+02 -0.72944883841E+02 -0.14023328217E+02  0.14772301394E+03  0.12508581024E+03 0.  0.
          5    1    3    3  502    0  0.41420581008E+02  0.18370903012E+02  0.18926481805E+02  0.49283249913E+02  0.41800000000E+01 0. -1.
         -5    1    3    3    0  502 -0.15768697842E+02 -0.91315786853E+02 -0.32949810022E+02  0.98439764022E+02  0.41800000000E+01 0. -1.
        -11    1    1    2    0    0 -0.34331572891E+02  0.25165368636E+02  0.17432840731E+02  0.45998441405E+02  0.00000000000E+00 0. -1.
         11    1    1    2    0    0  0.86796897253E+01  0.47779515205E+02 -0.69560605956E+02  0.84834527098E+02  0.00000000000E+00 0.  1.
</event>
<event>
 7    1  0.2612321E-009  0.1160917E+03  0.7561462E-02  0.1249687E+00
         -2   -1    0    0    0  501 -0.00000000000E+00  0.00000000000E+00  0.51069631337E+02  0.51069631337E+02  0.00000000000E+00 0. -1.
          2   -1    0    0  501    0  0.00000000000E+00 -0.00000000000E+00 -0.35692403243E+03  0.35692403243E+03  0.00000000000E+00 0.  1.
         25    2    1    2    0    0  0.48763383568E+02  0.26606440909E+02 -0.77839402902E+02  0.15745553574E+03  0.12508997888E+03 0.  0.
          5    1    3    3  502    0  0.53902414938E+02 -0.40534719363E+02 -0.26117685441E+02  0.72444045323E+02  0.41800000000E+01 0. -1.
         -5    1    3    3    0  502 -0.51390313702E+01  0.67141160272E+02 -0.51721717461E+02  0.85011490419E+02  0.41800000000E+01 0. -1.
        -11    1    1    2    0    0  0.20063979190E+02 -0.19452576981E+02 -0.11217609377E+03  0.11560467994E+03  0.00000000000E+00 0.  1.
         11    1    1    2    0    0 -0.68827362758E+02 -0.71538639285E+01 -0.11583890443E+03  0.13493344808E+03  0.00000000000E+00 0. -1.
</event>
<event>
 7    1  0.2612321E-009  0.8152001E+02  0.7561462E-02  0.1324792E+00
          1   -1    0    0  501    0  0.00000000000E+00  0.00000000000E+00  0.11895134219E+04  0.11895134219E+04  0.00000000000E+00 0. -1.
         -1   -1    0    0    0  501 -0.00000000000E+00 -0.00000000000E+00 -0.14098993928E+02  0.14098993928E+02  0.00000000000E+00 0.  1.
         25    2    1    2    0    0  0.26726746110E+02  0.11549633423E+02  0.92383774656E+03  0.93272140991E+03  0.12508130775E+03 0.  0.
          5    1    3    3  502    0  0.43246880098E+02 -0.44084556106E+01  0.89287977764E+03  0.89394714432E+03  0.41800000000E+01 0. -1.
         -5    1    3    3    0  502 -0.16520133988E+02  0.15958089034E+02  0.30957968923E+02  0.38774265595E+02  0.41800000000E+01 0. -1.
        -11    1    1    2    0    0 -0.32932596068E+02  0.35582278595E+02  0.87132008761E+02  0.99712794488E+02  0.00000000000E+00 0.  1.
         11    1    1    2    0    0  0.62058499580E+01 -0.47131912019E+02  0.16444467263E+03  0.17117821141E+03  0.00000000000E+00 0. -1.
</event>
<event>
 7    1  0.2612321E-009  0.1146088E+03  0.7561462E-02  0.1252266E+00
         -2   -1    0    0    0  501 -0.00000000000E+00  0.00000000000E+00  0.13190124406E+03  0.13190124406E+03  0.00000000000E+00 0.  1.
          2   -1    0    0  501    0  0.00000000000E+00 -0.00000000000E+00 -0.16116820076E+03  0.16116820076E+03  0.00000000000E+00 0. -1.
         25    2    1    2    0    0  0.83982297504E+02 -0.40466781550E+02  0.87690846934E+01  0.15625361769E+03  0.12509080498E+03 0.  0.
          5    1    3    3  502    0 -0.62119066289E+01  0.12514502474E+02 -0.38663034463E+02  0.41321945622E+02  0.41800000000E+01 0.  1.
         -5    1    3    3    0  502  0.90194204133E+02 -0.52981284024E+02  0.47432119156E+02  0.11493167207E+03  0.41800000000E+01 0.  1.
        -11    1    1    2    0    0  0.31448344993E+01  0.20265818135E+02 -0.42580663885E+02  0.47262102212E+02  0.00000000000E+00 0. -1.
         11    1    1    2    0    0 -0.87127132003E+02  0.20200963416E+02  0.45446224920E+01  0.89553724923E+02  0.00000000000E+00 0.  1.
</event>
<event>
 7    1  0.2822393E-009  0.1520364E+03  0.7561462E-02  0.1197993E+00
         -2   -1    0    0    0  501 -0.00000000000E+00  0.00000000000E+00  0.93112268321E+02  0.93112268321E+02  0.00000000000E+00 0.  1.
          2   -1    0    0  501    0  0.00000000000E+00 -0.00000000000E+00 -0.43021429324E+03  0.43021429324E+03  0.00000000000E+00 0. -1.
         25    2    1    2    0    0  0.71730825180E+02 -0.96563313442E+02 -0.32899891712E+03  0.37196518036E+03  0.12509205870E+03 0.  0.
          5    1    3    3  502    0 -0.31782698409E+02 -0.50844979959E+02 -0.10568286918E+03  0.12157998661E+03  0.41800000000E+01 0.  1.
         -5    1    3    3    0  502  0.10351352359E+03 -0.45718333483E+02 -0.22331604793E+03  0.25038519375E+03  0.41800000000E+01 0.  1.
        -11    1    1    2    0    0  0.80545643851E+01  0.12142285635E+02  0.26428857136E+02  0.30179390275E+02  0.00000000000E+00 0.  1.
         11    1    1    2    0    0 -0.79785389565E+02  0.84421027806E+02 -0.34531964941E+02  0.12118199093E+03  0.00000000000E+00 0. -1.
</event>
<event>
 7    1  0.2612321E-009  0.1510488E+03  0.7561462E-02  0.1199190E+00
          2   -1    0    0  501    0  0.00000000000E+00  0.00000000000E+00  0.13276502937E+03  0.13276502937E+03  0.00000000000E+00 0. -1.
         -2   -1    0    0    0  501 -0.00000000000E+00 -0.00000000000E+00 -0.22145714326E+03  0.22145714326E+03  0.00000000000E+00 0.  1.
         25    2    1    2    0    0 -0.44107771084E+02  0.96092040558E+02  0.35066884042E+02  0.16750166591E+03  0.12509175032E+03 0.  0.
          5    1    3    3  502    0 -0.10308749076E+02  0.12055882106E+03  0.18794682606E+02  0.12252106813E+03  0.41800000000E+01 0.  1.
         -5    1    3    3    0  502 -0.33799022009E+02 -0.24466780500E+02  0.16272201435E+02  0.44980597777E+02  0.41800000000E+01 0.  1.
        -11    1    1    2    0    0 -0.37674840005E+01 -0.90853365915E+02 -0.89736263494E+02  0.12775415852E+03  0.00000000000E+00 0.  1.
         11    1    1    2    0    0  0.47875255085E+02 -0.52386746427E+01 -0.34022734437E+02  0.58966348200E+02  0.00000000000E+00 0. -1.
</event>
<event>
 7    1  0.2612321E-009  0.1460361E+03  0.7561462E-02  0.1205430E+00
          1   -1    0    0  501    0  0.00000000000E+00  0.00000000000E+00  0.63263968240E+03  0.63263968240E+03  0.00000000000E+00 0. -1.
         -1   -1    0    0    0  501 -0.00000000000E+00 -0.00000000000E+00 -0.46405729065E+02  0.46405729065E+02  0.00000000000E+00 0.  1.
         25    2    1    2    0    0 -0.92218251148E+02 -0.79298006270E+02  0.40407753558E+03  0.44013489581E+03  0.12509073550E+03 0.  0.
          5    1    3    3  502    0 -0.58372347409E+02  0.33767537426E+01  0.57157746025E+02  0.81873156398E+02  0.41800000000E+01 0. -1.
         -5    1    3    3    0  502 -0.33845903739E+02 -0.82674760012E+02  0.34691978955E+03  0.35826173941E+03  0.41800000000E+01 0. -1.
        -11    1    1    2    0    0  0.37717618486E+01  0.51026638218E+02  0.10999287759E+03  0.12131107582E+03  0.00000000000E+00 0. -1.
         11    1    1    2    0    0  0.88446489300E+02  0.28271368052E+02  0.72163540164E+02  0.11759943984E+03  0.00000000000E+00 0.  1.
</event>
<event>
 7    1  0.2612321E-009  0.1077940E+03  0.7561462E-02  0.1264710E+00
          1   -1    0    0  501    0  0.00000000000E+00  0.00000000000E+00  0.15013235740E+03  0.15013235740E+03  0.00000000000E+00 0. -1.
         -1   -1    0    0    0  501 -0.00000000000E+00 -0.00000000000E+00 -0.18026742385E+03  0.18026742385E+03  0.00000000000E+00 0.  1.
         25    2    1    2    0    0  0.87519423850E+02  0.14792147485E+02  0.72632536818E+02  0.16971133388E+03  0.12509194325E+03 0.  0.
          5    1    3    3  502    0  0.87696095524E+02  0.17882992517E+02  0.10436822143E+03  0.13755218878E+03  0.41800000000E+01 0. -1.
         -5    1    3    3    0  502 -0.17667167446E+00 -0.30908450323E+01 -0.31735684617E+02  0.32159145107E+02  0.41800000000E+01 0. -1.
        -11    1    1    2    0    0 -0.98602471824E+01 -0.38379360094E+02 -0.18636197001E+02  0.43789354807E+02  0.00000000000E+00 0. -1.
         11    1    1    2    0    0 -0.77659176667E+02  0.23587212609E+02 -0.84131406266E+02  0.11689909255E+03  0.00000000000E+00 0.  1.
</event>
<event>
 6    1  0.2612321E-009  0.2497304E+03  0.7561462E-02  0.1113475E+00
         -1   -1    0    0    0  501 -0.00000000000E+00  0.00000000000E+00  0.32351288749E+03  0.32351288749E+03  0.00000000000E+00 0.  1.
          1   -1    0    0  501    0  0.00000000000E+00 -0.00000000000E+00 -0.22370556599E+03  0.22370556599E+03  0.00000000000E+00 0. -1.
          5    1    1    2  502    0  0.67471936468E+02  0.27149863384E+02  0.71334209888E+02  0.10195890934E+03  0.41800000000E+01 0.  1.
         -5    1    1    2    0  502  0.15029554886E+03 -0.10398121197E+03  0.64840881095E+02  0.19396560703E+03  0.41800000000E+01 0.  1.
        -11    1    1    2    0    0 -0.59424018929E+02 -0.14284842953E+02 -0.30995281002E+02  0.68527207796E+02  0.00000000000E+00 0. -1.
         11    1    1    2    0    0 -0.15834346640E+03  0.91116191536E+02 -0.53724884797E+01  0.18276672931E+03  0.00000000000E+00 0.  1.
</event>
<event>
 6    1  0.2612321E-009  0.1160978E+03  0.7561462E-02  0.1249677E+00
          3   -1    0    0  501    0  0.00000000000E+00  0.00000000000E+00  0.29696074575E+02  0.29696074575E+02  0.00000000000E+00 0. -1.
         -3   -1    0    0    0  501 -0.00000000000E+00 -0.00000000000E+00 -0.69435282103E+03  0.69435282103E+03  0.00000000000E+00 0.  1.
          5    1    1    2  502    0 -0.16449314080E+02  0.75079352068E+01 -0.25292040693E+03  0.25360038183E+03  0.41800000000E+01 0. -1.
         -5    1    1    2    0  502 -0.14801017621E+02 -0.94862654945E+02 -0.14874188020E+03  0.17708645558E+03  0.41800000000E+01 0. -1.
        -11    1    1    2    0    0  0.54940677925E+02  0.60370548061E+02 -0.23195274369E+03  0.24589663778E+03  0.00000000000E+00 0.  1.
         11    1    1    2    0    0 -0.23690346223E+02  0.26984171677E+02 -0.31041715637E+02  0.47465420413E+02  0.00000000000E+00 0. -1.
</event>
<event>
 7    1  0.2612321E-009  0.1798251E+03  0.7561462E-02  0.1167972E+00
         -1   -1    0    0    0  501 -0.00000000000E+00  0.00000000000E+00  0.83810370143E+03  0.83810370143E+03  0.00000000000E+00 0.  1.
          1   -1    0    0  501    0  0.00000000000E+00 -0.00000000000E+00 -0.61733534188E+02  0.61733534188E+02  0.00000000000E+00 0. -1.
         25    2    1    2    0    0 -0.23887654733E+02 -0.15463665257E+03  0.64751190572E+03  0.67779235163E+03  0.12509072515E+03 0.  0.
          5    1    3    3  502    0  0.34541893832E+02 -0.13347934494E+03  0.43582879472E+03  0.45713683801E+03  0.41800000000E+01 0.  1.
         -5    1    3    3    0  502 -0.58429548565E+02 -0.21157307628E+02  0.21168311099E+03  0.22065551362E+03  0.41800000000E+01 0.  1.
        -11    1    1    2    0    0 -0.39525280562E+01  0.74281422117E+02  0.87802754927E+01  0.74902906402E+02  0.00000000000E+00 0.  1.
         11    1    1    2    0    0  0.27840182789E+02  0.80355230450E+02  0.12007798604E+03  0.14714197759E+03  0.00000000000E+00 0. -1.
</event>
<event>
 7    1  0.2805612E-009  0.7885394E+02  0.7561462E-02  0.1332336E+00
         -2   -1    0    0    0  501 -0.00000000000E+00  0.00000000000E+00  0.13110419146E+02  0.13110419146E+02  0.00000000000E+00 0.  1.
          2   -1    0    0  501    0  0.00000000000E+00 -0.00000000000E+00 -0.14745649960E+04  0.14745649960E+04  0.00000000000E+00 0. -1.
         25    2    1    2    0    0  0.13445211720E+02 -0.12144667632E+02 -0.12524100417E+04  0.12587718566E+04  0.12508959901E+03 0.  0.
          5    1    3    3  502    0  0.48486813370E+02 -0.66631158561E+00 -0.11253866963E+04  0.11264386817E+04  0.41800000000E+01 0. -1.
         -5    1    3    3    0  502 -0.35041601650E+02 -0.11478356047E+02 -0.12702334542E+03  0.13233317492E+03  0.41800000000E+01 0. -1.
        -11    1    1    2    0    0  0.28724445153E+02  0.49517540322E+01 -0.20671312122E+02  0.35733972102E+02  0.00000000000E+00 0.  1.
         11    1    1    2    0    0 -0.42169656873E+02  0.71929136000E+01 -0.18837322310E+03  0.19316958650E+03  0.00000000000E+00 0. -1.
</event>
<event>
 7    1  0.2612321E-009  0.1032503E+03  0.7561462E-02  0.1273606E+00
         -2   -1    0    0    0  501 -0.00000000000E+00  0.00000000000E+00  0.26581771544E+03  0.26581771544E+03  0.00000000000E+00 0.  1.
          2   -1    0    0  501    0  0.00000000000E+00 -0.00000000000E+00 -0.75508329435E+02  0.75508329435E+02  0.00000000000E+00 0. -1.
         25    2    1    2    0    0 -0.74855959018E+00  0.90481533761E+02  0.92629567643E+02  0.18003925651E+03  0.12508568579E+03 0.  0.
          5    1    3    3  502    0  0.10493697606E+02  0.76256844097E+00 -0.27433674826E+02  0.29677906168E+02  0.41800000000E+01 0. -1.
         -5    1    3    3    0  502 -0.11242257197E+02  0.89718965320E+02  0.12006324247E+03  0.15036135034E+03  0.41800000000E+01 0. -1.
        -11    1    1    2    0    0 -0.21353444029E+02 -0.74197841596E+02  0.21256176386E+02  0.80081922454E+02  0.00000000000E+00 0. -1.
         11    1    1    2    0    0  0.22102003619E+02 -0.16283692165E+02  0.76423641971E+02  0.81204865905E+02  0.00000000000E+00 0.  1.
</event>
<event>
 7    1  0.2612321E-009  0.1134751E+03  0.7561462E-02  0.1254267E+00
         -1   -1    0    0    0  501 -0.00000000000E+00  0.00000000000E+00  0.27170608560E+03  0.27170608560E+03  0.00000000000E+00 0.  1.
          1   -1    0    0  501    0  0.00000000000E+00 -0.00000000000E+00 -0.60145659676E+02  0.60145659676E+02  0.00000000000E+00 0. -1.
         25    2    1    2    0    0  0.39378007738E+02  0.39185895911E+01  0.18152161167E+03  0.22397039279E+03  0.12508660402E+03 0.  0.
          5    1    3    3  502    0 -0.12749168129E+02  0.51198690389E+02  0.11694987008E+03  0.12836896703E+03  0.41800000000E+01 0. -1.
         -5    1    3    3    0  502  0.52127175867E+02 -0.47280100798E+02  0.64571741596E+02  0.95601425764E+02  0.41800000000E+01 0. -1.
        -11    1    1    2    0    0  0.24819842459E+02  0.23067715016E+02  0.11967395634E+02  0.35935534141E+02  0.00000000000E+00 0. -1.
         11    1    1    2    0    0 -0.64197850198E+02 -0.26986304607E+02  0.18071418621E+02  0.71945818345E+02  0.00000000000E+00 0.  1.
</event>
<event>
 7    1  0.2612321E-009  0.7759248E+02  0.7561462E-02  0.1336026E+00
         -1   -1    0    0    0  501 -0.00000000000E+00  0.00000000000E+00  0.27943915169E+02  0.27943915169E+02  0.00000000000E+00 0.  1.
          1   -1    0    0  501    0  0.00000000000E+00 -0.00000000000E+00 -0.44548456137E+03  0.44548456137E+03  0.00000000000E+00 0. -1.
         25    2    1    2    0    0 -0.18105572296E+02 -0.52515271094E+01 -0.28229886556E+03  0.30934533703E+03  0.12508596149E+03 0.  0.
          5    1    3    3  502    0  0.26921851585E+02 -0.45122698831E+02 -0.64193263875E+02  0.83060770340E+02  0.41800000000E+01 0. -1.
         -5    1    3    3    0  502 -0.45027423881E+02  0.39871171722E+02 -0.21810560168E+03  0.22628456669E+03  0.41800000000E+01 0. -1.
        -11    1    1    2    0    0  0.29768578506E+02  0.10389839065E+01 -0.14517218981E+03  0.14819653319E+03  0.00000000000E+00 0. -1.
         11    1    1    2    0    0 -0.11663006210E+02  0.42125432030E+01  0.99304091714E+01  0.15886606321E+02  0.00000000000E+00 0.  1.
</event>
<event>
 7    1  0.2612321E-009  0.8564081E+02  0.7561462E-02  0.1313765E+00
         -1   -1    0    0    0  501 -0.00000000000E+00  0.00000000000E+00  0.63717814004E+02  0.63717814004E+02  0.00000000000E+00 0.  1.
          1   -1    0    0  501    0  0.00000000000E+00 -0.00000000000E+00 -0.18695171577E+03  0.18695171577E+03  0.00000000000E+00 0. -1.
         25    2    1    2    0    0 -0.31084670504E+01  0.10599434743E+01 -0.87389051135E+02  0.15262777970E+03  0.12509039463E+03 0.  0.
          5    1    3    3  502    0  0.36731871046E+02  0.25319886276E+02  0.87809742426E+01  0.45660758866E+02  0.41800000000E+01 0.  1.
         -5    1    3    3    0  502 -0.39840338097E+02 -0.24259942801E+02 -0.96170025378E+02  0.10696702083E+03  0.41800000000E+01 0.  1.
        -11    1    1    2    0    0 -0.24667416645E+02  0.29426911609E+02 -0.41354932897E+02  0.56432747990E+02  0.00000000000E+00 0. -1.
         11    1    1    2    0    0  0.27775883695E+02 -0.30486855083E+02  0.55100822674E+01  0.41609002085E+02  0.00000000000E+00 0.  1.
</event>
<event>
 7    1  0.2612321E-009  0.1121677E+03  0.7561462E-02  0.1256608E+00
         -2   -1    0    0    0  501 -0.00000000000E+00  0.00000000000E+00  0.51547286179E+03  0.51547286179E+03  0.00000000000E+00 0. -1.
          2   -1    0    0  501    0  0.00000000000E+00 -0.00000000000E+00 -0.29315864434E+02  0.29315864434E+02  0.00000000000E+00 0.  1.
         25    2    1    2    0    0  0.61135031828E+02  0.17467996852E+01  0.24231077677E+03  0.27947633637E+03  0.12510782000E+03 0.  0.
          5    1    3    3  502    0 -0.38106136757E+02  0.87802226203E+01  0.77817810395E+02  0.87190905389E+02  0.41800000000E+01 0.  1.
         -5    1    3    3    0  502  0.99241168586E+02 -0.70334229351E+01  0.16449296637E+03  0.19228543098E+03  0.41800000000E+01 0.  1.
        -11    1    1    2    0    0 -0.31574775339E+02 -0.30709601191E+02  0.20089931777E+03  0.20567105272E+03  0.00000000000E+00 0.  1.
         11    1    1    2    0    0 -0.29560256489E+02  0.28962801506E+02  0.42946902820E+02  0.59641337147E+02  0.00000000000E+00 0. -1.
</event>
<event>
 7    1  0.2612321E-009  0.1246211E+03  0.7561462E-02  0.1235663E+00
         -2   -1    0    0    0  501 -0.00000000000E+00  0.00000000000E+00  0.58708881908E+03  0.58708881908E+03  0.00000000000E+00 0.  1.
          2   -1    0    0  501    0  0.00000000000E+00 -0.00000000000E+00 -0.38990162371E+02  0.38990162371E+02  0.00000000000E+00 0. -1.
         25    2    1    2    0    0  0.80493687875E+02  0.66225986298E+02  0.26479303098E+03  0.31085069053E+03  0.12509071707E+03 0.  0.
          5    1    3    3  502    0  0.87327109798E+02  0.34456211379E+02  0.26155853182E+03  0.27792731527E+03  0.41800000000E+01 0. -1.
         -5    1    3    3    0  502 -0.68334219232E+01  0.31769774920E+02  0.32344991690E+01  0.32923375260E+02  0.41800000000E+01 0. -1.
        -11    1    1    2    0    0 -0.15715416338E+02  0.12838895347E+02  0.84493343160E+01  0.21981874233E+02  0.00000000000E+00 0. -1.
         11    1    1    2    0    0 -0.64778271536E+02 -0.79064881645E+02  0.27485629141E+03  0.29324641669E+03  0.00000000000E+00 0.  1.
</event>
<event>
 7    1  0.2612321E-009  0.1035502E+03  0.7561462E-02  0.1273003E+00
         -1   -1    0    0    0  501 -0.00000000000E+00  0.00000000000E+00  0.14583428096E+03  0.14583428096E+03  0.00000000000E+00 0.  1.
          1   -1    0    0  501    0  0.00000000000E+00 -0.00000000000E+00 -0.81200862339E+02  0.81200862339E+02  0.00000000000E+00 0. -1.
         25    2    1    2    0    0  0.49894222240E+01  0.34517935669E+01  0.57512063323E+02  0.13781553648E+03  0.12509466597E+03 0.  0.
          5    1    3    3  502    0 -0.16129844843E+02 -0.57853336504E+02  0.25510280745E+02  0.65386751434E+02  0.41800000000E+01 0.  1.
         -5    1    3    3    0  502  0.21119267067E+02  0.61305130071E+02  0.32001782578E+02  0.72428785042E+02  0.41800000000E+01 0.  1.
        -11    1    1    2    0    0  0.33995964962E+02  0.16874607661E+02  0.20664824863E+02  0.43214731331E+02  0.00000000000E+00 0.  1.
         11    1    1    2    0    0 -0.38985387186E+02 -0.20326401228E+02 -0.13543469568E+02  0.46004875490E+02  0.00000000000E+00 0. -1.
</event>
<event>
 7    1  0.2612321E-009  0.1110770E+03  0.7561462E-02  0.1258588E+00
         -1   -1    0    0    0  501 -0.00000000000E+00  0.00000000000E+00  0.31780889472E+03  0.31780889472E+03  0.00000000000E+00 0.  1.
          1   -1    0    0  501    0  0.00000000000E+00 -0.00000000000E+00 -0.62280242284E+02  0.62280242284E+02  0.00000000000E+00 0. -1.
         25    2    1    2    0    0  0.44088941231E+02  0.96979096732E+01  0.37025994690E+02  0.13804303791E+03  0.12508825621E+03 0.  0.
          5    1    3    3  502    0 -0.72635573164E+01  0.51190541830E+02  0.48369564542E+02  0.70924734837E+02  0.41800000000E+01 0. -1.
         -5    1    3    3    0  502  0.51352498548E+02 -0.41492632157E+02 -0.11343569851E+02  0.67118303073E+02  0.41800000000E+01 0. -1.
        -11    1    1    2    0    0 -0.42078052954E+01  0.40105568596E+02  0.84690222376E+02  0.93800831680E+02  0.00000000000E+00 0. -1.
         11    1    1    2    0    0 -0.39881135936E+02 -0.49803478269E+02  0.13381243537E+03  0.14824526741E+03  0.00000000000E+00 0.  1.
</event>
<event>
 7    1  0.2612321E-009  0.1582520E+03  0.7561462E-02  0.1190684E+00
          1   -1    0    0  501    0  0.00000000000E+00  0.00000000000E+00  0.22267228128E+04  0.22267228128E+04  0.00000000000E+00 0. -1.
         -1   -1    0    0    0  501 -0.00000000000E+00 -0.00000000000E+00 -0.16834901092E+02  0.16834901092E+02  0.00000000000E+00 0.  1.
         25    2    1    2    0    0  0.13381313531E+03  0.59251391819E+02  0.15272652799E+04  0.15393512631E+04  0.12508554466E+03 0.  0.
          5    1    3    3  502    0 -0.79709606400E+00  0.20829390003E+01  0.64647019567E+03  0.64648755617E+03  0.41800000000E+01 0.  1.
         -5    1    3    3    0  502  0.13461023137E+03  0.57168452819E+02  0.88079508421E+03  0.89286370693E+03  0.41800000000E+01 0.  1.
        -11    1    1    2    0    0 -0.13383759501E+02 -0.41653985039E+02  0.10237691739E+03  0.11133378958E+03  0.00000000000E+00 0.  1.
         11    1    1    2    0    0 -0.12042937581E+03 -0.17597406780E+02  0.58024571446E+03  0.59287266123E+03  0.00000000000E+00 0. -1.
</event>
<event>
 7    1  0.2612321E-009  0.9244871E+02  0.7561462E-02  0.1297028E+00
          4   -1    0    0  501    0  0.00000000000E+00  0.00000000000E+00  0.97624460960E+02  0.97624460960E+02  0.00000000000E+00 0. -1.
         -4   -1    0    0    0  501 -0.00000000000E+00 -0.00000000000E+00 -0.14637413221E+03  0.14637413221E+03  0.00000000000E+00 0.  1.
         25    2    1    2    0    0  0.13968314514E+02 -0.42504318597E+02  0.14493717195E+01  0.13286651117E+03  0.12509867386E+03 0.  0.
          5    1    3    3  502    0 -0.29759652399E+02 -0.24685926160E+02  0.51102801282E+02  0.64218381793E+02  0.41800000000E+01 0.  1.
         -5    1    3    3    0  502  0.43727966913E+02 -0.17818392437E+02 -0.49653429562E+02  0.68648129375E+02  0.41800000000E+01 0.  1.
        -11    1    1    2    0    0  0.35996578843E+02  0.30586005115E+02 -0.29875225634E+02  0.55890844545E+02  0.00000000000E+00 0.  1.
         11    1    1    2    0    0 -0.49964893357E+02  0.11918313482E+02 -0.20323817331E+02  0.55241237452E+02  0.00000000000E+00 0. -1.
</event>
<event>
 7    1  0.2612321E-009  0.1607227E+03  0.7561462E-02  0.1187883E+00
          1   -1    0    0  501    0  0.00000000000E+00  0.00000000000E+00  0.42357250869E+03  0.42357250869E+03  0.00000000000E+00 0. -1.
         -1   -1    0    0    0  501 -0.00000000000E+00 -0.00000000000E+00 -0.79654694037E+02  0.79654694037E+02  0.00000000000E+00 0.  1.
         25    2    1    2    0    0 -0.10747424147E+03 -0.10123812449E+03  0.17632454892E+03  0.26179905004E+03  0.12509406710E+03 0.  0.
          5    1    3    3  502    0 -0.30859774957E+02 -0.28306663750E+02 -0.13716719170E+02  0.44263006087E+02  0.41800000000E+01 0. -1.
         -5    1    3    3    0  502 -0.76614466511E+02 -0.72931460744E+02  0.19004126809E+03  0.21753604396E+03  0.41800000000E+01 0. -1.
        -11    1    1    2    0    0 -0.16495319979E+02  0.77072146227E+01  0.13592212185E+02  0.22721024857E+02  0.00000000000E+00 0.  1.
         11    1    1    2    0    0  0.12396956145E+03  0.93530909871E+02  0.15400105356E+03  0.21870712783E+03  0.00000000000E+00 0. -1.
</event>
<event>
 7    1  0.2612321E-009  0.1199071E+03  0.7561462E-02  0.1243250E+00
          1   -1    0    0  501    0  0.00000000000E+00  0.00000000000E+00  0.13179620364E+04  0.13179620364E+04  0.00000000000E+00 0. -1.
         -1   -1    0    0    0  501 -0.00000000000E+00 -0.00000000000E+00 -0.19389305567E+02  0.19389305567E+02  0.00000000000E+00 0.  1.
         25    2    1    2    0    0 -0.84863940462E+02  0.38069421149E+02  0.96511465820E+03  0.97762138640E+03  0.12508438135E+03 0.  0.
          5    1    3    3  502    0 -0.45346706111E+02  0.54327412077E+02  0.21720484717E+03  0.22848021685E+03  0.41800000000E+01 0. -1.
         -5    1    3    3    0  502 -0.39517234351E+02 -0.16257990928E+02  0.74790981103E+03  0.74914116955E+03  0.41800000000E+01 0. -1.
        -11    1    1    2    0    0  0.77627863906E+01  0.25126971771E+02  0.13615314964E+03  0.13866977219E+03  0.00000000000E+00 0. -1.
         11    1    1    2    0    0  0.77101154071E+02 -0.63196392920E+02  0.19730492302E+03  0.22106018340E+03  0.00000000000E+00 0.  1.
</event>
<event>
 7    1  0.2612321E-009  0.1545621E+03  0.7561462E-02  0.1194977E+00
         -1   -1    0    0    0  501 -0.00000000000E+00  0.00000000000E+00  0.86232419814E+02  0.86232419814E+02  0.00000000000E+00 0.  1.
          1   -1    0    0  501    0  0.00000000000E+00 -0.00000000000E+00 -0.35358559834E+03  0.35358559834E+03  0.00000000000E+00 0. -1.
         25    2    1    2    0    0  0.10846059785E+03 -0.70067280843E+02 -0.18897847149E+03  0.26083195168E+03  0.12508924495E+03 0.  0.
          5    1    3    3  502    0  0.13633967344E+03 -0.65142591009E+02 -0.15914893465E+03  0.21949469132E+03  0.41800000000E+01 0.  1.
         -5    1    3    3    0  502 -0.27879075597E+02 -0.49246898337E+01 -0.29829536842E+02  0.41337260363E+02  0.41800000000E+01 0.  1.
        -11    1    1    2    0    0 -0.24478881664E+02  0.12140708631E+02  0.22588521573E+02  0.35452133369E+02  0.00000000000E+00 0.  1.
         11    1    1    2    0    0 -0.83981716183E+02  0.57926572211E+02 -0.10096322861E+03  0.14353393311E+03  0.00000000000E+00 0. -1.
</event>
<event>
 7    1  0.2612321E-009  0.1183359E+03  0.7561462E-02  0.1245868E+00
         -2   -1    0    0    0  501 -0.00000000000E+00  0.00000000000E+00  0.16444802279E+02  0.16444802279E+02  0.00000000000E+00 0. -1.
          2   -1    0    0  501    0  0.00000000000E+00 -0.00000000000E+00 -0.98968914036E+03  0.98968914036E+03  0.00000000000E+00 0.  1.
         25    2    1    2    0    0  0.56704537714E+02 -0.26703928518E+02 -0.61254678693E+03  0.62832394493E+03  0.12509560022E+03 0.  0.
          5    1    3    3  502    0 -0.25575178145E+02  0.29153188110E+02 -0.13543952784E+03  0.14094444372E+03  0.41800000000E+01 0.  1.
         -5    1    3    3    0  502  0.82279715858E+02 -0.55857116627E+02 -0.47710725909E+03  0.48737950121E+03  0.41800000000E+01 0.  1.
        -11    1    1    2    0    0 -0.62526976433E+02  0.46225215488E+02 -0.33996460672E+03  0.34874392776E+03  0.00000000000E+00 0.  1.
         11    1    1    2    0    0  0.58224387195E+01 -0.19521286970E+02 -0.20732944435E+02  0.29066069954E+02  0.00000000000E+00 0. -1.
</event>
<event>
 7    1  0.2612321E-009  0.1880739E+03  0.7561462E-02  0.1160210E+00
          4   -1    0    0  501    0  0.00000000000E+00  0.00000000000E+00  0.98106715188E+02  0.98106715188E+02  0.00000000000E+00 0. -1.
         -4   -1    0    0    0  501 -0.00000000000E+00 -0.00000000000E+00 -0.42929270930E+03  0.42929270930E+03  0.00000000000E+00 0.  1.
         25    2    1    2    0    0  0.11710718482E+03  0.12744297038E+03 -0.15455358682E+03  0.26361204031E+03  0.12509473674E+03 0.  0.
          5    1    3    3  502    0  0.11851773111E+03  0.10418154620E+03 -0.17255832567E+03  0.23386768762E+03  0.41800000000E+01 0.  1.
         -5    1    3    3    0  502 -0.14105462967E+01  0.23261424179E+02  0.18004738845E+02  0.29744352683E+02  0.41800000000E+01 0.  1.
        -11    1    1    2    0    0 -0.45502543818E+02 -0.11266205814E+03 -0.12469445994E+03  0.17410321415E+03  0.00000000000E+00 0.  1.
         11    1    1    2    0    0 -0.71604641000E+02 -0.14780912244E+02 -0.51937947348E+02  0.89684170031E+02  0.00000000000E+00 0. -1.
</event>
<event>
 7    1  0.2612321E-009  0.1676372E+03  0.7561462E-02  0.1180335E+00
         -1   -1    0    0    0  501 -0.00000000000E+00  0.00000000000E+00  0.24517041339E+03  0.24517041339E+03  0.00000000000E+00 0.  1.
          1   -1    0    0  501    0  0.00000000000E+00 -0.00000000000E+00 -0.13781557134E+03  0.13781557134E+03  0.00000000000E+00 0. -1.
         25    2    1    2    0    0  0.13368408337E+03 -0.31835829737E+02  0.11530474471E+03  0.21869486560E+03  0.12508919171E+03 0.  0.
          5    1    3    3  502    0  0.11776571074E+03 -0.74285574338E+02  0.96367295223E+02  0.16938487881E+03  0.41800000000E+01 0.  1.
         -5    1    3    3    0  502  0.15918372635E+02  0.42449744600E+02  0.18937449489E+02  0.49309986789E+02  0.41800000000E+01 0.  1.
        -11    1    1    2    0    0 -0.60351480057E+01  0.21554133855E+02  0.23468472457E+02  0.32431048351E+02  0.00000000000E+00 0.  1.
         11    1    1    2    0    0 -0.12764893537E+03  0.10281695882E+02 -0.31418375126E+02  0.13186007078E+03  0.00000000000E+00 0. -1.
</event>
<event>
 6    1  0.2612321E-009  0.1165240E+03  0.7561462E-02  0.1248944E+00
          2   -1    0    0  501    0  0.00000000000E+00  0.00000000000E+00  0.83204076619E+02  0.83204076619E+02  0.00000000000E+00 0. -1.
         -2   -1    0    0    0  501 -0.00000000000E+00 -0.00000000000E+00 -0.24689803055E+03  0.24689803055E+03  0.00000000000E+00 0.  1.
          5    1    1    2  502    0  0.17096950098E+02  0.99850191264E+02 -0.11712374651E+03  0.15491226805E+03  0.41800000000E+01 0.  1.
         -5    1    1    2    0  502  0.94739309956E+01 -0.11145034771E+02  0.22649260825E+02  0.27284218597E+02  0.41800000000E+01 0.  1.
        -11    1    1    2    0    0 -0.41164452957E+02 -0.19195189842E+02 -0.61511383725E+02  0.76463179557E+02  0.00000000000E+00 0.  1.
         11    1    1    2    0    0  0.14593571863E+02 -0.69509966651E+02 -0.77080845267E+01  0.71442440962E+02  0.00000000000E+00 0. -1.
</event>
<event>
 7    1  0.2612321E-009  0.1548819E+03  0.7561462E-02  0.1194599E+00
          2   -1    0    0  501    0  0.00000000000E+00  0.00000000000E+00  0.75035704400E+03  0.75035704400E+03  0.00000000000E+00 0. -1.
         -2   -1    0    0    0  501 -0.00000000000E+00 -0.00000000000E+00 -0.73644559644E+02  0.73644559644E+02  0.00000000000E+00 0.  1.
         25    2    1    2    0    0  0.14293244932E+03  0.75474930022E+01  0.60296096395E+03  0.63221529937E+03  0.12509041126E+03 0.  0.
          5    1    3    3  502    0 -0.91789758240E+01 -0.73232183821E+01  0.21282340450E+03  0.21318807900E+03  0.41800000000E+01 0.  1.
         -5    1    3    3    0  502  0.15211142514E+03  0.14870711384E+02  0.39013755945E+03  0.41902722037E+03  0.41800000000E+01 0.  1.
        -11    1    1    2    0    0 -0.28467085939E+02  0.61501917345E+01  0.70700273838E+02  0.76463903647E+02  0.00000000000E+00 0. -1.
         11    1    1    2    0    0 -0.11446536338E+03 -0.13697684737E+02  0.30512465626E+01  0.11532240062E+03  0.00000000000E+00 0.  1.
</event>
<event>
 7    1  0.2612321E-009  0.1063941E+03  0.7561462E-02  0.1267397E+00
         -2   -1    0    0    0  501 -0.00000000000E+00  0.00000000000E+00  0.95739614621E+02  0.95739614621E+02  0.00000000000E+00 0.  1.
          2   -1    0    0  501    0  0.00000000000E+00 -0.00000000000E+00 -0.18448423139E+03  0.18448423139E+03  0.00000000000E+00 0. -1.
         25    2    1    2    0    0 -0.19678436233E+02  0.68503563957E+02 -0.72533163822E+02  0.16120451870E+03  0.12508340364E+03 0.  0.
          5    1    3    3  502    0 -0.66956922615E+02  0.32504317498E+02 -0.10642537933E+02  0.75302696869E+02  0.41800000000E+01 0.  1.
         -5    1    3    3    0  502  0.47278486382E+02  0.35999246459E+02 -0.61890625889E+02  0.85901821827E+02  0.41800000000E+01 0.  1.
        -11    1    1    2    0    0 -0.95020348555E+01 -0.16878960455E+02 -0.47981883355E+02  0.51744073117E+02  0.00000000000E+00 0. -1.
         11    1    1    2    0    0  0.29180471088E+02 -0.51624603502E+02  0.31770430405E+02  0.67275254201E+02  0.00000000000E+00 0.  1.
</event>
<event>
 7    1  0.2612321E-009  0.1307087E+03  0.7561462E-02  0.1226408E+00
          1   -1    0    0  501    0  0.00000000000E+00  0.00000000000E+00  0.72287175908E+02  0.72287175908E+02  0.00000000000E+00 0. -1.
         -1   -1    0    0    0  501 -0.00000000000E+00 -0.00000000000E+00 -0.67244521724E+03  0.67244521724E+03  0.00000000000E+00 0.  1.
         25    2    1    2    0    0 -0.30831436835E+02 -0.12069282550E+03 -0.55628345831E+03  0.58362244751E+03  0.12508612881E+03 0.  0.
          5    1    3    3  502    0 -0.29478029369E+02 -0.63821383054E+02 -0.92060958431E+02  0.11590865204E+03  0.41800000000E+01 0.  1.
         -5    1    3    3    0  502 -0.13534074653E+01 -0.56871442445E+02 -0.46422249988E+03  0.46771379547E+03  0.41800000000E+01 0.  1.
        -11    1    1    2    0    0  0.26517465514E+02  0.20119121849E+02 -0.50213822653E+02  0.60244360954E+02  0.00000000000E+00 0.  1.
         11    1    1    2    0    0  0.43139713205E+01  0.10057370365E+03  0.63392396334E+01  0.10086558468E+03  0.00000000000E+00 0. -1.
</event>
<event>
 7    1  0.2612321E-009  0.1004266E+03  0.7561462E-02  0.1279401E+00
         -2   -1    0    0    0  501 -0.00000000000E+00  0.00000000000E+00  0.32064783645E+02  0.32064783645E+02  0.00000000000E+00 0.  1.
          2   -1    0    0  501    0  0.00000000000E+00 -0.00000000000E+00 -0.85331089342E+03  0.85331089342E+03  0.00000000000E+00 0. -1.
         25    2    1    2    0    0 -0.53246623622E+02  0.26851162008E+02 -0.72770881916E+03  0.74078499949E+03  0.12508438016E+03 0.  0.
          5    1    3    3  502    0  0.27788060379E+02 -0.26871692252E+02 -0.27498089071E+03  0.27771609028E+03  0.41800000000E+01 0.  1.
         -5    1    3    3    0  502 -0.81034684001E+02  0.53722854260E+02 -0.45272792845E+03  0.46306890922E+03  0.41800000000E+01 0.  1.
        -11    1    1    2    0    0  0.27566900695E+02 -0.27542270981E+02 -0.10820581410E+03  0.11500873405E+03  0.00000000000E+00 0. -1.
         11    1    1    2    0    0  0.25679722927E+02  0.69110897288E+00  0.14668523481E+02  0.29581943519E+02  0.00000000000E+00 0.  1.
</event>
<event>
 7    1  0.2612321E-009  0.1721321E+03  0.7561462E-02  0.1175642E+00
          1   -1    0    0  501    0  0.00000000000E+00  0.00000000000E+00  0.31816576110E+03  0.31816576110E+03  0.00000000000E+00 0. -1.
         -1   -1    0    0    0  501 -0.00000000000E+00 -0.00000000000E+00 -0.98267749155E+02  0.98267749155E+02  0.00000000000E+00 0.  1.
         25    2    1    2    0    0  0.82594563608E+02 -0.11199613513E+03  0.13169510684E+03  0.22881454053E+03  0.12508995391E+03 0.  0.
          5    1    3    3  502    0 -0.23211002822E+02  0.78850016362E+01  0.31268503840E+02  0.39951415935E+02  0.41800000000E+01 0. -1.
         -5    1    3    3    0  502  0.10580556643E+03 -0.11988113677E+03  0.10042660300E+03  0.18886312459E+03  0.41800000000E+01 0. -1.
        -11    1    1    2    0    0 -0.55352485735E+02  0.13118681644E+02  0.80506714727E+01  0.57452683108E+02  0.00000000000E+00 0.  1.
         11    1    1    2    0    0 -0.27242077874E+02  0.98877453490E+02  0.80152233626E+02  0.13016628661E+03  0.00000000000E+00 0. -1.
</event>
<event>
 7    1  0.2612321E-009  0.9479155E+02  0.7561462E-02  0.1291646E+00
         -1   -1    0    0    0  501 -0.00000000000E+00  0.00000000000E+00  0.56599600259E+02  0.56599600259E+02  0.00000000000E+00 0.  1.
          1   -1    0    0  501    0  0.00000000000E+00 -0.00000000000E+00 -0.23404222326E+03  0.23404222326E+03  0.00000000000E+00 0. -1.
         25    2    1    2    0    0 -0.26925361545E+02 -0.12172268001E+02 -0.68360572247E+02  0.14557956174E+03  0.12508837579E+03 0.  0.
          5    1    3    3  502    0  0.27968044957E+02  0.22161350238E+02 -0.72136844263E+02  0.80588669695E+02  0.41800000000E+01 0. -1.
         -5    1    3    3    0  502 -0.54893406501E+02 -0.34333618239E+02  0.37762720161E+01  0.64990892047E+02  0.41800000000E+01 0. -1.
        -11    1    1    2    0    0  0.31359452044E+02  0.45440909572E+02 -0.39744590718E+02  0.68028846724E+02  0.00000000000E+00 0.  1.
         11    1    1    2    0    0 -0.44340904995E+01 -0.33268641571E+02 -0.69337460039E+02  0.77033415056E+02  0.00000000000E+00 0. -1.
</event>
<event>
 7    1  0.2612321E-009  0.1012691E+03  0.7561462E-02  0.1277650E+00
         -3   -1    0    0    0  501 -0.00000000000E+00  0.00000000000E+00  0.11118188695E+02  0.11118188695E+02  0.00000000000E+00 0.  1.
          3   -1    0    0  501    0  0.00000000000E+00 -0.00000000000E+00 -0.15548580396E+04  0.15548580396E+04  0.00000000000E+00 0. -1.
         25    2    1    2    0    0  0.36486655235E+02 -0.34116081835E+02 -0.11985818924E+04  0.12061263362E+04  0.12508798054E+03 0.  0.
          5    1    3    3  502    0  0.54591416028E+02  0.21492917568E+02 -0.30479712516E+03  0.31042056652E+03  0.41800000000E+01 0. -1.
         -5    1    3    3    0  502 -0.18104760793E+02 -0.55608999403E+02 -0.89378476727E+03  0.89570576965E+03  0.41800000000E+01 0. -1.
        -11    1    1    2    0    0 -0.14041863356E+02  0.53573878213E+02 -0.30450569600E+03  0.30950129765E+03  0.00000000000E+00 0. -1.
         11    1    1    2    0    0 -0.22444791879E+02 -0.19457796378E+02 -0.40652262522E+02  0.50348594525E+02  0.00000000000E+00 0.  1.
</event>
<event>
 7    1  0.2612321E-009  0.1159076E+03  0.7561462E-02  0.1250005E+00
          3   -1    0    0  501    0  0.00000000000E+00  0.00000000000E+00  0.34447521533E+03  0.34447521533E+03  0.00000000000E+00 0. -1.
         -3   -1    0    0    0  501 -0.00000000000E+00 -0.00000000000E+00 -0.44382640507E+02  0.44382640507E+02  0.00000000000E+00 0.  1.
         25    2    1    2    0    0 -0.45082915237E+02 -0.10969295679E+02  0.23409656301E+03  0.26944958042E+03  0.12509628643E+03 0.  0.
          5    1    3    3  502    0 -0.38384615107E+02 -0.66592447346E+02  0.12685192991E+03  0.14838064982E+03  0.41800000000E+01 0. -1.
         -5    1    3    3    0  502 -0.66983001300E+01  0.55623151667E+02  0.10724463310E+03  0.12106893060E+03  0.41800000000E+01 0. -1.
        -11    1    1    2    0    0 -0.53999578730E+01  0.40040321723E+02  0.34813509463E+02  0.53332610567E+02  0.00000000000E+00 0. -1.
         11    1    1    2    0    0  0.50482873110E+02 -0.29071026044E+02  0.31182502345E+02  0.66075664849E+02  0.00000000000E+00 0.  1.
</event>
<event>
 7    1  0.2612321E-009  0.1731197E+03  0.7561462E-02  0.1174633E+00
          1   -1    0    0  501    0  0.00000000000E+00  0.00000000000E+00  0.20248786119E+03  0.20248786119E+03  0.00000000000E+00 0. -1.
         -1   -1    0    0    0  501 -0.00000000000E+00 -0.00000000000E+00 -0.18958037124E+03  0.18958037124E+03  0.00000000000E+00 0.  1.
         25    2    1    2    0    0 -0.13889818816E+03 -0.77106157848E+02 -0.45739793838E+02  0.20731180581E+03  0.12509192555E+03 0.  0.
          5    1    3    3  502    0 -0.39006511896E+02 -0.77969921817E+02  0.17483478927E+02  0.89016633917E+02  0.41800000000E+01 0. -1.
         -5    1    3    3    0  502 -0.99891676262E+02  0.86376396904E+00 -0.63223272765E+02  0.11829517190E+03  0.41800000000E+01 0. -1.
        -11    1    1    2    0    0  0.29879820820E+02  0.13862846417E+02  0.48078181677E+02  0.58279445402E+02  0.00000000000E+00 0. -1.
         11    1    1    2    0    0  0.10901836734E+03  0.63243311432E+02  0.10569102120E+02  0.12647698122E+03  0.00000000000E+00 0.  1.
</event>
<event>
 7    1  0.2612321E-009  0.1038295E+03  0.7561462E-02  0.1272443E+00
          1   -1    0    0  501    0  0.00000000000E+00  0.00000000000E+00  0.37734234991E+03  0.37734234991E+03  0.00000000000E+00 0. -1.
         -1   -1    0    0    0  501 -0.00000000000E+00 -0.00000000000E+00 -0.42202566859E+02  0.42202566859E+02  0.00000000000E+00 0.  1.
         25    2    1    2    0    0  0.21651574164E+02 -0.48428200672E+02  0.25025301096E+03  0.28475741099E+03  0.12508450079E+03 0.  0.
          5    1    3    3  502    0  0.49833458200E+02  0.38183013250E+01  0.20202929407E+03  0.20816162240E+03  0.41800000000E+01 0. -1.
         -5    1    3    3    0  502 -0.28181884036E+02 -0.52246501997E+02  0.48223716893E+02  0.76595788590E+02  0.41800000000E+01 0. -1.
        -11    1    1    2    0    0  0.13593020730E+02 -0.18142918582E+02  0.19559062753E+01  0.22754368297E+02  0.00000000000E+00 0.  1.
         11    1    1    2    0    0 -0.35244594895E+02  0.66571119254E+02  0.82930865814E+02  0.11203313748E+03  0.00000000000E+00 0. -1.
</event>
<event>
 7    1  0.2612321E-009  0.7938660E+02  0.7561462E-02  0.1330801E+00
         -2   -1    0    0    0  501 -0.00000000000E+00  0.00000000000E+00  0.10906360783E+03  0.10906360783E+03  0.00000000000E+00 0.  1.
          2   -1    0    0  501    0  0.00000000000E+00 -0.00000000000E+00 -0.12071325501E+03  0.12071325501E+03  0.00000000000E+00 0. -1.
         25    2    1    2    0    0 -0.16996852095E+02 -0.49394256199E+01 -0.46959935030E+02  0.13475491532E+03  0.12506142810E+03 0.  0.
          5    1    3    3  502    0 -0.42448810618E+02 -0.38933181109E+02 -0.66282851034E+02  0.87912358946E+02  0.41800000000E+01 0.  1.
         -5    1    3    3    0  502  0.25451958523E+02  0.33993755489E+02  0.19322916004E+02  0.46842556376E+02  0.41800000000E+01 0.  1.
        -11    1    1    2    0    0 -0.18704574226E+02 -0.80453637768E+01  0.50236024182E+02  0.54205600273E+02  0.00000000000E+00 0.  1.
         11    1    1    2    0    0  0.35701426322E+02  0.12984789397E+02 -0.14925736336E+02  0.40816347243E+02  0.00000000000E+00 0. -1.
</event>
<event>
 7    1  0.2612321E-009  0.9716020E+02  0.7561462E-02  0.1286384E+00
         -2   -1    0    0    0  501 -0.00000000000E+00  0.00000000000E+00  0.17238870239E+02  0.17238870239E+02  0.00000000000E+00 0.  1.
          2   -1    0    0  501    0  0.00000000000E+00 -0.00000000000E+00 -0.74519914633E+03  0.74519914633E+03  0.00000000000E+00 0. -1.
         25    2    1    2    0    0  0.63783686054E+01 -0.27473578468E+02 -0.49775185438E+03  0.51400222936E+03  0.12508358068E+03 0.  0.
          5    1    3    3  502    0 -0.57450556269E+02 -0.19060253605E+02 -0.29713994441E+03  0.30327129545E+03  0.41800000000E+01 0.  1.
         -5    1    3    3    0  502  0.63828924874E+02 -0.84133248633E+01 -0.20061190997E+03  0.21073093391E+03  0.41800000000E+01 0.  1.
        -11    1    1    2    0    0 -0.33866859260E+02  0.23808345297E+02 -0.21020418221E+03  0.21424191859E+03  0.00000000000E+00 0.  1.
         11    1    1    2    0    0  0.27488490655E+02  0.36652331718E+01 -0.20004239501E+02  0.34193868612E+02  0.00000000000E+00 0. -1.
</event>
<event>
 7    1  0.2612321E-009  0.1069941E+03  0.7561462E-02  0.1266240E+00
          2   -1    0    0  501    0  0.00000000000E+00  0.00000000000E+00  0.73010573924E+03  0.73010573924E+03  0.00000000000E+00 0.  1.
         -2   -1    0    0    0  501 -0.00000000000E+00 -0.00000000000E+00 -0.34207668026E+02  0.34207668026E+02  0.00000000000E+00 0. -1.
         25    2    1    2    0    0 -0.73246594659E+02  0.25725094775E+02  0.57575314092E+03  0.59427748114E+03  0.12508877316E+03 0.  0.
          5    1    3    3  502    0  0.18987200396E+02  0.43472523615E+01  0.33427398633E+03  0.33486711203E+03  0.41800000000E+01 0.  1.
         -5    1    3    3    0  502 -0.92233795055E+02  0.21377842413E+02  0.24147915460E+03  0.25941036911E+03  0.41800000000E+01 0.  1.
        -11    1    1    2    0    0  0.22467936857E+02  0.20657771380E+02 -0.12130390453E+01  0.30545427952E+02  0.00000000000E+00 0. -1.
         11    1    1    2    0    0  0.50778657802E+02 -0.46382866155E+02  0.12135796934E+03  0.13949049818E+03  0.00000000000E+00 0.  1.
</event>
<event>
 7    1  0.2633540E-009  0.1340156E+03  0.7561462E-02  0.1221616E+00
         -2   -1    0    0    0  501 -0.00000000000E+00  0.00000000000E+00  0.60817353002E+02  0.60817353002E+02  0.00000000000E+00 0.  1.
          2   -1    0    0  501    0  0.00000000000E+00 -0.00000000000E+00 -0.33295990650E+03  0.33295990650E+03  0.00000000000E+00 0. -1.
         25    2    1    2    0    0 -0.62436782138E+02  0.64795525721E+02 -0.17209940801E+03  0.23100691054E+03  0.12509666088E+03 0.  0.
          5    1    3    3  502    0  0.30116564565E+02  0.25870711755E+02 -0.11478082670E+02  0.41539378542E+02  0.41800000000E+01 0.  1.
         -5    1    3    3    0  502 -0.92553346703E+02  0.38924813966E+02 -0.16062132534E+03  0.18946753200E+03  0.41800000000E+01 0.  1.
        -11    1    1    2    0    0 -0.59564767243E+01 -0.58645746693E+02 -0.55185346175E+02  0.80747914230E+02  0.00000000000E+00 0.  1.
         11    1    1    2    0    0  0.68393258862E+02 -0.61497790284E+01 -0.44857799313E+02  0.82022434730E+02  0.00000000000E+00 0. -1.
</event>
<event>
 7    1  0.2612321E-009  0.9846820E+02  0.7561462E-02  0.1283550E+00
         -2   -1    0    0    0  501 -0.00000000000E+00  0.00000000000E+00  0.23700498999E+02  0.23700498999E+02  0.00000000000E+00 0.  1.
          2   -1    0    0  501    0  0.00000000000E+00 -0.00000000000E+00 -0.85808972699E+03  0.85808972699E+03  0.00000000000E+00 0. -1.
         25    2    1    2    0    0 -0.84426173096E+02 -0.22974954165E+02 -0.51794047618E+03  0.53996796317E+03  0.12508971648E+03 0.  0.
          5    1    3    3  502    0 -0.68507028993E+02 -0.35086829812E+01 -0.50796672062E+03  0.51259456253E+03  0.41800000000E+01 0.  1.
         -5    1    3    3    0  502 -0.15919144103E+02 -0.19466271184E+02 -0.99737555528E+01  0.27373400640E+02  0.41800000000E+01 0.  1.
        -11    1    1    2    0    0  0.43172665592E+02 -0.15927913097E+02 -0.44462796367E+02  0.63988418723E+02  0.00000000000E+00 0.  1.
         11    1    1    2    0    0  0.41253507504E+02  0.38902867262E+02 -0.27198595544E+03  0.27783384409E+03  0.00000000000E+00 0. -1.
</event>
<event>
 7    1  0.2612321E-009  0.2371652E+03  0.7561462E-02  0.1121696E+00
          2   -1    0    0  501    0  0.00000000000E+00  0.00000000000E+00  0.50512852971E+03  0.50512852971E+03  0.00000000000E+00 0. -1.
         -2   -1    0    0    0  501 -0.00000000000E+00 -0.00000000000E+00 -0.12436288772E+03  0.12436288772E+03  0.00000000000E+00 0.  1.
         25    2    1    2    0    0  0.17756070043E+03 -0.13243494871E+03  0.14410051740E+03  0.29236687719E+03  0.12508642527E+03 0.  0.
          5    1    3    3  502    0  0.71695956984E+02  0.61887202707E+01  0.10997104770E+02  0.72917893687E+02  0.41800000000E+01 0. -1.
         -5    1    3    3    0  502  0.10586474344E+03 -0.13862366898E+03  0.13310341263E+03  0.21944898350E+03  0.41800000000E+01 0. -1.
        -11    1    1    2    0    0 -0.11069682403E+03  0.49553145331E+02  0.17844328419E+03  0.21575751838E+03  0.00000000000E+00 0. -1.
         11    1    1    2    0    0 -0.66863876395E+02  0.82881803375E+02  0.58221840395E+02  0.12136702186E+03  0.00000000000E+00 0.  1.
</event>
<event>
 7    1  0.2612321E-009  0.1198547E+03  0.7561462E-02  0.1243337E+00
         -2   -1    0    0    0  501 -0.00000000000E+00  0.00000000000E+00  0.13212613671E+02  0.13212613671E+02  0.00000000000E+00 0.  1.
          2   -1    0    0  501    0  0.00000000000E+00 -0.00000000000E+00 -0.11908715992E+04  0.11908715992E+04  0.00000000000E+00 0. -1.
         25    2    1    2    0    0 -0.51681391561E+02 -0.23445435695E+02 -0.79534227997E+03  0.80711696455E+03  0.12509115664E+03 0.  0.
          5    1    3    3  502    0 -0.42760373407E+02  0.46078601291E+02 -0.27918081909E+03  0.28620113413E+03  0.41800000000E+01 0. -1.
         -5    1    3    3    0  502 -0.89210181543E+01 -0.69524036986E+02 -0.51616146088E+03  0.52091583042E+03  0.41800000000E+01 0. -1.
        -11    1    1    2    0    0  0.45385540983E+02  0.56709600520E+02 -0.24512472924E+03  0.25565985020E+03  0.00000000000E+00 0.  1.
         11    1    1    2    0    0  0.62958505781E+01 -0.33264164825E+02 -0.13719197637E+03  0.14130739816E+03  0.00000000000E+00 0. -1.
</event>
<event>
 7    1  0.2612321E-009  0.1722455E+03  0.7561462E-02  0.1175526E+00
          1   -1    0    0  501    0  0.00000000000E+00  0.00000000000E+00  0.13499849428E+03  0.13499849428E+03  0.00000000000E+00 0.  1.
         -1   -1    0    0    0  501 -0.00000000000E+00 -0.00000000000E+00 -0.25891974209E+03  0.25891974209E+03  0.00000000000E+00 0. -1.
         25    2    1    2    0    0 -0.11165354514E+03 -0.85222115040E+02 -0.12035855803E+03  0.22330107166E+03  0.12509141888E+03 0.  0.
          5    1    3    3  502    0 -0.13379651595E+03 -0.67858282637E+02 -0.12392456707E+03  0.19463048303E+03  0.41800000000E+01 0.  1.
         -5    1    3    3    0  502  0.22142970806E+02 -0.17363832403E+02  0.35660090372E+01  0.28670588628E+02  0.41800000000E+01 0.  1.
        -11    1    1    2    0    0  0.90827673700E+02  0.14174664993E+02 -0.21565903239E+02  0.94422855390E+02  0.00000000000E+00 0. -1.
         11    1    1    2    0    0  0.20825871441E+02  0.71047450047E+02  0.18003213459E+02  0.76194309331E+02  0.00000000000E+00 0.  1.
</event>
<event>
 7    1  0.2612321E-009  0.1253609E+03  0.7561462E-02  0.1234506E+00
          1   -1    0    0  501    0  0.00000000000E+00  0.00000000000E+00  0.22051774458E+03  0.22051774458E+03  0.00000000000E+00 0. -1.
         -1   -1    0    0    0  501 -0.00000000000E+00 -0.00000000000E+00 -0.90820760572E+02  0.90820760572E+02  0.00000000000E+00 0.  1.
         25    2    1    2    0    0 -0.17718059513E+02 -0.89033767230E+02  0.55001761059E+02  0.16405218351E+03  0.12508790451E+03 0.  0.
          5    1    3    3  502    0 -0.69785133209E+02 -0.48917105584E+02  0.13987415694E+02  0.86463681587E+02  0.41800000000E+01 0.  1.
         -5    1    3    3    0  502  0.52067073696E+02 -0.40116661647E+02  0.41014345366E+02  0.77588501923E+02  0.41800000000E+01 0.  1.
        -11    1    1    2    0    0 -0.11488209348E+02  0.46778578164E+02 -0.90803706564E+01  0.49017011948E+02  0.00000000000E+00 0.  1.
         11    1    1    2    0    0  0.29206268861E+02  0.42255189067E+02  0.83775593609E+02  0.98269309697E+02  0.00000000000E+00 0. -1.
</event>
<event>
 7    1  0.2612321E-009  0.1422774E+03  0.7561462E-02  0.1210297E+00
          3   -1    0    0  501    0  0.00000000000E+00  0.00000000000E+00  0.13079726543E+03  0.13079726543E+03  0.00000000000E+00 0. -1.
         -3   -1    0    0    0  501 -0.00000000000E+00 -0.00000000000E+00 -0.24693269028E+03  0.24693269028E+03  0.00000000000E+00 0.  1.
         25    2    1    2    0    0  0.32993598183E+02 -0.11118669727E+03 -0.14958180559E+03  0.22687548192E+03  0.12508680411E+03 0.  0.
          5    1    3    3  502    0  0.74998985131E+02 -0.92637990915E+02 -0.13101429722E+03  0.17716902553E+03  0.41800000000E+01 0.  1.
         -5    1    3    3    0  502 -0.42005386948E+02 -0.18548706359E+02 -0.18567508373E+02  0.49706456396E+02  0.41800000000E+01 0.  1.
        -11    1    1    2    0    0 -0.17118082072E+02  0.94922375238E+02  0.61771474850E+02  0.11453820830E+03  0.00000000000E+00 0. -1.
         11    1    1    2    0    0 -0.15875516111E+02  0.16264322036E+02 -0.28325094106E+02  0.36316265491E+02  0.00000000000E+00 0.  1.
</event>
<event>
 7    1  0.2612321E-009  0.9990910E+02  0.7561462E-02  0.1280487E+00
         -1   -1    0    0    0  501 -0.00000000000E+00  0.00000000000E+00  0.31924594902E+02  0.31924594902E+02  0.00000000000E+00 0.  1.
          1   -1    0    0  501    0  0.00000000000E+00 -0.00000000000E+00 -0.41914813116E+03  0.41914813116E+03  0.00000000000E+00 0. -1.
         25    2    1    2    0    0  0.31363474298E+02 -0.88810622294E+01 -0.26293907327E+03  0.29300144096E+03  0.12510134838E+03 0.  0.
          5    1    3    3  502    0  0.66216408865E+02  0.33198249722E+02 -0.14145721652E+03  0.15973212918E+03  0.41800000000E+01 0.  1.
         -5    1    3    3    0  502 -0.34852934567E+02 -0.42079311951E+02 -0.12148185675E+03  0.13326931178E+03  0.41800000000E+01 0.  1.
        -11    1    1    2    0    0 -0.22817870221E+02  0.35874103075E+02 -0.14852048911E+02  0.45035428606E+02  0.00000000000E+00 0.  1.
         11    1    1    2    0    0 -0.85456040768E+01 -0.26993040845E+02 -0.10943241408E+03  0.11303585650E+03  0.00000000000E+00 0. -1.
</event>
<event>
 7    1  0.2612321E-009  0.8332031E+02  0.7561462E-02  0.1319884E+00
          1   -1    0    0  501    0  0.00000000000E+00  0.00000000000E+00  0.56551556504E+02  0.56551556504E+02  0.00000000000E+00 0. -1.
         -1   -1    0    0    0  501 -0.00000000000E+00 -0.00000000000E+00 -0.32522415402E+03  0.32522415402E+03  0.00000000000E+00 0.  1.
         25    2    1    2    0    0  0.70776212712E+02  0.36862666005E+01 -0.93506856890E+02  0.17151145348E+03  0.12509910289E+03 0.  0.
          5    1    3    3  502    0  0.22270545898E+02 -0.55585643231E+01  0.30249678627E+02  0.38201967344E+02  0.41800000000E+01 0. -1.
         -5    1    3    3    0  502  0.48505666814E+02  0.92448309235E+01 -0.12375653552E+03  0.13330948614E+03  0.41800000000E+01 0. -1.
        -11    1    1    2    0    0 -0.30820153804E+02  0.28857732066E+02 -0.14395096391E+03  0.15001510121E+03  0.00000000000E+00 0.  1.
         11    1    1    2    0    0 -0.39956058908E+02 -0.32543998667E+02 -0.31214776717E+02  0.60249155829E+02  0.00000000000E+00 0. -1.
</event>
<event>
 7    1  0.2612321E-009  0.1270714E+03  0.7561462E-02  0.1231867E+00
          1   -1    0    0  501    0  0.00000000000E+00  0.00000000000E+00  0.82253036782E+02  0.82253036782E+02  0.00000000000E+00 0. -1.
         -1   -1    0    0    0  501 -0.00000000000E+00 -0.00000000000E+00 -0.23848698157E+03  0.23848698157E+03  0.00000000000E+00 0.  1.
         25    2    1    2    0    0 -0.44591021070E+02  0.12817228796E+02 -0.15507169555E+02  0.13431788438E+03  0.12509269060E+03 0.  0.
          5    1    3    3  502    0 -0.24584469054E+02 -0.55919435236E+02 -0.14673112050E+01  0.61245446834E+02  0.41800000000E+01 0. -1.
         -5    1    3    3    0  502 -0.20006552016E+02  0.68736664032E+02 -0.14039858350E+02  0.73072437542E+02  0.41800000000E+01 0. -1.
        -11    1    1    2    0    0  0.76505504929E+02 -0.33132968970E+02 -0.10772454997E+03  0.13621844436E+03  0.00000000000E+00 0.  1.
         11    1    1    2    0    0 -0.31914483860E+02  0.20315740173E+02 -0.33002225258E+02  0.50203689614E+02  0.00000000000E+00 0. -1.
</event>
<event>
 7    1  0.2612321E-009  0.6786709E+02  0.7561462E-02  0.1367500E+00
          1   -1    0    0  501    0  0.00000000000E+00  0.00000000000E+00  0.57566834786E+02  0.57566834786E+02  0.00000000000E+00 0. -1.
         -1   -1    0    0    0  501 -0.00000000000E+00 -0.00000000000E+00 -0.20887315331E+03  0.20887315331E+03  0.00000000000E+00 0.  1.
         25    2    1    2    0    0  0.72087432897E+01 -0.11645805646E+02 -0.79715340957E+02  0.14895991759E+03  0.12508769203E+03 0.  0.
          5    1    3    3  502    0 -0.65222734738E+01 -0.24405814055E+02 -0.11008700689E+03  0.11302568423E+03  0.41800000000E+01 0.  1.
         -5    1    3    3    0  502  0.13731016764E+02  0.12760008410E+02  0.30371665929E+02  0.35934233361E+02  0.41800000000E+01 0.  1.
        -11    1    1    2    0    0 -0.43475833157E+02 -0.14922936552E+02 -0.48929902233E+02  0.67134025923E+02  0.00000000000E+00 0.  1.
         11    1    1    2    0    0  0.36267089868E+02  0.26568742198E+02 -0.22661075331E+02  0.50346044578E+02  0.00000000000E+00 0. -1.
</event>
<event>
 7    1  0.2612321E-009  0.1458630E+03  0.7561462E-02  0.1205651E+00
          2   -1    0    0  501    0  0.00000000000E+00  0.00000000000E+00  0.71829880307E+03  0.71829880307E+03  0.00000000000E+00 0.  1.
         -2   -1    0    0    0  501 -0.00000000000E+00 -0.00000000000E+00 -0.35115174203E+02  0.35115174203E+02  0.00000000000E+00 0. -1.
         25    2    1    2    0    0  0.28317649592E+02 -0.11071178351E+03  0.39508615653E+03  0.42988187355E+03  0.12508543416E+03 0.  0.
          5    1    3    3  502    0 -0.26537192806E+02 -0.73387211755E+02  0.97470416267E+02  0.12493142078E+03  0.41800000000E+01 0.  1.
         -5    1    3    3    0  502  0.54854842398E+02 -0.37324571752E+02  0.29761574026E+03  0.30495045277E+03  0.41800000000E+01 0.  1.
        -11    1    1    2    0    0 -0.57240695539E+02  0.37638363322E+02  0.14074187608E+03  0.15652929215E+03  0.00000000000E+00 0.  1.
         11    1    1    2    0    0  0.28923045948E+02  0.73073420185E+02  0.14735559626E+03  0.16700281157E+03  0.00000000000E+00 0. -1.
</event>
<event>
 7    1  0.2612321E-009  0.1813360E+03  0.7561462E-02  0.1166516E+00
          1   -1    0    0  501    0  0.00000000000E+00  0.00000000000E+00  0.70012761437E+03  0.70012761437E+03  0.00000000000E+00 0. -1.
         -1   -1    0    0    0  501 -0.00000000000E+00 -0.00000000000E+00 -0.60937449439E+02  0.60937449439E+02  0.00000000000E+00 0.  1.
         25    2    1    2    0    0  0.15986031966E+03  0.57905154694E+02  0.40864177997E+03  0.45993944160E+03  0.12509139402E+03 0.  0.
          5    1    3    3  502    0  0.92450277160E+02 -0.13857960503E+02  0.29517226125E+03  0.30965017847E+03  0.41800000000E+01 0. -1.
         -5    1    3    3    0  502  0.67410042504E+02  0.71763115197E+02  0.11346951872E+03  0.15028926313E+03  0.41800000000E+01 0. -1.
        -11    1    1    2    0    0 -0.27422630180E+02 -0.46972369345E+01 -0.24051068944E+01  0.27925780562E+02  0.00000000000E+00 0.  1.
         11    1    1    2    0    0 -0.13243768948E+03 -0.53207917759E+02  0.23295349185E+03  0.27319984164E+03  0.00000000000E+00 0. -1.
</event>
<event>
 7    1  0.2612321E-009  0.1332629E+03  0.7561462E-02  0.1222693E+00
         -3   -1    0    0    0  501 -0.00000000000E+00  0.00000000000E+00  0.11595653699E+03  0.11595653699E+03  0.00000000000E+00 0.  1.
          3   -1    0    0  501    0  0.00000000000E+00 -0.00000000000E+00 -0.26078712194E+03  0.26078712194E+03  0.00000000000E+00 0. -1.
         25    2    1    2    0    0  0.10633330341E+03  0.69176909778E+02 -0.12889186495E+03  0.21989172886E+03  0.12508814217E+03 0.  0.
          5    1    3    3  502    0  0.10427348105E+03  0.55281912103E+02 -0.32629636527E+02  0.12252026051E+03  0.41800000000E+01 0. -1.
         -5    1    3    3    0  502  0.20598223596E+01  0.13894997675E+02 -0.96262228420E+02  0.97371468351E+02  0.41800000000E+01 0. -1.
        -11    1    1    2    0    0 -0.10356679870E+03 -0.51099454720E+02 -0.43809163859E+02  0.12351711988E+03  0.00000000000E+00 0. -1.
         11    1    1    2    0    0 -0.27665047104E+01 -0.18077455059E+02  0.27870443853E+02  0.33334810188E+02  0.00000000000E+00 0.  1.
</event>
<event>
 7    1  0.2612321E-009  0.1465565E+03  0.7561462E-02  0.1204769E+00
          1   -1    0    0  501    0  0.00000000000E+00  0.00000000000E+00  0.55412152670E+02  0.55412152670E+02  0.00000000000E+00 0. -1.
         -1   -1    0    0    0  501 -0.00000000000E+00 -0.00000000000E+00 -0.39820277678E+03  0.39820277678E+03  0.00000000000E+00 0.  1.
         25    2    1    2    0    0  0.89721348208E+02  0.52150863351E+02 -0.18378334200E+03  0.24534183174E+03  0.12508662892E+03 0.  0.
          5    1    3    3  502    0  0.16667839542E+02 -0.40689505837E+02 -0.54784445973E+02  0.70372300522E+02  0.41800000000E+01 0. -1.
         -5    1    3    3    0  502  0.73053508666E+02  0.92840369188E+02 -0.12899889603E+03  0.17496953122E+03  0.41800000000E+01 0. -1.
        -11    1    1    2    0    0 -0.50163651017E+02 -0.70985065068E+02 -0.81040344312E+02  0.11883942423E+03  0.00000000000E+00 0. -1.
         11    1    1    2    0    0 -0.39557697191E+02  0.18834201717E+02 -0.77966937804E+02  0.89433673478E+02  0.00000000000E+00 0.  1.
</event>
<event>
 7    1  0.2612321E-009  0.1116116E+03  0.7561462E-02  0.1257614E+00
          1   -1    0    0  501    0  0.00000000000E+00  0.00000000000E+00  0.25613407040E+03  0.25613407040E+03  0.00000000000E+00 0. -1.
         -1   -1    0    0    0  501 -0.00000000000E+00 -0.00000000000E+00 -0.56452611897E+02  0.56452611897E+02  0.00000000000E+00 0.  1.
         25    2    1    2    0    0 -0.50006690972E+02  0.41253578980E+00  0.11084238726E+03  0.17445565083E+03  0.12509156633E+03 0.  0.
          5    1    3    3  502    0 -0.26299960572E+02  0.54574512269E+02  0.16307280083E+02  0.62876586256E+02  0.41800000000E+01 0.  1.
         -5    1    3    3    0  502 -0.23706730401E+02 -0.54161976480E+02  0.94535107178E+02  0.11157906458E+03  0.41800000000E+01 0.  1.
        -11    1    1    2    0    0  0.71272237804E+02 -0.20305122935E+02  0.76486893139E+02  0.10650011606E+03  0.00000000000E+00 0. -1.
         11    1    1    2    0    0 -0.21265546832E+02  0.19892587145E+02  0.12352178105E+02  0.31630915405E+02  0.00000000000E+00 0.  1.
</event>
<event>
 7    1  0.2612321E-009  0.1258918E+03  0.7561462E-02  0.1233682E+00
          2   -1    0    0  501    0  0.00000000000E+00  0.00000000000E+00  0.10761899070E+04  0.10761899070E+04  0.00000000000E+00 0. -1.
         -2   -1    0    0    0  501 -0.00000000000E+00 -0.00000000000E+00 -0.29606545878E+02  0.29606545878E+02  0.00000000000E+00 0.  1.
         25    2    1    2    0    0 -0.11826519539E+03 -0.23910666953E+02  0.77945363988E+03  0.79859415155E+03  0.12508503396E+03 0.  0.
          5    1    3    3  502    0 -0.77733690366E+02  0.71847709114E+01  0.17143214078E+03  0.18841602597E+03  0.41800000000E+01 0. -1.
         -5    1    3    3    0  502 -0.40531505020E+02 -0.31095437864E+02  0.60802149910E+03  0.61017812557E+03  0.41800000000E+01 0. -1.
        -11    1    1    2    0    0  0.71415332109E+02  0.42475340854E+01  0.58322306421E+02  0.92302126911E+02  0.00000000000E+00 0.  1.
         11    1    1    2    0    0  0.46849863277E+02  0.19663132867E+02  0.20880741478E+03  0.21490017438E+03  0.00000000000E+00 0. -1.
</event>
<event>
 7    1  0.2612321E-009  0.1086189E+03  0.7561462E-02  0.1263149E+00
         -2   -1    0    0    0  501 -0.00000000000E+00  0.00000000000E+00  0.18014927625E+02  0.18014927625E+02  0.00000000000E+00 0.  1.
          2   -1    0    0  501    0  0.00000000000E+00 -0.00000000000E+00 -0.11382533606E+04  0.11382533606E+04  0.00000000000E+00 0. -1.
         25    2    1    2    0    0  0.22926998241E+02  0.83387476333E+02 -0.50516724073E+03  0.52756089796E+03  0.12508973376E+03 0.  0.
          5    1    3    3  502    0  0.16193924699E+02  0.39416358712E+02 -0.35074508132E+02  0.55349670748E+02  0.41800000000E+01 0.  1.
         -5    1    3    3    0  502  0.67330735424E+01  0.43971117621E+02 -0.47009273260E+03  0.47221122721E+03  0.41800000000E+01 0.  1.
        -11    1    1    2    0    0 -0.94159348124E+01  0.21769679315E+02 -0.92763647105E+02  0.95747965984E+02  0.00000000000E+00 0.  1.
         11    1    1    2    0    0 -0.13511063429E+02 -0.10515715565E+03 -0.52230754513E+03  0.53295942427E+03  0.00000000000E+00 0. -1.
</event>
<event>
 7    1  0.2612321E-009  0.6522534E+02  0.7561462E-02  0.1377126E+00
         -3   -1    0    0    0  501 -0.00000000000E+00  0.00000000000E+00  0.14614838369E+03  0.14614838369E+03  0.00000000000E+00 0.  1.
          3   -1    0    0  501    0  0.00000000000E+00 -0.00000000000E+00 -0.12252767407E+03  0.12252767407E+03  0.00000000000E+00 0. -1.
         25    2    1    2    0    0 -0.20771256612E+02  0.48934665452E+02  0.71842204014E+02  0.15373569424E+03  0.12508922744E+03 0.  0.
          5    1    3    3  502    0 -0.23898283487E+02  0.29565431092E+01 -0.31873551527E+02  0.40165467602E+02  0.41800000000E+01 0.  1.
         -5    1    3    3    0  502  0.31270268749E+01  0.45978122343E+02  0.10371575554E+03  0.11357022664E+03  0.41800000000E+01 0.  1.
        -11    1    1    2    0    0 -0.67352075245E+01 -0.88318496997E+01  0.24819671555E+02  0.27191555410E+02  0.00000000000E+00 0.  1.
         11    1    1    2    0    0  0.27506464136E+02 -0.40102815753E+02 -0.73041165949E+02  0.87748808104E+02  0.00000000000E+00 0. -1.
</event>
<event>
 7    1  0.2612321E-009  0.1470173E+03  0.7561462E-02  0.1204187E+00
          2   -1    0    0  501    0  0.00000000000E+00  0.00000000000E+00  0.35511888150E+03  0.35511888150E+03  0.00000000000E+00 0. -1.
         -2   -1    0    0    0  501 -0.00000000000E+00 -0.00000000000E+00 -0.72161185362E+02  0.72161185362E+02  0.00000000000E+00 0.  1.
         25    2    1    2    0    0  0.11027187004E+03  0.21629257066E+02  0.11892711274E+03  0.20595875702E+03  0.12509053267E+03 0.  0.
          5    1    3    3  502    0 -0.15575992833E+02 -0.49004186115E+01  0.63759941673E+02  0.65950194977E+02  0.41800000000E+01 0.  1.
         -5    1    3    3    0  502  0.12584786287E+03  0.26529675678E+02  0.55167171070E+02  0.14000856204E+03  0.41800000000E+01 0.  1.
        -11    1    1    2    0    0  0.18076024406E+02 -0.67288041821E+01  0.18844389939E+02  0.26965357335E+02  0.00000000000E+00 0.  1.
         11    1    1    2    0    0 -0.12834789444E+03 -0.14900452884E+02  0.14518619345E+03  0.19435595250E+03  0.00000000000E+00 0. -1.
</event>
<event>
 7    1  0.2730050E-009  0.1060823E+03  0.7561462E-02  0.1268002E+00
         -2   -1    0    0    0  501 -0.00000000000E+00  0.00000000000E+00  0.48573866878E+02  0.48573866878E+02  0.00000000000E+00 0.  1.
          2   -1    0    0  501    0  0.00000000000E+00 -0.00000000000E+00 -0.47205029470E+03  0.47205029470E+03  0.00000000000E+00 0. -1.
         25    2    1    2    0    0 -0.14324965188E+02 -0.78702815320E+02 -0.11078175418E+03  0.18528190728E+03  0.12512973404E+03 0.  0.
          5    1    3    3  502    0 -0.23340639696E+02 -0.18283241353E+02  0.23261057939E+02  0.37915848826E+02  0.41800000000E+01 0. -1.
         -5    1    3    3    0  502  0.90156745087E+01 -0.60419573967E+02 -0.13404281211E+03  0.14736605846E+03  0.41800000000E+01 0. -1.
        -11    1    1    2    0    0  0.53097682257E+02  0.46869016352E+02 -0.17460712662E+03  0.18842430104E+03  0.00000000000E+00 0. -1.
         11    1    1    2    0    0 -0.38772717070E+02  0.31833798968E+02 -0.13808754702E+03  0.14691795325E+03  0.00000000000E+00 0.  1.
</event>
<event>
 7    1  0.2612321E-009  0.7460177E+02  0.7561462E-02  0.1345109E+00
          1   -1    0    0  501    0  0.00000000000E+00  0.00000000000E+00  0.11559525201E+04  0.11559525201E+04  0.00000000000E+00 0.  1.
         -1   -1    0    0    0  501 -0.00000000000E+00 -0.00000000000E+00 -0.86142824593E+01  0.86142824593E+01  0.00000000000E+00 0. -1.
         25    2    1    2    0    0 -0.44315391864E+02  0.91452524240E+01  0.95509058227E+03  0.96430849544E+03  0.12508143125E+03 0.  0.
          5    1    3    3  502    0 -0.56492305147E+02  0.38639598185E+02  0.27371319383E+03  0.28217155060E+03  0.41800000000E+01 0.  1.
         -5    1    3    3    0  502  0.12176913283E+02 -0.29494345760E+02  0.68137738844E+03  0.68213694484E+03  0.41800000000E+01 0.  1.
        -11    1    1    2    0    0  0.15479430894E+02 -0.11842225299E+02  0.32416263493E+02  0.37824135412E+02  0.00000000000E+00 0. -1.
         11    1    1    2    0    0  0.28835960970E+02  0.26969728746E+01  0.15983139187E+03  0.16243417170E+03  0.00000000000E+00 0.  1.
</event>
<event>
 7    1  0.2627244E-009  0.1388430E+03  0.7561462E-02  0.1214894E+00
          2   -1    0    0  501    0  0.00000000000E+00  0.00000000000E+00  0.34440413415E+03  0.34440413415E+03  0.00000000000E+00 0. -1.
         -2   -1    0    0    0  501 -0.00000000000E+00 -0.00000000000E+00 -0.10669647445E+03  0.10669647445E+03  0.00000000000E+00 0.  1.
         25    2    1    2    0    0 -0.65524952615E+02 -0.10137395265E+03  0.24382124325E+03  0.29945036117E+03  0.12510604482E+03 0.  0.
          5    1    3    3  502    0 -0.41769035118E+02 -0.11357475173E+03  0.24402974353E+03  0.27241854682E+03  0.41800000000E+01 0.  1.
         -5    1    3    3    0  502 -0.23755917498E+02  0.12200799078E+02 -0.20850028167E+00  0.27031814343E+02  0.41800000000E+01 0.  1.
        -11    1    1    2    0    0 -0.35475722766E+01  0.30137700847E+02  0.33147418649E+02  0.44940156258E+02  0.00000000000E+00 0. -1.
         11    1    1    2    0    0  0.69072524892E+02  0.71236251804E+02 -0.39261002193E+02  0.10671009118E+03  0.00000000000E+00 0.  1.
</event>
