<event>
 8    1  0.7224195E-009  0.9194576E+02  0.7561462E-02  0.1298207E+00
         -3   -1    0    0    0  501 -0.00000000000E+00  0.00000000000E+00  0.20213470192E+03  0.20213470192E+03  0.00000000000E+00 0.  1.
          3   -1    0    0  501    0  0.00000000000E+00 -0.00000000000E+00 -0.13049380446E+03  0.13049380446E+03  0.00000000000E+00 0. -1.
         25    2    1    2    0    0  0.89181382820E+01 -0.24743641866E+02 -0.81820611189E+02  0.15176492366E+03  0.12508476579E+03 0.  0.
         23    2    1    2    0    0 -0.89181382820E+01  0.24743641866E+02  0.15346150865E+03  0.18086358272E+03  0.92029451346E+02 0.  0.
          5    1    3    3  502    0 -0.37151917081E+02  0.18818312363E+01 -0.90271772178E+02  0.97725490450E+02  0.41800000000E+01 0. -1.
         -5    1    3    3    0  502  0.46070055363E+02 -0.26625473102E+02  0.84511609887E+01  0.54039433205E+02  0.41800000000E+01 0. -1.
        -11    1    4    4    0    0 -0.35788363524E+02 -0.19920948290E+02  0.47113322776E+02  0.62428489710E+02  0.00000000000E+00 0.  1.
         11    1    4    4    0    0  0.26870225242E+02  0.44664590156E+02  0.10634818587E+03  0.11843509301E+03  0.00000000000E+00 0. -1.
</event>
<event>
 8    1  0.7224195E-009  0.1468991E+03  0.7561462E-02  0.1204336E+00
         -3   -1    0    0    0  501 -0.00000000000E+00  0.00000000000E+00  0.16082220847E+03  0.16082220847E+03  0.00000000000E+00 0.  1.
          3   -1    0    0  501    0  0.00000000000E+00 -0.00000000000E+00 -0.26992703507E+03  0.26992703507E+03  0.00000000000E+00 0. -1.
         25    2    1    2    0    0 -0.71178794273E+02  0.96961004516E+02 -0.19400053633E+03  0.26028961110E+03  0.12508643571E+03 0.  0.
         23    2    1    2    0    0  0.71178794273E+02 -0.96961004516E+02  0.84895709726E+02  0.17045963245E+03  0.85914769472E+02 0.  0.
          5    1    3    3  502    0  0.18182842952E+02 -0.19238376829E+02 -0.27027406094E+02  0.38061581693E+02  0.41800000000E+01 0. -1.
         -5    1    3    3    0  502 -0.89361637225E+02  0.11619938135E+03 -0.16697313023E+03  0.22222802940E+03  0.41800000000E+01 0. -1.
        -11    1    4    4    0    0  0.40846656058E+02 -0.59039389916E+02  0.96746836428E+02  0.12047426792E+03  0.00000000000E+00 0.  1.
         11    1    4    4    0    0  0.30332138215E+02 -0.37921614600E+02 -0.11851126702E+02  0.49985364525E+02  0.00000000000E+00 0. -1.
</event>
<event>
 8    1  0.7224195E-009  0.8829236E+02  0.7561462E-02  0.1307040E+00
          4   -1    0    0  501    0  0.00000000000E+00  0.00000000000E+00  0.90048080539E+02  0.90048080539E+02  0.00000000000E+00 0. -1.
         -4   -1    0    0    0  501 -0.00000000000E+00 -0.00000000000E+00 -0.14940139816E+03  0.14940139816E+03  0.00000000000E+00 0.  1.
         25    2    1    2    0    0 -0.43352059109E+02  0.35578747036E+01 -0.31137009502E+02  0.13604632743E+03  0.12508809034E+03 0.  0.
         23    2    1    2    0    0  0.43352059109E+02 -0.35578747036E+01 -0.28216308116E+02  0.10340315127E+03  0.89465033099E+02 0.  0.
          5    1    3    3  502    0  0.32844770705E+01 -0.24074421453E+02 -0.66678905530E+02  0.71090888309E+02  0.41800000000E+01 0. -1.
         -5    1    3    3    0  502 -0.46636536180E+02  0.27632296156E+02  0.35541896028E+02  0.64955439118E+02  0.41800000000E+01 0. -1.
        -11    1    4    4    0    0  0.47740596022E+02  0.34721211723E+02 -0.70743117474E+01  0.59453956460E+02  0.00000000000E+00 0. -1.
         11    1    4    4    0    0 -0.43885369130E+01 -0.38279086427E+02 -0.21141996369E+02  0.43949194809E+02  0.00000000000E+00 0.  1.
</event>
<event>
 8    1  0.7224195E-009  0.1482948E+03  0.7561462E-02  0.1202584E+00
          2   -1    0    0  501    0  0.00000000000E+00  0.00000000000E+00  0.11596967460E+03  0.11596967460E+03  0.00000000000E+00 0. -1.
         -2   -1    0    0    0  501 -0.00000000000E+00 -0.00000000000E+00 -0.27703986106E+03  0.27703986106E+03  0.00000000000E+00 0.  1.
         25    2    1    2    0    0  0.25444794639E+02 -0.11399515398E+03  0.34772449456E+01  0.17117671484E+03  0.12508814399E+03 0.  0.
         23    2    1    2    0    0 -0.25444794639E+02  0.11399515398E+03 -0.16454743141E+03  0.22183282083E+03  0.92149934946E+02 0.  0.
          5    1    3    3  502    0  0.55493733753E+02 -0.12195874801E+03 -0.14805988797E+02  0.13487097689E+03  0.41800000000E+01 0. -1.
         -5    1    3    3    0  502 -0.30048939114E+02  0.79635940365E+01  0.18283233743E+02  0.36305737948E+02  0.41800000000E+01 0. -1.
        -11    1    4    4    0    0 -0.39327892025E+02  0.40803808160E+02 -0.12554720809E+03  0.13774518253E+03  0.00000000000E+00 0.  1.
         11    1    4    4    0    0  0.13883097386E+02  0.73191345818E+02 -0.39000223312E+02  0.84087638295E+02  0.00000000000E+00 0. -1.
</event>
<event>
 8    1  0.7224195E-009  0.1057526E+03  0.7561462E-02  0.1268644E+00
          1   -1    0    0  501    0  0.00000000000E+00  0.00000000000E+00  0.26643059919E+02  0.26643059919E+02  0.00000000000E+00 0. -1.
         -1   -1    0    0    0  501 -0.00000000000E+00 -0.00000000000E+00 -0.49330537216E+03  0.49330537216E+03  0.00000000000E+00 0.  1.
         25    2    1    2    0    0 -0.18035089219E+02  0.76583351542E+01 -0.33730776136E+03  0.36028872774E+03  0.12509007523E+03 0.  0.
         23    2    1    2    0    0  0.18035089219E+02 -0.76583351542E+01 -0.12935455088E+03  0.15965970435E+03  0.91513424244E+02 0.  0.
          5    1    3    3  502    0 -0.71618564665E+02  0.10976210047E+02 -0.18376559344E+03  0.19757773590E+03  0.41800000000E+01 0. -1.
         -5    1    3    3    0  502  0.53583475445E+02 -0.33178748931E+01 -0.15354216792E+03  0.16271099184E+03  0.41800000000E+01 0. -1.
        -11    1    4    4    0    0  0.39620300117E+02  0.24328033355E+02 -0.10277841439E+03  0.11280524745E+03  0.00000000000E+00 0.  1.
         11    1    4    4    0    0 -0.21585210898E+02 -0.31986368509E+02 -0.26576136497E+02  0.46854456896E+02  0.00000000000E+00 0. -1.
</event>
<event>
 8    1  0.7224195E-009  0.6496441E+02  0.7561462E-02  0.1378105E+00
          1   -1    0    0  501    0  0.00000000000E+00  0.00000000000E+00  0.33536121434E+03  0.33536121434E+03  0.00000000000E+00 0. -1.
         -1   -1    0    0    0  501 -0.00000000000E+00 -0.00000000000E+00 -0.49878608619E+02  0.49878608619E+02  0.00000000000E+00 0.  1.
         25    2    1    2    0    0  0.45978724299E+02  0.35759191931E+02  0.22113227779E+03  0.26065237447E+03  0.12508962044E+03 0.  0.
         23    2    1    2    0    0 -0.45978724299E+02 -0.35759191931E+02  0.64350327933E+02  0.12458744849E+03  0.89377316582E+02 0.  0.
          5    1    3    3  502    0 -0.17210863170E+01  0.20798840448E+02  0.20760774467E+03  0.20869595576E+03  0.41800000000E+01 0. -1.
         -5    1    3    3    0  502  0.47699810616E+02  0.14960351483E+02  0.13524533110E+02  0.51956418709E+02  0.41800000000E+01 0. -1.
        -11    1    4    4    0    0 -0.89413828529E+01 -0.44810300130E+01 -0.22780072238E+02  0.24878899663E+02  0.00000000000E+00 0.  1.
         11    1    4    4    0    0 -0.37037341446E+02 -0.31278161918E+02  0.87130400171E+02  0.99708548822E+02  0.00000000000E+00 0. -1.
</event>
<event>
 8    1  0.7224195E-009  0.1000196E+03  0.7561462E-02  0.1280255E+00
         -1   -1    0    0    0  501 -0.00000000000E+00  0.00000000000E+00  0.28447898814E+02  0.28447898814E+02  0.00000000000E+00 0.  1.
          1   -1    0    0  501    0  0.00000000000E+00 -0.00000000000E+00 -0.45490837641E+03  0.45490837641E+03  0.00000000000E+00 0. -1.
         25    2    1    2    0    0  0.38120888140E+02 -0.43677023869E+01 -0.23386902397E+03  0.26798540464E+03  0.12509667378E+03 0.  0.
         23    2    1    2    0    0 -0.38120888140E+02  0.43677023869E+01 -0.19259145362E+03  0.21537087058E+03  0.88435654286E+02 0.  0.
          5    1    3    3  502    0 -0.17843796279E+01 -0.50154484745E+02 -0.17926925352E+03  0.18620846922E+03  0.41800000000E+01 0. -1.
         -5    1    3    3    0  502  0.39905267768E+02  0.45786782358E+02 -0.54599770453E+02  0.81776935427E+02  0.41800000000E+01 0. -1.
        -11    1    4    4    0    0  0.10524388182E+02  0.31421726354E+02 -0.34817544822E+02  0.48066090554E+02  0.00000000000E+00 0.  1.
         11    1    4    4    0    0 -0.48645276322E+02 -0.27054023967E+02 -0.15777390880E+03  0.16730478002E+03  0.00000000000E+00 0. -1.
</event>
<event>
 8    1  0.7224195E-009  0.1403738E+03  0.7561462E-02  0.1212827E+00
         -3   -1    0    0    0  501 -0.00000000000E+00  0.00000000000E+00  0.16259989952E+03  0.16259989952E+03  0.00000000000E+00 0.  1.
          3   -1    0    0  501    0  0.00000000000E+00 -0.00000000000E+00 -0.12825174757E+03  0.12825174757E+03  0.00000000000E+00 0. -1.
         25    2    1    2    0    0 -0.21907181740E+02 -0.91188238016E+02  0.87910313022E+01  0.15658893981E+03  0.12509034525E+03 0.  0.
         23    2    1    2    0    0  0.21907181740E+02  0.91188238016E+02  0.25557120647E+02  0.13426270728E+03  0.92617972268E+02 0.  0.
          5    1    3    3  502    0  0.32521603075E+02 -0.96079783129E+02  0.47266388527E+01  0.10163066913E+03  0.41800000000E+01 0. -1.
         -5    1    3    3    0  502 -0.54428784815E+02  0.48915451130E+01  0.40643924495E+01  0.54958270679E+02  0.41800000000E+01 0. -1.
        -11    1    4    4    0    0 -0.31338798706E+02  0.31530363921E+02  0.30870349002E+02  0.54122662544E+02  0.00000000000E+00 0.  1.
         11    1    4    4    0    0  0.53245980447E+02  0.59657874095E+02 -0.53132283553E+01  0.80140044739E+02  0.00000000000E+00 0. -1.
</event>
<event>
 8    1  0.7224195E-009  0.9599480E+02  0.7561462E-02  0.1288951E+00
          1   -1    0    0  501    0  0.00000000000E+00  0.00000000000E+00  0.61186074739E+02  0.61186074739E+02  0.00000000000E+00 0. -1.
         -1   -1    0    0    0  501 -0.00000000000E+00 -0.00000000000E+00 -0.29626101393E+03  0.29626101393E+03  0.00000000000E+00 0.  1.
         25    2    1    2    0    0  0.66713433913E+02 -0.36907537890E+02 -0.10018885137E+03  0.17746777805E+03  0.12507660729E+03 0.  0.
         23    2    1    2    0    0 -0.66713433913E+02  0.36907537890E+02 -0.13488608782E+03  0.17997931062E+03  0.91572086055E+02 0.  0.
          5    1    3    3  502    0  0.66233235903E+01 -0.12706634016E+02 -0.11070464900E+03  0.11170639496E+03  0.41800000000E+01 0.  1.
         -5    1    3    3    0  502  0.60090110323E+02 -0.24200903874E+02  0.10515797632E+02  0.65761383097E+02  0.41800000000E+01 0.  1.
        -11    1    4    4    0    0 -0.52892861451E+02 -0.17733276746E+02 -0.97543935689E+02  0.11236967245E+03  0.00000000000E+00 0.  1.
         11    1    4    4    0    0 -0.13820572462E+02  0.54640814636E+02 -0.37342152134E+02  0.67609638168E+02  0.00000000000E+00 0. -1.
</event>
<event>
 8    1  0.7224195E-009  0.6428014E+02  0.7561462E-02  0.1380700E+00
         -1   -1    0    0    0  501 -0.00000000000E+00  0.00000000000E+00  0.50564045959E+03  0.50564045959E+03  0.00000000000E+00 0.  1.
          1   -1    0    0  501    0  0.00000000000E+00 -0.00000000000E+00 -0.40031966880E+02  0.40031966880E+02  0.00000000000E+00 0. -1.
         25    2    1    2    0    0  0.26288572850E+02  0.26212093329E+02  0.41359875104E+03  0.43369182773E+03  0.12508601712E+03 0.  0.
         23    2    1    2    0    0 -0.26288572850E+02 -0.26212093329E+02  0.52009741667E+02  0.11198059874E+03  0.91959112469E+02 0.  0.
          5    1    3    3  502    0  0.17162538163E+02 -0.13001535461E+02  0.38123757389E+03  0.38186797822E+03  0.41800000000E+01 0.  1.
         -5    1    3    3    0  502  0.91260346872E+01  0.39213628790E+02  0.32361177148E+02  0.51823849514E+02  0.41800000000E+01 0.  1.
        -11    1    4    4    0    0 -0.31566166099E+02  0.71552632452E+01  0.67467637023E+02  0.74829824801E+02  0.00000000000E+00 0.  1.
         11    1    4    4    0    0  0.52775932488E+01 -0.33367356574E+02 -0.15457895356E+02  0.37150773936E+02  0.00000000000E+00 0. -1.
</event>
<event>
 8    1  0.7224195E-009  0.1231196E+03  0.7561462E-02  0.1238038E+00
          1   -1    0    0  501    0  0.00000000000E+00  0.00000000000E+00  0.76153827228E+03  0.76153827228E+03  0.00000000000E+00 0. -1.
         -1   -1    0    0    0  501 -0.00000000000E+00 -0.00000000000E+00 -0.44890283340E+02  0.44890283340E+02  0.00000000000E+00 0.  1.
         25    2    1    2    0    0 -0.51697343856E+02 -0.72252490424E+02  0.64467267127E+03  0.66267928567E+03  0.12509174572E+03 0.  0.
         23    2    1    2    0    0  0.51697343856E+02  0.72252490424E+02  0.71975317674E+02  0.14374926995E+03  0.87122721047E+02 0.  0.
          5    1    3    3  502    0 -0.18753176971E+02 -0.90252327780E+02  0.58374202872E+03  0.59099017996E+03  0.41800000000E+01 0.  1.
         -5    1    3    3    0  502 -0.32944166885E+02  0.17999837356E+02  0.60930642553E+02  0.71689105717E+02  0.41800000000E+01 0.  1.
        -11    1    4    4    0    0  0.70775507367E+02  0.48845752908E+02  0.28065951713E+02  0.90458706965E+02  0.00000000000E+00 0.  1.
         11    1    4    4    0    0 -0.19078163512E+02  0.23406737516E+02  0.43909365962E+02  0.53290562985E+02  0.00000000000E+00 0. -1.
</event>
<event>
 8    1  0.7224195E-009  0.1737626E+03  0.7561462E-02  0.1173980E+00
          2   -1    0    0  501    0  0.00000000000E+00  0.00000000000E+00  0.26628783706E+03  0.26628783706E+03  0.00000000000E+00 0.  1.
         -2   -1    0    0    0  501 -0.00000000000E+00 -0.00000000000E+00 -0.12412810445E+03  0.12412810445E+03  0.00000000000E+00 0. -1.
         25    2    1    2    0    0 -0.65349067983E+02  0.12812769291E+03  0.56150878136E+02  0.19871634663E+03  0.12509220170E+03 0.  0.
         23    2    1    2    0    0  0.65349067983E+02 -0.12812769291E+03  0.86008854474E+02  0.19169959487E+03  0.93080638420E+02 0.  0.
          5    1    3    3  502    0 -0.11144236452E+02  0.12109160991E+03  0.72341630781E+02  0.14155619358E+03  0.41800000000E+01 0.  1.
         -5    1    3    3    0  502 -0.54204831532E+02  0.70360830009E+01 -0.16190752645E+02  0.57160153049E+02  0.41800000000E+01 0.  1.
        -11    1    4    4    0    0  0.10246220624E+01 -0.10135019088E+03  0.56432175535E+02  0.11600647170E+03  0.00000000000E+00 0.  1.
         11    1    4    4    0    0  0.64324445921E+02 -0.26777502039E+02  0.29576678939E+02  0.75693123172E+02  0.00000000000E+00 0. -1.
</event>
<event>
 8    1  0.7224195E-009  0.1072970E+03  0.7561462E-02  0.1265659E+00
          2   -1    0    0  501    0  0.00000000000E+00  0.00000000000E+00  0.25792054840E+03  0.25792054840E+03  0.00000000000E+00 0. -1.
         -2   -1    0    0    0  501 -0.00000000000E+00 -0.00000000000E+00 -0.80158108933E+02  0.80158108933E+02  0.00000000000E+00 0.  1.
         25    2    1    2    0    0 -0.30825451200E+02 -0.79284759641E+02  0.48925797779E+02  0.15899006080E+03  0.12509126346E+03 0.  0.
         23    2    1    2    0    0  0.30825451200E+02  0.79284759641E+02  0.12883664169E+03  0.17908859653E+03  0.90761024746E+02 0.  0.
          5    1    3    3  502    0 -0.14164875995E+02  0.80591820632E+01  0.66206937394E+02  0.68311236898E+02  0.41800000000E+01 0. -1.
         -5    1    3    3    0  502 -0.16660575205E+02 -0.87343941704E+02 -0.17281139615E+02  0.90678823906E+02  0.41800000000E+01 0. -1.
        -11    1    4    4    0    0 -0.94475853874E+01  0.65511830507E+02  0.32436272803E+02  0.73710030521E+02  0.00000000000E+00 0.  1.
         11    1    4    4    0    0  0.40273036587E+02  0.13772929133E+02  0.96400368889E+02  0.10537856601E+03  0.00000000000E+00 0. -1.
</event>
<event>
 8    1  0.7224195E-009  0.1188187E+03  0.7561462E-02  0.1245059E+00
         -1   -1    0    0    0  501 -0.00000000000E+00  0.00000000000E+00  0.12785646499E+03  0.12785646499E+03  0.00000000000E+00 0.  1.
          1   -1    0    0  501    0  0.00000000000E+00 -0.00000000000E+00 -0.37142993845E+03  0.37142993845E+03  0.00000000000E+00 0. -1.
         25    2    1    2    0    0  0.92736441123E+02 -0.30062803026E+02 -0.31213623138E+03  0.35011489241E+03  0.12509033259E+03 0.  0.
         23    2    1    2    0    0 -0.92736441123E+02  0.30062803026E+02  0.68562757929E+02  0.14917151103E+03  0.89707682452E+02 0.  0.
          5    1    3    3  502    0  0.11262727335E+03 -0.27839501231E+02 -0.16606934114E+03  0.20262388556E+03  0.41800000000E+01 0. -1.
         -5    1    3    3    0  502 -0.19890832230E+02 -0.22233017944E+01 -0.14606689024E+03  0.14749100685E+03  0.41800000000E+01 0. -1.
        -11    1    4    4    0    0 -0.14682821907E+02  0.16128751736E+02 -0.20497576728E+02  0.29931130006E+02  0.00000000000E+00 0. -1.
         11    1    4    4    0    0 -0.78053619215E+02  0.13934051290E+02  0.89060334657E+02  0.11924038103E+03  0.00000000000E+00 0.  1.
</event>
<event>
 8    1  0.7224195E-009  0.1148891E+03  0.7561462E-02  0.1251775E+00
         -1   -1    0    0    0  501 -0.00000000000E+00  0.00000000000E+00  0.86071539152E+02  0.86071539152E+02  0.00000000000E+00 0.  1.
          1   -1    0    0  501    0  0.00000000000E+00 -0.00000000000E+00 -0.16156527108E+03  0.16156527108E+03  0.00000000000E+00 0. -1.
         25    2    1    2    0    0 -0.42050471306E+02  0.62226261617E+01 -0.26433974500E+02  0.13473429104E+03  0.12509041115E+03 0.  0.
         23    2    1    2    0    0  0.42050471306E+02 -0.62226261617E+01 -0.49059757425E+02  0.11290251919E+03  0.92375082281E+02 0.  0.
          5    1    3    3  502    0 -0.52373348567E+02 -0.49903833169E+02 -0.27495301275E+02  0.77503704410E+02  0.41800000000E+01 0.  1.
         -5    1    3    3    0  502  0.10322877260E+02  0.56126459330E+02  0.10613267750E+01  0.57230586634E+02  0.41800000000E+01 0.  1.
        -11    1    4    4    0    0  0.58416339916E+02  0.26010051858E+02 -0.21560136381E+02  0.67482079456E+02  0.00000000000E+00 0.  1.
         11    1    4    4    0    0 -0.16365868610E+02 -0.32232678020E+02 -0.27499621043E+02  0.45420439730E+02  0.00000000000E+00 0. -1.
</event>
<event>
 8    1  0.7224195E-009  0.4664754E+02  0.7561462E-02  0.1464311E+00
         -1   -1    0    0    0  501 -0.00000000000E+00  0.00000000000E+00  0.30210122224E+03  0.30210122224E+03  0.00000000000E+00 0.  1.
          1   -1    0    0  501    0  0.00000000000E+00 -0.00000000000E+00 -0.46170850113E+02  0.46170850113E+02  0.00000000000E+00 0. -1.
         25    2    1    2    0    0 -0.10478082213E+00  0.19863947834E+01  0.21486656942E+03  0.24864066632E+03  0.12510228434E+03 0.  0.
         23    2    1    2    0    0  0.10478082213E+00 -0.19863947834E+01  0.41063802703E+02  0.99631406035E+02  0.90753646940E+02 0.  0.
          5    1    3    3  502    0  0.55709451571E+01  0.28135266865E+02 -0.29615919897E+01  0.29135409704E+02  0.41800000000E+01 0. -1.
         -5    1    3    3    0  502 -0.56757259792E+01 -0.26148872081E+02  0.21782816141E+03  0.21950525661E+03  0.41800000000E+01 0. -1.
        -11    1    4    4    0    0  0.18186319789E+02 -0.50834916354E+01 -0.24850964165E+02  0.31211448774E+02  0.00000000000E+00 0. -1.
         11    1    4    4    0    0 -0.18081538967E+02  0.30970968520E+01  0.65914766868E+02  0.68419957261E+02  0.00000000000E+00 0.  1.
</event>
<event>
 8    1  0.7224195E-009  0.1290331E+03  0.7561462E-02  0.1228897E+00
         -2   -1    0    0    0  501 -0.00000000000E+00  0.00000000000E+00  0.45728875011E+02  0.45728875011E+02  0.00000000000E+00 0.  1.
          2   -1    0    0  501    0  0.00000000000E+00 -0.00000000000E+00 -0.63264674060E+03  0.63264674060E+03  0.00000000000E+00 0. -1.
         25    2    1    2    0    0  0.55362645015E+02 -0.74518702610E+02 -0.12992931485E+03  0.20284684021E+03  0.12508858551E+03 0.  0.
         23    2    1    2    0    0 -0.55362645015E+02  0.74518702610E+02 -0.45698855074E+03  0.47552877540E+03  0.93118318425E+02 0.  0.
          5    1    3    3  502    0 -0.54099400165E+01 -0.85660446161E+02 -0.42933475450E+02  0.96061101397E+02  0.41800000000E+01 0.  1.
         -5    1    3    3    0  502  0.60772585032E+02  0.11141743551E+02 -0.86995839398E+02  0.10678573881E+03  0.41800000000E+01 0.  1.
        -11    1    4    4    0    0  0.87832391119E+01  0.32158057092E+02 -0.42714361093E+02  0.54183046877E+02  0.00000000000E+00 0.  1.
         11    1    4    4    0    0 -0.64145884127E+02  0.42360645518E+02 -0.41427418965E+03  0.42134572853E+03  0.00000000000E+00 0. -1.
</event>
<event>
 8    1  0.7224195E-009  0.1772444E+03  0.7561462E-02  0.1170497E+00
          2   -1    0    0  501    0  0.00000000000E+00  0.00000000000E+00  0.10332031129E+04  0.10332031129E+04  0.00000000000E+00 0. -1.
         -2   -1    0    0    0  501 -0.00000000000E+00 -0.00000000000E+00 -0.39089634901E+02  0.39089634901E+02  0.00000000000E+00 0.  1.
         25    2    1    2    0    0 -0.34359430853E+02 -0.15281545305E+03  0.67583790009E+03  0.70493787291E+03  0.12508958504E+03 0.  0.
         23    2    1    2    0    0  0.34359430853E+02  0.15281545305E+03  0.31827557794E+03  0.36735487492E+03  0.95483650090E+02 0.  0.
          5    1    3    3  502    0 -0.71432799725E+02 -0.63689099081E+02  0.23777547141E+03  0.25634662748E+03  0.41800000000E+01 0.  1.
         -5    1    3    3    0  502  0.37073368873E+02 -0.89126353974E+02  0.43806242868E+03  0.44859124543E+03  0.41800000000E+01 0.  1.
        -11    1    4    4    0    0  0.44177971445E+02  0.12450929194E+03  0.30889199818E+03  0.33595910984E+03  0.00000000000E+00 0. -1.
         11    1    4    4    0    0 -0.98185405923E+01  0.28306161110E+02  0.93835797577E+01  0.31395765084E+02  0.00000000000E+00 0.  1.
</event>
<event>
 8    1  0.7224195E-009  0.1026804E+03  0.7561462E-02  0.1274758E+00
          2   -1    0    0  501    0  0.00000000000E+00  0.00000000000E+00  0.14126400229E+03  0.14126400229E+03  0.00000000000E+00 0. -1.
         -2   -1    0    0    0  501 -0.00000000000E+00 -0.00000000000E+00 -0.10216083828E+03  0.10216083828E+03  0.00000000000E+00 0.  1.
         25    2    1    2    0    0  0.18478326708E+02  0.25578921837E+02 -0.19725565939E+02  0.13050930157E+03  0.12509136678E+03 0.  0.
         23    2    1    2    0    0 -0.18478326708E+02 -0.25578921837E+02  0.58828729944E+02  0.11291553900E+03  0.91067939919E+02 0.  0.
          5    1    3    3  502    0 -0.33575336961E+02  0.57826189893E+02 -0.38188155428E+01  0.67106089453E+02  0.41800000000E+01 0.  1.
         -5    1    3    3    0  502  0.52053663668E+02 -0.32247268056E+02 -0.15906750396E+02  0.63403212115E+02  0.41800000000E+01 0.  1.
        -11    1    4    4    0    0  0.24691242483E+02 -0.22996122707E+02 -0.67023016349E+01  0.34400580840E+02  0.00000000000E+00 0.  1.
         11    1    4    4    0    0 -0.43169569191E+02 -0.25827991302E+01  0.65531031579E+02  0.78514958162E+02  0.00000000000E+00 0. -1.
</event>
<event>
 8    1  0.7224195E-009  0.1074099E+03  0.7561462E-02  0.1265443E+00
         -2   -1    0    0    0  501 -0.00000000000E+00  0.00000000000E+00  0.39219378445E+02  0.39219378445E+02  0.00000000000E+00 0.  1.
          2   -1    0    0  501    0  0.00000000000E+00 -0.00000000000E+00 -0.50102299858E+03  0.50102299858E+03  0.00000000000E+00 0. -1.
         25    2    1    2    0    0 -0.72672672901E+02 -0.35995811975E+02 -0.17870495746E+03  0.23272242041E+03  0.12508895745E+03 0.  0.
         23    2    1    2    0    0  0.72672672901E+02  0.35995811975E+02 -0.28309866267E+03  0.30751995661E+03  0.88581347020E+02 0.  0.
          5    1    3    3  502    0 -0.75936438192E+02 -0.67147837058E+01 -0.31584265344E+02  0.82622449630E+02  0.41800000000E+01 0. -1.
         -5    1    3    3    0  502  0.32637652909E+01 -0.29281028269E+02 -0.14712069212E+03  0.15009997078E+03  0.41800000000E+01 0. -1.
        -11    1    4    4    0    0  0.60152426473E+02  0.57896377919E+02 -0.14657121077E+03  0.16868142996E+03  0.00000000000E+00 0.  1.
         11    1    4    4    0    0  0.12520246428E+02 -0.21900565944E+02 -0.13652745190E+03  0.13883852665E+03  0.00000000000E+00 0. -1.
</event>
<event>
 8    1  0.7224195E-009  0.1231942E+03  0.7561462E-02  0.1237919E+00
          1   -1    0    0  501    0  0.00000000000E+00  0.00000000000E+00  0.70251128713E+03  0.70251128713E+03  0.00000000000E+00 0. -1.
         -1   -1    0    0    0  501 -0.00000000000E+00 -0.00000000000E+00 -0.33867445418E+02  0.33867445418E+02  0.00000000000E+00 0.  1.
         25    2    1    2    0    0  0.88272494156E+02  0.23709171908E+01  0.51555082132E+03  0.53780838892E+03  0.12509020487E+03 0.  0.
         23    2    1    2    0    0 -0.88272494156E+02 -0.23709171908E+01  0.15309302039E+03  0.19857034362E+03  0.90526537561E+02 0.  0.
          5    1    3    3  502    0  0.95677707221E+02  0.24721716187E+02  0.49904307749E+03  0.50875028501E+03  0.41800000000E+01 0.  1.
         -5    1    3    3    0  502 -0.74052130647E+01 -0.22350798996E+02  0.16507743834E+02  0.29058103909E+02  0.41800000000E+01 0.  1.
        -11    1    4    4    0    0 -0.33747232271E+02 -0.43652624645E+02  0.47721164768E+02  0.72950235717E+02  0.00000000000E+00 0.  1.
         11    1    4    4    0    0 -0.54525261885E+02  0.41281707454E+02  0.10537185562E+03  0.12562010791E+03  0.00000000000E+00 0. -1.
</event>
<event>
 8    1  0.7224195E-009  0.9788423E+02  0.7561462E-02  0.1284809E+00
         -2   -1    0    0    0  501 -0.00000000000E+00  0.00000000000E+00  0.39075785739E+02  0.39075785739E+02  0.00000000000E+00 0.  1.
          2   -1    0    0  501    0  0.00000000000E+00 -0.00000000000E+00 -0.35134587354E+03  0.35134587354E+03  0.00000000000E+00 0. -1.
         25    2    1    2    0    0 -0.23524459777E+02 -0.16122707109E+02 -0.11520925910E+03  0.17243730448E+03  0.12509240066E+03 0.  0.
         23    2    1    2    0    0  0.23524459777E+02  0.16122707109E+02 -0.19706082870E+03  0.21798435480E+03  0.88717905942E+02 0.  0.
          5    1    3    3  502    0 -0.10642423405E+02 -0.70566317411E+02 -0.73483022871E+02  0.10251874648E+03  0.41800000000E+01 0.  1.
         -5    1    3    3    0  502 -0.12882036372E+02  0.54443610302E+02 -0.41726236228E+02  0.69918558005E+02  0.41800000000E+01 0.  1.
        -11    1    4    4    0    0  0.19375087433E+02 -0.22295246598E+02 -0.17542235032E+02  0.34354068810E+02  0.00000000000E+00 0.  1.
         11    1    4    4    0    0  0.41493723436E+01  0.38417953706E+02 -0.17951859367E+03  0.18363028599E+03  0.00000000000E+00 0. -1.
</event>
<event>
 8    1  0.7224195E-009  0.1561692E+03  0.7561462E-02  0.1193091E+00
          1   -1    0    0  501    0  0.00000000000E+00  0.00000000000E+00  0.26624022137E+03  0.26624022137E+03  0.00000000000E+00 0. -1.
         -1   -1    0    0    0  501 -0.00000000000E+00 -0.00000000000E+00 -0.12206280431E+03  0.12206280431E+03  0.00000000000E+00 0.  1.
         25    2    1    2    0    0  0.14008307708E+03 -0.24602699612E+02  0.54066220944E+02  0.19697304370E+03  0.12508661953E+03 0.  0.
         23    2    1    2    0    0 -0.14008307708E+03  0.24602699612E+02  0.90111196114E+02  0.19132998198E+03  0.90876691331E+02 0.  0.
          5    1    3    3  502    0  0.11428286605E+03 -0.27050388104E+02  0.93105916735E+02  0.14992825317E+03  0.41800000000E+01 0. -1.
         -5    1    3    3    0  502  0.25800211034E+02  0.24476884922E+01 -0.39039695791E+02  0.47044790528E+02  0.41800000000E+01 0. -1.
        -11    1    4    4    0    0 -0.14604905845E+03  0.29140556753E+01  0.81246258451E+02  0.16715194796E+03  0.00000000000E+00 0. -1.
         11    1    4    4    0    0  0.59659813669E+01  0.21688643936E+02  0.88649376628E+01  0.24178034023E+02  0.00000000000E+00 0.  1.
</event>
<event>
 8    1  0.7224195E-009  0.1948451E+03  0.7561462E-02  0.1154163E+00
          2   -1    0    0  501    0  0.00000000000E+00  0.00000000000E+00  0.76804137277E+03  0.76804137277E+03  0.00000000000E+00 0. -1.
         -2   -1    0    0    0  501 -0.00000000000E+00 -0.00000000000E+00 -0.62822792583E+02  0.62822792583E+02  0.00000000000E+00 0.  1.
         25    2    1    2    0    0 -0.19694471689E+02 -0.18211037464E+03  0.46926931996E+03  0.51905011353E+03  0.12508902804E+03 0.  0.
         23    2    1    2    0    0  0.19694471689E+02  0.18211037464E+03  0.23594926023E+03  0.31181405182E+03  0.89464455218E+02 0.  0.
          5    1    3    3  502    0  0.16454054256E+01 -0.12985800391E+03  0.16734507543E+03  0.21186706967E+03  0.41800000000E+01 0. -1.
         -5    1    3    3    0  502 -0.21339877114E+02 -0.52252370724E+02  0.30192424453E+03  0.30718304387E+03  0.41800000000E+01 0. -1.
        -11    1    4    4    0    0  0.39057702428E+02  0.17940406957E+03  0.20495899068E+03  0.27517178663E+03  0.00000000000E+00 0.  1.
         11    1    4    4    0    0 -0.19363230739E+02  0.27063050659E+01  0.30990269550E+02  0.36642265194E+02  0.00000000000E+00 0. -1.
</event>
<event>
 8    1  0.7224195E-009  0.8664487E+02  0.7561462E-02  0.1311186E+00
         -3   -1    0    0    0  501 -0.00000000000E+00  0.00000000000E+00  0.42201321998E+03  0.42201321998E+03  0.00000000000E+00 0.  1.
          3   -1    0    0  501    0  0.00000000000E+00 -0.00000000000E+00 -0.32704441739E+02  0.32704441739E+02  0.00000000000E+00 0. -1.
         25    2    1    2    0    0  0.36709778052E+02  0.28337054853E+02  0.22134316007E+03  0.25843786249E+03  0.12508692088E+03 0.  0.
         23    2    1    2    0    0 -0.36709778052E+02 -0.28337054853E+02  0.16796561817E+03  0.19627979923E+03  0.90347740509E+02 0.  0.
          5    1    3    3  502    0  0.37156859199E+02  0.46749131423E+02  0.22999977926E+03  0.23766254297E+03  0.41800000000E+01 0. -1.
         -5    1    3    3    0  502 -0.44708114723E+00 -0.18412076570E+02 -0.86566191890E+01  0.20775319515E+02  0.41800000000E+01 0. -1.
        -11    1    4    4    0    0 -0.60125453678E+02 -0.35785391662E+02  0.15099090165E+03  0.16641489362E+03  0.00000000000E+00 0.  1.
         11    1    4    4    0    0  0.23415675626E+02  0.74483368084E+01  0.16974716522E+02  0.29864905612E+02  0.00000000000E+00 0. -1.
</event>
<event>
 8    1  0.7224195E-009  0.1824647E+03  0.7561462E-02  0.1165439E+00
          1   -1    0    0  501    0  0.00000000000E+00  0.00000000000E+00  0.96050836000E+02  0.96050836000E+02  0.00000000000E+00 0. -1.
         -1   -1    0    0    0  501 -0.00000000000E+00 -0.00000000000E+00 -0.52440900112E+03  0.52440900112E+03  0.00000000000E+00 0.  1.
         25    2    1    2    0    0 -0.12073468675E+03 -0.11316872048E+03 -0.76776063471E+02  0.22119173527E+03  0.12508875228E+03 0.  0.
         23    2    1    2    0    0  0.12073468675E+03  0.11316872048E+03 -0.35158210164E+03  0.39926810185E+03  0.91766110708E+02 0.  0.
          5    1    3    3  502    0 -0.79358597961E+02 -0.10761587932E+03 -0.10547734730E+03  0.17035817487E+03  0.41800000000E+01 0.  1.
         -5    1    3    3    0  502 -0.41376088794E+02 -0.55528411665E+01  0.28701283831E+02  0.50833560395E+02  0.41800000000E+01 0.  1.
        -11    1    4    4    0    0  0.77640255680E+01  0.66522498850E+02 -0.12130261825E+03  0.13856351663E+03  0.00000000000E+00 0. -1.
         11    1    4    4    0    0  0.11297066119E+03  0.46646221635E+02 -0.23027948340E+03  0.26070458522E+03  0.00000000000E+00 0.  1.
</event>
<event>
 8    1  0.7224195E-009  0.1016007E+03  0.7561462E-02  0.1276965E+00
          4   -1    0    0  501    0  0.00000000000E+00  0.00000000000E+00  0.15563829569E+03  0.15563829569E+03  0.00000000000E+00 0. -1.
         -4   -1    0    0    0  501 -0.00000000000E+00 -0.00000000000E+00 -0.96731801484E+02  0.96731801484E+02  0.00000000000E+00 0.  1.
         25    2    1    2    0    0 -0.32832085222E+02  0.35395965268E+02  0.42699646423E+02  0.14071900985E+03  0.12509100588E+03 0.  0.
         23    2    1    2    0    0  0.32832085222E+02 -0.35395965268E+02  0.16206847786E+02  0.11165108733E+03  0.99360370415E+02 0.  0.
          5    1    3    3  502    0 -0.31979866757E+02  0.80225231192E+02  0.14738633082E+02  0.87712594892E+02  0.41800000000E+01 0. -1.
         -5    1    3    3    0  502 -0.85221846500E+00 -0.44829265924E+02  0.27961013341E+02  0.53006414957E+02  0.41800000000E+01 0. -1.
        -11    1    4    4    0    0 -0.29674189677E+01  0.11969447462E+02  0.44287982745E+02  0.45972803520E+02  0.00000000000E+00 0. -1.
         11    1    4    4    0    0  0.35799504190E+02 -0.47365412730E+02 -0.28081134959E+02  0.65678283808E+02  0.00000000000E+00 0.  1.
</event>
<event>
 8    1  0.7224195E-009  0.8698125E+02  0.7561462E-02  0.1310331E+00
         -2   -1    0    0    0  501 -0.00000000000E+00  0.00000000000E+00  0.19168004784E+02  0.19168004784E+02  0.00000000000E+00 0.  1.
          2   -1    0    0  501    0  0.00000000000E+00 -0.00000000000E+00 -0.96949024547E+03  0.96949024547E+03  0.00000000000E+00 0. -1.
         25    2    1    2    0    0  0.44297252174E+02 -0.46921790743E+02 -0.70090001110E+03  0.71489262165E+03  0.12508690555E+03 0.  0.
         23    2    1    2    0    0 -0.44297252174E+02  0.46921790743E+02 -0.24942222959E+03  0.27376562860E+03  0.92586552983E+02 0.  0.
          5    1    3    3  502    0  0.50064367419E+01 -0.41333923873E+02 -0.64419932790E+03  0.64555697203E+03  0.41800000000E+01 0. -1.
         -5    1    3    3    0  502  0.39290815432E+02 -0.55878668703E+01 -0.56700683202E+02  0.69335649626E+02  0.41800000000E+01 0. -1.
        -11    1    4    4    0    0  0.17404851645E+02  0.72391542826E+01 -0.63923601223E+01  0.19904684962E+02  0.00000000000E+00 0.  1.
         11    1    4    4    0    0 -0.61702103819E+02  0.39682636461E+02 -0.24302986947E+03  0.25386094364E+03  0.00000000000E+00 0. -1.
</event>
<event>
 8    1  0.7224195E-009  0.1143099E+03  0.7561462E-02  0.1252791E+00
          1   -1    0    0  501    0  0.00000000000E+00  0.00000000000E+00  0.33405748173E+03  0.33405748173E+03  0.00000000000E+00 0. -1.
         -1   -1    0    0    0  501 -0.00000000000E+00 -0.00000000000E+00 -0.43644222785E+02  0.43644222785E+02  0.00000000000E+00 0.  1.
         25    2    1    2    0    0 -0.38408495838E+02 -0.34621101117E+02  0.14467720164E+03  0.19811657054E+03  0.12507937341E+03 0.  0.
         23    2    1    2    0    0  0.38408495838E+02  0.34621101117E+02  0.14573605731E+03  0.17958513398E+03  0.91312588135E+02 0.  0.
          5    1    3    3  502    0 -0.82171155604E+02 -0.31925552020E+02  0.75678244280E+02  0.11625837063E+03  0.41800000000E+01 0.  1.
         -5    1    3    3    0  502  0.43762659766E+02 -0.26955490966E+01  0.68998957363E+02  0.81858199907E+02  0.41800000000E+01 0.  1.
        -11    1    4    4    0    0  0.28442014862E+02  0.61443425344E+02  0.64717835592E+02  0.93662377565E+02  0.00000000000E+00 0. -1.
         11    1    4    4    0    0  0.99664809755E+01 -0.26822324227E+02  0.81018221715E+02  0.85922756414E+02  0.00000000000E+00 0.  1.
</event>
<event>
 8    1  0.7224195E-009  0.6031672E+02  0.7561462E-02  0.1396507E+00
         -2   -1    0    0    0  501 -0.00000000000E+00  0.00000000000E+00  0.47269009688E+02  0.47269009688E+02  0.00000000000E+00 0.  1.
          2   -1    0    0  501    0  0.00000000000E+00 -0.00000000000E+00 -0.25941864093E+03  0.25941864093E+03  0.00000000000E+00 0. -1.
         25    2    1    2    0    0 -0.76293240187E+01 -0.24317640034E+02 -0.13929559830E+03  0.18894634048E+03  0.12509157315E+03 0.  0.
         23    2    1    2    0    0  0.76293240187E+01  0.24317640034E+02 -0.72854032943E+02  0.11774131014E+03  0.88914294660E+02 0.  0.
          5    1    3    3  502    0  0.18854451481E+02  0.38328076656E+01 -0.14783797927E+03  0.14914329106E+03  0.41800000000E+01 0.  1.
         -5    1    3    3    0  502 -0.26483775500E+02 -0.28150447699E+02  0.85423809678E+01  0.39803049418E+02  0.41800000000E+01 0.  1.
        -11    1    4    4    0    0  0.12873810774E+02 -0.16493074255E+02 -0.73673517728E+02  0.76586837751E+02  0.00000000000E+00 0. -1.
         11    1    4    4    0    0 -0.52444867553E+01  0.40810714289E+02  0.81948478483E+00  0.41154472386E+02  0.00000000000E+00 0.  1.
</event>
<event>
 8    1  0.7224195E-009  0.1030789E+03  0.7561462E-02  0.1273952E+00
          2   -1    0    0  501    0  0.00000000000E+00  0.00000000000E+00  0.28323237034E+03  0.28323237034E+03  0.00000000000E+00 0. -1.
         -2   -1    0    0    0  501 -0.00000000000E+00 -0.00000000000E+00 -0.43488669725E+02  0.43488669725E+02  0.00000000000E+00 0.  1.
         25    2    1    2    0    0  0.58773045618E+01  0.16723068752E+02  0.15775074751E+03  0.20210716081E+03  0.12509117624E+03 0.  0.
         23    2    1    2    0    0 -0.58773045618E+01 -0.16723068752E+02  0.81992953100E+02  0.12461387925E+03  0.92149719513E+02 0.  0.
          5    1    3    3  502    0 -0.41243921501E+02  0.41758529382E+02  0.12798798474E+03  0.14086600894E+03  0.41800000000E+01 0.  1.
         -5    1    3    3    0  502  0.47121226063E+02 -0.25035460630E+02  0.29762762773E+02  0.61241151871E+02  0.41800000000E+01 0.  1.
        -11    1    4    4    0    0  0.64319324194E+01 -0.54080056461E+02  0.49510606512E+02  0.73602462042E+02  0.00000000000E+00 0.  1.
         11    1    4    4    0    0 -0.12309236981E+02  0.37356987709E+02  0.32482346588E+02  0.51011417209E+02  0.00000000000E+00 0. -1.
</event>
<event>
 8    1  0.7224195E-009  0.2628631E+03  0.7561462E-02  0.1105435E+00
         -1   -1    0    0    0  501 -0.00000000000E+00  0.00000000000E+00  0.88785802605E+03  0.88785802605E+03  0.00000000000E+00 0.  1.
          1   -1    0    0  501    0  0.00000000000E+00 -0.00000000000E+00 -0.13070166487E+03  0.13070166487E+03  0.00000000000E+00 0. -1.
         25    2    1    2    0    0 -0.52304913042E+01 -0.24611051200E+03  0.69825008595E+03  0.75086577210E+03  0.12509389685E+03 0.  0.
         23    2    1    2    0    0  0.52304913042E+01  0.24611051200E+03  0.58906275232E+02  0.26769391882E+03  0.87134050498E+02 0.  0.
          5    1    3    3  502    0 -0.42209255497E+02 -0.50545824297E+02  0.95396198501E+02  0.11599314071E+03  0.41800000000E+01 0. -1.
         -5    1    3    3    0  502  0.36978764192E+02 -0.19556468770E+03  0.60285388745E+03  0.63487263139E+03  0.41800000000E+01 0. -1.
        -11    1    4    4    0    0  0.31950424993E+02  0.33162330666E+02  0.16569751789E+02  0.48940029698E+02  0.00000000000E+00 0.  1.
         11    1    4    4    0    0 -0.26719933689E+02  0.21294818133E+03  0.42336523443E+02  0.21875388912E+03  0.00000000000E+00 0. -1.
</event>
<event>
 8    1  0.7224195E-009  0.1137517E+03  0.7561462E-02  0.1253776E+00
          2   -1    0    0  501    0  0.00000000000E+00  0.00000000000E+00  0.44150502632E+02  0.44150502632E+02  0.00000000000E+00 0. -1.
         -2   -1    0    0    0  501 -0.00000000000E+00 -0.00000000000E+00 -0.47877352626E+03  0.47877352626E+03  0.00000000000E+00 0.  1.
         25    2    1    2    0    0 -0.55546179998E+02  0.70792656707E+02 -0.29281867039E+03  0.33089014406E+03  0.12509410598E+03 0.  0.
         23    2    1    2    0    0  0.55546179998E+02 -0.70792656707E+02 -0.14180435324E+03  0.19203388483E+03  0.93121211174E+02 0.  0.
          5    1    3    3  502    0 -0.68125722636E+02  0.68668716629E+02 -0.10589210008E+03  0.14348211034E+03  0.41800000000E+01 0.  1.
         -5    1    3    3    0  502  0.12579542638E+02  0.21239400784E+01 -0.18692657031E+03  0.18740803372E+03  0.41800000000E+01 0.  1.
        -11    1    4    4    0    0  0.39998394444E+02 -0.86412256769E+02 -0.14079619444E+03  0.16997210961E+03  0.00000000000E+00 0.  1.
         11    1    4    4    0    0  0.15547785555E+02  0.15619600062E+02 -0.10081588019E+01  0.22061775221E+02  0.00000000000E+00 0. -1.
</event>
<event>
 8    1  0.7224195E-009  0.1166452E+03  0.7561462E-02  0.1248736E+00
          2   -1    0    0  501    0  0.00000000000E+00  0.00000000000E+00  0.65972125393E+03  0.65972125393E+03  0.00000000000E+00 0. -1.
         -2   -1    0    0    0  501 -0.00000000000E+00 -0.00000000000E+00 -0.22379230135E+02  0.22379230135E+02  0.00000000000E+00 0.  1.
         25    2    1    2    0    0 -0.45665893879E+02 -0.87218031816E+00  0.30706199281E+03  0.33469612094E+03  0.12509313084E+03 0.  0.
         23    2    1    2    0    0  0.45665893879E+02  0.87218031816E+00  0.33028003098E+03  0.34740436312E+03  0.97564122953E+02 0.  0.
          5    1    3    3  502    0 -0.21565374528E+02 -0.62319118439E+02  0.17348856524E+03  0.18564614882E+03  0.41800000000E+01 0. -1.
         -5    1    3    3    0  502 -0.24100519351E+02  0.61446938120E+02  0.13357342757E+03  0.14904997212E+03  0.41800000000E+01 0. -1.
        -11    1    4    4    0    0 -0.24422701464E+02 -0.15728029059E+02  0.48228573047E+02  0.56301283316E+02  0.00000000000E+00 0.  1.
         11    1    4    4    0    0  0.70088595343E+02  0.16600209378E+02  0.28205145794E+03  0.29110307981E+03  0.00000000000E+00 0. -1.
</event>
<event>
 8    1  0.7224195E-009  0.1276356E+03  0.7561462E-02  0.1231007E+00
          2   -1    0    0  501    0  0.00000000000E+00  0.00000000000E+00  0.18700568657E+03  0.18700568657E+03  0.00000000000E+00 0. -1.
         -2   -1    0    0    0  501 -0.00000000000E+00 -0.00000000000E+00 -0.10089169432E+03  0.10089169432E+03  0.00000000000E+00 0.  1.
         25    2    1    2    0    0  0.46411529122E+02 -0.71300355477E+02  0.52306542866E+02  0.16005433717E+03  0.12507456054E+03 0.  0.
         23    2    1    2    0    0 -0.46411529122E+02  0.71300355477E+02  0.33807449382E+02  0.12784304371E+03  0.89236368512E+02 0.  0.
          5    1    3    3  502    0 -0.41509420542E+02 -0.72014432305E+01  0.16371058135E+02  0.45391372779E+02  0.41800000000E+01 0. -1.
         -5    1    3    3    0  502  0.87920949664E+02 -0.64098912246E+02  0.35935484731E+02  0.11466296440E+03  0.41800000000E+01 0. -1.
        -11    1    4    4    0    0 -0.25646277849E+02 -0.39830748316E+01  0.41945233283E+02  0.49325440168E+02  0.00000000000E+00 0. -1.
         11    1    4    4    0    0 -0.20765251273E+02  0.75283430309E+02 -0.81377839009E+01  0.78517603544E+02  0.00000000000E+00 0.  1.
</event>
<event>
 8    1  0.7224195E-009  0.1240365E+03  0.7561462E-02  0.1236583E+00
         -1   -1    0    0    0  501 -0.00000000000E+00  0.00000000000E+00  0.20094547658E+02  0.20094547658E+02  0.00000000000E+00 0.  1.
          1   -1    0    0  501    0  0.00000000000E+00 -0.00000000000E+00 -0.87970979581E+03  0.87970979581E+03  0.00000000000E+00 0. -1.
         25    2    1    2    0    0  0.42747346764E+01  0.73745159170E+02 -0.49420070342E+03  0.51511224756E+03  0.12509864295E+03 0.  0.
         23    2    1    2    0    0 -0.42747346764E+01 -0.73745159170E+02 -0.36541454473E+03  0.38469209591E+03  0.94887287322E+02 0.  0.
          5    1    3    3  502    0 -0.28712751239E+02  0.99198090592E+02 -0.35779889159E+03  0.37242744593E+03  0.41800000000E+01 0. -1.
         -5    1    3    3    0  502  0.32987485915E+02 -0.25452931422E+02 -0.13640181183E+03  0.14268480163E+03  0.41800000000E+01 0. -1.
        -11    1    4    4    0    0 -0.70677151197E+01 -0.88017412141E+02 -0.35727748927E+03  0.36802747422E+03  0.00000000000E+00 0. -1.
         11    1    4    4    0    0  0.27929804433E+01  0.14272252972E+02 -0.81370554622E+01  0.16664621695E+02  0.00000000000E+00 0.  1.
</event>
<event>
 8    1  0.7224195E-009  0.9570404E+02  0.7561462E-02  0.1289598E+00
         -1   -1    0    0    0  501 -0.00000000000E+00  0.00000000000E+00  0.83611492711E+02  0.83611492711E+02  0.00000000000E+00 0.  1.
          1   -1    0    0  501    0  0.00000000000E+00 -0.00000000000E+00 -0.23278562919E+03  0.23278562919E+03  0.00000000000E+00 0. -1.
         25    2    1    2    0    0  0.73635070052E+02 -0.43200947033E+02 -0.61638486771E+02  0.16350806772E+03  0.12508852783E+03 0.  0.
         23    2    1    2    0    0 -0.73635070052E+02  0.43200947033E+02 -0.87535649713E+02  0.15288905418E+03  0.91783046101E+02 0.  0.
          5    1    3    3  502    0  0.71706402822E+01 -0.72612764656E+01 -0.83904162305E+02  0.84625794354E+02  0.41800000000E+01 0.  1.
         -5    1    3    3    0  502  0.66464429769E+02 -0.35939670567E+02  0.22265675534E+02  0.78882273370E+02  0.41800000000E+01 0.  1.
        -11    1    4    4    0    0 -0.30640488072E+02  0.52434344387E+02 -0.70038665058E+01  0.61133085368E+02  0.00000000000E+00 0.  1.
         11    1    4    4    0    0 -0.42994581979E+02 -0.92333973541E+01 -0.80531783208E+02  0.91755968813E+02  0.00000000000E+00 0. -1.
</event>
<event>
 8    1  0.7224195E-009  0.1277131E+03  0.7561462E-02  0.1230889E+00
          3   -1    0    0  501    0  0.00000000000E+00  0.00000000000E+00  0.33425293326E+03  0.33425293326E+03  0.00000000000E+00 0. -1.
         -3   -1    0    0    0  501 -0.00000000000E+00 -0.00000000000E+00 -0.15143967979E+03  0.15143967979E+03  0.00000000000E+00 0.  1.
         25    2    1    2    0    0 -0.54318014236E+02 -0.11449365839E+03 -0.67253481041E+02  0.19034075779E+03  0.12508928365E+03 0.  0.
         23    2    1    2    0    0  0.54318014236E+02  0.11449365839E+03  0.25006673450E+03  0.29535185526E+03  0.92952150150E+02 0.  0.
          5    1    3    3  502    0 -0.19199657958E+01 -0.20476569126E+02  0.35652811428E+02  0.41371143501E+02  0.41800000000E+01 0. -1.
         -5    1    3    3    0  502 -0.52398048440E+02 -0.94017089259E+02 -0.10290629247E+03  0.14896961429E+03  0.41800000000E+01 0. -1.
        -11    1    4    4    0    0  0.25762011234E+02  0.53869594332E+02  0.20759796020E+03  0.21601510942E+03  0.00000000000E+00 0. -1.
         11    1    4    4    0    0  0.28556003002E+02  0.60624064053E+02  0.42468774300E+02  0.79336745839E+02  0.00000000000E+00 0.  1.
</event>
<event>
 8    1  0.7224195E-009  0.1350737E+03  0.7561462E-02  0.1220116E+00
          1   -1    0    0  501    0  0.00000000000E+00  0.00000000000E+00  0.71650067625E+02  0.71650067625E+02  0.00000000000E+00 0. -1.
         -1   -1    0    0    0  501 -0.00000000000E+00 -0.00000000000E+00 -0.37690242805E+03  0.37690242805E+03  0.00000000000E+00 0.  1.
         25    2    1    2    0    0 -0.10822883824E+03  0.33128439740E+02 -0.21582767003E+03  0.27393525250E+03  0.12509182414E+03 0.  0.
         23    2    1    2    0    0  0.10822883824E+03 -0.33128439740E+02 -0.89424690397E+02  0.17461724317E+03  0.98404427816E+02 0.  0.
          5    1    3    3  502    0 -0.40405282814E+02 -0.10808029918E+02 -0.18103900907E+03  0.18585477017E+03  0.41800000000E+01 0. -1.
         -5    1    3    3    0  502 -0.67823555428E+02  0.43936469658E+02 -0.34788660961E+02  0.88080482335E+02  0.41800000000E+01 0. -1.
        -11    1    4    4    0    0  0.50896390955E+02  0.32237807527E+02 -0.53387089600E+02  0.80497827190E+02  0.00000000000E+00 0.  1.
         11    1    4    4    0    0  0.57332447286E+02 -0.65366247267E+02 -0.36037600797E+02  0.94119415982E+02  0.00000000000E+00 0. -1.
</event>
<event>
 8    1  0.7224195E-009  0.1182527E+03  0.7561462E-02  0.1246008E+00
          1   -1    0    0  501    0  0.00000000000E+00  0.00000000000E+00  0.95260003757E+03  0.95260003757E+03  0.00000000000E+00 0. -1.
         -1   -1    0    0    0  501 -0.00000000000E+00 -0.00000000000E+00 -0.18993030996E+02  0.18993030996E+02  0.00000000000E+00 0.  1.
         25    2    1    2    0    0 -0.62806134200E+02  0.46689869025E+02  0.55624941635E+03  0.57548718069E+03  0.12509007789E+03 0.  0.
         23    2    1    2    0    0  0.62806134200E+02 -0.46689869025E+02  0.37735759022E+03  0.39610588787E+03  0.91523598852E+02 0.  0.
          5    1    3    3  502    0 -0.38767815716E+02 -0.33761058162E+02  0.11136158766E+03  0.12272582528E+03  0.41800000000E+01 0.  1.
         -5    1    3    3    0  502 -0.24038318484E+02  0.80450927187E+02  0.44488782869E+03  0.45276135541E+03  0.41800000000E+01 0.  1.
        -11    1    4    4    0    0  0.25007501989E+02  0.14520896077E+02  0.31153422119E+02  0.42506085309E+02  0.00000000000E+00 0.  1.
         11    1    4    4    0    0  0.37798632212E+02 -0.61210765102E+02  0.34620416810E+03  0.35359980256E+03  0.00000000000E+00 0. -1.
</event>
<event>
 8    1  0.7224195E-009  0.2631373E+03  0.7561462E-02  0.1105273E+00
         -2   -1    0    0    0  501 -0.00000000000E+00  0.00000000000E+00  0.17634421981E+03  0.17634421981E+03  0.00000000000E+00 0.  1.
          2   -1    0    0  501    0  0.00000000000E+00 -0.00000000000E+00 -0.43814185259E+03  0.43814185259E+03  0.00000000000E+00 0. -1.
         25    2    1    2    0    0  0.82588000148E+01 -0.24483500258E+03 -0.53833551083E+02  0.28028089731E+03  0.12508774484E+03 0.  0.
         23    2    1    2    0    0 -0.82588000148E+01  0.24483500258E+03 -0.20796408169E+03  0.33420517509E+03  0.91824035628E+02 0.  0.
          5    1    3    3  502    0 -0.33179416646E+02 -0.22567912399E+03 -0.53961181234E+02  0.23443809881E+03  0.41800000000E+01 0.  1.
         -5    1    3    3    0  502  0.41438216661E+02 -0.19155878586E+02  0.12763015050E+00  0.45842798495E+02  0.41800000000E+01 0.  1.
        -11    1    4    4    0    0 -0.25477556447E+02  0.44988855114E+02 -0.10550367621E+02  0.52767539491E+02  0.00000000000E+00 0.  1.
         11    1    4    4    0    0  0.17218756432E+02  0.19984614746E+03 -0.19741371407E+03  0.28143763560E+03  0.00000000000E+00 0. -1.
</event>
<event>
 8    1  0.7224195E-009  0.1570811E+03  0.7561462E-02  0.1192032E+00
          1   -1    0    0  501    0  0.00000000000E+00  0.00000000000E+00  0.33606266757E+03  0.33606266757E+03  0.00000000000E+00 0. -1.
         -1   -1    0    0    0  501 -0.00000000000E+00 -0.00000000000E+00 -0.92793466836E+02  0.92793466836E+02  0.00000000000E+00 0.  1.
         25    2    1    2    0    0  0.88148688657E+02  0.10247714517E+03  0.17123589963E+03  0.25147725770E+03  0.12508925302E+03 0.  0.
         23    2    1    2    0    0 -0.88148688657E+02 -0.10247714517E+03  0.72033301102E+02  0.17737887671E+03  0.89457883058E+02 0.  0.
          5    1    3    3  502    0  0.15502842004E+02 -0.11759234733E+02  0.92908748462E+02  0.95016449379E+02  0.41800000000E+01 0.  1.
         -5    1    3    3    0  502  0.72645846653E+02  0.11423637990E+03  0.78327151170E+02  0.15646080832E+03  0.41800000000E+01 0.  1.
        -11    1    4    4    0    0 -0.53214061288E+02 -0.11078990270E+03  0.39985081821E+02  0.12924761362E+03  0.00000000000E+00 0.  1.
         11    1    4    4    0    0 -0.34934627369E+02  0.83127575315E+01  0.32048219281E+02  0.48131263086E+02  0.00000000000E+00 0. -1.
</event>
<event>
 8    1  0.7224195E-009  0.1257344E+03  0.7561462E-02  0.1233926E+00
         -1   -1    0    0    0  501 -0.00000000000E+00  0.00000000000E+00  0.31547105296E+02  0.31547105296E+02  0.00000000000E+00 0.  1.
          1   -1    0    0  501    0  0.00000000000E+00 -0.00000000000E+00 -0.10602300574E+04  0.10602300574E+04  0.00000000000E+00 0. -1.
         25    2    1    2    0    0  0.40934864812E+02  0.50012498461E+02 -0.93581405246E+03  0.94634629763E+03  0.12508581489E+03 0.  0.
         23    2    1    2    0    0 -0.40934864812E+02 -0.50012498461E+02 -0.92868899647E+02  0.14543086508E+03  0.91370623483E+02 0.  0.
          5    1    3    3  502    0 -0.42613508371E+02  0.10252598152E+01 -0.34198357844E+03  0.34465519375E+03  0.41800000000E+01 0.  1.
         -5    1    3    3    0  502  0.83548373183E+02  0.48987238646E+02 -0.59383047402E+03  0.60169110387E+03  0.41800000000E+01 0.  1.
        -11    1    4    4    0    0 -0.11296967968E+01 -0.68005246773E+02 -0.52062442095E+02  0.85653299297E+02  0.00000000000E+00 0. -1.
         11    1    4    4    0    0 -0.39805168015E+02  0.17992748312E+02 -0.40806457552E+02  0.59777565779E+02  0.00000000000E+00 0.  1.
</event>
<event>
 8    1  0.7224195E-009  0.1016123E+03  0.7561462E-02  0.1276942E+00
          2   -1    0    0  501    0  0.00000000000E+00  0.00000000000E+00  0.56349579913E+02  0.56349579913E+02  0.00000000000E+00 0. -1.
         -2   -1    0    0    0  501 -0.00000000000E+00 -0.00000000000E+00 -0.21309421288E+03  0.21309421288E+03  0.00000000000E+00 0.  1.
         25    2    1    2    0    0 -0.99926709066E+01 -0.12832685182E+02 -0.10839546868E+03  0.16631742105E+03  0.12508947051E+03 0.  0.
         23    2    1    2    0    0  0.99926709066E+01  0.12832685182E+02 -0.48349164282E+02  0.10312637174E+03  0.89626310767E+02 0.  0.
          5    1    3    3  502    0 -0.36524697119E+01 -0.63795143771E+02 -0.25947624706E+02  0.69093505712E+02  0.41800000000E+01 0.  1.
         -5    1    3    3    0  502 -0.63402011947E+01  0.50962458589E+02 -0.82447843975E+02  0.97223915333E+02  0.41800000000E+01 0.  1.
        -11    1    4    4    0    0  0.48060441095E+02  0.12223684342E+02 -0.41014147485E+02  0.64353591595E+02  0.00000000000E+00 0.  1.
         11    1    4    4    0    0 -0.38067770189E+02  0.60900083905E+00 -0.73350167973E+01  0.38772780150E+02  0.00000000000E+00 0. -1.
</event>
<event>
 8    1  0.7224195E-009  0.2425960E+03  0.7561462E-02  0.1118075E+00
          2   -1    0    0  501    0  0.00000000000E+00  0.00000000000E+00  0.31835063414E+03  0.31835063414E+03  0.00000000000E+00 0. -1.
         -2   -1    0    0    0  501 -0.00000000000E+00 -0.00000000000E+00 -0.19489194087E+03  0.19489194087E+03  0.00000000000E+00 0.  1.
         25    2    1    2    0    0 -0.21646705997E+03  0.62337477016E+02  0.69242595188E+02  0.26680792468E+03  0.12509189659E+03 0.  0.
         23    2    1    2    0    0  0.21646705997E+03 -0.62337477016E+02  0.54216098083E+02  0.24643465033E+03  0.83944639476E+02 0.  0.
          5    1    3    3  502    0 -0.14860284545E+03  0.90382835152E+02  0.81703118781E+02  0.19221013132E+03  0.41800000000E+01 0. -1.
         -5    1    3    3    0  502 -0.67864214525E+02 -0.28045358136E+02 -0.12460523593E+02  0.74597793361E+02  0.41800000000E+01 0. -1.
        -11    1    4    4    0    0  0.17715515188E+03 -0.80222207986E+02  0.29568671216E+02  0.19670754132E+03  0.00000000000E+00 0. -1.
         11    1    4    4    0    0  0.39311908088E+02  0.17884730970E+02  0.24647426867E+02  0.49727109011E+02  0.00000000000E+00 0.  1.
</event>
<event>
 8    1  0.7224195E-009  0.1053015E+03  0.7561462E-02  0.1269527E+00
         -3   -1    0    0    0  501 -0.00000000000E+00  0.00000000000E+00  0.42777395885E+02  0.42777395885E+02  0.00000000000E+00 0.  1.
          3   -1    0    0  501    0  0.00000000000E+00 -0.00000000000E+00 -0.36219664903E+03  0.36219664903E+03  0.00000000000E+00 0. -1.
         25    2    1    2    0    0  0.60468688145E+02 -0.14951571119E+02 -0.15929193264E+03  0.21190512395E+03  0.12509936062E+03 0.  0.
         23    2    1    2    0    0 -0.60468688145E+02  0.14951571119E+02 -0.16012732051E+03  0.19306892096E+03  0.88061556564E+02 0.  0.
          5    1    3    3  502    0  0.97811482591E+02 -0.98541729603E+01 -0.13430883548E+03  0.16649482436E+03  0.41800000000E+01 0. -1.
         -5    1    3    3    0  502 -0.37342794445E+02 -0.50973981591E+01 -0.24983097154E+02  0.45410299585E+02  0.41800000000E+01 0. -1.
        -11    1    4    4    0    0 -0.74276639574E+01 -0.12517643830E+02  0.65872815153E+01  0.15976666632E+02  0.00000000000E+00 0.  1.
         11    1    4    4    0    0 -0.53041024188E+02  0.27469214950E+02 -0.16671460202E+03  0.17709225433E+03  0.00000000000E+00 0. -1.
</event>
<event>
 8    1  0.7224195E-009  0.9376665E+02  0.7561462E-02  0.1293978E+00
          1   -1    0    0  501    0  0.00000000000E+00  0.00000000000E+00  0.10613465437E+03  0.10613465437E+03  0.00000000000E+00 0. -1.
         -1   -1    0    0    0  501 -0.00000000000E+00 -0.00000000000E+00 -0.15483476410E+03  0.15483476410E+03  0.00000000000E+00 0.  1.
         25    2    1    2    0    0  0.18942073106E+02  0.61968300534E+02 -0.52236278536E+02  0.15024696030E+03  0.12508656155E+03 0.  0.
         23    2    1    2    0    0 -0.18942073106E+02 -0.61968300534E+02  0.35361688061E+01  0.11072245816E+03  0.89711124425E+02 0.  0.
          5    1    3    3  502    0 -0.16331701540E+02  0.19477589488E+02  0.37082431999E+02  0.45151745596E+02  0.41800000000E+01 0. -1.
         -5    1    3    3    0  502  0.35273774646E+02  0.42490711046E+02 -0.89318710535E+02  0.10509521471E+03  0.41800000000E+01 0. -1.
        -11    1    4    4    0    0  0.30867050661E+02 -0.59570834146E+01 -0.12910764436E+02  0.33984547924E+02  0.00000000000E+00 0.  1.
         11    1    4    4    0    0 -0.49809123767E+02 -0.56011217119E+02  0.16446933242E+02  0.76737910231E+02  0.00000000000E+00 0. -1.
</event>
<event>
 8    1  0.7224195E-009  0.1397483E+03  0.7561462E-02  0.1213668E+00
         -1   -1    0    0    0  501 -0.00000000000E+00  0.00000000000E+00  0.17144589820E+03  0.17144589820E+03  0.00000000000E+00 0.  1.
          1   -1    0    0  501    0  0.00000000000E+00 -0.00000000000E+00 -0.17038396441E+03  0.17038396441E+03  0.00000000000E+00 0. -1.
         25    2    1    2    0    0 -0.54350362909E+02 -0.10149120390E+03 -0.58973807331E+02  0.17994277326E+03  0.12508822998E+03 0.  0.
         23    2    1    2    0    0  0.54350362909E+02  0.10149120390E+03  0.60035741122E+02  0.16188708935E+03  0.96688743224E+02 0.  0.
          5    1    3    3  502    0 -0.70950413553E+01 -0.11448681318E+03 -0.62378652700E+02  0.13063743229E+03  0.41800000000E+01 0. -1.
         -5    1    3    3    0  502 -0.47255321554E+02  0.12995609274E+02  0.34048453690E+01  0.49305340964E+02  0.41800000000E+01 0. -1.
        -11    1    4    4    0    0  0.24509632712E+02  0.55906118186E+02 -0.20726287378E+02  0.64465456912E+02  0.00000000000E+00 0. -1.
         11    1    4    4    0    0  0.29840730198E+02  0.45585085719E+02  0.80762028500E+02  0.97421632434E+02  0.00000000000E+00 0.  1.
</event>
<event>
 8    1  0.7224195E-009  0.7586359E+02  0.7561462E-02  0.1341217E+00
          2   -1    0    0  501    0  0.00000000000E+00  0.00000000000E+00  0.24124638593E+03  0.24124638593E+03  0.00000000000E+00 0. -1.
         -2   -1    0    0    0  501 -0.00000000000E+00 -0.00000000000E+00 -0.49221016492E+02  0.49221016492E+02  0.00000000000E+00 0.  1.
         25    2    1    2    0    0 -0.10806006938E+02 -0.87382528499E+01  0.10706838735E+03  0.16524898721E+03  0.12510180397E+03 0.  0.
         23    2    1    2    0    0  0.10806006938E+02  0.87382528499E+01  0.84956982083E+02  0.12521841521E+03  0.90933139467E+02 0.  0.
          5    1    3    3  502    0 -0.32724257858E+02  0.52581627937E+01 -0.17647931152E+02  0.37781572257E+02  0.41800000000E+01 0.  1.
         -5    1    3    3    0  502  0.21918250920E+02 -0.13996415644E+02  0.12471631851E+03  0.12746741496E+03  0.41800000000E+01 0.  1.
        -11    1    4    4    0    0  0.50631965219E+02  0.11958337744E+02  0.48871337190E+02  0.71379306121E+02  0.00000000000E+00 0.  1.
         11    1    4    4    0    0 -0.39825958281E+02 -0.32200848944E+01  0.36085644893E+02  0.53839109085E+02  0.00000000000E+00 0. -1.
</event>
<event>
 8    1  0.7224195E-009  0.1308152E+03  0.7561462E-02  0.1226251E+00
          1   -1    0    0  501    0  0.00000000000E+00  0.00000000000E+00  0.26131052685E+03  0.26131052685E+03  0.00000000000E+00 0. -1.
         -1   -1    0    0    0  501 -0.00000000000E+00 -0.00000000000E+00 -0.74643928649E+02  0.74643928649E+02  0.00000000000E+00 0.  1.
         25    2    1    2    0    0 -0.26506591777E+02 -0.79602107006E+02  0.13421074703E+03  0.20174318718E+03  0.12509474052E+03 0.  0.
         23    2    1    2    0    0  0.26506591777E+02  0.79602107006E+02  0.52455851167E+02  0.13421126832E+03  0.90674987597E+02 0.  0.
          5    1    3    3  502    0 -0.11259669827E+02 -0.11167721962E+03  0.11653611884E+03  0.16185401120E+03  0.41800000000E+01 0.  1.
         -5    1    3    3    0  502 -0.15246921950E+02  0.32075112615E+02  0.17674628190E+02  0.39889175974E+02  0.41800000000E+01 0.  1.
        -11    1    4    4    0    0 -0.25809942826E+02  0.41335818840E+02 -0.31172340616E+01  0.48831549392E+02  0.00000000000E+00 0.  1.
         11    1    4    4    0    0  0.52316534603E+02  0.38266288166E+02  0.55573085228E+02  0.85379718931E+02  0.00000000000E+00 0. -1.
</event>
<event>
 8    1  0.7224195E-009  0.2020093E+03  0.7561462E-02  0.1148055E+00
         -2   -1    0    0    0  501 -0.00000000000E+00  0.00000000000E+00  0.86350211797E+02  0.86350211797E+02  0.00000000000E+00 0.  1.
          2   -1    0    0  501    0  0.00000000000E+00 -0.00000000000E+00 -0.52392107095E+03  0.52392107095E+03  0.00000000000E+00 0. -1.
         25    2    1    2    0    0 -0.17858578506E+03 -0.16935980344E+02 -0.18510319963E+03  0.28651336897E+03  0.12508799314E+03 0.  0.
         23    2    1    2    0    0  0.17858578506E+03  0.16935980344E+02 -0.25246765953E+03  0.32375791378E+03  0.94337466428E+02 0.  0.
          5    1    3    3  502    0 -0.35463255825E+02 -0.43334004648E+02 -0.71757166098E+01  0.56607789052E+02  0.41800000000E+01 0.  1.
         -5    1    3    3    0  502 -0.14312252924E+03  0.26398024304E+02 -0.17792748302E+03  0.22990557992E+03  0.41800000000E+01 0.  1.
        -11    1    4    4    0    0  0.31204125847E+02  0.42462318588E+02 -0.75049795252E+02  0.91701786989E+02  0.00000000000E+00 0. -1.
         11    1    4    4    0    0  0.14738165922E+03 -0.25526338244E+02 -0.17741786428E+03  0.23205612679E+03  0.00000000000E+00 0.  1.
</event>
<event>
 8    1  0.7224195E-009  0.1155027E+03  0.7561462E-02  0.1250706E+00
         -1   -1    0    0    0  501 -0.00000000000E+00  0.00000000000E+00  0.16787744921E+03  0.16787744921E+03  0.00000000000E+00 0.  1.
          1   -1    0    0  501    0  0.00000000000E+00 -0.00000000000E+00 -0.11025232202E+03  0.11025232202E+03  0.00000000000E+00 0. -1.
         25    2    1    2    0    0 -0.29440408146E+02 -0.70475498635E+02  0.61515480896E+01  0.14669455322E+03  0.12509163386E+03 0.  0.
         23    2    1    2    0    0  0.29440408146E+02  0.70475498635E+02  0.51473579093E+02  0.13143521801E+03  0.93766484680E+02 0.  0.
          5    1    3    3  502    0 -0.61507021286E+02 -0.79956927253E+00  0.26687631789E+02  0.67182252635E+02  0.41800000000E+01 0. -1.
         -5    1    3    3    0  502  0.32066613141E+02 -0.69675929363E+02 -0.20536083699E+02  0.79512300587E+02  0.41800000000E+01 0. -1.
        -11    1    4    4    0    0 -0.15257927879E+02  0.17117395105E+02  0.57169058377E+02  0.61596353902E+02  0.00000000000E+00 0.  1.
         11    1    4    4    0    0  0.44698336024E+02  0.53358103530E+02 -0.56954792842E+01  0.69838864108E+02  0.00000000000E+00 0. -1.
</event>
<event>
 8    1  0.7224195E-009  0.1576108E+03  0.7561462E-02  0.1191421E+00
         -2   -1    0    0    0  501 -0.00000000000E+00  0.00000000000E+00  0.19992232089E+03  0.19992232089E+03  0.00000000000E+00 0.  1.
          2   -1    0    0  501    0  0.00000000000E+00 -0.00000000000E+00 -0.59483880889E+03  0.59483880889E+03  0.00000000000E+00 0. -1.
         25    2    1    2    0    0 -0.13651727966E+02 -0.12567957046E+03 -0.54809891017E+03  0.57623019830E+03  0.12508837675E+03 0.  0.
         23    2    1    2    0    0  0.13651727966E+02  0.12567957046E+03  0.15318242217E+03  0.21853093148E+03  0.91154755467E+02 0.  0.
          5    1    3    3  502    0  0.54996983917E+02 -0.46560582744E+02 -0.19661344820E+03  0.20944420861E+03  0.41800000000E+01 0. -1.
         -5    1    3    3    0  502 -0.68648711882E+02 -0.79118987713E+02 -0.35148546197E+03  0.36678598970E+03  0.41800000000E+01 0. -1.
        -11    1    4    4    0    0  0.34385577680E+02  0.96254395937E+02  0.59728036565E+02  0.11838376173E+03  0.00000000000E+00 0. -1.
         11    1    4    4    0    0 -0.20733849715E+02  0.29425174520E+02  0.93454385608E+02  0.10014716975E+03  0.00000000000E+00 0.  1.
</event>
<event>
 8    1  0.7224195E-009  0.6563817E+02  0.7561462E-02  0.1375587E+00
         -2   -1    0    0    0  501 -0.00000000000E+00  0.00000000000E+00  0.32645598551E+02  0.32645598551E+02  0.00000000000E+00 0.  1.
          2   -1    0    0  501    0  0.00000000000E+00 -0.00000000000E+00 -0.11545378336E+04  0.11545378336E+04  0.00000000000E+00 0. -1.
         25    2    1    2    0    0 -0.76894660030E+01 -0.47690204499E+02 -0.10545529268E+04  0.10630441354E+04  0.12508986722E+03 0.  0.
         23    2    1    2    0    0  0.76894660030E+01  0.47690204499E+02 -0.67339308264E+02  0.12413929677E+03  0.92425640777E+02 0.  0.
          5    1    3    3  502    0 -0.27194871236E+02 -0.24676669342E+02 -0.99905760629E+03  0.99974100252E+03  0.41800000000E+01 0. -1.
         -5    1    3    3    0  502  0.19505405233E+02 -0.23013535156E+02 -0.55495320532E+02  0.63303132898E+02  0.41800000000E+01 0. -1.
        -11    1    4    4    0    0  0.25054104185E+02  0.29739820802E+02  0.12212537331E+02  0.40759184805E+02  0.00000000000E+00 0.  1.
         11    1    4    4    0    0 -0.17364638182E+02  0.17950383696E+02 -0.79551845595E+02  0.83380111967E+02  0.00000000000E+00 0. -1.
</event>
<event>
 8    1  0.7224195E-009  0.9891588E+02  0.7561462E-02  0.1282592E+00
         -2   -1    0    0    0  501 -0.00000000000E+00  0.00000000000E+00  0.44789993954E+02  0.44789993954E+02  0.00000000000E+00 0.  1.
          2   -1    0    0  501    0  0.00000000000E+00 -0.00000000000E+00 -0.38914432673E+03  0.38914432673E+03  0.00000000000E+00 0. -1.
         25    2    1    2    0    0  0.46035939724E+02 -0.45389595078E+02 -0.12731645342E+03  0.18983195129E+03  0.12508863790E+03 0.  0.
         23    2    1    2    0    0 -0.46035939724E+02  0.45389595078E+02 -0.21703787936E+03  0.24410236939E+03  0.91109837995E+02 0.  0.
          5    1    3    3  502    0 -0.21908506339E+02 -0.39619322661E+02 -0.13828269846E+00  0.45466085165E+02  0.41800000000E+01 0. -1.
         -5    1    3    3    0  502  0.67944446063E+02 -0.57702724172E+01 -0.12717817072E+03  0.14436586613E+03  0.41800000000E+01 0. -1.
        -11    1    4    4    0    0 -0.49997274776E+02  0.13327684005E+02 -0.43546419658E+02  0.67628731401E+02  0.00000000000E+00 0.  1.
         11    1    4    4    0    0  0.39613350520E+01  0.32061911073E+02 -0.17349145970E+03  0.17647363799E+03  0.00000000000E+00 0. -1.
</event>
<event>
 8    1  0.7224195E-009  0.1232848E+03  0.7561462E-02  0.1237774E+00
          1   -1    0    0  501    0  0.00000000000E+00  0.00000000000E+00  0.51732876437E+02  0.51732876437E+02  0.00000000000E+00 0. -1.
         -1   -1    0    0    0  501 -0.00000000000E+00 -0.00000000000E+00 -0.31553873552E+03  0.31553873552E+03  0.00000000000E+00 0.  1.
         25    2    1    2    0    0 -0.64059630608E+02  0.10521752854E+02 -0.12387222063E+03  0.18763312314E+03  0.12509004077E+03 0.  0.
         23    2    1    2    0    0  0.64059630608E+02 -0.10521752854E+02 -0.13993363845E+03  0.17963848881E+03  0.92055526366E+02 0.  0.
          5    1    3    3  502    0  0.31393459113E+02  0.22414540564E+02 -0.13299030678E+02  0.41015820372E+02  0.41800000000E+01 0.  1.
         -5    1    3    3    0  502 -0.95453089721E+02 -0.11892787710E+02 -0.11057318995E+03  0.14661730277E+03  0.41800000000E+01 0.  1.
        -11    1    4    4    0    0 -0.18411513370E+02  0.16479127341E+02 -0.21099926988E+02  0.32492343427E+02  0.00000000000E+00 0.  1.
         11    1    4    4    0    0  0.82471143978E+02 -0.27000880195E+02 -0.11883371146E+03  0.14714614538E+03  0.00000000000E+00 0. -1.
</event>
<event>
 8    1  0.7224195E-009  0.2659780E+03  0.7561462E-02  0.1103604E+00
         -2   -1    0    0    0  501 -0.00000000000E+00  0.00000000000E+00  0.59589039731E+02  0.59589039731E+02  0.00000000000E+00 0.  1.
          2   -1    0    0  501    0  0.00000000000E+00 -0.00000000000E+00 -0.17901699358E+04  0.17901699358E+04  0.00000000000E+00 0. -1.
         25    2    1    2    0    0  0.24735348626E+03 -0.32256159481E+02 -0.13888688627E+04  0.14166262066E+04  0.12509550101E+03 0.  0.
         23    2    1    2    0    0 -0.24735348626E+03  0.32256159481E+02 -0.34171203330E+03  0.43313276889E+03  0.92804497708E+02 0.  0.
          5    1    3    3  502    0  0.21654269497E+03  0.61460703487E+01 -0.92042171958E+03  0.94558031240E+03  0.41800000000E+01 0. -1.
         -5    1    3    3    0  502  0.30810791294E+02 -0.38402229830E+02 -0.46844714315E+03  0.47104589420E+03  0.41800000000E+01 0. -1.
        -11    1    4    4    0    0 -0.15344044422E+03  0.64688050245E+02 -0.20435404268E+03  0.26360783093E+03  0.00000000000E+00 0. -1.
         11    1    4    4    0    0 -0.93913042043E+02 -0.32431890764E+02 -0.13735799062E+03  0.16952493797E+03  0.00000000000E+00 0.  1.
</event>
<event>
 8    1  0.7224195E-009  0.9692586E+02  0.7561462E-02  0.1286897E+00
          2   -1    0    0  501    0  0.00000000000E+00  0.00000000000E+00  0.16761850750E+03  0.16761850750E+03  0.00000000000E+00 0. -1.
         -2   -1    0    0    0  501 -0.00000000000E+00 -0.00000000000E+00 -0.98373509599E+02  0.98373509599E+02  0.00000000000E+00 0.  1.
         25    2    1    2    0    0 -0.54505380809E+02 -0.31653130030E+02  0.14227141388E+02  0.14079298773E+03  0.12508995429E+03 0.  0.
         23    2    1    2    0    0  0.54505380809E+02  0.31653130030E+02  0.55017856517E+02  0.12519902937E+03  0.93140083967E+02 0.  0.
          5    1    3    3  502    0 -0.21059717138E+02 -0.71438453825E+02 -0.21443184431E+02  0.77616022375E+02  0.41800000000E+01 0. -1.
         -5    1    3    3    0  502 -0.33445663671E+02  0.39785323795E+02  0.35670325819E+02  0.63176965358E+02  0.41800000000E+01 0. -1.
        -11    1    4    4    0    0  0.49580266678E+02  0.18248074523E+02 -0.14051694810E+02  0.54668502766E+02  0.00000000000E+00 0.  1.
         11    1    4    4    0    0  0.49251141305E+01  0.13405055507E+02  0.69069551326E+02  0.70530526602E+02  0.00000000000E+00 0. -1.
</event>
<event>
 8    1  0.7224195E-009  0.9581895E+02  0.7561462E-02  0.1289342E+00
         -1   -1    0    0    0  501 -0.00000000000E+00  0.00000000000E+00  0.74293524428E+02  0.74293524428E+02  0.00000000000E+00 0.  1.
          1   -1    0    0  501    0  0.00000000000E+00 -0.00000000000E+00 -0.20336053837E+03  0.20336053837E+03  0.00000000000E+00 0. -1.
         25    2    1    2    0    0  0.56873297726E+02  0.31903357006E+01 -0.89428136045E+02  0.16398091234E+03  0.12509035878E+03 0.  0.
         23    2    1    2    0    0 -0.56873297726E+02 -0.31903357006E+01 -0.39638877902E+02  0.11367315046E+03  0.90031073846E+02 0.  0.
          5    1    3    3  502    0 -0.19679394468E+02 -0.27468995012E+02 -0.71923940642E+02  0.79576063556E+02  0.41800000000E+01 0.  1.
         -5    1    3    3    0  502  0.76552692194E+02  0.30659330713E+02 -0.17504195402E+02  0.84404848786E+02  0.41800000000E+01 0.  1.
        -11    1    4    4    0    0 -0.29486501297E+02  0.22792394550E+02 -0.60112254081E+02  0.70727859424E+02  0.00000000000E+00 0. -1.
         11    1    4    4    0    0 -0.27386796428E+02 -0.25982730251E+02  0.20473376179E+02  0.42945291035E+02  0.00000000000E+00 0.  1.
</event>
<event>
 8    1  0.7224195E-009  0.1663080E+03  0.7561462E-02  0.1181754E+00
         -1   -1    0    0    0  501 -0.00000000000E+00  0.00000000000E+00  0.53135364036E+02  0.53135364036E+02  0.00000000000E+00 0.  1.
          1   -1    0    0  501    0  0.00000000000E+00 -0.00000000000E+00 -0.78890166057E+03  0.78890166057E+03  0.00000000000E+00 0. -1.
         25    2    1    2    0    0 -0.16361431979E+03  0.16152892871E+01 -0.26590775116E+03  0.33634379264E+03  0.12509180597E+03 0.  0.
         23    2    1    2    0    0  0.16361431979E+03 -0.16152892871E+01 -0.46985854537E+03  0.50569323196E+03  0.90478380842E+02 0.  0.
          5    1    3    3  502    0 -0.43416919814E+02 -0.13328474635E+02 -0.16712705430E+01  0.45639267166E+02  0.41800000000E+01 0.  1.
         -5    1    3    3    0  502 -0.12019739997E+03  0.14943763922E+02 -0.26423648062E+03  0.29070452547E+03  0.41800000000E+01 0.  1.
        -11    1    4    4    0    0  0.12819503090E+03  0.98782512011E+01 -0.43865565316E+03  0.45711084853E+03  0.00000000000E+00 0. -1.
         11    1    4    4    0    0  0.35419288884E+02 -0.11493540488E+02 -0.31202892211E+02  0.48582383436E+02  0.00000000000E+00 0.  1.
</event>
<event>
 8    1  0.7224195E-009  0.1422071E+03  0.7561462E-02  0.1210390E+00
          1   -1    0    0  501    0  0.00000000000E+00  0.00000000000E+00  0.38767656060E+03  0.38767656060E+03  0.00000000000E+00 0. -1.
         -1   -1    0    0    0  501 -0.00000000000E+00 -0.00000000000E+00 -0.75930780906E+02  0.75930780906E+02  0.00000000000E+00 0.  1.
         25    2    1    2    0    0  0.11342072170E+03  0.10086476051E+02  0.74395633425E+02  0.18479221951E+03  0.12508979579E+03 0.  0.
         23    2    1    2    0    0 -0.11342072170E+03 -0.10086476051E+02  0.23735014627E+03  0.27881512200E+03  0.91851963559E+02 0.  0.
          5    1    3    3  502    0 -0.13861720109E+02  0.10904072442E+02  0.52537780367E+02  0.55576405480E+02  0.41800000000E+01 0. -1.
         -5    1    3    3    0  502  0.12728244180E+03 -0.81759639096E+00  0.21857853058E+02  0.12921581403E+03  0.41800000000E+01 0. -1.
        -11    1    4    4    0    0 -0.12555236333E+02 -0.33166203590E+02  0.27622439205E+02  0.44951420084E+02  0.00000000000E+00 0. -1.
         11    1    4    4    0    0 -0.10086548536E+03  0.23079727539E+02  0.20972770707E+03  0.23386370191E+03  0.00000000000E+00 0.  1.
</event>
<event>
 8    1  0.7224195E-009  0.1897973E+03  0.7561462E-02  0.1158644E+00
          1   -1    0    0  501    0  0.00000000000E+00  0.00000000000E+00  0.27143567604E+04  0.27143567604E+04  0.00000000000E+00 0. -1.
         -1   -1    0    0    0  501 -0.00000000000E+00 -0.00000000000E+00 -0.21379139541E+02  0.21379139541E+02  0.00000000000E+00 0.  1.
         25    2    1    2    0    0 -0.16383148072E+03  0.44135149017E+02  0.21295861871E+04  0.21399938111E+04  0.12509003979E+03 0.  0.
         23    2    1    2    0    0  0.16383148072E+03 -0.44135149017E+02  0.56339143373E+03  0.59574208875E+03  0.93327719680E+02 0.  0.
          5    1    3    3  502    0 -0.26369048843E+02  0.65478298704E+02  0.81464871459E+03  0.81771188993E+03  0.41800000000E+01 0. -1.
         -5    1    3    3    0  502 -0.13746243187E+03 -0.21343149687E+02  0.13149374725E+04  0.13222819212E+04  0.41800000000E+01 0. -1.
        -11    1    4    4    0    0  0.48147044281E+02 -0.11281737474E+02  0.57904906111E+02  0.76147183960E+02  0.00000000000E+00 0.  1.
         11    1    4    4    0    0  0.11568443644E+03 -0.32853411543E+02  0.50548652762E+03  0.51959490479E+03  0.00000000000E+00 0. -1.
</event>
<event>
 8    1  0.7224195E-009  0.1552984E+03  0.7561462E-02  0.1194109E+00
         -1   -1    0    0    0  501 -0.00000000000E+00  0.00000000000E+00  0.41919351223E+02  0.41919351223E+02  0.00000000000E+00 0.  1.
          1   -1    0    0  501    0  0.00000000000E+00 -0.00000000000E+00 -0.91385398626E+03  0.91385398626E+03  0.00000000000E+00 0. -1.
         25    2    1    2    0    0  0.11390339268E+03 -0.62850907344E+02 -0.21932292692E+03  0.28403261532E+03  0.12509101037E+03 0.  0.
         23    2    1    2    0    0 -0.11390339268E+03  0.62850907344E+02 -0.65261170812E+03  0.67174072216E+03  0.91702436261E+02 0.  0.
          5    1    3    3  502    0  0.28817961569E+01 -0.43026127498E+02 -0.74261047948E+01  0.43956476531E+02  0.41800000000E+01 0. -1.
         -5    1    3    3    0  502  0.11102159653E+03 -0.19824779846E+02 -0.21189682212E+03  0.24007613879E+03  0.41800000000E+01 0. -1.
        -11    1    4    4    0    0 -0.49163736841E+02  0.73881454876E+02 -0.29162720704E+03  0.30483105203E+03  0.00000000000E+00 0.  1.
         11    1    4    4    0    0 -0.64739655842E+02 -0.11030547532E+02 -0.36098450107E+03  0.36690967013E+03  0.00000000000E+00 0. -1.
</event>
<event>
 8    1  0.7224195E-009  0.7345429E+02  0.7561462E-02  0.1348726E+00
          2   -1    0    0  501    0  0.00000000000E+00  0.00000000000E+00  0.16521172951E+03  0.16521172951E+03  0.00000000000E+00 0. -1.
         -2   -1    0    0    0  501 -0.00000000000E+00 -0.00000000000E+00 -0.88274028004E+02  0.88274028004E+02  0.00000000000E+00 0.  1.
         25    2    1    2    0    0 -0.40169322439E+02 -0.22658165868E+02  0.18110758381E+02  0.13454695047E+03  0.12509162788E+03 0.  0.
         23    2    1    2    0    0  0.40169322439E+02  0.22658165868E+02  0.58826943128E+02  0.11893880705E+03  0.92514126696E+02 0.  0.
          5    1    3    3  502    0 -0.33830488683E+02 -0.27967765990E+02  0.69512183488E+02  0.82317154665E+02  0.41800000000E+01 0.  1.
         -5    1    3    3    0  502 -0.63388337566E+01  0.53096001220E+01 -0.51401425106E+02  0.52229795805E+02  0.41800000000E+01 0.  1.
        -11    1    4    4    0    0 -0.18865988994E+02 -0.14500119287E+02  0.40240432452E+02  0.46749025701E+02  0.00000000000E+00 0. -1.
         11    1    4    4    0    0  0.59035311433E+02  0.37158285155E+02  0.18586510676E+02  0.72189781346E+02  0.00000000000E+00 0.  1.
</event>
<event>
 8    1  0.7224195E-009  0.3107610E+03  0.7561462E-02  0.1079982E+00
          2   -1    0    0  501    0  0.00000000000E+00  0.00000000000E+00  0.32017371791E+03  0.32017371791E+03  0.00000000000E+00 0. -1.
         -2   -1    0    0    0  501 -0.00000000000E+00 -0.00000000000E+00 -0.93055263310E+03  0.93055263310E+03  0.00000000000E+00 0.  1.
         25    2    1    2    0    0  0.26634423960E+03  0.14830058642E+03 -0.81049151230E+03  0.87491500076E+03  0.12508976437E+03 0.  0.
         23    2    1    2    0    0 -0.26634423960E+03 -0.14830058642E+03  0.20011259711E+03  0.37581135025E+03  0.90866944221E+02 0.  0.
          5    1    3    3  502    0  0.24997598091E+03  0.13193873707E+03 -0.80123363606E+03  0.84964029643E+03  0.41800000000E+01 0. -1.
         -5    1    3    3    0  502  0.16368258684E+02  0.16361849349E+02 -0.92578762437E+01  0.25274704331E+02  0.41800000000E+01 0. -1.
        -11    1    4    4    0    0 -0.21118712285E+03 -0.15174336383E+03  0.14491048522E+03  0.29769967761E+03  0.00000000000E+00 0.  1.
         11    1    4    4    0    0 -0.55157116748E+02  0.34427774132E+01  0.55202111890E+02  0.78111672632E+02  0.00000000000E+00 0. -1.
</event>
<event>
 8    1  0.7224195E-009  0.1073983E+03  0.7561462E-02  0.1265465E+00
          1   -1    0    0  501    0  0.00000000000E+00  0.00000000000E+00  0.59568116175E+03  0.59568116175E+03  0.00000000000E+00 0. -1.
         -1   -1    0    0    0  501 -0.00000000000E+00 -0.00000000000E+00 -0.45666614545E+02  0.45666614545E+02  0.00000000000E+00 0.  1.
         25    2    1    2    0    0 -0.23063409869E+01  0.15326782220E+02  0.53157502785E+03  0.54631508494E+03  0.12509169574E+03 0.  0.
         23    2    1    2    0    0  0.23063409869E+01 -0.15326782220E+02  0.18439519360E+02  0.95032691354E+02  0.91929141679E+02 0.  0.
          5    1    3    3  502    0  0.58078336608E+02  0.24334073211E+02  0.22449111226E+03  0.23319299343E+03  0.41800000000E+01 0.  1.
         -5    1    3    3    0  502 -0.60384677595E+02 -0.90072909914E+01  0.30708391559E+03  0.31312209151E+03  0.41800000000E+01 0.  1.
        -11    1    4    4    0    0 -0.16495871590E+02  0.33952598986E+02  0.19055076470E+02  0.42284615367E+02  0.00000000000E+00 0.  1.
         11    1    4    4    0    0  0.18802212577E+02 -0.49279381206E+02 -0.61555711037E+00  0.52748075988E+02  0.00000000000E+00 0. -1.
</event>
<event>
 8    1  0.7224195E-009  0.7511710E+02  0.7561462E-02  0.1343509E+00
         -1   -1    0    0    0  501 -0.00000000000E+00  0.00000000000E+00  0.31607375220E+03  0.31607375220E+03  0.00000000000E+00 0.  1.
          1   -1    0    0  501    0  0.00000000000E+00 -0.00000000000E+00 -0.60806971106E+02  0.60806971106E+02  0.00000000000E+00 0. -1.
         25    2    1    2    0    0 -0.49947195623E+01 -0.16619769948E+02  0.26672902103E+02  0.12907525138E+03  0.12509121806E+03 0.  0.
         23    2    1    2    0    0  0.49947195623E+01  0.16619769948E+02  0.22859387899E+03  0.24780547193E+03  0.94080956781E+02 0.  0.
          5    1    3    3  502    0  0.16384361449E+02 -0.32814664124E+02 -0.41592177108E+02  0.55611429385E+02  0.41800000000E+01 0.  1.
         -5    1    3    3    0  502 -0.21379081012E+02  0.16194894176E+02  0.68265079211E+02  0.73463821994E+02  0.41800000000E+01 0.  1.
        -11    1    4    4    0    0  0.25492298609E+02 -0.27517053933E+02  0.15573758343E+03  0.16019126206E+03  0.00000000000E+00 0.  1.
         11    1    4    4    0    0 -0.20497579047E+02  0.44136823881E+02  0.72856295560E+02  0.87614209874E+02  0.00000000000E+00 0. -1.
</event>
<event>
 8    1  0.7224195E-009  0.1513701E+03  0.7561462E-02  0.1198800E+00
         -1   -1    0    0    0  501 -0.00000000000E+00  0.00000000000E+00  0.10079333750E+03  0.10079333750E+03  0.00000000000E+00 0.  1.
          1   -1    0    0  501    0  0.00000000000E+00 -0.00000000000E+00 -0.40756219013E+03  0.40756219013E+03  0.00000000000E+00 0. -1.
         25    2    1    2    0    0  0.57791876377E+02 -0.11182944634E+03 -0.15457408303E+02  0.17813282362E+03  0.12508655138E+03 0.  0.
         23    2    1    2    0    0 -0.57791876377E+02  0.11182944634E+03 -0.29131144433E+03  0.33022270401E+03  0.91317854774E+02 0.  0.
          5    1    3    3  502    0  0.31678286117E+01 -0.99270039225E+02 -0.50904133812E+02  0.11168383529E+03  0.41800000000E+01 0.  1.
         -5    1    3    3    0  502  0.54624047765E+02 -0.12559407120E+02  0.35446725509E+02  0.66448988335E+02  0.41800000000E+01 0.  1.
        -11    1    4    4    0    0 -0.57289271646E+02  0.12313510309E+03 -0.22391025423E+03  0.26187805599E+03  0.00000000000E+00 0.  1.
         11    1    4    4    0    0 -0.50260473071E+00 -0.11305656750E+02 -0.67401190093E+02  0.68344648012E+02  0.00000000000E+00 0. -1.
</event>
<event>
 8    1  0.7224195E-009  0.2428745E+03  0.7561462E-02  0.1117893E+00
          1   -1    0    0  501    0  0.00000000000E+00  0.00000000000E+00  0.18677960572E+03  0.18677960572E+03  0.00000000000E+00 0. -1.
         -1   -1    0    0    0  501 -0.00000000000E+00 -0.00000000000E+00 -0.34126268904E+03  0.34126268904E+03  0.00000000000E+00 0.  1.
         25    2    1    2    0    0 -0.43440955416E+02 -0.22290955312E+03 -0.91910810614E+02  0.27508344626E+03  0.12509004684E+03 0.  0.
         23    2    1    2    0    0  0.43440955416E+02  0.22290955312E+03 -0.62572272701E+02  0.25295884850E+03  0.92179738801E+02 0.  0.
          5    1    3    3  502    0 -0.83645747089E+02 -0.14703963568E+03 -0.83525769710E+02  0.18870954420E+03  0.41800000000E+01 0. -1.
         -5    1    3    3    0  502  0.40204791673E+02 -0.75869917439E+02 -0.83850409034E+01  0.86373902058E+02  0.41800000000E+01 0. -1.
        -11    1    4    4    0    0 -0.77394160091E+01  0.28940883388E+02  0.20001995811E+02  0.36021564762E+02  0.00000000000E+00 0. -1.
         11    1    4    4    0    0  0.51180371425E+02  0.19396866973E+03 -0.82574268513E+02  0.21693728374E+03  0.00000000000E+00 0.  1.
</event>
<event>
 8    1  0.7224195E-009  0.1150522E+03  0.7561462E-02  0.1251490E+00
         -2   -1    0    0    0  501 -0.00000000000E+00  0.00000000000E+00  0.13947429805E+02  0.13947429805E+02  0.00000000000E+00 0.  1.
          2   -1    0    0  501    0  0.00000000000E+00 -0.00000000000E+00 -0.10586398136E+04  0.10586398136E+04  0.00000000000E+00 0. -1.
         25    2    1    2    0    0 -0.26204817191E+02  0.45417017949E+02 -0.64668629287E+03  0.66075733519E+03  0.12509075367E+03 0.  0.
         23    2    1    2    0    0  0.26204817191E+02 -0.45417017949E+02 -0.39800609088E+03  0.41182990818E+03  0.91900092086E+02 0.  0.
          5    1    3    3  502    0  0.44812789677E+02  0.20609580048E+02 -0.13986252874E+03  0.14836421487E+03  0.41800000000E+01 0. -1.
         -5    1    3    3    0  502 -0.71017606869E+02  0.24807437901E+02 -0.50682376413E+03  0.51239312032E+03  0.41800000000E+01 0. -1.
        -11    1    4    4    0    0  0.52682126943E+02 -0.55873567459E+02 -0.27084852062E+03  0.28152474697E+03  0.00000000000E+00 0.  1.
         11    1    4    4    0    0 -0.26477309752E+02  0.10456549510E+02 -0.12715757027E+03  0.13030516120E+03  0.00000000000E+00 0. -1.
</event>
<event>
 8    1  0.7224195E-009  0.1629830E+03  0.7561462E-02  0.1185370E+00
         -1   -1    0    0    0  501 -0.00000000000E+00  0.00000000000E+00  0.90669107269E+02  0.90669107269E+02  0.00000000000E+00 0.  1.
          1   -1    0    0  501    0  0.00000000000E+00 -0.00000000000E+00 -0.39527531359E+03  0.39527531359E+03  0.00000000000E+00 0. -1.
         25    2    1    2    0    0  0.10246058283E+03 -0.11017803139E+03 -0.20289763449E+03  0.28187358906E+03  0.12509156843E+03 0.  0.
         23    2    1    2    0    0 -0.10246058283E+03  0.11017803139E+03 -0.10170857183E+03  0.20407083180E+03  0.93074707484E+02 0.  0.
          5    1    3    3  502    0  0.21898859337E+02 -0.75499158231E+02 -0.23525322628E+02  0.82162011529E+02  0.41800000000E+01 0.  1.
         -5    1    3    3    0  502  0.80561723495E+02 -0.34678873154E+02 -0.17937231186E+03  0.19971157753E+03  0.41800000000E+01 0.  1.
        -11    1    4    4    0    0 -0.10620088284E+03  0.90877356057E+02 -0.11444029675E+03  0.18064856180E+03  0.00000000000E+00 0. -1.
         11    1    4    4    0    0  0.37403000102E+01  0.19300675328E+02  0.12731724923E+02  0.23422269997E+02  0.00000000000E+00 0.  1.
</event>
<event>
 8    1  0.7224195E-009  0.2089190E+03  0.7561462E-02  0.1142425E+00
          1   -1    0    0  501    0  0.00000000000E+00  0.00000000000E+00  0.65335369760E+03  0.65335369760E+03  0.00000000000E+00 0. -1.
         -1   -1    0    0    0  501 -0.00000000000E+00 -0.00000000000E+00 -0.71372586576E+02  0.71372586576E+02  0.00000000000E+00 0.  1.
         25    2    1    2    0    0 -0.18123161460E+03  0.20554561530E+02  0.36244176639E+03  0.42459226270E+03  0.12508863814E+03 0.  0.
         23    2    1    2    0    0  0.18123161460E+03 -0.20554561530E+02  0.21953934463E+03  0.30013402147E+03  0.92819819398E+02 0.  0.
          5    1    3    3  502    0 -0.16546634359E+03  0.57633975561E+02  0.25200349746E+03  0.30695931511E+03  0.41800000000E+01 0.  1.
         -5    1    3    3    0  502 -0.15765271009E+02 -0.37079414031E+02  0.11043826893E+03  0.11763294759E+03  0.41800000000E+01 0.  1.
        -11    1    4    4    0    0  0.16481982245E+03 -0.46598172340E+02  0.20147727813E+03  0.26444291849E+03  0.00000000000E+00 0. -1.
         11    1    4    4    0    0  0.16411792149E+02  0.26043610810E+02  0.18062066502E+02  0.35691102979E+02  0.00000000000E+00 0.  1.
</event>
<event>
 8    1  0.7224195E-009  0.1099015E+03  0.7561462E-02  0.1260752E+00
          1   -1    0    0  501    0  0.00000000000E+00  0.00000000000E+00  0.62932700891E+03  0.62932700891E+03  0.00000000000E+00 0. -1.
         -1   -1    0    0    0  501 -0.00000000000E+00 -0.00000000000E+00 -0.23393046071E+02  0.23393046071E+02  0.00000000000E+00 0.  1.
         25    2    1    2    0    0  0.44006549057E+02 -0.29693718292E+02  0.31450833494E+03  0.34260738910E+03  0.12508411989E+03 0.  0.
         23    2    1    2    0    0 -0.44006549057E+02  0.29693718292E+02  0.29142562789E+03  0.31011266588E+03  0.91775136511E+02 0.  0.
          5    1    3    3  502    0 -0.32244774432E+02 -0.34532746961E+02  0.19511958296E+03  0.20080179318E+03  0.41800000000E+01 0. -1.
         -5    1    3    3    0  502  0.76251323488E+02  0.48390286693E+01  0.11938875198E+03  0.14180559591E+03  0.41800000000E+01 0. -1.
        -11    1    4    4    0    0 -0.65821359504E+02  0.33261717872E+02  0.26775526434E+03  0.27772589873E+03  0.00000000000E+00 0. -1.
         11    1    4    4    0    0  0.21814810448E+02 -0.35679995808E+01  0.23670363551E+02  0.32386767151E+02  0.00000000000E+00 0.  1.
</event>
<event>
 8    1  0.7224195E-009  0.9600523E+02  0.7561462E-02  0.1288928E+00
         -1   -1    0    0    0  501 -0.00000000000E+00  0.00000000000E+00  0.14741845600E+02  0.14741845600E+02  0.00000000000E+00 0. -1.
          1   -1    0    0  501    0  0.00000000000E+00 -0.00000000000E+00 -0.94665218442E+03  0.94665218442E+03  0.00000000000E+00 0.  1.
         25    2    1    2    0    0  0.19465949569E+01  0.10942182570E+02 -0.68278473230E+03  0.69423761449E+03  0.12508938451E+03 0.  0.
         23    2    1    2    0    0 -0.19465949569E+01 -0.10942182570E+02 -0.24912560652E+03  0.26715641553E+03  0.95840815647E+02 0.  0.
          5    1    3    3  502    0  0.64665354234E+01 -0.46349089618E+02 -0.50868643790E+03  0.51085166017E+03  0.41800000000E+01 0. -1.
         -5    1    3    3    0  502 -0.45199404665E+01  0.57291272187E+02 -0.17409829440E+03  0.18338595432E+03  0.41800000000E+01 0. -1.
        -11    1    4    4    0    0 -0.15143074839E+02 -0.46803731759E+02 -0.19360327895E+03  0.19975517926E+03  0.00000000000E+00 0.  1.
         11    1    4    4    0    0  0.13196479882E+02  0.35861549189E+02 -0.55522327566E+02  0.67401236264E+02  0.00000000000E+00 0. -1.
</event>
<event>
 8    1  0.7224195E-009  0.1873173E+03  0.7561462E-02  0.1160903E+00
          2   -1    0    0  501    0  0.00000000000E+00  0.00000000000E+00  0.37143319175E+02  0.37143319175E+02  0.00000000000E+00 0. -1.
         -2   -1    0    0    0  501 -0.00000000000E+00 -0.00000000000E+00 -0.13128062583E+04  0.13128062583E+04  0.00000000000E+00 0.  1.
         25    2    1    2    0    0 -0.52946307918E+02  0.16757730932E+03 -0.42662887466E+03  0.47806344853E+03  0.12508796107E+03 0.  0.
         23    2    1    2    0    0  0.52946307918E+02 -0.16757730932E+03 -0.84903406449E+03  0.87188612897E+03  0.91875530514E+02 0.  0.
          5    1    3    3  502    0 -0.49848849048E+02  0.16238224108E+03 -0.25587920077E+03  0.30715555954E+03  0.41800000000E+01 0. -1.
         -5    1    3    3    0  502 -0.30974588702E+01  0.51950682423E+01 -0.17074967389E+03  0.17090788899E+03  0.41800000000E+01 0. -1.
        -11    1    4    4    0    0 -0.21084074011E+02 -0.79818673439E+02 -0.31396857880E+03  0.32464107454E+03  0.00000000000E+00 0. -1.
         11    1    4    4    0    0  0.74030381928E+02 -0.87758635882E+02 -0.53506548570E+03  0.54724505444E+03  0.00000000000E+00 0.  1.
</event>
<event>
 8    1  0.7224195E-009  0.3116447E+03  0.7561462E-02  0.1079560E+00
         -2   -1    0    0    0  501 -0.00000000000E+00  0.00000000000E+00  0.28683384263E+03  0.28683384263E+03  0.00000000000E+00 0.  1.
          2   -1    0    0  501    0  0.00000000000E+00 -0.00000000000E+00 -0.49770824697E+03  0.49770824697E+03  0.00000000000E+00 0. -1.
         25    2    1    2    0    0 -0.14930429043E+03 -0.26497454688E+03  0.96433452388E+02  0.34270964817E+03  0.12508881075E+03 0.  0.
         23    2    1    2    0    0  0.14930429043E+03  0.26497454688E+03 -0.30730785673E+03  0.44183244144E+03  0.90964310949E+02 0.  0.
          5    1    3    3  502    0 -0.68072491636E+02 -0.80805980194E+02  0.93820077501E+02  0.14136176957E+03  0.41800000000E+01 0. -1.
         -5    1    3    3    0  502 -0.81231798794E+02 -0.18416856668E+03  0.26133748868E+01  0.20134787860E+03  0.41800000000E+01 0. -1.
        -11    1    4    4    0    0 -0.10556609379E+02  0.31803445839E+02 -0.45575389280E+02  0.56568695202E+02  0.00000000000E+00 0.  1.
         11    1    4    4    0    0  0.15986089981E+03  0.23317110104E+03 -0.26173246745E+03  0.38526374624E+03  0.00000000000E+00 0. -1.
</event>
<event>
 8    1  0.7224195E-009  0.8801701E+02  0.7561462E-02  0.1307726E+00
          1   -1    0    0  501    0  0.00000000000E+00  0.00000000000E+00  0.84467450515E+02  0.84467450515E+02  0.00000000000E+00 0. -1.
         -1   -1    0    0    0  501 -0.00000000000E+00 -0.00000000000E+00 -0.18496385323E+03  0.18496385323E+03  0.00000000000E+00 0.  1.
         25    2    1    2    0    0  0.42724772572E+02 -0.17706461807E+02 -0.11026675371E+02  0.13382290596E+03  0.12509219644E+03 0.  0.
         23    2    1    2    0    0 -0.42724772572E+02  0.17706461807E+02 -0.89469727345E+02  0.13560839779E+03  0.90806830458E+02 0.  0.
          5    1    3    3  502    0  0.79695582329E+01  0.32628231412E+02 -0.50580798574E+02  0.60860536704E+02  0.41800000000E+01 0.  1.
         -5    1    3    3    0  502  0.34755214339E+02 -0.50334693219E+02  0.39554123203E+02  0.72962369257E+02  0.41800000000E+01 0.  1.
        -11    1    4    4    0    0  0.17601281780E+02 -0.12419928403E+01 -0.65745839850E+02  0.68072484339E+02  0.00000000000E+00 0.  1.
         11    1    4    4    0    0 -0.60326054352E+02  0.18948454647E+02 -0.23723887494E+02  0.67535913446E+02  0.00000000000E+00 0. -1.
</event>
<event>
 8    1  0.7224195E-009  0.1274065E+03  0.7561462E-02  0.1231356E+00
          1   -1    0    0  501    0  0.00000000000E+00  0.00000000000E+00  0.98136744878E+03  0.98136744878E+03  0.00000000000E+00 0. -1.
         -1   -1    0    0    0  501 -0.00000000000E+00 -0.00000000000E+00 -0.29041186573E+02  0.29041186573E+02  0.00000000000E+00 0.  1.
         25    2    1    2    0    0 -0.44476458341E+01  0.11173239051E+03  0.69886159343E+03  0.71872158509E+03  0.12509708815E+03 0.  0.
         23    2    1    2    0    0  0.44476458341E+01 -0.11173239051E+03  0.25346466878E+03  0.29168705026E+03  0.91285750961E+02 0.  0.
          5    1    3    3  502    0  0.21701889085E+02  0.57911400804E+02  0.59922733450E+03  0.60242474480E+03  0.41800000000E+01 0. -1.
         -5    1    3    3    0  502 -0.26149534919E+02  0.53820989709E+02  0.99634258923E+02  0.11629684029E+03  0.41800000000E+01 0. -1.
        -11    1    4    4    0    0 -0.33037100154E+02 -0.65197261521E+02  0.19432098325E+03  0.20761208401E+03  0.00000000000E+00 0. -1.
         11    1    4    4    0    0  0.37484745988E+02 -0.46535128993E+02  0.59143685530E+02  0.84074966252E+02  0.00000000000E+00 0.  1.
</event>
<event>
 8    1  0.7224195E-009  0.8869840E+02  0.7561462E-02  0.1306035E+00
         -2   -1    0    0    0  501 -0.00000000000E+00  0.00000000000E+00  0.16847254636E+02  0.16847254636E+02  0.00000000000E+00 0. -1.
          2   -1    0    0  501    0  0.00000000000E+00 -0.00000000000E+00 -0.10271840273E+04  0.10271840273E+04  0.00000000000E+00 0.  1.
         25    2    1    2    0    0 -0.10492244112E+02 -0.57675090516E+02 -0.74678070966E+03  0.75945085621E+03  0.12509065283E+03 0.  0.
         23    2    1    2    0    0  0.10492244112E+02  0.57675090516E+02 -0.26355606298E+03  0.28458042570E+03  0.89931735811E+02 0.  0.
          5    1    3    3  502    0 -0.53523015673E+02 -0.28692122206E+02 -0.17458663148E+03  0.18489433570E+03  0.41800000000E+01 0. -1.
         -5    1    3    3    0  502  0.43030771561E+02 -0.28982968311E+02 -0.57219407818E+03  0.57455652051E+03  0.41800000000E+01 0. -1.
        -11    1    4    4    0    0  0.18917627645E+02  0.48289070348E+02 -0.26660643050E+03  0.27160393910E+03  0.00000000000E+00 0.  1.
         11    1    4    4    0    0 -0.84253835331E+01  0.93860201678E+01  0.30503675270E+01  0.12976486594E+02  0.00000000000E+00 0. -1.
</event>
<event>
 8    1  0.7224195E-009  0.7706792E+02  0.7561462E-02  0.1337584E+00
         -1   -1    0    0    0  501 -0.00000000000E+00  0.00000000000E+00  0.34914180783E+02  0.34914180783E+02  0.00000000000E+00 0.  1.
          1   -1    0    0  501    0  0.00000000000E+00 -0.00000000000E+00 -0.48056914783E+03  0.48056914783E+03  0.00000000000E+00 0. -1.
         25    2    1    2    0    0 -0.63386960678E+02 -0.22037234161E+02 -0.30814378058E+03  0.33926929771E+03  0.12509004910E+03 0.  0.
         23    2    1    2    0    0  0.63386960678E+02  0.22037234161E+02 -0.13751118646E+03  0.17621403090E+03  0.87398580139E+02 0.  0.
          5    1    3    3  502    0 -0.45531375613E+02 -0.17084875267E+02 -0.23821698171E+02  0.54313394590E+02  0.41800000000E+01 0. -1.
         -5    1    3    3    0  502 -0.17855585065E+02 -0.49523588936E+01 -0.28432208241E+03  0.28495590312E+03  0.41800000000E+01 0. -1.
        -11    1    4    4    0    0  0.39410759196E+02 -0.15034069186E+02 -0.12253840619E+03  0.12959510858E+03  0.00000000000E+00 0. -1.
         11    1    4    4    0    0  0.23976201482E+02  0.37071303347E+02 -0.14972780278E+02  0.46618922323E+02  0.00000000000E+00 0.  1.
</event>
<event>
 8    1  0.7224195E-009  0.1117322E+03  0.7561462E-02  0.1257395E+00
         -4   -1    0    0    0  501 -0.00000000000E+00  0.00000000000E+00  0.90162495303E+02  0.90162495303E+02  0.00000000000E+00 0. -1.
          4   -1    0    0  501    0  0.00000000000E+00 -0.00000000000E+00 -0.15434468402E+03  0.15434468402E+03  0.00000000000E+00 0.  1.
         25    2    1    2    0    0 -0.44720188491E+02  0.69751241889E+01 -0.21792087071E+02  0.13479901779E+03  0.12508929819E+03 0.  0.
         23    2    1    2    0    0  0.44720188491E+02 -0.69751241889E+01 -0.42390101647E+02  0.10970816154E+03  0.90500897090E+02 0.  0.
          5    1    3    3  502    0 -0.84027533383E+02 -0.11231996345E+02  0.25832572096E+01  0.84917193348E+02  0.41800000000E+01 0.  1.
         -5    1    3    3    0  502  0.39307344892E+02  0.18207120534E+02 -0.24375344280E+02  0.49881824439E+02  0.41800000000E+01 0.  1.
        -11    1    4    4    0    0  0.12192486431E+02 -0.44072328776E+02 -0.17063455517E+01  0.45759572815E+02  0.00000000000E+00 0. -1.
         11    1    4    4    0    0  0.32527702060E+02  0.37097204587E+02 -0.40683756095E+02  0.63948588722E+02  0.00000000000E+00 0.  1.
</event>
<event>
 8    1  0.7224195E-009  0.1248524E+03  0.7561462E-02  0.1235300E+00
          1   -1    0    0  501    0  0.00000000000E+00  0.00000000000E+00  0.65496824366E+03  0.65496824366E+03  0.00000000000E+00 0. -1.
         -1   -1    0    0    0  501 -0.00000000000E+00 -0.00000000000E+00 -0.33297352794E+02  0.33297352794E+02  0.00000000000E+00 0.  1.
         25    2    1    2    0    0  0.33801671416E+02 -0.72879234919E+02  0.47946726510E+03  0.50198644496E+03  0.12509035436E+03 0.  0.
         23    2    1    2    0    0 -0.33801671416E+02  0.72879234919E+02  0.14220362577E+03  0.18627915149E+03  0.89577425868E+02 0.  0.
          5    1    3    3  502    0  0.13653083102E+02  0.25679405457E+02  0.24580851664E+03  0.24755835230E+03  0.41800000000E+01 0. -1.
         -5    1    3    3    0  502  0.20148588313E+02 -0.98558640376E+02  0.23365874846E+03  0.25442809266E+03  0.41800000000E+01 0. -1.
        -11    1    4    4    0    0 -0.59807632435E+02  0.24337832216E+02  0.66784126104E+02  0.92894577203E+02  0.00000000000E+00 0.  1.
         11    1    4    4    0    0  0.26005961019E+02  0.48541402704E+02  0.75419499663E+02  0.93384574285E+02  0.00000000000E+00 0. -1.
</event>
<event>
 8    1  0.7224195E-009  0.2008585E+03  0.7561462E-02  0.1149017E+00
          1   -1    0    0  501    0  0.00000000000E+00  0.00000000000E+00  0.11558449957E+04  0.11558449957E+04  0.00000000000E+00 0. -1.
         -1   -1    0    0    0  501 -0.00000000000E+00 -0.00000000000E+00 -0.39980439883E+02  0.39980439883E+02  0.00000000000E+00 0.  1.
         25    2    1    2    0    0 -0.17354171415E+03  0.53927211928E+02  0.48499440156E+03  0.53281589409E+03  0.12509331200E+03 0.  0.
         23    2    1    2    0    0  0.17354171415E+03 -0.53927211928E+02  0.63087015425E+03  0.66300954149E+03  0.92518267622E+02 0.  0.
          5    1    3    3  502    0 -0.11759522444E+03 -0.19337642925E+02  0.34605254158E+03  0.36602242442E+03  0.41800000000E+01 0.  1.
         -5    1    3    3    0  502 -0.55946489717E+02  0.73264854853E+02  0.13894185997E+03  0.16679346966E+03  0.41800000000E+01 0.  1.
        -11    1    4    4    0    0  0.12397657010E+03 -0.10723182177E+02  0.28557187881E+03  0.31150678088E+03  0.00000000000E+00 0.  1.
         11    1    4    4    0    0  0.49565144059E+02 -0.43204029751E+02  0.34529827544E+03  0.35150276060E+03  0.00000000000E+00 0. -1.
</event>
<event>
 8    1  0.7224195E-009  0.2751850E+03  0.7561462E-02  0.1098348E+00
          2   -1    0    0  501    0  0.00000000000E+00  0.00000000000E+00  0.86190437778E+02  0.86190437778E+02  0.00000000000E+00 0.  1.
         -2   -1    0    0    0  501 -0.00000000000E+00 -0.00000000000E+00 -0.95553925080E+03  0.95553925080E+03  0.00000000000E+00 0. -1.
         25    2    1    2    0    0 -0.22189100420E+03  0.14457788757E+03 -0.40865885101E+03  0.50278089382E+03  0.12509271508E+03 0.  0.
         23    2    1    2    0    0  0.22189100420E+03 -0.14457788757E+03 -0.46068996202E+03  0.53894879476E+03  0.89956539204E+02 0.  0.
          5    1    3    3  502    0 -0.15437936592E+03  0.42531652394E+02 -0.16427994876E+03  0.22945000336E+03  0.41800000000E+01 0.  1.
         -5    1    3    3    0  502 -0.67511638285E+02  0.10204623518E+03 -0.24437890225E+03  0.27333089047E+03  0.41800000000E+01 0.  1.
        -11    1    4    4    0    0  0.45586080619E+02 -0.50087921822E+02 -0.19467089261E+03  0.20611561583E+03  0.00000000000E+00 0.  1.
         11    1    4    4    0    0  0.17630492358E+03 -0.94489965751E+02 -0.26601906941E+03  0.33283317893E+03  0.00000000000E+00 0. -1.
</event>
<event>
 8    1  0.7224195E-009  0.1637007E+03  0.7561462E-02  0.1184581E+00
         -2   -1    0    0    0  501 -0.00000000000E+00  0.00000000000E+00  0.64560424907E+02  0.64560424907E+02  0.00000000000E+00 0.  1.
          2   -1    0    0  501    0  0.00000000000E+00 -0.00000000000E+00 -0.55114108403E+03  0.55114108403E+03  0.00000000000E+00 0. -1.
         25    2    1    2    0    0  0.40885282013E+02  0.14066882313E+03 -0.32031739726E+03  0.37377775728E+03  0.12508897939E+03 0.  0.
         23    2    1    2    0    0 -0.40885282013E+02 -0.14066882313E+03 -0.16626326186E+03  0.24192375166E+03  0.97078861168E+02 0.  0.
          5    1    3    3  502    0  0.26246057679E+02  0.30379983224E+02 -0.22076754809E+03  0.22442723011E+03  0.41800000000E+01 0. -1.
         -5    1    3    3    0  502  0.14639224334E+02  0.11028883990E+03 -0.99549849166E+02  0.14935052717E+03  0.41800000000E+01 0. -1.
        -11    1    4    4    0    0 -0.17372047990E+01 -0.13630048208E+03 -0.12696258306E+03  0.18628026410E+03  0.00000000000E+00 0.  1.
         11    1    4    4    0    0 -0.39148077214E+02 -0.43683410440E+01 -0.39300678805E+02  0.55643487557E+02  0.00000000000E+00 0. -1.
</event>
<event>
 8    1  0.7224195E-009  0.1049306E+03  0.7561462E-02  0.1270256E+00
         -2   -1    0    0    0  501 -0.00000000000E+00  0.00000000000E+00  0.14206303140E+02  0.14206303140E+02  0.00000000000E+00 0. -1.
          2   -1    0    0  501    0  0.00000000000E+00 -0.00000000000E+00 -0.86299923056E+03  0.86299923056E+03  0.00000000000E+00 0.  1.
         25    2    1    2    0    0 -0.20647560644E+02  0.38355148925E+01 -0.53139121527E+03  0.54631988112E+03  0.12509099050E+03 0.  0.
         23    2    1    2    0    0  0.20647560644E+02 -0.38355148925E+01 -0.31740171215E+03  0.33088565258E+03  0.91106724629E+02 0.  0.
          5    1    3    3  502    0  0.29264108225E+02 -0.46044148882E+02 -0.19193339031E+03  0.19958043590E+03  0.41800000000E+01 0. -1.
         -5    1    3    3    0  502 -0.49911668869E+02  0.49879663775E+02 -0.33945782496E+03  0.34673944522E+03  0.41800000000E+01 0. -1.
        -11    1    4    4    0    0  0.47796957029E+02 -0.21138949588E+02 -0.25878398677E+03  0.26400862883E+03  0.00000000000E+00 0.  1.
         11    1    4    4    0    0 -0.27149396385E+02  0.17303434696E+02 -0.58617725386E+02  0.66877023751E+02  0.00000000000E+00 0. -1.
</event>
<event>
 8    1  0.7224195E-009  0.1211998E+03  0.7561462E-02  0.1241131E+00
          1   -1    0    0  501    0  0.00000000000E+00  0.00000000000E+00  0.14860257706E+03  0.14860257706E+03  0.00000000000E+00 0. -1.
         -1   -1    0    0    0  501 -0.00000000000E+00 -0.00000000000E+00 -0.16982477740E+03  0.16982477740E+03  0.00000000000E+00 0.  1.
         25    2    1    2    0    0  0.80005294651E+02 -0.62029716896E+00  0.72254722114E+02  0.16513662431E+03  0.12509247731E+03 0.  0.
         23    2    1    2    0    0 -0.80005294651E+02  0.62029716896E+00 -0.93476922451E+02  0.15329073015E+03  0.91426916048E+02 0.  0.
          5    1    3    3  502    0  0.10499201424E+03 -0.29765300713E+02  0.60087373233E+02  0.12464854994E+03  0.41800000000E+01 0. -1.
         -5    1    3    3    0  502 -0.24986719586E+02  0.29145003544E+02  0.12167348881E+02  0.40488074368E+02  0.41800000000E+01 0. -1.
        -11    1    4    4    0    0 -0.13867284132E+02  0.21177829090E+02 -0.78432412630E+02  0.82416293081E+02  0.00000000000E+00 0.  1.
         11    1    4    4    0    0 -0.66138010519E+02 -0.20557531921E+02 -0.15044509821E+02  0.70874437069E+02  0.00000000000E+00 0. -1.
</event>
<event>
 8    1  0.7224195E-009  0.1363160E+03  0.7561462E-02  0.1218374E+00
          2   -1    0    0  501    0  0.00000000000E+00  0.00000000000E+00  0.23310716145E+03  0.23310716145E+03  0.00000000000E+00 0. -1.
         -2   -1    0    0    0  501 -0.00000000000E+00 -0.00000000000E+00 -0.89364543222E+02  0.89364543222E+02  0.00000000000E+00 0.  1.
         25    2    1    2    0    0 -0.17156297632E+02  0.88758534289E+02  0.48000980662E+02  0.16162780967E+03  0.12508812396E+03 0.  0.
         23    2    1    2    0    0  0.17156297632E+02 -0.88758534289E+02  0.95741637570E+02  0.16084389501E+03  0.92368184133E+02 0.  0.
          5    1    3    3  502    0 -0.54927659821E+02  0.91665857794E+02  0.58761584610E+02  0.12202488895E+03  0.41800000000E+01 0. -1.
         -5    1    3    3    0  502  0.37771362189E+02 -0.29073235048E+01 -0.10760603948E+02  0.39602920712E+02  0.41800000000E+01 0. -1.
        -11    1    4    4    0    0  0.16294548440E+02 -0.10754285372E+03  0.71508561190E+02  0.13017085703E+03  0.00000000000E+00 0.  1.
         11    1    4    4    0    0  0.86174919215E+00  0.18784319434E+02  0.24233076380E+02  0.30673037983E+02  0.00000000000E+00 0. -1.
</event>
<event>
 8    1  0.7224195E-009  0.1095654E+03  0.7561462E-02  0.1261377E+00
          1   -1    0    0  501    0  0.00000000000E+00  0.00000000000E+00  0.82043081654E+03  0.82043081654E+03  0.00000000000E+00 0. -1.
         -1   -1    0    0    0  501 -0.00000000000E+00 -0.00000000000E+00 -0.25494651606E+02  0.25494651606E+02  0.00000000000E+00 0.  1.
         25    2    1    2    0    0  0.84378575900E+02  0.37452601517E+02  0.51060542918E+03  0.53374929547E+03  0.12509182496E+03 0.  0.
         23    2    1    2    0    0 -0.84378575900E+02 -0.37452601517E+02  0.28433073575E+03  0.31217617267E+03  0.89930829319E+02 0.  0.
          5    1    3    3  502    0 -0.17088114365E+02  0.10371135296E+02  0.27508378446E+03  0.27584076017E+03  0.41800000000E+01 0.  1.
         -5    1    3    3    0  502  0.10146669027E+03  0.27081466220E+02  0.23552164472E+03  0.25790853529E+03  0.41800000000E+01 0.  1.
        -11    1    4    4    0    0 -0.29844891015E+02 -0.53322153652E+01  0.12030061924E+02  0.32617057352E+02  0.00000000000E+00 0.  1.
         11    1    4    4    0    0 -0.54533684885E+02 -0.32120386152E+02  0.27230067383E+03  0.27955911532E+03  0.00000000000E+00 0. -1.
</event>
<event>
 8    1  0.7224195E-009  0.5827881E+02  0.7561462E-02  0.1405200E+00
          1   -1    0    0  501    0  0.00000000000E+00  0.00000000000E+00  0.51307930575E+02  0.51307930575E+02  0.00000000000E+00 0. -1.
         -1   -1    0    0    0  501 -0.00000000000E+00 -0.00000000000E+00 -0.26816980112E+03  0.26816980112E+03  0.00000000000E+00 0.  1.
         25    2    1    2    0    0  0.23718842036E+02  0.12690141875E+02 -0.71963290126E+02  0.14679827926E+03  0.12508955392E+03 0.  0.
         23    2    1    2    0    0 -0.23718842036E+02 -0.12690141875E+02 -0.14489858042E+03  0.17267945244E+03  0.89994286033E+02 0.  0.
          5    1    3    3  502    0  0.28137568792E+02 -0.33860599897E+01  0.31116433298E+02  0.42295307080E+02  0.41800000000E+01 0. -1.
         -5    1    3    3    0  502 -0.44187267562E+01  0.16076201865E+02 -0.10307972342E+03  0.10450297218E+03  0.41800000000E+01 0. -1.
        -11    1    4    4    0    0 -0.46583028115E+02 -0.64968738062E+01 -0.14104430909E+03  0.14867980698E+03  0.00000000000E+00 0.  1.
         11    1    4    4    0    0  0.22864186079E+02 -0.61932680691E+01 -0.38542713271E+01  0.23999645454E+02  0.00000000000E+00 0. -1.
</event>
<event>
 8    1  0.7224195E-009  0.7814655E+02  0.7561462E-02  0.1334395E+00
          2   -1    0    0  501    0  0.00000000000E+00  0.00000000000E+00  0.43676842062E+03  0.43676842062E+03  0.00000000000E+00 0. -1.
         -2   -1    0    0    0  501 -0.00000000000E+00 -0.00000000000E+00 -0.30968098906E+02  0.30968098906E+02  0.00000000000E+00 0.  1.
         25    2    1    2    0    0  0.19122581022E+02  0.10258545504E+01  0.30932055365E+03  0.33420648187E+03  0.12509213457E+03 0.  0.
         23    2    1    2    0    0 -0.19122581022E+02 -0.10258545504E+01  0.96479768059E+02  0.13353003765E+03  0.90306145020E+02 0.  0.
          5    1    3    3  502    0  0.54212589381E+02 -0.15795409599E+02  0.27902904080E+03  0.28471595990E+03  0.41800000000E+01 0.  1.
         -5    1    3    3    0  502 -0.35090008359E+02  0.16821264150E+02  0.30291512854E+02  0.49490521973E+02  0.41800000000E+01 0.  1.
        -11    1    4    4    0    0 -0.17491547821E+02 -0.28268769390E+02  0.10058080194E+03  0.10593193705E+03  0.00000000000E+00 0. -1.
         11    1    4    4    0    0 -0.16310332009E+01  0.27242914840E+02 -0.41010338780E+01  0.27598100607E+02  0.00000000000E+00 0.  1.
</event>
<event>
 8    1  0.7224195E-009  0.1827175E+03  0.7561462E-02  0.1165199E+00
          2   -1    0    0  501    0  0.00000000000E+00  0.00000000000E+00  0.47525546597E+03  0.47525546597E+03  0.00000000000E+00 0. -1.
         -2   -1    0    0    0  501 -0.00000000000E+00 -0.00000000000E+00 -0.23234578136E+03  0.23234578136E+03  0.00000000000E+00 0.  1.
         25    2    1    2    0    0  0.16603040726E+03  0.50588116001E+01  0.40603500602E+03  0.45618596452E+03  0.12509804314E+03 0.  0.
         23    2    1    2    0    0 -0.16603040726E+03 -0.50588116001E+01 -0.16312532141E+03  0.25141528281E+03  0.94910938443E+02 0.  0.
          5    1    3    3  502    0  0.18222065283E+03  0.25058902417E+01  0.31800052985E+03  0.36654120531E+03  0.41800000000E+01 0.  1.
         -5    1    3    3    0  502 -0.16190245569E+02  0.25529213585E+01  0.88034476171E+02  0.89644759210E+02  0.41800000000E+01 0.  1.
        -11    1    4    4    0    0 -0.28042133031E+02  0.15786829657E+01  0.10101053420E+02  0.29847692458E+02  0.00000000000E+00 0. -1.
         11    1    4    4    0    0 -0.13798827423E+03 -0.66374945659E+01 -0.17322637483E+03  0.22156759035E+03  0.00000000000E+00 0.  1.
</event>
<event>
 8    1  0.7224195E-009  0.1997332E+03  0.7561462E-02  0.1149964E+00
         -4   -1    0    0    0  501 -0.00000000000E+00  0.00000000000E+00  0.15424149662E+04  0.15424149662E+04  0.00000000000E+00 0.  1.
          4   -1    0    0  501    0  0.00000000000E+00 -0.00000000000E+00 -0.37098830083E+02  0.37098830083E+02  0.00000000000E+00 0. -1.
         25    2    1    2    0    0  0.11530781595E+03  0.14939158375E+03  0.45343220686E+03  0.50681515221E+03  0.12508834711E+03 0.  0.
         23    2    1    2    0    0 -0.11530781595E+03 -0.14939158375E+03  0.10518839293E+04  0.10726986441E+04  0.92783849021E+02 0.  0.
          5    1    3    3  502    0  0.45323274465E+02  0.74550308596E+02  0.76267791396E+02  0.11595773422E+03  0.41800000000E+01 0.  1.
         -5    1    3    3    0  502  0.69984541485E+02  0.74841275154E+02  0.37716441546E+03  0.39085741800E+03  0.41800000000E+01 0.  1.
        -11    1    4    4    0    0 -0.11231803541E+03 -0.74861959515E+02  0.63392838183E+03  0.64813952769E+03  0.00000000000E+00 0. -1.
         11    1    4    4    0    0 -0.29897805407E+01 -0.74529624235E+02  0.41795554743E+03  0.42455911638E+03  0.00000000000E+00 0.  1.
</event>
<event>
 8    1  0.7224195E-009  0.5585214E+02  0.7561462E-02  0.1416111E+00
          1   -1    0    0  501    0  0.00000000000E+00  0.00000000000E+00  0.24486437818E+03  0.24486437818E+03  0.00000000000E+00 0. -1.
         -1   -1    0    0    0  501 -0.00000000000E+00 -0.00000000000E+00 -0.58532454601E+02  0.58532454601E+02  0.00000000000E+00 0.  1.
         25    2    1    2    0    0 -0.39630390336E+02  0.12055475426E+02  0.13520909670E+03  0.18879865233E+03  0.12509008341E+03 0.  0.
         23    2    1    2    0    0  0.39630390336E+02 -0.12055475426E+02  0.51122826884E+02  0.11459818045E+03  0.93825887728E+02 0.  0.
          5    1    3    3  502    0 -0.44469354217E+02 -0.10515243975E+02  0.15275868392E+03  0.15950166686E+03  0.41800000000E+01 0. -1.
         -5    1    3    3    0  502  0.48389638818E+01  0.22570719401E+02 -0.17549587222E+02  0.29296985466E+02  0.41800000000E+01 0. -1.
        -11    1    4    4    0    0  0.10553977958E+02  0.76451380341E+00 -0.27677773488E+02  0.29631572306E+02  0.00000000000E+00 0.  1.
         11    1    4    4    0    0  0.29076412377E+02 -0.12819989230E+02  0.78800600371E+02  0.84966608144E+02  0.00000000000E+00 0. -1.
</event>
<event>
 8    1  0.7224195E-009  0.1669741E+03  0.7561462E-02  0.1181041E+00
         -2   -1    0    0    0  501 -0.00000000000E+00  0.00000000000E+00  0.62427524979E+02  0.62427524979E+02  0.00000000000E+00 0. -1.
          2   -1    0    0  501    0  0.00000000000E+00 -0.00000000000E+00 -0.63777890375E+03  0.63777890375E+03  0.00000000000E+00 0.  1.
         25    2    1    2    0    0 -0.13711352416E+03  0.53258037233E+02 -0.44068372761E+03  0.48112929794E+03  0.12508683591E+03 0.  0.
         23    2    1    2    0    0  0.13711352416E+03 -0.53258037233E+02 -0.13466765115E+03  0.21907713078E+03  0.90680074581E+02 0.  0.
          5    1    3    3  502    0 -0.70749127069E+02 -0.31840141299E+02 -0.12196590109E+03  0.14461115796E+03  0.41800000000E+01 0.  1.
         -5    1    3    3    0  502 -0.66364397094E+02  0.85098178532E+02 -0.31871782652E+03  0.33651813998E+03  0.41800000000E+01 0.  1.
        -11    1    4    4    0    0  0.10766566688E+03 -0.33364200554E+02 -0.14348306971E+03  0.18246220704E+03  0.00000000000E+00 0.  1.
         11    1    4    4    0    0  0.29447857279E+02 -0.19893836679E+02  0.88154185598E+01  0.36614923740E+02  0.00000000000E+00 0. -1.
</event>
<event>
 8    1  0.7224195E-009  0.7602207E+02  0.7561462E-02  0.1340735E+00
         -1   -1    0    0    0  501 -0.00000000000E+00  0.00000000000E+00  0.20594590090E+02  0.20594590090E+02  0.00000000000E+00 0.  1.
          1   -1    0    0  501    0  0.00000000000E+00 -0.00000000000E+00 -0.66811873399E+03  0.66811873399E+03  0.00000000000E+00 0. -1.
         25    2    1    2    0    0 -0.11568426619E+02  0.15141886775E+02 -0.48997788781E+03  0.50605449085E+03  0.12509880869E+03 0.  0.
         23    2    1    2    0    0  0.11568426619E+02 -0.15141886775E+02 -0.15754625609E+03  0.18265883323E+03  0.90445128777E+02 0.  0.
          5    1    3    3  502    0  0.26391449509E+02  0.29264704774E+02 -0.43912420350E+03  0.44090868675E+03  0.41800000000E+01 0. -1.
         -5    1    3    3    0  502 -0.37959876128E+02 -0.14122818000E+02 -0.50853684318E+02  0.65145804106E+02  0.41800000000E+01 0. -1.
        -11    1    4    4    0    0  0.31059410309E+02  0.16016807459E+02 -0.19951956350E+02  0.40240597065E+02  0.00000000000E+00 0.  1.
         11    1    4    4    0    0 -0.19490983690E+02 -0.31158694234E+02 -0.13759429974E+03  0.14241823616E+03  0.00000000000E+00 0. -1.
</event>
<event>
 8    1  0.7224195E-009  0.1443437E+03  0.7561462E-02  0.1207601E+00
         -1   -1    0    0    0  501 -0.00000000000E+00  0.00000000000E+00  0.60692564252E+02  0.60692564252E+02  0.00000000000E+00 0.  1.
          1   -1    0    0  501    0  0.00000000000E+00 -0.00000000000E+00 -0.43563063805E+03  0.43563063805E+03  0.00000000000E+00 0. -1.
         25    2    1    2    0    0 -0.25685867941E+02 -0.11714755855E+03 -0.17247377105E+03  0.24449783781E+03  0.12509467097E+03 0.  0.
         23    2    1    2    0    0  0.25685867941E+02  0.11714755855E+03 -0.20246430274E+03  0.25182536449E+03  0.89671099186E+02 0.  0.
          5    1    3    3  502    0  0.39789377801E+02 -0.29893636801E+02 -0.13652348938E+02  0.51775313987E+02  0.41800000000E+01 0. -1.
         -5    1    3    3    0  502 -0.65475245742E+02 -0.87253921750E+02 -0.15882142212E+03  0.19272252382E+03  0.41800000000E+01 0. -1.
        -11    1    4    4    0    0  0.40124577159E+02  0.95138349469E+02 -0.92084821861E+02  0.13835064745E+03  0.00000000000E+00 0.  1.
         11    1    4    4    0    0 -0.14438709218E+02  0.22009209082E+02 -0.11037948088E+03  0.11347471704E+03  0.00000000000E+00 0. -1.
</event>
<event>
 8    1  0.7224195E-009  0.1519146E+03  0.7561462E-02  0.1198140E+00
          2   -1    0    0  501    0  0.00000000000E+00  0.00000000000E+00  0.11693701833E+04  0.11693701833E+04  0.00000000000E+00 0. -1.
         -2   -1    0    0    0  501 -0.00000000000E+00 -0.00000000000E+00 -0.20246870232E+02  0.20246870232E+02  0.00000000000E+00 0.  1.
         25    2    1    2    0    0  0.10178250995E+03  0.33950882839E+02  0.54925196092E+03  0.57344360174E+03  0.12508999172E+03 0.  0.
         23    2    1    2    0    0 -0.10178250995E+03 -0.33950882839E+02  0.59987135210E+03  0.61617345174E+03  0.91168754429E+02 0.  0.
          5    1    3    3  502    0  0.11091808280E+03 -0.15943013760E+02  0.33665896819E+03  0.35484325278E+03  0.41800000000E+01 0.  1.
         -5    1    3    3    0  502 -0.91355728505E+01  0.49893896599E+02  0.21259299273E+03  0.21860034897E+03  0.41800000000E+01 0.  1.
        -11    1    4    4    0    0 -0.52595132148E+02 -0.64246522903E+02  0.35358790538E+03  0.36320554850E+03  0.00000000000E+00 0. -1.
         11    1    4    4    0    0 -0.49187377800E+02  0.30295640064E+02  0.24628344672E+03  0.25296790324E+03  0.00000000000E+00 0.  1.
</event>
<event>
 8    1  0.7224195E-009  0.7777522E+02  0.7561462E-02  0.1335486E+00
         -2   -1    0    0    0  501 -0.00000000000E+00  0.00000000000E+00  0.52480410512E+03  0.52480410512E+03  0.00000000000E+00 0.  1.
          2   -1    0    0  501    0  0.00000000000E+00 -0.00000000000E+00 -0.34251264963E+02  0.34251264963E+02  0.00000000000E+00 0. -1.
         25    2    1    2    0    0  0.22272668432E+02  0.42992562023E+02  0.39846724551E+03  0.42043603148E+03  0.12508348681E+03 0.  0.
         23    2    1    2    0    0 -0.22272668432E+02 -0.42992562023E+02  0.92085594645E+02  0.13861933860E+03  0.91603123010E+02 0.  0.
          5    1    3    3  502    0  0.10358659035E+02  0.38631463444E+02  0.26347377806E+02  0.48076485958E+02  0.41800000000E+01 0.  1.
         -5    1    3    3    0  502  0.11914009397E+02  0.43610985789E+01  0.37211986771E+03  0.37235954552E+03  0.41800000000E+01 0.  1.
        -11    1    4    4    0    0 -0.36524262529E+02 -0.65699631265E+02  0.78037470005E+02  0.10835271121E+03  0.00000000000E+00 0.  1.
         11    1    4    4    0    0  0.14251594097E+02  0.22707069242E+02  0.14048124640E+02  0.30266627393E+02  0.00000000000E+00 0. -1.
</event>
<event>
 8    1  0.7224195E-009  0.8932876E+02  0.7561462E-02  0.1304485E+00
         -1   -1    0    0    0  501 -0.00000000000E+00  0.00000000000E+00  0.33983920334E+02  0.33983920334E+02  0.00000000000E+00 0.  1.
          1   -1    0    0  501    0  0.00000000000E+00 -0.00000000000E+00 -0.52682593496E+03  0.52682593496E+03  0.00000000000E+00 0. -1.
         25    2    1    2    0    0 -0.67482118082E+02 -0.15150541782E+02 -0.34273473985E+03  0.37135031672E+03  0.12510228077E+03 0.  0.
         23    2    1    2    0    0  0.67482118082E+02  0.15150541782E+02 -0.15010727478E+03  0.18945953858E+03  0.92624767949E+02 0.  0.
          5    1    3    3  502    0 -0.29232453994E+02 -0.53515398646E+01 -0.32742179883E+03  0.32879428537E+03  0.41800000000E+01 0.  1.
         -5    1    3    3    0  502 -0.38249664088E+02 -0.97990019173E+01 -0.15312941016E+02  0.42556031346E+02  0.41800000000E+01 0.  1.
        -11    1    4    4    0    0  0.22304019378E+02  0.48102956121E+02 -0.10495187862E+03  0.11758512021E+03  0.00000000000E+00 0. -1.
         11    1    4    4    0    0  0.45178098703E+02 -0.32952414339E+02 -0.45155396158E+02  0.71874418366E+02  0.00000000000E+00 0.  1.
</event>
<event>
 8    1  0.7224195E-009  0.9349146E+02  0.7561462E-02  0.1294610E+00
          1   -1    0    0  501    0  0.00000000000E+00  0.00000000000E+00  0.39734237950E+02  0.39734237950E+02  0.00000000000E+00 0. -1.
         -1   -1    0    0    0  501 -0.00000000000E+00 -0.00000000000E+00 -0.33591333878E+03  0.33591333878E+03  0.00000000000E+00 0.  1.
         25    2    1    2    0    0  0.42482994627E+02 -0.60736342097E+01 -0.17221769646E+03  0.21713670155E+03  0.12509084029E+03 0.  0.
         23    2    1    2    0    0 -0.42482994627E+02  0.60736342097E+01 -0.12396140437E+03  0.15851087517E+03  0.88980750217E+02 0.  0.
          5    1    3    3  502    0 -0.32137838223E+02 -0.93053338889E+01 -0.51810955917E+01  0.34113722106E+02  0.41800000000E+01 0.  1.
         -5    1    3    3    0  502  0.74620832850E+02  0.32316996792E+01 -0.16703660086E+03  0.18302297945E+03  0.41800000000E+01 0.  1.
        -11    1    4    4    0    0 -0.26171962876E+02  0.35920765554E+02 -0.19286303124E+02  0.48448266501E+02  0.00000000000E+00 0. -1.
         11    1    4    4    0    0 -0.16311031751E+02 -0.29847131345E+02 -0.10467510125E+03  0.11006260867E+03  0.00000000000E+00 0.  1.
</event>
<event>
 8    1  0.7224195E-009  0.1281580E+03  0.7561462E-02  0.1230215E+00
         -2   -1    0    0    0  501 -0.00000000000E+00  0.00000000000E+00  0.31807748966E+03  0.31807748966E+03  0.00000000000E+00 0.  1.
          2   -1    0    0  501    0  0.00000000000E+00 -0.00000000000E+00 -0.70748057059E+02  0.70748057059E+02  0.00000000000E+00 0. -1.
         25    2    1    2    0    0 -0.35679752189E+02 -0.60085030832E+02  0.37812460943E+02  0.14818955129E+03  0.12508838980E+03 0.  0.
         23    2    1    2    0    0  0.35679752189E+02  0.60085030832E+02  0.20951697166E+03  0.24063599543E+03  0.95525207332E+02 0.  0.
          5    1    3    3  502    0 -0.47463058680E+02  0.24198834164E+02  0.33085051952E+02  0.62852355380E+02  0.41800000000E+01 0. -1.
         -5    1    3    3    0  502  0.11783306491E+02 -0.84283864996E+02  0.47274089914E+01  0.85337195913E+02  0.41800000000E+01 0. -1.
        -11    1    4    4    0    0  0.49734645397E+02  0.79455791389E+02  0.15573523209E+03  0.18176969014E+03  0.00000000000E+00 0. -1.
         11    1    4    4    0    0 -0.14054893208E+02 -0.19370760557E+02  0.53781739562E+02  0.58866305286E+02  0.00000000000E+00 0.  1.
</event>
<event>
 8    1  0.7224195E-009  0.1134734E+03  0.7561462E-02  0.1254270E+00
          1   -1    0    0  501    0  0.00000000000E+00  0.00000000000E+00  0.20259712886E+03  0.20259712886E+03  0.00000000000E+00 0. -1.
         -1   -1    0    0    0  501 -0.00000000000E+00 -0.00000000000E+00 -0.72133916713E+02  0.72133916713E+02  0.00000000000E+00 0.  1.
         25    2    1    2    0    0 -0.13728200932E+02 -0.19112718483E+02  0.11081971476E+03  0.16876887131E+03  0.12509261863E+03 0.  0.
         23    2    1    2    0    0  0.13728200932E+02  0.19112718483E+02  0.19643497386E+02  0.10596217426E+03  0.10143153295E+03 0.  0.
          5    1    3    3  502    0 -0.69498963344E+02 -0.13731690318E+02  0.57969894671E+02  0.91633216211E+02  0.41800000000E+01 0. -1.
         -5    1    3    3    0  502  0.55770762412E+02 -0.53810281643E+01  0.52849820089E+02  0.77135655100E+02  0.41800000000E+01 0. -1.
        -11    1    4    4    0    0  0.21718189986E+02 -0.37115365339E+02 -0.64110806042E+01  0.43477949297E+02  0.00000000000E+00 0.  1.
         11    1    4    4    0    0 -0.79899890543E+01  0.56228083822E+02  0.26054577990E+02  0.62484224966E+02  0.00000000000E+00 0. -1.
</event>
<event>
 8    1  0.7224195E-009  0.9250201E+02  0.7561462E-02  0.1296903E+00
          2   -1    0    0  501    0  0.00000000000E+00  0.00000000000E+00  0.44109224279E+03  0.44109224279E+03  0.00000000000E+00 0. -1.
         -2   -1    0    0    0  501 -0.00000000000E+00 -0.00000000000E+00 -0.33205932087E+02  0.33205932087E+02  0.00000000000E+00 0.  1.
         25    2    1    2    0    0  0.42232396660E+02 -0.11662698744E+02  0.16555947543E+03  0.21207736948E+03  0.12508907575E+03 0.  0.
         23    2    1    2    0    0 -0.42232396660E+02  0.11662698744E+02  0.24232683528E+03  0.26222080540E+03  0.90099177683E+02 0.  0.
          5    1    3    3  502    0 -0.25511719670E+01  0.32552065617E+02 -0.20617063899E+01  0.32982851416E+02  0.41800000000E+01 0. -1.
         -5    1    3    3    0  502  0.44783568627E+02 -0.44214764361E+02  0.16762118182E+03  0.17909451806E+03  0.41800000000E+01 0. -1.
        -11    1    4    4    0    0  0.90205404373E+01  0.32469364982E+02  0.15668777199E+03  0.16027067013E+03  0.00000000000E+00 0.  1.
         11    1    4    4    0    0 -0.51252937097E+02 -0.20806666239E+02  0.85639063286E+02  0.10195013527E+03  0.00000000000E+00 0. -1.
</event>
<event>
 8    1  0.7224195E-009  0.9484527E+02  0.7561462E-02  0.1291525E+00
          2   -1    0    0  501    0  0.00000000000E+00  0.00000000000E+00  0.31836457645E+03  0.31836457645E+03  0.00000000000E+00 0. -1.
         -2   -1    0    0    0  501 -0.00000000000E+00 -0.00000000000E+00 -0.39067438903E+02  0.39067438903E+02  0.00000000000E+00 0.  1.
         25    2    1    2    0    0 -0.15873814033E+02  0.26949374964E+01  0.12717629074E+03  0.17911067915E+03  0.12509031057E+03 0.  0.
         23    2    1    2    0    0  0.15873814033E+02 -0.26949374964E+01  0.15212084681E+03  0.17832133621E+03  0.91643364482E+02 0.  0.
          5    1    3    3  502    0 -0.15713664241E+02  0.48605918480E+02  0.87074162429E+01  0.51987941418E+02  0.41800000000E+01 0.  1.
         -5    1    3    3    0  502 -0.16014979209E+00 -0.45910980984E+02  0.11846887450E+03  0.12712273773E+03  0.41800000000E+01 0.  1.
        -11    1    4    4    0    0  0.54055939560E+02 -0.31970945136E+01  0.78171619823E+02  0.95095048035E+02  0.00000000000E+00 0.  1.
         11    1    4    4    0    0 -0.38182125527E+02  0.50215701721E+00  0.73949226985E+02  0.83226288173E+02  0.00000000000E+00 0. -1.
</event>
<event>
 8    1  0.7224195E-009  0.1908148E+03  0.7561462E-02  0.1157728E+00
          1   -1    0    0  501    0  0.00000000000E+00  0.00000000000E+00  0.17513964779E+04  0.17513964779E+04  0.00000000000E+00 0. -1.
         -1   -1    0    0    0  501 -0.00000000000E+00 -0.00000000000E+00 -0.31311194996E+02  0.31311194996E+02  0.00000000000E+00 0.  1.
         25    2    1    2    0    0 -0.33369370856E+02  0.18204895300E+03  0.12311149307E+04  0.12512181650E+04  0.12509031758E+03 0.  0.
         23    2    1    2    0    0  0.33369370856E+02 -0.18204895300E+03  0.48897035216E+03  0.53148950788E+03  0.95570683265E+02 0.  0.
          5    1    3    3  502    0  0.11880151162E+02  0.11360582109E+03  0.39875772394E+03  0.41481636345E+03  0.41800000000E+01 0. -1.
         -5    1    3    3    0  502 -0.45249522018E+02  0.68443131910E+02  0.83235720680E+03  0.83640180156E+03  0.41800000000E+01 0. -1.
        -11    1    4    4    0    0  0.22726944131E+02 -0.13783372343E+03  0.45133180820E+03  0.47245640053E+03  0.00000000000E+00 0. -1.
         11    1    4    4    0    0  0.10642426725E+02 -0.44215229576E+02  0.37638543954E+02  0.59033107355E+02  0.00000000000E+00 0.  1.
</event>
<event>
 8    1  0.7224195E-009  0.1102761E+03  0.7561462E-02  0.1260059E+00
          2   -1    0    0  501    0  0.00000000000E+00  0.00000000000E+00  0.34829739750E+03  0.34829739750E+03  0.00000000000E+00 0. -1.
         -2   -1    0    0    0  501 -0.00000000000E+00 -0.00000000000E+00 -0.80915965523E+02  0.80915965523E+02  0.00000000000E+00 0.  1.
         25    2    1    2    0    0  0.23377621024E+02  0.89436315721E+02  0.29177899547E+02  0.15826675943E+03  0.12510655292E+03 0.  0.
         23    2    1    2    0    0 -0.23377621024E+02 -0.89436315721E+02  0.23820353243E+03  0.27094660360E+03  0.90143060758E+02 0.  0.
          5    1    3    3  502    0  0.20265692477E+02  0.80647781426E+02 -0.37138809391E+02  0.91167573750E+02  0.41800000000E+01 0. -1.
         -5    1    3    3    0  502  0.31119285472E+01  0.87885342949E+01  0.66316708938E+02  0.67099185678E+02  0.41800000000E+01 0. -1.
        -11    1    4    4    0    0 -0.25528705536E+01  0.17725424767E+02  0.19276318894E+02  0.26311296079E+02  0.00000000000E+00 0.  1.
         11    1    4    4    0    0 -0.20824750470E+02 -0.10716174049E+03  0.21892721354E+03  0.24463530752E+03  0.00000000000E+00 0. -1.
</event>
<event>
 8    1  0.7224195E-009  0.1602117E+03  0.7561462E-02  0.1188458E+00
         -2   -1    0    0    0  501 -0.00000000000E+00  0.00000000000E+00  0.24790674890E+03  0.24790674890E+03  0.00000000000E+00 0.  1.
          2   -1    0    0  501    0  0.00000000000E+00 -0.00000000000E+00 -0.16980893599E+03  0.16980893599E+03  0.00000000000E+00 0. -1.
         25    2    1    2    0    0  0.93543787862E+02 -0.11044816108E+03  0.13868880415E+03  0.23628607677E+03  0.12508912480E+03 0.  0.
         23    2    1    2    0    0 -0.93543787862E+02  0.11044816108E+03 -0.60590991242E+02  0.18142960812E+03  0.91083466924E+02 0.  0.
          5    1    3    3  502    0  0.11057311402E+03 -0.10404032692E+03  0.15080204075E+03  0.21403161230E+03  0.41800000000E+01 0. -1.
         -5    1    3    3    0  502 -0.17029326153E+02 -0.64078341653E+01 -0.12113236599E+02  0.22254464469E+02  0.41800000000E+01 0. -1.
        -11    1    4    4    0    0 -0.40725819860E+02  0.77698019763E+02 -0.77465493681E+02  0.11703195029E+03  0.00000000000E+00 0. -1.
         11    1    4    4    0    0 -0.52817968002E+02  0.32750141322E+02  0.16874502439E+02  0.64397657823E+02  0.00000000000E+00 0.  1.
</event>
<event>
 8    1  0.7224195E-009  0.1722696E+03  0.7561462E-02  0.1175502E+00
         -1   -1    0    0    0  501 -0.00000000000E+00  0.00000000000E+00  0.24432610620E+03  0.24432610620E+03  0.00000000000E+00 0.  1.
          1   -1    0    0  501    0  0.00000000000E+00 -0.00000000000E+00 -0.16135789325E+03  0.16135789325E+03  0.00000000000E+00 0. -1.
         25    2    1    2    0    0 -0.13447832955E+03  0.43873398428E+02 -0.45568259107E+02  0.19425092536E+03  0.12509060540E+03 0.  0.
         23    2    1    2    0    0  0.13447832955E+03 -0.43873398428E+02  0.12853647206E+03  0.21143307408E+03  0.90404778404E+02 0.  0.
          5    1    3    3  502    0 -0.30071845450E+02  0.68870972168E+02  0.51509571103E+01  0.75442239199E+02  0.41800000000E+01 0. -1.
         -5    1    3    3    0  502 -0.10440648410E+03 -0.24997573740E+02 -0.50719216217E+02  0.11880868617E+03  0.41800000000E+01 0. -1.
        -11    1    4    4    0    0  0.58523566632E+02  0.20765122323E+02  0.77768349783E+02  0.99519417122E+02  0.00000000000E+00 0.  1.
         11    1    4    4    0    0  0.75954762918E+02 -0.64638520751E+02  0.50768122280E+02  0.11191365696E+03  0.00000000000E+00 0. -1.
</event>
<event>
 8    1  0.7224195E-009  0.1522937E+03  0.7561462E-02  0.1197682E+00
          2   -1    0    0  501    0  0.00000000000E+00  0.00000000000E+00  0.20985201405E+03  0.20985201405E+03  0.00000000000E+00 0. -1.
         -2   -1    0    0    0  501 -0.00000000000E+00 -0.00000000000E+00 -0.12221405783E+03  0.12221405783E+03  0.00000000000E+00 0.  1.
         25    2    1    2    0    0 -0.63961030479E+02 -0.94987424234E+02  0.20374959812E+02  0.17080587972E+03  0.12508351361E+03 0.  0.
         23    2    1    2    0    0  0.63961030479E+02  0.94987424234E+02  0.67262996409E+02  0.16126019215E+03  0.91470840735E+02 0.  0.
          5    1    3    3  502    0 -0.92483330757E+02 -0.48734823777E+02 -0.15203005678E+02  0.10572063799E+03  0.41800000000E+01 0.  1.
         -5    1    3    3    0  502  0.28522300278E+02 -0.46252600457E+02  0.35577965490E+02  0.65085241727E+02  0.41800000000E+01 0.  1.
        -11    1    4    4    0    0 -0.40959066184E+01  0.74187858299E+02  0.24500556566E+02  0.78236130030E+02  0.00000000000E+00 0. -1.
         11    1    4    4    0    0  0.68056937097E+02  0.20799565935E+02  0.42762439843E+02  0.83024062123E+02  0.00000000000E+00 0.  1.
</event>
<event>
 8    1  0.7224195E-009  0.1021147E+03  0.7561462E-02  0.1275911E+00
          1   -1    0    0  501    0  0.00000000000E+00  0.00000000000E+00  0.14258684959E+03  0.14258684959E+03  0.00000000000E+00 0. -1.
         -1   -1    0    0    0  501 -0.00000000000E+00 -0.00000000000E+00 -0.12047579933E+03  0.12047579933E+03  0.00000000000E+00 0.  1.
         25    2    1    2    0    0 -0.51482395133E+02 -0.36641184352E+02 -0.66515915020E+00  0.14014926378E+03  0.12509340631E+03 0.  0.
         23    2    1    2    0    0  0.51482395133E+02  0.36641184352E+02  0.22776209406E+02  0.12291338514E+03  0.10293653934E+03 0.  0.
          5    1    3    3  502    0 -0.14791471439E+01 -0.49601593807E+02 -0.48579079475E+02  0.69569428251E+02  0.41800000000E+01 0. -1.
         -5    1    3    3    0  502 -0.50003247989E+02  0.12960409455E+02  0.47913920325E+02  0.70579835531E+02  0.41800000000E+01 0. -1.
        -11    1    4    4    0    0  0.56378113932E+02 -0.86611269250E+01 -0.19971001309E+02  0.60434656808E+02  0.00000000000E+00 0.  1.
         11    1    4    4    0    0 -0.48957187992E+01  0.45302311277E+02  0.42747210715E+02  0.62478728328E+02  0.00000000000E+00 0. -1.
</event>
<event>
 8    1  0.7224195E-009  0.1501756E+03  0.7561462E-02  0.1200257E+00
          3   -1    0    0  501    0  0.00000000000E+00  0.00000000000E+00  0.24009134228E+03  0.24009134228E+03  0.00000000000E+00 0. -1.
         -3   -1    0    0    0  501 -0.00000000000E+00 -0.00000000000E+00 -0.12789960305E+03  0.12789960305E+03  0.00000000000E+00 0.  1.
         25    2    1    2    0    0  0.11115323227E+03  0.59672898698E+02  0.24127602273E+01  0.17767768385E+03  0.12509053539E+03 0.  0.
         23    2    1    2    0    0 -0.11115323227E+03 -0.59672898698E+02  0.10977897900E+03  0.19031326148E+03  0.90839514425E+02 0.  0.
          5    1    3    3  502    0  0.87020597519E+00  0.63585141521E+02 -0.16037918179E+02  0.65715406871E+02  0.41800000000E+01 0.  1.
         -5    1    3    3    0  502  0.11028302630E+03 -0.39122428229E+01  0.18450678407E+02  0.11196227698E+03  0.41800000000E+01 0.  1.
        -11    1    4    4    0    0 -0.80674834705E+02 -0.41836883437E+02  0.18910849557E+02  0.92824425672E+02  0.00000000000E+00 0.  1.
         11    1    4    4    0    0 -0.30478397568E+02 -0.17836015261E+02  0.90868129441E+02  0.97488835806E+02  0.00000000000E+00 0. -1.
</event>
<event>
 8    1  0.7224195E-009  0.1018013E+03  0.7561462E-02  0.1276553E+00
         -1   -1    0    0    0  501 -0.00000000000E+00  0.00000000000E+00  0.53326288115E+02  0.53326288115E+02  0.00000000000E+00 0.  1.
          1   -1    0    0  501    0  0.00000000000E+00 -0.00000000000E+00 -0.30337460507E+03  0.30337460507E+03  0.00000000000E+00 0. -1.
         25    2    1    2    0    0  0.20069452144E+02  0.82014799141E+01 -0.51789104715E+02  0.13710408656E+03  0.12508146147E+03 0.  0.
         23    2    1    2    0    0 -0.20069452144E+02 -0.82014799141E+01 -0.19825921224E+03  0.21959680663E+03  0.91902094970E+02 0.  0.
          5    1    3    3  502    0 -0.42054429071E+02 -0.30461892099E+02 -0.32183502436E+02  0.61235219472E+02  0.41800000000E+01 0.  1.
         -5    1    3    3    0  502  0.62123881215E+02  0.38663372013E+02 -0.19605602279E+02  0.75868867089E+02  0.41800000000E+01 0.  1.
        -11    1    4    4    0    0 -0.28603031031E+02  0.28593080512E+02 -0.39964897456E+02  0.56858514455E+02  0.00000000000E+00 0.  1.
         11    1    4    4    0    0  0.85335788868E+01 -0.36794560426E+02 -0.15829431479E+03  0.16273829217E+03  0.00000000000E+00 0. -1.
</event>
<event>
 8    1  0.7224195E-009  0.9489635E+02  0.7561462E-02  0.1291410E+00
          2   -1    0    0  501    0  0.00000000000E+00  0.00000000000E+00  0.13787049304E+03  0.13787049304E+03  0.00000000000E+00 0.  1.
         -2   -1    0    0    0  501 -0.00000000000E+00 -0.00000000000E+00 -0.11149230705E+03  0.11149230705E+03  0.00000000000E+00 0. -1.
         25    2    1    2    0    0 -0.32607874475E+01  0.16393196252E+02  0.75075888993E+02  0.14683482468E+03  0.12507880321E+03 0.  0.
         23    2    1    2    0    0  0.32607874475E+01 -0.16393196252E+02 -0.48697703009E+02  0.10252797541E+03  0.88663125624E+02 0.  0.
          5    1    3    3  502    0 -0.45972779305E+02 -0.35448950862E+02  0.27216994749E+02  0.64252328809E+02  0.41800000000E+01 0. -1.
         -5    1    3    3    0  502  0.42711991858E+02  0.51842147113E+02  0.47858894244E+02  0.82582495870E+02  0.41800000000E+01 0. -1.
        -11    1    4    4    0    0 -0.16038418322E+02 -0.34361330371E+02 -0.62242466334E+02  0.72883856254E+02  0.00000000000E+00 0. -1.
         11    1    4    4    0    0  0.19299205769E+02  0.17968134119E+02  0.13544763325E+02  0.29644119157E+02  0.00000000000E+00 0.  1.
</event>
<event>
 8    1  0.7224195E-009  0.1028744E+03  0.7561462E-02  0.1274365E+00
         -1   -1    0    0    0  501 -0.00000000000E+00  0.00000000000E+00  0.23578888439E+02  0.23578888439E+02  0.00000000000E+00 0.  1.
          1   -1    0    0  501    0  0.00000000000E+00 -0.00000000000E+00 -0.88716726369E+03  0.88716726369E+03  0.00000000000E+00 0. -1.
         25    2    1    2    0    0 -0.81976644795E+02 -0.32541230208E+02 -0.57922066764E+03  0.59910214256E+03  0.12509074082E+03 0.  0.
         23    2    1    2    0    0  0.81976644795E+02  0.32541230208E+02 -0.28436770762E+03  0.31164400958E+03  0.92075477818E+02 0.  0.
          5    1    3    3  502    0 -0.93729988842E+02 -0.14054596364E+02 -0.22503716209E+03  0.24421719679E+03  0.41800000000E+01 0. -1.
         -5    1    3    3    0  502  0.11753344047E+02 -0.18486633844E+02 -0.35418350555E+03  0.35488494576E+03  0.41800000000E+01 0. -1.
        -11    1    4    4    0    0  0.45049227110E+02  0.22238946145E+02 -0.26299659167E+03  0.26775214438E+03  0.00000000000E+00 0. -1.
         11    1    4    4    0    0  0.36927417685E+02  0.10302284063E+02 -0.21371115943E+02  0.43891865196E+02  0.00000000000E+00 0.  1.
</event>
<event>
 8    1  0.7224195E-009  0.1105133E+03  0.7561462E-02  0.1259622E+00
         -2   -1    0    0    0  501 -0.00000000000E+00  0.00000000000E+00  0.64987339080E+02  0.64987339080E+02  0.00000000000E+00 0.  1.
          2   -1    0    0  501    0  0.00000000000E+00 -0.00000000000E+00 -0.42400547717E+03  0.42400547717E+03  0.00000000000E+00 0. -1.
         25    2    1    2    0    0  0.92236083334E+02 -0.27207316720E+02 -0.31064499420E+03  0.34841840404E+03  0.12508932290E+03 0.  0.
         23    2    1    2    0    0 -0.92236083334E+02  0.27207316720E+02 -0.48373143894E+02  0.14057441221E+03  0.90407251734E+02 0.  0.
          5    1    3    3  502    0  0.48063267666E+02 -0.22551171056E+02 -0.29704016733E+03  0.30177635166E+03  0.41800000000E+01 0. -1.
         -5    1    3    3    0  502  0.44172815668E+02 -0.46561456645E+01 -0.13604826874E+02  0.46642052386E+02  0.41800000000E+01 0. -1.
        -11    1    4    4    0    0 -0.47309239726E+02  0.53248728687E+02 -0.24797149502E+01  0.71272296557E+02  0.00000000000E+00 0.  1.
         11    1    4    4    0    0 -0.44926843608E+02 -0.26041411967E+02 -0.45893428944E+02  0.69302115653E+02  0.00000000000E+00 0. -1.
</event>
<event>
 8    1  0.7224195E-009  0.1094548E+03  0.7561462E-02  0.1261583E+00
         -2   -1    0    0    0  501 -0.00000000000E+00  0.00000000000E+00  0.63029651612E+02  0.63029651612E+02  0.00000000000E+00 0.  1.
          2   -1    0    0  501    0  0.00000000000E+00 -0.00000000000E+00 -0.36497074592E+03  0.36497074592E+03  0.00000000000E+00 0. -1.
         25    2    1    2    0    0 -0.35520248218E+02  0.57463464498E+01 -0.24734585287E+02  0.13248888932E+03  0.12508715982E+03 0.  0.
         23    2    1    2    0    0  0.35520248218E+02 -0.57463464498E+01 -0.27720650902E+03  0.29551150821E+03  0.95858720578E+02 0.  0.
          5    1    3    3  502    0 -0.76262052468E+02  0.68022931360E+01 -0.42685727476E+02  0.87759418689E+02  0.41800000000E+01 0. -1.
         -5    1    3    3    0  502  0.40741804250E+02 -0.10559466862E+01  0.17951142189E+02  0.44729470630E+02  0.41800000000E+01 0. -1.
        -11    1    4    4    0    0 -0.32559594871E+02 -0.63794092901E+01 -0.71312639629E+02  0.78653141399E+02  0.00000000000E+00 0.  1.
         11    1    4    4    0    0  0.68079843088E+02  0.63306284034E+00 -0.20589386939E+03  0.21685836681E+03  0.00000000000E+00 0. -1.
</event>
<event>
 8    1  0.7224195E-009  0.1369180E+03  0.7561462E-02  0.1217537E+00
         -2   -1    0    0    0  501 -0.00000000000E+00  0.00000000000E+00  0.66005366746E+02  0.66005366746E+02  0.00000000000E+00 0.  1.
          2   -1    0    0  501    0  0.00000000000E+00 -0.00000000000E+00 -0.34384612566E+03  0.34384612566E+03  0.00000000000E+00 0. -1.
         25    2    1    2    0    0 -0.10081801147E+03  0.32556746032E+02 -0.15673579450E+03  0.22680238037E+03  0.12509595244E+03 0.  0.
         23    2    1    2    0    0  0.10081801147E+03 -0.32556746032E+02 -0.12110496441E+03  0.18304911203E+03  0.87271712830E+02 0.  0.
          5    1    3    3  502    0 -0.13051076265E+03  0.28727091872E+02 -0.12815247699E+03  0.18519944582E+03  0.41800000000E+01 0. -1.
         -5    1    3    3    0  502  0.29692751175E+02  0.38296541599E+01 -0.28583317506E+02  0.41602934548E+02  0.41800000000E+01 0. -1.
        -11    1    4    4    0    0  0.22917106780E+02  0.49518337992E+01 -0.87001955758E+02  0.90105797521E+02  0.00000000000E+00 0. -1.
         11    1    4    4    0    0  0.77900904692E+02 -0.37508579831E+02 -0.34103008656E+02  0.92943314511E+02  0.00000000000E+00 0.  1.
</event>
<event>
 8    1  0.7224195E-009  0.9140686E+02  0.7561462E-02  0.1299480E+00
         -1   -1    0    0    0  501 -0.00000000000E+00  0.00000000000E+00  0.22109935965E+03  0.22109935965E+03  0.00000000000E+00 0.  1.
          1   -1    0    0  501    0  0.00000000000E+00 -0.00000000000E+00 -0.70155424461E+02  0.70155424461E+02  0.00000000000E+00 0. -1.
         25    2    1    2    0    0  0.20007609974E+02 -0.54260830011E+02  0.11144685085E+03  0.17723735867E+03  0.12509252022E+03 0.  0.
         23    2    1    2    0    0 -0.20007609974E+02  0.54260830011E+02  0.39497084340E+02  0.11401742544E+03  0.89974504731E+02 0.  0.
          5    1    3    3  502    0 -0.44066318498E+02 -0.65666936171E+01  0.79257944031E+02  0.91017888259E+02  0.41800000000E+01 0. -1.
         -5    1    3    3    0  502  0.64073928472E+02 -0.47694136393E+02  0.32188906814E+02  0.86219470412E+02  0.41800000000E+01 0. -1.
        -11    1    4    4    0    0 -0.14228254302E+02  0.44679388208E+02  0.68454024144E+02  0.82973757133E+02  0.00000000000E+00 0.  1.
         11    1    4    4    0    0 -0.57793556724E+01  0.95814418023E+01 -0.28956939804E+02  0.31043668305E+02  0.00000000000E+00 0. -1.
</event>
<event>
 8    1  0.7224195E-009  0.1102647E+03  0.7561462E-02  0.1260081E+00
          4   -1    0    0  501    0  0.00000000000E+00  0.00000000000E+00  0.14867104380E+03  0.14867104380E+03  0.00000000000E+00 0. -1.
         -4   -1    0    0    0  501 -0.00000000000E+00 -0.00000000000E+00 -0.11678117951E+03  0.11678117951E+03  0.00000000000E+00 0.  1.
         25    2    1    2    0    0 -0.27605615172E+02 -0.75474219590E+02  0.66061615746E+01  0.14882220089E+03  0.12508388504E+03 0.  0.
         23    2    1    2    0    0  0.27605615172E+02  0.75474219590E+02  0.25283702714E+02  0.11663002242E+03  0.80652766189E+02 0.  0.
          5    1    3    3  502    0 -0.27331029169E+02  0.24592651303E+02 -0.23988676286E+02  0.44098896171E+02  0.41800000000E+01 0.  1.
         -5    1    3    3    0  502 -0.27458600315E+00 -0.10006687089E+03  0.30594837861E+02  0.10472330472E+03  0.41800000000E+01 0.  1.
        -11    1    4    4    0    0  0.91601959927E+01  0.48236810390E+01 -0.25611077707E+02  0.27624344168E+02  0.00000000000E+00 0.  1.
         11    1    4    4    0    0  0.18445419180E+02  0.70650538551E+02  0.50894780421E+02  0.89005678248E+02  0.00000000000E+00 0. -1.
</event>
<event>
 8    1  0.7224195E-009  0.7813750E+02  0.7561462E-02  0.1334422E+00
         -4   -1    0    0    0  501 -0.00000000000E+00  0.00000000000E+00  0.14198860639E+03  0.14198860639E+03  0.00000000000E+00 0.  1.
          4   -1    0    0  501    0  0.00000000000E+00 -0.00000000000E+00 -0.10217969927E+03  0.10217969927E+03  0.00000000000E+00 0. -1.
         25    2    1    2    0    0  0.24121116656E+01  0.71806015680E+01  0.75326989866E+02  0.14622157407E+03  0.12509681850E+03 0.  0.
         23    2    1    2    0    0 -0.24121116656E+01 -0.71806015680E+01 -0.35518082744E+02  0.97946731599E+02  0.90965096095E+02 0.  0.
          5    1    3    3  502    0 -0.57212574474E+02 -0.17847603733E+02  0.30070607715E+02  0.67182806470E+02  0.41800000000E+01 0.  1.
         -5    1    3    3    0  502  0.59624686139E+02  0.25028205301E+02  0.45256382152E+02  0.79038767597E+02  0.41800000000E+01 0.  1.
        -11    1    4    4    0    0  0.10784888510E+02  0.63351853195E+01  0.28540473251E+02  0.31160985328E+02  0.00000000000E+00 0.  1.
         11    1    4    4    0    0 -0.13197000175E+02 -0.13515786888E+02 -0.64058555996E+02  0.66785746272E+02  0.00000000000E+00 0. -1.
</event>
<event>
 8    1  0.7224195E-009  0.1461316E+03  0.7561462E-02  0.1205309E+00
          1   -1    0    0  501    0  0.00000000000E+00  0.00000000000E+00  0.35717930380E+03  0.35717930380E+03  0.00000000000E+00 0. -1.
         -1   -1    0    0    0  501 -0.00000000000E+00 -0.00000000000E+00 -0.84211805363E+02  0.84211805363E+02  0.00000000000E+00 0.  1.
         25    2    1    2    0    0 -0.13090647029E+03  0.14566956962E+02  0.11940230386E+03  0.21737772966E+03  0.12508983566E+03 0.  0.
         23    2    1    2    0    0  0.13090647029E+03 -0.14566956962E+02  0.15356519458E+03  0.22401337950E+03  0.96182248941E+02 0.  0.
          5    1    3    3  502    0 -0.25787386931E+02 -0.17915729917E+02 -0.21703391825E+02  0.38398858315E+02  0.41800000000E+01 0.  1.
         -5    1    3    3    0  502 -0.10511908336E+03  0.32482686879E+02  0.14110569569E+03  0.17897887135E+03  0.41800000000E+01 0.  1.
        -11    1    4    4    0    0  0.28167303140E+00  0.16266431592E+02 -0.42786792973E+01  0.16822105486E+02  0.00000000000E+00 0.  1.
         11    1    4    4    0    0  0.13062479726E+03 -0.30833388555E+02  0.15784387387E+03  0.20719127402E+03  0.00000000000E+00 0. -1.
</event>
<event>
 8    1  0.7224195E-009  0.1016435E+03  0.7561462E-02  0.1276877E+00
         -1   -1    0    0    0  501 -0.00000000000E+00  0.00000000000E+00  0.32536066829E+03  0.32536066829E+03  0.00000000000E+00 0.  1.
          1   -1    0    0  501    0  0.00000000000E+00 -0.00000000000E+00 -0.50201198389E+02  0.50201198389E+02  0.00000000000E+00 0. -1.
         25    2    1    2    0    0  0.13312052452E+02 -0.62473610172E+02  0.15750210182E+03  0.21103289621E+03  0.12509120071E+03 0.  0.
         23    2    1    2    0    0 -0.13312052452E+02  0.62473610172E+02  0.11765736808E+03  0.16452897047E+03  0.95636620357E+02 0.  0.
          5    1    3    3  502    0 -0.52701859448E+02 -0.75009717435E+01  0.73141080922E+02  0.90558493168E+02  0.41800000000E+01 0.  1.
         -5    1    3    3    0  502  0.66013911900E+02 -0.54972638428E+02  0.84361020900E+02  0.12047440304E+03  0.41800000000E+01 0.  1.
        -11    1    4    4    0    0 -0.62981115736E+01  0.27399025860E+02  0.12490778640E+03  0.12803252685E+03  0.00000000000E+00 0.  1.
         11    1    4    4    0    0 -0.70139408785E+01  0.35074584312E+02 -0.72504183240E+01  0.36496443623E+02  0.00000000000E+00 0. -1.
</event>
<event>
 8    1  0.7224195E-009  0.1671472E+03  0.7561462E-02  0.1180856E+00
         -2   -1    0    0    0  501 -0.00000000000E+00  0.00000000000E+00  0.31875661150E+02  0.31875661150E+02  0.00000000000E+00 0.  1.
          2   -1    0    0  501    0  0.00000000000E+00 -0.00000000000E+00 -0.10314163788E+04  0.10314163788E+04  0.00000000000E+00 0. -1.
         25    2    1    2    0    0  0.52222362579E+02  0.13414800146E+03 -0.47957412891E+03  0.51610452867E+03  0.12509867284E+03 0.  0.
         23    2    1    2    0    0 -0.52222362579E+02 -0.13414800146E+03 -0.51996658875E+03  0.54718751129E+03  0.91247233642E+02 0.  0.
          5    1    3    3  502    0  0.71868396249E+01  0.11603082990E+03 -0.19245256786E+03  0.22487833917E+03  0.41800000000E+01 0. -1.
         -5    1    3    3    0  502  0.45035522954E+02  0.18117171561E+02 -0.28712156105E+03  0.29122618950E+03  0.41800000000E+01 0. -1.
        -11    1    4    4    0    0 -0.77433637556E+02 -0.10831483830E+03 -0.38040943668E+03  0.40303773016E+03  0.00000000000E+00 0.  1.
         11    1    4    4    0    0  0.25211274977E+02 -0.25833163160E+02 -0.13955715208E+03  0.14414978113E+03  0.00000000000E+00 0. -1.
</event>
<event>
 8    1  0.7224195E-009  0.8493573E+02  0.7561462E-02  0.1315601E+00
          1   -1    0    0  501    0  0.00000000000E+00  0.00000000000E+00  0.38188680427E+03  0.38188680427E+03  0.00000000000E+00 0. -1.
         -1   -1    0    0    0  501 -0.00000000000E+00 -0.00000000000E+00 -0.38284117978E+02  0.38284117978E+02  0.00000000000E+00 0.  1.
         25    2    1    2    0    0 -0.13462289695E+02  0.17274165605E+02  0.10883356085E+03  0.16725424359E+03  0.12509839324E+03 0.  0.
         23    2    1    2    0    0  0.13462289695E+02 -0.17274165605E+02  0.23476912544E+03  0.25291667866E+03  0.91491387801E+02 0.  0.
          5    1    3    3  502    0 -0.53764171571E+02  0.11091969772E+02  0.11335596340E+03  0.12601850966E+03  0.41800000000E+01 0.  1.
         -5    1    3    3    0  502  0.40301881876E+02  0.61821958331E+01 -0.45224025491E+01  0.41235733932E+02  0.41800000000E+01 0.  1.
        -11    1    4    4    0    0 -0.62616464768E+00 -0.43794472096E+02  0.20839871309E+03  0.21295157076E+03  0.00000000000E+00 0. -1.
         11    1    4    4    0    0  0.14088454342E+02  0.26520306492E+02  0.26370412346E+02  0.39965107900E+02  0.00000000000E+00 0.  1.
</event>
<event>
 8    1  0.7224195E-009  0.8797615E+02  0.7561462E-02  0.1307828E+00
         -1   -1    0    0    0  501 -0.00000000000E+00  0.00000000000E+00  0.31439900306E+03  0.31439900306E+03  0.00000000000E+00 0.  1.
          1   -1    0    0  501    0  0.00000000000E+00 -0.00000000000E+00 -0.42811340895E+02  0.42811340895E+02  0.00000000000E+00 0. -1.
         25    2    1    2    0    0 -0.34088942716E+01  0.40141903904E+02  0.14391979428E+03  0.19489170264E+03  0.12508747164E+03 0.  0.
         23    2    1    2    0    0  0.34088942716E+01 -0.40141903904E+02  0.12766786789E+03  0.16231864132E+03  0.91789235858E+02 0.  0.
          5    1    3    3  502    0 -0.19354119720E+02  0.55219625557E+02  0.15796355680E+03  0.16850444111E+03  0.41800000000E+01 0.  1.
         -5    1    3    3    0  502  0.15945225449E+02 -0.15077721653E+02 -0.14043762525E+02  0.26387261524E+02  0.41800000000E+01 0.  1.
        -11    1    4    4    0    0 -0.10188337259E+02  0.25738387508E+02  0.16051788229E+02  0.31998854870E+02  0.00000000000E+00 0. -1.
         11    1    4    4    0    0  0.13597231530E+02 -0.65880291412E+02  0.11161607966E+03  0.13031978645E+03  0.00000000000E+00 0.  1.
</event>
<event>
 8    1  0.7224195E-009  0.1393039E+03  0.7561462E-02  0.1214269E+00
         -2   -1    0    0    0  501 -0.00000000000E+00  0.00000000000E+00  0.29742367807E+03  0.29742367807E+03  0.00000000000E+00 0.  1.
          2   -1    0    0  501    0  0.00000000000E+00 -0.00000000000E+00 -0.95887194289E+02  0.95887194289E+02  0.00000000000E+00 0. -1.
         25    2    1    2    0    0 -0.73872064269E+02  0.59196640418E+02  0.21293315485E+03  0.26447865321E+03  0.12508839057E+03 0.  0.
         23    2    1    2    0    0  0.73872064269E+02 -0.59196640418E+02 -0.11396671064E+02  0.12883221915E+03  0.86640247366E+02 0.  0.
          5    1    3    3  502    0  0.10593342987E+02 -0.31118362969E+02  0.44060342758E+02  0.55130369430E+02  0.41800000000E+01 0. -1.
         -5    1    3    3    0  502 -0.84465407256E+02  0.90315003387E+02  0.16887281209E+03  0.20934828378E+03  0.41800000000E+01 0. -1.
        -11    1    4    4    0    0  0.81674822830E+02 -0.23193993608E+02  0.11162799456E+02  0.85634958489E+02  0.00000000000E+00 0.  1.
         11    1    4    4    0    0 -0.78027585606E+01 -0.36002646810E+02 -0.22559470519E+02  0.43197260660E+02  0.00000000000E+00 0. -1.
</event>
<event>
 8    1  0.7224195E-009  0.1135393E+03  0.7561462E-02  0.1254152E+00
          2   -1    0    0  501    0  0.00000000000E+00  0.00000000000E+00  0.10539425997E+04  0.10539425997E+04  0.00000000000E+00 0. -1.
         -2   -1    0    0    0  501 -0.00000000000E+00 -0.00000000000E+00 -0.15239919417E+02  0.15239919417E+02  0.00000000000E+00 0.  1.
         25    2    1    2    0    0 -0.45466619557E+02 -0.36257136841E+02  0.45933885201E+03  0.47960194291E+03  0.12507617365E+03 0.  0.
         23    2    1    2    0    0  0.45466619557E+02  0.36257136841E+02  0.57936382829E+03  0.58958057622E+03  0.92525763225E+02 0.  0.
          5    1    3    3  502    0 -0.33694048218E+02 -0.72519589290E+02  0.40649346132E+03  0.41430518487E+03  0.41800000000E+01 0. -1.
         -5    1    3    3    0  502 -0.11772571339E+02  0.36262452449E+02  0.52845390690E+02  0.65296758042E+02  0.41800000000E+01 0. -1.
        -11    1    4    4    0    0  0.73388558143E+02  0.33242502187E+02  0.45577417585E+03  0.46284019250E+03  0.00000000000E+00 0. -1.
         11    1    4    4    0    0 -0.27921938586E+02  0.30146346536E+01  0.12358965244E+03  0.12674038372E+03  0.00000000000E+00 0.  1.
</event>
<event>
 8    1  0.7224195E-009  0.1266207E+03  0.7561462E-02  0.1232558E+00
         -2   -1    0    0    0  501 -0.00000000000E+00  0.00000000000E+00  0.62644841203E+02  0.62644841203E+02  0.00000000000E+00 0.  1.
          2   -1    0    0  501    0  0.00000000000E+00 -0.00000000000E+00 -0.38763980889E+03  0.38763980889E+03  0.00000000000E+00 0. -1.
         25    2    1    2    0    0  0.43461499531E+02  0.70688254152E+02 -0.66460916529E+02  0.16416368614E+03  0.12508769405E+03 0.  0.
         23    2    1    2    0    0 -0.43461499531E+02 -0.70688254152E+02 -0.25853405116E+03  0.28612096395E+03  0.90219838121E+02 0.  0.
          5    1    3    3  502    0 -0.42885159212E+02  0.34391335703E+02 -0.14657954423E+02  0.57045848929E+02  0.41800000000E+01 0. -1.
         -5    1    3    3    0  502  0.86346658743E+02  0.36296918449E+02 -0.51802962107E+02  0.10711783721E+03  0.41800000000E+01 0. -1.
        -11    1    4    4    0    0 -0.58786098838E+02 -0.43456025374E+02 -0.23739060821E+03  0.24839189283E+03  0.00000000000E+00 0.  1.
         11    1    4    4    0    0  0.15324599308E+02 -0.27232228779E+02 -0.21143442945E+02  0.37729071123E+02  0.00000000000E+00 0. -1.
</event>
<event>
 8    1  0.7224195E-009  0.2173152E+03  0.7561462E-02  0.1135901E+00
          2   -1    0    0  501    0  0.00000000000E+00  0.00000000000E+00  0.80376379014E+03  0.80376379014E+03  0.00000000000E+00 0. -1.
         -2   -1    0    0    0  501 -0.00000000000E+00 -0.00000000000E+00 -0.70246403914E+02  0.70246403914E+02  0.00000000000E+00 0.  1.
         25    2    1    2    0    0 -0.14821475278E+03  0.13328069658E+03  0.25148830565E+03  0.34441981883E+03  0.12508911503E+03 0.  0.
         23    2    1    2    0    0  0.14821475278E+03 -0.13328069658E+03  0.48202908058E+03  0.52959037522E+03  0.91556397822E+02 0.  0.
          5    1    3    3  502    0  0.21511827605E+02  0.49552585324E+01  0.22180943301E+02  0.31571822243E+02  0.41800000000E+01 0. -1.
         -5    1    3    3    0  502 -0.16972658039E+03  0.12832543805E+03  0.22930736235E+03  0.31284799659E+03  0.41800000000E+01 0. -1.
        -11    1    4    4    0    0  0.49257868718E+02 -0.45922903902E+02  0.28202631606E+03  0.28995533050E+03  0.00000000000E+00 0.  1.
         11    1    4    4    0    0  0.98956884066E+02 -0.87357792682E+02  0.20000276452E+03  0.23963504473E+03  0.00000000000E+00 0. -1.
</event>
<event>
 8    1  0.7224195E-009  0.2836095E+03  0.7561462E-02  0.1093734E+00
         -2   -1    0    0    0  501 -0.00000000000E+00  0.00000000000E+00  0.15374694973E+04  0.15374694973E+04  0.00000000000E+00 0.  1.
          2   -1    0    0  501    0  0.00000000000E+00 -0.00000000000E+00 -0.74239151629E+02  0.74239151629E+02  0.00000000000E+00 0. -1.
         25    2    1    2    0    0  0.21894332833E+03 -0.16181976979E+03  0.34490341174E+03  0.45686704962E+03  0.12508924286E+03 0.  0.
         23    2    1    2    0    0 -0.21894332833E+03  0.16181976979E+03  0.11183269340E+04  0.11548415993E+04  0.94245262129E+02 0.  0.
          5    1    3    3  502    0  0.80905384391E+02 -0.14019553376E+02  0.17247681648E+03  0.19107054646E+03  0.41800000000E+01 0. -1.
         -5    1    3    3    0  502  0.13803794394E+03 -0.14780021641E+03  0.17242659526E+03  0.26579650316E+03  0.41800000000E+01 0. -1.
        -11    1    4    4    0    0 -0.11710696788E+03  0.39565844670E+02  0.60178586530E+03  0.61434983981E+03  0.00000000000E+00 0.  1.
         11    1    4    4    0    0 -0.10183636045E+03  0.12225392512E+03  0.51654106866E+03  0.54049175954E+03  0.00000000000E+00 0. -1.
</event>
<event>
 8    1  0.7224195E-009  0.1094172E+03  0.7561462E-02  0.1261653E+00
          2   -1    0    0  501    0  0.00000000000E+00  0.00000000000E+00  0.36176380864E+02  0.36176380864E+02  0.00000000000E+00 0. -1.
         -2   -1    0    0    0  501 -0.00000000000E+00 -0.00000000000E+00 -0.57171747067E+03  0.57171747067E+03  0.00000000000E+00 0.  1.
         25    2    1    2    0    0 -0.28856128802E+02  0.86872723842E+02 -0.24825740632E+03  0.29267498963E+03  0.12508942179E+03 0.  0.
         23    2    1    2    0    0  0.28856128802E+02 -0.86872723842E+02 -0.28728368349E+03  0.31521886191E+03  0.91931875794E+02 0.  0.
          5    1    3    3  502    0 -0.40718781301E+02  0.65871958703E+02 -0.25560941316E+03  0.26711566519E+03  0.41800000000E+01 0. -1.
         -5    1    3    3    0  502  0.11862652499E+02  0.21000765139E+02  0.73520068468E+01  0.25559324432E+02  0.41800000000E+01 0. -1.
        -11    1    4    4    0    0 -0.15318734899E+02 -0.66343906484E+02 -0.23078719675E+03  0.24062191868E+03  0.00000000000E+00 0. -1.
         11    1    4    4    0    0  0.44174863701E+02 -0.20528817358E+02 -0.56496486747E+02  0.74596943234E+02  0.00000000000E+00 0.  1.
</event>
<event>
 8    1  0.7224195E-009  0.1262777E+03  0.7561462E-02  0.1233086E+00
         -1   -1    0    0    0  501 -0.00000000000E+00  0.00000000000E+00  0.39568012559E+03  0.39568012559E+03  0.00000000000E+00 0.  1.
          1   -1    0    0  501    0  0.00000000000E+00 -0.00000000000E+00 -0.44945118799E+02  0.44945118799E+02  0.00000000000E+00 0. -1.
         25    2    1    2    0    0 -0.17721718713E+02 -0.74276886930E+02  0.17179585167E+03  0.22581497265E+03  0.12508985560E+03 0.  0.
         23    2    1    2    0    0  0.17721718713E+02  0.74276886930E+02  0.17893915512E+03  0.21481027174E+03  0.91066549102E+02 0.  0.
          5    1    3    3  502    0 -0.28447262565E+02  0.22590340327E+02  0.11792555828E+02  0.38420137903E+02  0.41800000000E+01 0.  1.
         -5    1    3    3    0  502  0.10725543853E+02 -0.96867227257E+02  0.16000329584E+03  0.18739483474E+03  0.41800000000E+01 0.  1.
        -11    1    4    4    0    0  0.36717665415E+02  0.87769947119E+02  0.15042028445E+03  0.17798318051E+03  0.00000000000E+00 0. -1.
         11    1    4    4    0    0 -0.18995946702E+02 -0.13493060189E+02  0.28518870668E+02  0.36827091231E+02  0.00000000000E+00 0.  1.
</event>
<event>
 8    1  0.7224195E-009  0.1016628E+03  0.7561462E-02  0.1276838E+00
          2   -1    0    0  501    0  0.00000000000E+00  0.00000000000E+00  0.16085799176E+03  0.16085799176E+03  0.00000000000E+00 0. -1.
         -2   -1    0    0    0  501 -0.00000000000E+00 -0.00000000000E+00 -0.80154076885E+02  0.80154076885E+02  0.00000000000E+00 0.  1.
         25    2    1    2    0    0  0.29576501098E+01  0.13629892328E+02  0.15150024501E+02  0.12677498847E+03  0.12509137780E+03 0.  0.
         23    2    1    2    0    0 -0.29576501098E+01 -0.13629892328E+02  0.65553890375E+02  0.11423708017E+03  0.92510952236E+02 0.  0.
          5    1    3    3  502    0  0.58816670732E+02  0.27895696351E+02 -0.53367078269E+01  0.65448632387E+02  0.41800000000E+01 0. -1.
         -5    1    3    3    0  502 -0.55859020623E+02 -0.14265804023E+02  0.20486732327E+02  0.61326356086E+02  0.41800000000E+01 0. -1.
        -11    1    4    4    0    0 -0.28754210647E+02  0.22069466332E+02  0.12163528409E+01  0.36267692074E+02  0.00000000000E+00 0.  1.
         11    1    4    4    0    0  0.25796560537E+02 -0.35699358661E+02  0.64337537534E+02  0.77969388097E+02  0.00000000000E+00 0. -1.
</event>
<event>
 8    1  0.7224195E-009  0.1128867E+03  0.7561462E-02  0.1255316E+00
          1   -1    0    0  501    0  0.00000000000E+00  0.00000000000E+00  0.19641224030E+02  0.19641224030E+02  0.00000000000E+00 0. -1.
         -1   -1    0    0    0  501 -0.00000000000E+00 -0.00000000000E+00 -0.70319107861E+03  0.70319107861E+03  0.00000000000E+00 0.  1.
         25    2    1    2    0    0  0.33811983611E+02 -0.23367981982E+02 -0.45364228878E+03  0.47236478758E+03  0.12509138082E+03 0.  0.
         23    2    1    2    0    0 -0.33811983611E+02  0.23367981982E+02 -0.22990756580E+03  0.25046751506E+03  0.90483006538E+02 0.  0.
          5    1    3    3  502    0  0.33966100555E+02  0.45784031490E+02 -0.14114197981E+03  0.15227739291E+03  0.41800000000E+01 0.  1.
         -5    1    3    3    0  502 -0.15411694436E+00 -0.69152013473E+02 -0.31250030897E+03  0.32008739467E+03  0.41800000000E+01 0.  1.
        -11    1    4    4    0    0 -0.19850358387E+02 -0.34501508470E+02 -0.95891930856E+02  0.10382510880E+03  0.00000000000E+00 0. -1.
         11    1    4    4    0    0 -0.13961625223E+02  0.57869490452E+02 -0.13401563494E+03  0.14664240626E+03  0.00000000000E+00 0.  1.
</event>
<event>
 8    1  0.7224195E-009  0.1090891E+03  0.7561462E-02  0.1262266E+00
         -2   -1    0    0    0  501 -0.00000000000E+00  0.00000000000E+00  0.12867536681E+03  0.12867536681E+03  0.00000000000E+00 0.  1.
          2   -1    0    0  501    0  0.00000000000E+00 -0.00000000000E+00 -0.18118210580E+03  0.18118210580E+03  0.00000000000E+00 0. -1.
         25    2    1    2    0    0 -0.22029163357E+02  0.88754199818E+00  0.77629360823E+02  0.14886245898E+03  0.12509053626E+03 0.  0.
         23    2    1    2    0    0  0.22029163357E+02 -0.88754199818E+00 -0.13013609982E+03  0.16099501363E+03  0.92184153571E+02 0.  0.
          5    1    3    3  502    0  0.49918662070E+02  0.93562633448E+01  0.15309274401E+02  0.53209574039E+02  0.41800000000E+01 0.  1.
         -5    1    3    3    0  502 -0.71947825427E+02 -0.84687213467E+01  0.62320086423E+02  0.95652884937E+02  0.41800000000E+01 0.  1.
        -11    1    4    4    0    0 -0.35286390593E+02  0.91791038198E+01 -0.54276810485E+02  0.65386217695E+02  0.00000000000E+00 0.  1.
         11    1    4    4    0    0  0.57315553949E+02 -0.10066645818E+02 -0.75859289334E+02  0.95608795939E+02  0.00000000000E+00 0. -1.
</event>
<event>
 8    1  0.7224195E-009  0.1367033E+03  0.7561462E-02  0.1217835E+00
         -4   -1    0    0    0  501 -0.00000000000E+00  0.00000000000E+00  0.11559301792E+03  0.11559301792E+03  0.00000000000E+00 0.  1.
          4   -1    0    0  501    0  0.00000000000E+00 -0.00000000000E+00 -0.26741757409E+03  0.26741757409E+03  0.00000000000E+00 0. -1.
         25    2    1    2    0    0  0.39505007872E+02  0.11244030049E+03 -0.15565190294E+03  0.23253747294E+03  0.12507075842E+03 0.  0.
         23    2    1    2    0    0 -0.39505007872E+02 -0.11244030049E+03  0.38273467598E+01  0.15047311908E+03  0.91782591815E+02 0.  0.
          5    1    3    3  502    0 -0.17335006091E+02  0.60228221807E+02 -0.14032053469E+03  0.15373765314E+03  0.41800000000E+01 0. -1.
         -5    1    3    3    0  502  0.56840013963E+02  0.52212078681E+02 -0.15331368251E+02  0.78799819797E+02  0.41800000000E+01 0. -1.
        -11    1    4    4    0    0 -0.54502861099E+02 -0.72980733273E+02 -0.30507021347E+02  0.96059500563E+02  0.00000000000E+00 0. -1.
         11    1    4    4    0    0  0.14997853227E+02 -0.39459567216E+02  0.34334368107E+02  0.54413618512E+02  0.00000000000E+00 0.  1.
</event>
<event>
 8    1  0.7224195E-009  0.1062780E+03  0.7561462E-02  0.1267622E+00
          1   -1    0    0  501    0  0.00000000000E+00  0.00000000000E+00  0.17909401826E+02  0.17909401826E+02  0.00000000000E+00 0. -1.
         -1   -1    0    0    0  501 -0.00000000000E+00 -0.00000000000E+00 -0.17174992465E+04  0.17174992465E+04  0.00000000000E+00 0.  1.
         25    2    1    2    0    0 -0.97432924184E+01 -0.82794436332E+02 -0.14371593468E+04  0.14449999361E+04  0.12509187336E+03 0.  0.
         23    2    1    2    0    0  0.97432924184E+01  0.82794436332E+02 -0.26243049786E+03  0.29040871222E+03  0.92290863529E+02 0.  0.
          5    1    3    3  502    0  0.44186942236E+02 -0.33336669539E+02 -0.10156435342E+04  0.10171593191E+04  0.41800000000E+01 0.  1.
         -5    1    3    3    0  502 -0.53930234654E+02 -0.49457766793E+02 -0.42151581256E+03  0.42784061699E+03  0.41800000000E+01 0.  1.
        -11    1    4    4    0    0  0.22601061849E+01  0.52464128286E+02 -0.25209093542E+03  0.25750229622E+03  0.00000000000E+00 0.  1.
         11    1    4    4    0    0  0.74831862335E+01  0.30330308046E+02 -0.10339562436E+02  0.32906415996E+02  0.00000000000E+00 0. -1.
</event>
<event>
 8    1  0.7224195E-009  0.3602995E+03  0.7561462E-02  0.1058465E+00
         -1   -1    0    0    0  501 -0.00000000000E+00  0.00000000000E+00  0.32151218422E+03  0.32151218422E+03  0.00000000000E+00 0.  1.
          1   -1    0    0  501    0  0.00000000000E+00 -0.00000000000E+00 -0.44225677771E+03  0.44225677771E+03  0.00000000000E+00 0. -1.
         25    2    1    2    0    0  0.33092652966E+03 -0.87260592155E+02 -0.17277188667E+03  0.40326711800E+03  0.12508982639E+03 0.  0.
         23    2    1    2    0    0 -0.33092652966E+03  0.87260592155E+02  0.52027293171E+02  0.36050184393E+03  0.10063777257E+03 0.  0.
          5    1    3    3  502    0  0.27360550609E+03 -0.11886871901E+03 -0.13379149916E+03  0.32696694477E+03  0.41800000000E+01 0.  1.
         -5    1    3    3    0  502  0.57321023565E+02  0.31608126855E+02 -0.38980387503E+02  0.76300173235E+02  0.41800000000E+01 0.  1.
        -11    1    4    4    0    0 -0.65047115808E+02 -0.22772632334E+02  0.12694429285E+02  0.70077589808E+02  0.00000000000E+00 0. -1.
         11    1    4    4    0    0 -0.26587941385E+03  0.11003322449E+03  0.39332863886E+02  0.29042425412E+03  0.00000000000E+00 0.  1.
</event>
<event>
 8    1  0.7224195E-009  0.1691227E+03  0.7561462E-02  0.1178766E+00
         -2   -1    0    0    0  501 -0.00000000000E+00  0.00000000000E+00  0.22130553391E+03  0.22130553391E+03  0.00000000000E+00 0.  1.
          2   -1    0    0  501    0  0.00000000000E+00 -0.00000000000E+00 -0.14559333763E+03  0.14559333763E+03  0.00000000000E+00 0. -1.
         25    2    1    2    0    0  0.12602587673E+03  0.41600085939E+02  0.91440476706E+02  0.20401622273E+03  0.12509264408E+03 0.  0.
         23    2    1    2    0    0 -0.12602587673E+03 -0.41600085939E+02 -0.15728280425E+02  0.16288264881E+03  0.93114390535E+02 0.  0.
          5    1    3    3  502    0  0.10079264538E+03  0.83202725033E+02  0.81787362555E+02  0.15423519666E+03  0.41800000000E+01 0.  1.
         -5    1    3    3    0  502  0.25233231348E+02 -0.41602639094E+02  0.96531141507E+01  0.49781026071E+02  0.41800000000E+01 0.  1.
        -11    1    4    4    0    0 -0.24641814384E+02 -0.51186028485E+02  0.10388621337E+02  0.57750774726E+02  0.00000000000E+00 0.  1.
         11    1    4    4    0    0 -0.10138406234E+03  0.95859425457E+01 -0.26116901762E+02  0.10513187409E+03  0.00000000000E+00 0. -1.
</event>
<event>
 8    1  0.7224195E-009  0.1205089E+03  0.7561462E-02  0.1242260E+00
          2   -1    0    0  501    0  0.00000000000E+00  0.00000000000E+00  0.24394525976E+02  0.24394525976E+02  0.00000000000E+00 0. -1.
         -2   -1    0    0    0  501 -0.00000000000E+00 -0.00000000000E+00 -0.65461082163E+03  0.65461082163E+03  0.00000000000E+00 0.  1.
         25    2    1    2    0    0  0.60119505885E+02 -0.63105099122E+01 -0.29273811981E+03  0.32403279242E+03  0.12508983272E+03 0.  0.
         23    2    1    2    0    0 -0.60119505885E+02  0.63105099122E+01 -0.33747817585E+03  0.35497255519E+03  0.91977270249E+02 0.  0.
          5    1    3    3  502    0 -0.33935735514E+02 -0.24707398739E+02 -0.10625790593E+03  0.11432543317E+03  0.41800000000E+01 0. -1.
         -5    1    3    3    0  502  0.94055241399E+02  0.18396888827E+02 -0.18648021388E+03  0.20970735925E+03  0.41800000000E+01 0. -1.
        -11    1    4    4    0    0  0.25433450630E+01 -0.30249232427E+02 -0.50104440350E+02  0.58582758635E+02  0.00000000000E+00 0. -1.
         11    1    4    4    0    0 -0.62662850948E+02  0.36559742339E+02 -0.28737373550E+03  0.29638979656E+03  0.00000000000E+00 0.  1.
</event>
<event>
 8    1  0.7224195E-009  0.1120891E+03  0.7561462E-02  0.1256749E+00
          2   -1    0    0  501    0  0.00000000000E+00  0.00000000000E+00  0.62813872319E+02  0.62813872319E+02  0.00000000000E+00 0. -1.
         -2   -1    0    0    0  501 -0.00000000000E+00 -0.00000000000E+00 -0.28785619804E+03  0.28785619804E+03  0.00000000000E+00 0.  1.
         25    2    1    2    0    0  0.18969137346E+01 -0.55360484645E+02 -0.50680567290E+02  0.14589125665E+03  0.12508939733E+03 0.  0.
         23    2    1    2    0    0 -0.18969137346E+01  0.55360484645E+02 -0.17436175843E+03  0.20477881371E+03  0.91999772826E+02 0.  0.
          5    1    3    3  502    0 -0.49622023216E+02  0.12611567245E+02 -0.17267184898E+02  0.54194325263E+02  0.41800000000E+01 0. -1.
         -5    1    3    3    0  502  0.51518936950E+02 -0.67972051890E+02 -0.33413382393E+02  0.91696931386E+02  0.41800000000E+01 0. -1.
        -11    1    4    4    0    0  0.32839580681E+02  0.28967373363E+02 -0.27816563392E+02  0.51877817782E+02  0.00000000000E+00 0. -1.
         11    1    4    4    0    0 -0.34736494416E+02  0.26393111282E+02 -0.14654519503E+03  0.15290099593E+03  0.00000000000E+00 0.  1.
</event>
<event>
 8    1  0.7224195E-009  0.9304479E+02  0.7561462E-02  0.1295641E+00
         -3   -1    0    0    0  501 -0.00000000000E+00  0.00000000000E+00  0.21785951666E+03  0.21785951666E+03  0.00000000000E+00 0.  1.
          3   -1    0    0  501    0  0.00000000000E+00 -0.00000000000E+00 -0.58116767151E+02  0.58116767151E+02  0.00000000000E+00 0. -1.
         25    2    1    2    0    0  0.24653480915E+02  0.80631792226E+00  0.89809863795E+02  0.15595682318E+03  0.12509306452E+03 0.  0.
         23    2    1    2    0    0 -0.24653480915E+02 -0.80631792226E+00  0.69932885712E+02  0.12001946063E+03  0.94369582796E+02 0.  0.
          5    1    3    3  502    0  0.31618396356E+02  0.59787804944E+02  0.43429466759E+02  0.80485375014E+02  0.41800000000E+01 0. -1.
         -5    1    3    3    0  502 -0.69649154404E+01 -0.58981487022E+02  0.46380397036E+02  0.75471448162E+02  0.41800000000E+01 0. -1.
        -11    1    4    4    0    0 -0.39572383332E+02 -0.10568959513E+02  0.86483381603E+02  0.95692485187E+02  0.00000000000E+00 0.  1.
         11    1    4    4    0    0  0.14918902417E+02  0.97626415911E+01 -0.16550495891E+02  0.24326975447E+02  0.00000000000E+00 0. -1.
</event>
<event>
 8    1  0.7224195E-009  0.1048501E+03  0.7561462E-02  0.1270415E+00
          3   -1    0    0  501    0  0.00000000000E+00  0.00000000000E+00  0.62396633299E+02  0.62396633299E+02  0.00000000000E+00 0. -1.
         -3   -1    0    0    0  501 -0.00000000000E+00 -0.00000000000E+00 -0.28834637204E+03  0.28834637204E+03  0.00000000000E+00 0.  1.
         25    2    1    2    0    0  0.29951116447E+02 -0.30055714158E+02 -0.39597079883E+02  0.13790500415E+03  0.12509774620E+03 0.  0.
         23    2    1    2    0    0 -0.29951116447E+02  0.30055714158E+02 -0.18635265886E+03  0.21283800119E+03  0.93660482360E+02 0.  0.
          5    1    3    3  502    0 -0.61340080277E+01  0.44122190548E+02 -0.31904414903E+02  0.54952323368E+02  0.41800000000E+01 0.  1.
         -5    1    3    3    0  502  0.36085124475E+02 -0.74177904706E+02 -0.76926649805E+01  0.82952680785E+02  0.41800000000E+01 0.  1.
        -11    1    4    4    0    0  0.18152974529E+02 -0.91287913266E+01 -0.46634408091E+01  0.20847373828E+02  0.00000000000E+00 0. -1.
         11    1    4    4    0    0 -0.48104090976E+02  0.39184505484E+02 -0.18168921805E+03  0.19199062736E+03  0.00000000000E+00 0.  1.
</event>
<event>
 8    1  0.7224195E-009  0.8644598E+02  0.7561462E-02  0.1311694E+00
         -1   -1    0    0    0  501 -0.00000000000E+00  0.00000000000E+00  0.19883552370E+03  0.19883552370E+03  0.00000000000E+00 0.  1.
          1   -1    0    0  501    0  0.00000000000E+00 -0.00000000000E+00 -0.62528228363E+02  0.62528228363E+02  0.00000000000E+00 0. -1.
         25    2    1    2    0    0 -0.21332687419E+01 -0.26952497879E+02  0.75324321718E+02  0.14850016317E+03  0.12509019563E+03 0.  0.
         23    2    1    2    0    0  0.21332687419E+01  0.26952497879E+02  0.60982973618E+02  0.11286358889E+03  0.91039983787E+02 0.  0.
          5    1    3    3  502    0 -0.38090899840E+02 -0.84260900943E+01  0.95397403924E+02  0.10315063122E+03  0.41800000000E+01 0.  1.
         -5    1    3    3    0  502  0.35957631098E+02 -0.18526407785E+02 -0.20073082205E+02  0.45349531958E+02  0.41800000000E+01 0.  1.
        -11    1    4    4    0    0  0.38435702657E+02  0.38986119839E+02  0.46962469826E+02  0.72129705053E+02  0.00000000000E+00 0.  1.
         11    1    4    4    0    0 -0.36302433916E+02 -0.12033621960E+02  0.14020503792E+02  0.40733883835E+02  0.00000000000E+00 0. -1.
</event>
<event>
 8    1  0.7224195E-009  0.9832928E+02  0.7561462E-02  0.1283849E+00
          2   -1    0    0  501    0  0.00000000000E+00  0.00000000000E+00  0.21101683370E+03  0.21101683370E+03  0.00000000000E+00 0. -1.
         -2   -1    0    0    0  501 -0.00000000000E+00 -0.00000000000E+00 -0.63662811671E+02  0.63662811671E+02  0.00000000000E+00 0.  1.
         25    2    1    2    0    0 -0.11930866071E+01 -0.41218177238E+02  0.71868395512E+02  0.15003497926E+03  0.12508024279E+03 0.  0.
         23    2    1    2    0    0  0.11930866071E+01  0.41218177238E+02  0.75485626515E+02  0.12464466611E+03  0.90210040399E+02 0.  0.
          5    1    3    3  502    0 -0.45503651076E+02 -0.28013919320E+02 -0.11308954679E+02  0.54778890029E+02  0.41800000000E+01 0.  1.
         -5    1    3    3    0  502  0.44310564469E+02 -0.13204257918E+02  0.83177350191E+02  0.95256089231E+02  0.41800000000E+01 0.  1.
        -11    1    4    4    0    0  0.31990748900E+02  0.54420531130E+02  0.35316060143E+02  0.72334129757E+02  0.00000000000E+00 0.  1.
         11    1    4    4    0    0 -0.30797662293E+02 -0.13202353892E+02  0.40169566373E+02  0.52310536353E+02  0.00000000000E+00 0. -1.
</event>
<event>
 8    1  0.7224195E-009  0.9587465E+02  0.7561462E-02  0.1289218E+00
         -1   -1    0    0    0  501 -0.00000000000E+00  0.00000000000E+00  0.16252364711E+03  0.16252364711E+03  0.00000000000E+00 0.  1.
          1   -1    0    0  501    0  0.00000000000E+00 -0.00000000000E+00 -0.12291676210E+03  0.12291676210E+03  0.00000000000E+00 0. -1.
         25    2    1    2    0    0  0.63325391665E+02 -0.64112905497E+02  0.12399671499E+02  0.15466603978E+03  0.12508901682E+03 0.  0.
         23    2    1    2    0    0 -0.63325391665E+02  0.64112905497E+02  0.27207213507E+02  0.13077436943E+03  0.90780688217E+02 0.  0.
          5    1    3    3  502    0  0.43920605332E+02 -0.23820131554E+02 -0.54520004575E+02  0.74069707295E+02  0.41800000000E+01 0.  1.
         -5    1    3    3    0  502  0.19404786333E+02 -0.40292773943E+02  0.66919676074E+02  0.80596332488E+02  0.41800000000E+01 0.  1.
        -11    1    4    4    0    0 -0.26520850444E+02  0.51251303354E+02  0.57453241779E+02  0.81430501623E+02  0.00000000000E+00 0.  1.
         11    1    4    4    0    0 -0.36804541221E+02  0.12861602143E+02 -0.30246028272E+02  0.49343867810E+02  0.00000000000E+00 0. -1.
</event>
<event>
 8    1  0.7224195E-009  0.1112260E+03  0.7561462E-02  0.1258316E+00
         -1   -1    0    0    0  501 -0.00000000000E+00  0.00000000000E+00  0.11015502607E+03  0.11015502607E+03  0.00000000000E+00 0.  1.
          1   -1    0    0  501    0  0.00000000000E+00 -0.00000000000E+00 -0.22537916663E+03  0.22537916663E+03  0.00000000000E+00 0. -1.
         25    2    1    2    0    0 -0.22760731059E+02 -0.90076719128E+02 -0.13360899269E+03  0.20526083776E+03  0.12509509336E+03 0.  0.
         23    2    1    2    0    0  0.22760731059E+02  0.90076719128E+02  0.18384852139E+02  0.13027335494E+03  0.89449863115E+02 0.  0.
          5    1    3    3  502    0 -0.17432372932E+02 -0.54118785019E+02  0.92803938545E+01  0.57760961107E+02  0.41800000000E+01 0.  1.
         -5    1    3    3    0  502 -0.53283581268E+01 -0.35957934110E+02 -0.14288938655E+03  0.14749987666E+03  0.41800000000E+01 0.  1.
        -11    1    4    4    0    0  0.57442377303E+02  0.57124500450E+02  0.88600292817E+01  0.81494388646E+02  0.00000000000E+00 0.  1.
         11    1    4    4    0    0 -0.34681646244E+02  0.32952218678E+02  0.95248228575E+01  0.48778966292E+02  0.00000000000E+00 0. -1.
</event>
<event>
 8    1  0.7224195E-009  0.9756306E+02  0.7561462E-02  0.1285506E+00
         -2   -1    0    0    0  501 -0.00000000000E+00  0.00000000000E+00  0.29671538159E+03  0.29671538159E+03  0.00000000000E+00 0.  1.
          2   -1    0    0  501    0  0.00000000000E+00 -0.00000000000E+00 -0.55509255853E+02  0.55509255853E+02  0.00000000000E+00 0. -1.
         25    2    1    2    0    0  0.45475719978E+02  0.46087936124E+02  0.16333102552E+03  0.21567910255E+03  0.12509321491E+03 0.  0.
         23    2    1    2    0    0 -0.45475719978E+02 -0.46087936124E+02  0.77875100220E+02  0.13654553489E+03  0.91586095566E+02 0.  0.
          5    1    3    3  502    0  0.34317044740E+02  0.80567294514E+02  0.15528107903E+03  0.17832115525E+03  0.41800000000E+01 0.  1.
         -5    1    3    3    0  502  0.11158675238E+02 -0.34479358390E+02  0.80499464853E+01  0.37357947300E+02  0.41800000000E+01 0.  1.
        -11    1    4    4    0    0  0.21847891817E+01 -0.12447312381E+02 -0.19379636583E+02  0.23136101732E+02  0.00000000000E+00 0. -1.
         11    1    4    4    0    0 -0.47660509160E+02 -0.33640623743E+02  0.97254736802E+02  0.11340943316E+03  0.00000000000E+00 0.  1.
</event>
<event>
 8    1  0.7224195E-009  0.1650836E+03  0.7561462E-02  0.1183074E+00
         -1   -1    0    0    0  501 -0.00000000000E+00  0.00000000000E+00  0.69369358322E+02  0.69369358322E+02  0.00000000000E+00 0.  1.
          1   -1    0    0  501    0  0.00000000000E+00 -0.00000000000E+00 -0.74699663140E+03  0.74699663140E+03  0.00000000000E+00 0. -1.
         25    2    1    2    0    0  0.11441379894E+03  0.10435681616E+03 -0.57544315159E+03  0.60890165906E+03  0.12508216193E+03 0.  0.
         23    2    1    2    0    0 -0.11441379894E+03 -0.10435681616E+03 -0.10218412149E+03  0.20746433066E+03  0.92838522951E+02 0.  0.
          5    1    3    3  502    0  0.12702276908E+03  0.92094473708E+02 -0.36030809263E+03  0.39300835864E+03  0.41800000000E+01 0.  1.
         -5    1    3    3    0  502 -0.12608970145E+02  0.12262342456E+02 -0.21513505896E+03  0.21589330042E+03  0.41800000000E+01 0.  1.
        -11    1    4    4    0    0 -0.65065683150E+02 -0.65538831509E+02 -0.59289703807E+01  0.92542067457E+02  0.00000000000E+00 0.  1.
         11    1    4    4    0    0 -0.49348115789E+02 -0.38817984655E+02 -0.96255151109E+02  0.11492226320E+03  0.00000000000E+00 0. -1.
</event>
<event>
 8    1  0.7224195E-009  0.1106337E+03  0.7561462E-02  0.1259401E+00
          1   -1    0    0  501    0  0.00000000000E+00  0.00000000000E+00  0.98853316927E+02  0.98853316927E+02  0.00000000000E+00 0. -1.
         -1   -1    0    0    0  501 -0.00000000000E+00 -0.00000000000E+00 -0.18279185123E+03  0.18279185123E+03  0.00000000000E+00 0.  1.
         25    2    1    2    0    0 -0.69034005499E+02  0.14105067528E+02 -0.84468417249E+02  0.16656904490E+03  0.12508271808E+03 0.  0.
         23    2    1    2    0    0  0.69034005499E+02 -0.14105067528E+02  0.52988294243E+00  0.11507612326E+03  0.90981242699E+02 0.  0.
          5    1    3    3  502    0  0.19944129041E+02 -0.35959993472E+02 -0.26310046842E+02  0.48995717961E+02  0.41800000000E+01 0.  1.
         -5    1    3    3    0  502 -0.88978134540E+02  0.50065061001E+02 -0.58158370407E+02  0.11757332694E+03  0.41800000000E+01 0.  1.
        -11    1    4    4    0    0  0.14647733969E+02  0.10537964191E+02 -0.39339021098E+02  0.43280057540E+02  0.00000000000E+00 0.  1.
         11    1    4    4    0    0  0.54386271531E+02 -0.24643031720E+02  0.39868904040E+02  0.71796065719E+02  0.00000000000E+00 0. -1.
</event>
<event>
 8    1  0.7224195E-009  0.1013216E+03  0.7561462E-02  0.1277541E+00
         -3   -1    0    0    0  501 -0.00000000000E+00  0.00000000000E+00  0.94964670149E+02  0.94964670149E+02  0.00000000000E+00 0.  1.
          3   -1    0    0  501    0  0.00000000000E+00 -0.00000000000E+00 -0.25060651975E+03  0.25060651975E+03  0.00000000000E+00 0. -1.
         25    2    1    2    0    0 -0.14562802991E+02  0.24698899956E+02  0.34198742905E+02  0.13281325853E+03  0.12509075399E+03 0.  0.
         23    2    1    2    0    0  0.14562802991E+02 -0.24698899956E+02 -0.18984059250E+03  0.21275793137E+03  0.91675383327E+02 0.  0.
          5    1    3    3  502    0 -0.54398527112E+02 -0.19679848561E+02 -0.94874961267E+01  0.58770580856E+02  0.41800000000E+01 0. -1.
         -5    1    3    3    0  502  0.39835724122E+02  0.44378748517E+02  0.43686239032E+02  0.74042677673E+02  0.41800000000E+01 0. -1.
        -11    1    4    4    0    0  0.45290750402E+02  0.23346776446E+00 -0.14966239720E+03  0.15636540447E+03  0.00000000000E+00 0. -1.
         11    1    4    4    0    0 -0.30727947411E+02 -0.24932367720E+02 -0.40178195305E+02  0.56392526900E+02  0.00000000000E+00 0.  1.
</event>
<event>
 8    1  0.7224195E-009  0.1211729E+03  0.7561462E-02  0.1241175E+00
          1   -1    0    0  501    0  0.00000000000E+00  0.00000000000E+00  0.11020308686E+04  0.11020308686E+04  0.00000000000E+00 0. -1.
         -1   -1    0    0    0  501 -0.00000000000E+00 -0.00000000000E+00 -0.16312263471E+02  0.16312263471E+02  0.00000000000E+00 0.  1.
         25    2    1    2    0    0  0.19653345206E+01  0.75635359277E+02  0.66637067121E+03  0.68221788215E+03  0.12508715829E+03 0.  0.
         23    2    1    2    0    0 -0.19653345206E+01 -0.75635359277E+02  0.41934793395E+03  0.43612524995E+03  0.92886887242E+02 0.  0.
          5    1    3    3  502    0  0.10866626357E+02 -0.24158175883E+02  0.41899479136E+02  0.49746756500E+02  0.41800000000E+01 0. -1.
         -5    1    3    3    0  502 -0.89012918362E+01  0.99793535160E+02  0.62447119207E+03  0.63247112565E+03  0.41800000000E+01 0. -1.
        -11    1    4    4    0    0  0.32741259177E+02 -0.78997438847E+00  0.71756504715E+02  0.78877183526E+02  0.00000000000E+00 0.  1.
         11    1    4    4    0    0 -0.34706593697E+02 -0.74845384889E+02  0.34759142923E+03  0.35724806642E+03  0.00000000000E+00 0. -1.
</event>
<event>
 8    1  0.7224195E-009  0.1451465E+03  0.7561462E-02  0.1206567E+00
         -2   -1    0    0    0  501 -0.00000000000E+00  0.00000000000E+00  0.35217392018E+02  0.35217392018E+02  0.00000000000E+00 0.  1.
          2   -1    0    0  501    0  0.00000000000E+00 -0.00000000000E+00 -0.86801869606E+03  0.86801869606E+03  0.00000000000E+00 0. -1.
         25    2    1    2    0    0  0.19021561274E+02  0.13420881381E+03 -0.38691375142E+03  0.42862848852E+03  0.12508518951E+03 0.  0.
         23    2    1    2    0    0 -0.19021561274E+02 -0.13420881381E+03 -0.44588755262E+03  0.47460759956E+03  0.89793309770E+02 0.  0.
          5    1    3    3  502    0  0.44897473287E+01  0.30803025641E+01  0.89836622468E+01  0.11305957824E+02  0.41800000000E+01 0.  1.
         -5    1    3    3    0  502  0.14531813946E+02  0.13112851124E+03 -0.39589741367E+03  0.41732253070E+03  0.41800000000E+01 0.  1.
        -11    1    4    4    0    0  0.25139690971E+02 -0.60353676020E+02 -0.11083835875E+03  0.12868454469E+03  0.00000000000E+00 0.  1.
         11    1    4    4    0    0 -0.44161252245E+02 -0.73855137786E+02 -0.33504919386E+03  0.34592305486E+03  0.00000000000E+00 0. -1.
</event>
<event>
 8    1  0.7224195E-009  0.8874457E+02  0.7561462E-02  0.1305921E+00
          2   -1    0    0  501    0  0.00000000000E+00  0.00000000000E+00  0.49288498254E+03  0.49288498254E+03  0.00000000000E+00 0. -1.
         -2   -1    0    0    0  501 -0.00000000000E+00 -0.00000000000E+00 -0.31083878408E+02  0.31083878408E+02  0.00000000000E+00 0.  1.
         25    2    1    2    0    0  0.12451134109E+02 -0.28343405635E+02  0.37960482580E+03  0.40088083797E+03  0.12508894075E+03 0.  0.
         23    2    1    2    0    0 -0.12451134109E+02  0.28343405635E+02  0.82196278336E+02  0.12308802298E+03  0.86232556760E+02 0.  0.
          5    1    3    3  502    0 -0.13251302374E+02  0.24129652444E+02  0.30383044094E+03  0.30510366498E+03  0.41800000000E+01 0. -1.
         -5    1    3    3    0  502  0.25702436483E+02 -0.52473058079E+02  0.75774384856E+02  0.95777172988E+02  0.41800000000E+01 0. -1.
        -11    1    4    4    0    0 -0.30326701800E+02 -0.22115494959E+02  0.27303004447E+02  0.46413985082E+02  0.00000000000E+00 0.  1.
         11    1    4    4    0    0  0.17875567691E+02  0.50458900594E+02  0.54893273889E+02  0.76674037899E+02  0.00000000000E+00 0. -1.
</event>
<event>
 8    1  0.7224195E-009  0.9494272E+02  0.7561462E-02  0.1291305E+00
          1   -1    0    0  501    0  0.00000000000E+00  0.00000000000E+00  0.75458455580E+03  0.75458455580E+03  0.00000000000E+00 0. -1.
         -1   -1    0    0    0  501 -0.00000000000E+00 -0.00000000000E+00 -0.41684358180E+02  0.41684358180E+02  0.00000000000E+00 0.  1.
         25    2    1    2    0    0  0.43121291258E+02  0.16829480020E+02  0.67633500468E+03  0.68936335311E+03  0.12510042727E+03 0.  0.
         23    2    1    2    0    0 -0.43121291258E+02 -0.16829480020E+02  0.36565192944E+02  0.10690556087E+03  0.89157772808E+02 0.  0.
          5    1    3    3  502    0  0.24742935757E+01  0.59812342659E+02  0.49386692978E+03  0.49749940220E+03  0.41800000000E+01 0.  1.
         -5    1    3    3    0  502  0.40646997683E+02 -0.42982862639E+02  0.18246807491E+03  0.19186395092E+03  0.41800000000E+01 0.  1.
        -11    1    4    4    0    0 -0.32447903461E+02 -0.36101242343E+02 -0.15021730006E+02  0.50811598185E+02  0.00000000000E+00 0.  1.
         11    1    4    4    0    0 -0.10673387797E+02  0.19271762323E+02  0.51586922950E+02  0.56093962684E+02  0.00000000000E+00 0. -1.
</event>
<event>
 8    1  0.7224195E-009  0.2567435E+03  0.7561462E-02  0.1109116E+00
          1   -1    0    0  501    0  0.00000000000E+00  0.00000000000E+00  0.54286324947E+03  0.54286324947E+03  0.00000000000E+00 0. -1.
         -1   -1    0    0    0  501 -0.00000000000E+00 -0.00000000000E+00 -0.15973260709E+03  0.15973260709E+03  0.00000000000E+00 0.  1.
         25    2    1    2    0    0  0.21971511460E+03  0.11199666565E+03  0.57060910086E+02  0.28235047332E+03  0.12509139707E+03 0.  0.
         23    2    1    2    0    0 -0.21971511460E+03 -0.11199666565E+03  0.32606973229E+03  0.42024538324E+03  0.97297107413E+02 0.  0.
          5    1    3    3  502    0  0.22607308731E+03  0.94271046593E+02  0.74802547345E+02  0.25614246919E+03  0.41800000000E+01 0. -1.
         -5    1    3    3    0  502 -0.63579727072E+01  0.17725619059E+02 -0.17741637259E+02  0.26208004133E+02  0.41800000000E+01 0. -1.
        -11    1    4    4    0    0 -0.11343375659E+03 -0.37658848191E+02  0.85547747949E+02  0.14698239065E+03  0.00000000000E+00 0.  1.
         11    1    4    4    0    0 -0.10628135802E+03 -0.74337817462E+02  0.24052198434E+03  0.27326299259E+03  0.00000000000E+00 0. -1.
</event>
<event>
 8    1  0.7224195E-009  0.1732161E+03  0.7561462E-02  0.1174535E+00
         -1   -1    0    0    0  501 -0.00000000000E+00  0.00000000000E+00  0.87049726681E+02  0.87049726681E+02  0.00000000000E+00 0.  1.
          1   -1    0    0  501    0  0.00000000000E+00 -0.00000000000E+00 -0.47813107717E+03  0.47813107717E+03  0.00000000000E+00 0. -1.
         25    2    1    2    0    0  0.90400733425E+02  0.13461053270E+03 -0.29062231507E+03  0.35553040100E+03  0.12509295703E+03 0.  0.
         23    2    1    2    0    0 -0.90400733425E+02 -0.13461053270E+03 -0.10045903542E+03  0.20965040286E+03  0.86999916680E+02 0.  0.
          5    1    3    3  502    0  0.25461845401E+02  0.39083939475E+02 -0.20861840600E+03  0.21381059753E+03  0.41800000000E+01 0. -1.
         -5    1    3    3    0  502  0.64938888024E+02  0.95526593227E+02 -0.82003909080E+02  0.14171980347E+03  0.41800000000E+01 0. -1.
        -11    1    4    4    0    0 -0.10705305499E+03 -0.10447543557E+03 -0.81689267609E+02  0.17043652679E+03  0.00000000000E+00 0. -1.
         11    1    4    4    0    0  0.16652321568E+02 -0.30135097128E+02 -0.18769767809E+02  0.39213876066E+02  0.00000000000E+00 0.  1.
</event>
<event>
 8    1  0.7224195E-009  0.2564121E+03  0.7561462E-02  0.1109318E+00
          1   -1    0    0  501    0  0.00000000000E+00  0.00000000000E+00  0.68276778392E+03  0.68276778392E+03  0.00000000000E+00 0. -1.
         -1   -1    0    0    0  501 -0.00000000000E+00 -0.00000000000E+00 -0.15597640264E+03  0.15597640264E+03  0.00000000000E+00 0.  1.
         25    2    1    2    0    0 -0.17263304219E+03 -0.18903008499E+03  0.48546619106E+03  0.56290183648E+03  0.12508602867E+03 0.  0.
         23    2    1    2    0    0  0.17263304219E+03  0.18903008499E+03  0.41325190214E+02  0.27584235008E+03  0.94056846994E+02 0.  0.
          5    1    3    3  502    0 -0.49489118691E+02 -0.60935019181E+02  0.28193137275E+03  0.29268587388E+03  0.41800000000E+01 0. -1.
         -5    1    3    3    0  502 -0.12314392350E+03 -0.12809506581E+03  0.20353481832E+03  0.27021596260E+03  0.41800000000E+01 0. -1.
        -11    1    4    4    0    0  0.24602062578E+02  0.35632586217E+02 -0.28131724131E+02  0.51636581860E+02  0.00000000000E+00 0.  1.
         11    1    4    4    0    0  0.14803097961E+03  0.15339749877E+03  0.69456914344E+02  0.22420576822E+03  0.00000000000E+00 0. -1.
</event>
<event>
 8    1  0.7224195E-009  0.8402764E+02  0.7561462E-02  0.1317995E+00
          1   -1    0    0  501    0  0.00000000000E+00  0.00000000000E+00  0.79748112527E+03  0.79748112527E+03  0.00000000000E+00 0. -1.
         -1   -1    0    0    0  501 -0.00000000000E+00 -0.00000000000E+00 -0.31509196123E+02  0.31509196123E+02  0.00000000000E+00 0.  1.
         25    2    1    2    0    0 -0.63057068872E+02 -0.28340056495E+02  0.66024722556E+03  0.67553979361E+03  0.12509301002E+03 0.  0.
         23    2    1    2    0    0  0.63057068872E+02  0.28340056495E+02  0.10572470358E+03  0.15345052778E+03  0.87120599118E+02 0.  0.
          5    1    3    3  502    0 -0.31011808602E+02 -0.16501642152E+01  0.28358867457E+02  0.42262904279E+02  0.41800000000E+01 0.  1.
         -5    1    3    3    0  502 -0.32045260270E+02 -0.26689892279E+02  0.63188835810E+03  0.63327688933E+03  0.41800000000E+01 0.  1.
        -11    1    4    4    0    0  0.60602295778E+02  0.46559218007E+02  0.42159157778E+02  0.87279972614E+02  0.00000000000E+00 0.  1.
         11    1    4    4    0    0  0.24547730934E+01 -0.18219161512E+02  0.63565545805E+02  0.66170555164E+02  0.00000000000E+00 0. -1.
</event>
<event>
 8    1  0.7224195E-009  0.3158712E+03  0.7561462E-02  0.1077565E+00
          2   -1    0    0  501    0  0.00000000000E+00  0.00000000000E+00  0.92416873816E+03  0.92416873816E+03  0.00000000000E+00 0. -1.
         -2   -1    0    0    0  501 -0.00000000000E+00 -0.00000000000E+00 -0.11148556016E+03  0.11148556016E+03  0.00000000000E+00 0.  1.
         25    2    1    2    0    0  0.36809933202E+02 -0.29996844305E+03  0.43004066773E+03  0.54029562367E+03  0.12509335335E+03 0.  0.
         23    2    1    2    0    0 -0.36809933202E+02  0.29996844305E+03  0.38264251028E+03  0.49535867465E+03  0.87343505043E+02 0.  0.
          5    1    3    3  502    0 -0.46599640398E+02 -0.11364828300E+03  0.16242703279E+03  0.20368473701E+03  0.41800000000E+01 0. -1.
         -5    1    3    3    0  502  0.83409573600E+02 -0.18632016005E+03  0.26761363494E+03  0.33661088666E+03  0.41800000000E+01 0. -1.
        -11    1    4    4    0    0  0.46917629155E+00  0.15416325036E+03  0.13175552327E+03  0.20279557638E+03  0.00000000000E+00 0.  1.
         11    1    4    4    0    0 -0.37279109493E+02  0.14580519269E+03  0.25088698700E+03  0.29256309826E+03  0.00000000000E+00 0. -1.
</event>
<event>
 8    1  0.7224195E-009  0.1108184E+03  0.7561462E-02  0.1259062E+00
         -2   -1    0    0    0  501 -0.00000000000E+00  0.00000000000E+00  0.19452127072E+02  0.19452127072E+02  0.00000000000E+00 0.  1.
          2   -1    0    0  501    0  0.00000000000E+00 -0.00000000000E+00 -0.79539212008E+03  0.79539212008E+03  0.00000000000E+00 0. -1.
         25    2    1    2    0    0 -0.57578070247E+02 -0.72526579096E+01 -0.35401152145E+03  0.37992042951E+03  0.12509012839E+03 0.  0.
         23    2    1    2    0    0  0.57578070247E+02  0.72526579096E+01 -0.42192847156E+03  0.43492381764E+03  0.88132041966E+02 0.  0.
          5    1    3    3  502    0 -0.44934883080E+01 -0.49376322110E+02 -0.25536111471E+03  0.26016337930E+03  0.41800000000E+01 0.  1.
         -5    1    3    3    0  502 -0.53084581938E+02  0.42123664201E+02 -0.98650406739E+02  0.11975705021E+03  0.41800000000E+01 0.  1.
        -11    1    4    4    0    0  0.21432869947E+02 -0.39469465039E+02 -0.21973214720E+03  0.22427532877E+03  0.00000000000E+00 0. -1.
         11    1    4    4    0    0  0.36145200299E+02  0.46722122949E+02 -0.20219632436E+03  0.21064848887E+03  0.00000000000E+00 0.  1.
</event>
<event>
 8    1  0.7224195E-009  0.8429686E+02  0.7561462E-02  0.1317282E+00
          2   -1    0    0  501    0  0.00000000000E+00  0.00000000000E+00  0.28984003573E+02  0.28984003573E+02  0.00000000000E+00 0. -1.
         -2   -1    0    0    0  501 -0.00000000000E+00 -0.00000000000E+00 -0.51166822667E+03  0.51166822667E+03  0.00000000000E+00 0.  1.
         25    2    1    2    0    0 -0.49164761573E+02  0.10007577594E+02 -0.24742278267E+03  0.28174991664E+03  0.12509059419E+03 0.  0.
         23    2    1    2    0    0  0.49164761573E+02 -0.10007577594E+02 -0.23526144043E+03  0.25890231360E+03  0.95734723293E+02 0.  0.
          5    1    3    3  502    0 -0.10893507629E+01 -0.81046162525E+01 -0.22558330107E+03  0.22577016988E+03  0.41800000000E+01 0. -1.
         -5    1    3    3    0  502 -0.48075410810E+02  0.18112193847E+02 -0.21839481599E+02  0.55979746758E+02  0.41800000000E+01 0. -1.
        -11    1    4    4    0    0  0.41013709798E+02  0.39945772561E+02 -0.11661067237E+03  0.12990703617E+03  0.00000000000E+00 0.  1.
         11    1    4    4    0    0  0.81510517758E+01 -0.49953350156E+02 -0.11865076806E+03  0.12899527743E+03  0.00000000000E+00 0. -1.
</event>
<event>
 8    1  0.7224195E-009  0.9778294E+02  0.7561462E-02  0.1285028E+00
         -1   -1    0    0    0  501 -0.00000000000E+00  0.00000000000E+00  0.33456401643E+03  0.33456401643E+03  0.00000000000E+00 0.  1.
          1   -1    0    0  501    0  0.00000000000E+00 -0.00000000000E+00 -0.43940417461E+02  0.43940417461E+02  0.00000000000E+00 0. -1.
         25    2    1    2    0    0  0.47626118994E+02  0.19878291050E+02  0.14269686124E+03  0.19665550414E+03  0.12509036508E+03 0.  0.
         23    2    1    2    0    0 -0.47626118994E+02 -0.19878291050E+02  0.14792673773E+03  0.18184892975E+03  0.92321827598E+02 0.  0.
          5    1    3    3  502    0  0.66826575143E+02  0.30281210208E+02  0.26139907650E+02  0.77996858969E+02  0.41800000000E+01 0.  1.
         -5    1    3    3    0  502 -0.19200456149E+02 -0.10402919158E+02  0.11655695359E+03  0.11865864517E+03  0.41800000000E+01 0.  1.
        -11    1    4    4    0    0  0.99220113600E+01  0.24980801832E+02  0.16539581180E+02  0.31560172928E+02  0.00000000000E+00 0. -1.
         11    1    4    4    0    0 -0.57548130354E+02 -0.44859092883E+02  0.13138715655E+03  0.15028875682E+03  0.00000000000E+00 0.  1.
</event>
<event>
 8    1  0.7224195E-009  0.1639935E+03  0.7561462E-02  0.1184261E+00
         -1   -1    0    0    0  501 -0.00000000000E+00  0.00000000000E+00  0.33382596834E+02  0.33382596834E+02  0.00000000000E+00 0.  1.
          1   -1    0    0  501    0  0.00000000000E+00 -0.00000000000E+00 -0.99387551971E+03  0.99387551971E+03  0.00000000000E+00 0. -1.
         25    2    1    2    0    0  0.12845423671E+03  0.40686604527E+02 -0.34220502004E+03  0.38846788901E+03  0.12508850600E+03 0.  0.
         23    2    1    2    0    0 -0.12845423671E+03 -0.40686604527E+02 -0.61828790283E+03  0.63879022753E+03  0.87276189667E+02 0.  0.
          5    1    3    3  502    0  0.45786243152E+02  0.72818789869E+02 -0.22857922247E+03  0.24426397516E+03  0.41800000000E+01 0. -1.
         -5    1    3    3    0  502  0.82667993558E+02 -0.32132185343E+02 -0.11362579757E+03  0.14420391384E+03  0.41800000000E+01 0. -1.
        -11    1    4    4    0    0 -0.84592105694E+02 -0.61442524715E+02 -0.50221520265E+03  0.51298257081E+03  0.00000000000E+00 0. -1.
         11    1    4    4    0    0 -0.43862131016E+02  0.20755920189E+02 -0.11607270019E+03  0.12580765672E+03  0.00000000000E+00 0.  1.
</event>
<event>
 8    1  0.7224195E-009  0.4343704E+03  0.7561462E-02  0.1032488E+00
          1   -1    0    0  501    0  0.00000000000E+00  0.00000000000E+00  0.18089959184E+04  0.18089959184E+04  0.00000000000E+00 0. -1.
         -1   -1    0    0    0  501 -0.00000000000E+00 -0.00000000000E+00 -0.10878480853E+03  0.10878480853E+03  0.00000000000E+00 0.  1.
         25    2    1    2    0    0 -0.38284102712E+03  0.18267426819E+03  0.10099892425E+04  0.11025711243E+04  0.12509066293E+03 0.  0.
         23    2    1    2    0    0  0.38284102712E+03 -0.18267426819E+03  0.69022186740E+03  0.81520960261E+03  0.90682576348E+02 0.  0.
          5    1    3    3  502    0 -0.28301208342E+03  0.70069103930E+02  0.67815840668E+03  0.73818819798E+03  0.41800000000E+01 0. -1.
         -5    1    3    3    0  502 -0.99828943693E+02  0.11260516426E+03  0.33183083581E+03  0.36438292635E+03  0.41800000000E+01 0. -1.
        -11    1    4    4    0    0  0.52014617613E+02 -0.83990589076E+01  0.44183127248E+02  0.68762005275E+02  0.00000000000E+00 0.  1.
         11    1    4    4    0    0  0.33082640950E+03 -0.17427520929E+03  0.64603874015E+03  0.74644759734E+03  0.00000000000E+00 0. -1.
</event>
<event>
 8    1  0.7224195E-009  0.1124292E+03  0.7561462E-02  0.1256136E+00
          1   -1    0    0  501    0  0.00000000000E+00  0.00000000000E+00  0.15501566044E+03  0.15501566044E+03  0.00000000000E+00 0. -1.
         -1   -1    0    0    0  501 -0.00000000000E+00 -0.00000000000E+00 -0.93202096198E+02  0.93202096198E+02  0.00000000000E+00 0.  1.
         25    2    1    2    0    0  0.33767508182E+02 -0.40341343603E+02  0.39458933781E+02  0.14132217993E+03  0.12508909814E+03 0.  0.
         23    2    1    2    0    0 -0.33767508182E+02  0.40341343603E+02  0.22354630463E+02  0.10689557671E+03  0.90328656606E+02 0.  0.
          5    1    3    3  502    0 -0.47613619940E+02 -0.18113145642E+02  0.17791641609E+02  0.54121693987E+02  0.41800000000E+01 0. -1.
         -5    1    3    3    0  502  0.81381128122E+02 -0.22228197961E+02  0.21667292172E+02  0.87200485945E+02  0.41800000000E+01 0. -1.
        -11    1    4    4    0    0  0.15281624458E+02  0.37098675471E+02 -0.17343794890E+02  0.43710948159E+02  0.00000000000E+00 0.  1.
         11    1    4    4    0    0 -0.49049132640E+02  0.32426681323E+01  0.39698425353E+02  0.63184628549E+02  0.00000000000E+00 0. -1.
</event>
<event>
 8    1  0.7224195E-009  0.7571729E+02  0.7561462E-02  0.1341664E+00
          1   -1    0    0  501    0  0.00000000000E+00  0.00000000000E+00  0.32298612387E+03  0.32298612387E+03  0.00000000000E+00 0. -1.
         -1   -1    0    0    0  501 -0.00000000000E+00 -0.00000000000E+00 -0.44050643297E+02  0.44050643297E+02  0.00000000000E+00 0.  1.
         25    2    1    2    0    0  0.16643233101E+01 -0.49110022935E+02  0.17009154125E+03  0.21677873853E+03  0.12508926713E+03 0.  0.
         23    2    1    2    0    0 -0.16643233101E+01  0.49110022935E+02  0.10884393932E+03  0.15025802863E+03  0.91191598938E+02 0.  0.
          5    1    3    3  502    0 -0.42199824982E+02 -0.30749562734E+02  0.15950209430E+03  0.16788314782E+03  0.41800000000E+01 0. -1.
         -5    1    3    3    0  502  0.43864148292E+02 -0.18360460201E+02  0.10589446949E+02  0.48895590710E+02  0.41800000000E+01 0. -1.
        -11    1    4    4    0    0 -0.82297752307E+01  0.24402437018E+02 -0.10790839190E+02  0.27922219524E+02  0.00000000000E+00 0.  1.
         11    1    4    4    0    0  0.65654519206E+01  0.24707585917E+02  0.11963477851E+03  0.12233580911E+03  0.00000000000E+00 0. -1.
</event>
<event>
 8    1  0.7224195E-009  0.1404558E+03  0.7561462E-02  0.1212717E+00
          2   -1    0    0  501    0  0.00000000000E+00  0.00000000000E+00  0.19719464880E+04  0.19719464880E+04  0.00000000000E+00 0.  1.
         -2   -1    0    0    0  501 -0.00000000000E+00 -0.00000000000E+00 -0.35437492581E+02  0.35437492581E+02  0.00000000000E+00 0. -1.
         25    2    1    2    0    0 -0.12351138426E+03  0.46688116470E+02  0.17584971319E+04  0.17678786940E+04  0.12509225227E+03 0.  0.
         23    2    1    2    0    0  0.12351138426E+03 -0.46688116470E+02  0.17801186343E+03  0.23950528648E+03  0.90772883994E+02 0.  0.
          5    1    3    3  502    0 -0.38988121031E+02 -0.69719386053E+01  0.11866710675E+04  0.11873392002E+04  0.41800000000E+01 0. -1.
         -5    1    3    3    0  502 -0.84523263233E+02  0.53660055075E+02  0.57182606441E+03  0.58053949381E+03  0.41800000000E+01 0. -1.
        -11    1    4    4    0    0  0.51132077592E+02  0.58174576577E+01  0.12589665233E+03  0.13600845283E+03  0.00000000000E+00 0.  1.
         11    1    4    4    0    0  0.72379306671E+02 -0.52505574127E+02  0.52115211104E+02  0.10349683366E+03  0.00000000000E+00 0. -1.
</event>
<event>
 8    1  0.7224195E-009  0.1093641E+03  0.7561462E-02  0.1261752E+00
         -4   -1    0    0    0  501 -0.00000000000E+00  0.00000000000E+00  0.50367163071E+03  0.50367163071E+03  0.00000000000E+00 0.  1.
          4   -1    0    0  501    0  0.00000000000E+00 -0.00000000000E+00 -0.36244178030E+02  0.36244178030E+02  0.00000000000E+00 0. -1.
         25    2    1    2    0    0 -0.73896135710E+02 -0.31408898217E+02  0.23295117647E+03  0.27633377413E+03  0.12508775457E+03 0.  0.
         23    2    1    2    0    0  0.73896135710E+02  0.31408898217E+02  0.23447627621E+03  0.26358203461E+03  0.89717373498E+02 0.  0.
          5    1    3    3  502    0 -0.75086672592E+01 -0.56863665096E+02  0.17594865046E+03  0.18510876935E+03  0.41800000000E+01 0.  1.
         -5    1    3    3    0  502 -0.66387468451E+02  0.25454766880E+02  0.57002526014E+02  0.91225004775E+02  0.41800000000E+01 0.  1.
        -11    1    4    4    0    0  0.63276402462E+02  0.73556931011E+01  0.22768122415E+03  0.23642493346E+03  0.00000000000E+00 0.  1.
         11    1    4    4    0    0  0.10619733248E+02  0.24053205116E+02  0.67950520509E+01  0.27157101152E+02  0.00000000000E+00 0. -1.
</event>
<event>
 8    1  0.7224195E-009  0.9110821E+02  0.7561462E-02  0.1300190E+00
         -1   -1    0    0    0  501 -0.00000000000E+00  0.00000000000E+00  0.18272932255E+02  0.18272932255E+02  0.00000000000E+00 0.  1.
          1   -1    0    0  501    0  0.00000000000E+00 -0.00000000000E+00 -0.77258681809E+03  0.77258681809E+03  0.00000000000E+00 0. -1.
         25    2    1    2    0    0 -0.42291736725E+02  0.10833437015E+02 -0.49719546588E+03  0.51454479657E+03  0.12508821698E+03 0.  0.
         23    2    1    2    0    0  0.42291736725E+02 -0.10833437015E+02 -0.25711841995E+03  0.27631495377E+03  0.91291387600E+02 0.  0.
          5    1    3    3  502    0 -0.36185574752E+02  0.38278317579E+02 -0.76987429128E+02  0.93376453459E+02  0.41800000000E+01 0. -1.
         -5    1    3    3    0  502 -0.61061619737E+01 -0.27444880564E+02 -0.42020803675E+03  0.42116834311E+03  0.41800000000E+01 0. -1.
        -11    1    4    4    0    0  0.42641153291E+02  0.34969747797E+02 -0.14990938447E+03  0.15973094493E+03  0.00000000000E+00 0.  1.
         11    1    4    4    0    0 -0.34941656527E+00 -0.45803184812E+02 -0.10720903547E+03  0.11658400884E+03  0.00000000000E+00 0. -1.
</event>
<event>
 8    1  0.7224195E-009  0.2303485E+03  0.7561462E-02  0.1126395E+00
          2   -1    0    0  501    0  0.00000000000E+00  0.00000000000E+00  0.79479567284E+03  0.79479567284E+03  0.00000000000E+00 0. -1.
         -2   -1    0    0    0  501 -0.00000000000E+00 -0.00000000000E+00 -0.10324733034E+03  0.10324733034E+03  0.00000000000E+00 0.  1.
         25    2    1    2    0    0 -0.11318562839E+03  0.17276028801E+03  0.96752564302E+02  0.26012444477E+03  0.12508622818E+03 0.  0.
         23    2    1    2    0    0  0.11318562839E+03 -0.17276028801E+03  0.59479577820E+03  0.63791855842E+03  0.10247422029E+03 0.  0.
          5    1    3    3  502    0  0.21214251271E+02  0.43721666804E+02 -0.27629683935E+01  0.48854221921E+02  0.41800000000E+01 0.  1.
         -5    1    3    3    0  502 -0.13439987966E+03  0.12903862120E+03  0.99515532695E+02  0.21127022285E+03  0.41800000000E+01 0.  1.
        -11    1    4    4    0    0  0.11292518216E+03 -0.94370460577E+02  0.32110378922E+03  0.35322163587E+03  0.00000000000E+00 0.  1.
         11    1    4    4    0    0  0.26044622856E+00 -0.78389827430E+02  0.27369198898E+03  0.28469692255E+03  0.00000000000E+00 0. -1.
</event>
<event>
 8    1  0.7224195E-009  0.1241234E+03  0.7561462E-02  0.1236446E+00
         -1   -1    0    0    0  501 -0.00000000000E+00  0.00000000000E+00  0.17048755931E+02  0.17048755931E+02  0.00000000000E+00 0.  1.
          1   -1    0    0  501    0  0.00000000000E+00 -0.00000000000E+00 -0.12815554451E+04  0.12815554451E+04  0.00000000000E+00 0. -1.
         25    2    1    2    0    0 -0.20698459823E+02 -0.86896212876E+02 -0.89321966412E+03  0.90634769896E+03  0.12508159334E+03 0.  0.
         23    2    1    2    0    0  0.20698459823E+02  0.86896212876E+02 -0.37128702508E+03  0.39225650209E+03  0.89619921860E+02 0.  0.
          5    1    3    3  502    0  0.30287673088E+02  0.17149134193E+02 -0.28771040449E+03  0.28983820521E+03  0.41800000000E+01 0.  1.
         -5    1    3    3    0  502 -0.50986132911E+02 -0.10404534707E+03 -0.60550925963E+03  0.61650949375E+03  0.41800000000E+01 0.  1.
        -11    1    4    4    0    0 -0.11083308873E+02  0.31375522511E+02 -0.29298413499E+02  0.44335766397E+02  0.00000000000E+00 0.  1.
         11    1    4    4    0    0  0.31781768696E+02  0.55520690365E+02 -0.34198861158E+03  0.34792073570E+03  0.00000000000E+00 0. -1.
</event>
<event>
 8    1  0.7224195E-009  0.1837609E+03  0.7561462E-02  0.1164212E+00
         -2   -1    0    0    0  501 -0.00000000000E+00  0.00000000000E+00  0.36091936231E+02  0.36091936231E+02  0.00000000000E+00 0. -1.
          2   -1    0    0  501    0  0.00000000000E+00 -0.00000000000E+00 -0.10946447030E+04  0.10946447030E+04  0.00000000000E+00 0.  1.
         25    2    1    2    0    0  0.95305010348E+02 -0.11861607809E+03 -0.74588513694E+03  0.77145632000E+03  0.12508955660E+03 0.  0.
         23    2    1    2    0    0 -0.95305010348E+02  0.11861607809E+03 -0.31266762982E+03  0.35928031923E+03  0.90379655170E+02 0.  0.
          5    1    3    3  502    0  0.58105190897E+02 -0.14127657855E+03 -0.55845914778E+03  0.57898996277E+03  0.41800000000E+01 0.  1.
         -5    1    3    3    0  502  0.37199819451E+02  0.22660500454E+02 -0.18742598917E+03  0.19246635723E+03  0.41800000000E+01 0.  1.
        -11    1    4    4    0    0 -0.33411835295E+02  0.10131397996E+03 -0.23766595879E+03  0.26051100023E+03  0.00000000000E+00 0.  1.
         11    1    4    4    0    0 -0.61893175054E+02  0.17302098128E+02 -0.75001671024E+02  0.98769318992E+02  0.00000000000E+00 0. -1.
</event>
<event>
 8    1  0.7224195E-009  0.1643859E+03  0.7561462E-02  0.1183832E+00
          2   -1    0    0  501    0  0.00000000000E+00  0.00000000000E+00  0.75864130733E+03  0.75864130733E+03  0.00000000000E+00 0. -1.
         -2   -1    0    0    0  501 -0.00000000000E+00 -0.00000000000E+00 -0.41219932599E+02  0.41219932599E+02  0.00000000000E+00 0.  1.
         25    2    1    2    0    0  0.39871942762E+02  0.11981687415E+03  0.51314589482E+03  0.54305870806E+03  0.12509274907E+03 0.  0.
         23    2    1    2    0    0 -0.39871942762E+02 -0.11981687415E+03  0.20427547990E+03  0.25680253187E+03  0.90957207160E+02 0.  0.
          5    1    3    3  502    0 -0.12703754762E+02  0.12333684038E+03  0.33487810702E+03  0.35711928055E+03  0.41800000000E+01 0.  1.
         -5    1    3    3    0  502  0.52575697524E+02 -0.35199662323E+01  0.17826778780E+03  0.18593942750E+03  0.41800000000E+01 0.  1.
        -11    1    4    4    0    0 -0.50107810387E+02 -0.24120877948E+02  0.48995033679E+02  0.74115603890E+02  0.00000000000E+00 0.  1.
         11    1    4    4    0    0  0.10235867625E+02 -0.95695996201E+02  0.15528044622E+03  0.18268692798E+03  0.00000000000E+00 0. -1.
</event>
<event>
 8    1  0.7224195E-009  0.1120686E+03  0.7561462E-02  0.1256786E+00
         -1   -1    0    0    0  501 -0.00000000000E+00  0.00000000000E+00  0.22817328631E+02  0.22817328631E+02  0.00000000000E+00 0.  1.
          1   -1    0    0  501    0  0.00000000000E+00 -0.00000000000E+00 -0.57469638418E+03  0.57469638418E+03  0.00000000000E+00 0. -1.
         25    2    1    2    0    0  0.29998524029E+02  0.21162180595E+02 -0.33761571958E+03  0.36191175999E+03  0.12509196049E+03 0.  0.
         23    2    1    2    0    0 -0.29998524029E+02 -0.21162180595E+02 -0.21426333596E+03  0.23560195282E+03  0.90839163926E+02 0.  0.
          5    1    3    3  502    0  0.43951406210E+02  0.65891346104E+02 -0.25247103754E+03  0.26463652959E+03  0.41800000000E+01 0.  1.
         -5    1    3    3    0  502 -0.13952882181E+02 -0.44729165509E+02 -0.85144682046E+02  0.97275230398E+02  0.41800000000E+01 0.  1.
        -11    1    4    4    0    0  0.17177526269E+02 -0.42622221497E+02 -0.10815288556E+03  0.11751071368E+03  0.00000000000E+00 0.  1.
         11    1    4    4    0    0 -0.47176050297E+02  0.21460040903E+02 -0.10611045040E+03  0.11809123914E+03  0.00000000000E+00 0. -1.
</event>
<event>
 8    1  0.7224195E-009  0.2232950E+03  0.7561462E-02  0.1131450E+00
          1   -1    0    0  501    0  0.00000000000E+00  0.00000000000E+00  0.49414113963E+03  0.49414113963E+03  0.00000000000E+00 0. -1.
         -1   -1    0    0    0  501 -0.00000000000E+00 -0.00000000000E+00 -0.10267595812E+03  0.10267595812E+03  0.00000000000E+00 0.  1.
         25    2    1    2    0    0  0.26704639247E+02  0.19375703041E+03  0.23272084341E+03  0.32872620113E+03  0.12508796808E+03 0.  0.
         23    2    1    2    0    0 -0.26704639247E+02 -0.19375703041E+03  0.15874433809E+03  0.26809089662E+03  0.91749874051E+02 0.  0.
          5    1    3    3  502    0  0.21168972888E+01  0.20376586430E+03  0.19250826042E+03  0.28036032429E+03  0.41800000000E+01 0. -1.
         -5    1    3    3    0  502  0.24587741959E+02 -0.10008833895E+02  0.40212582997E+02  0.48365876834E+02  0.41800000000E+01 0. -1.
        -11    1    4    4    0    0 -0.53478728512E+02 -0.63984314869E+02  0.66086783119E+02  0.10640220795E+03  0.00000000000E+00 0.  1.
         11    1    4    4    0    0  0.26774089265E+02 -0.12977271554E+03  0.92657554969E+02  0.16168868868E+03  0.00000000000E+00 0. -1.
</event>
<event>
 8    1  0.7224195E-009  0.1042402E+03  0.7561462E-02  0.1271624E+00
          2   -1    0    0  501    0  0.00000000000E+00  0.00000000000E+00  0.12654344617E+03  0.12654344617E+03  0.00000000000E+00 0. -1.
         -2   -1    0    0    0  501 -0.00000000000E+00 -0.00000000000E+00 -0.12846668917E+03  0.12846668917E+03  0.00000000000E+00 0.  1.
         25    2    1    2    0    0  0.47892130913E+02  0.44309082022E+02  0.19531228378E+02  0.14243604487E+03  0.12509838945E+03 0.  0.
         23    2    1    2    0    0 -0.47892130913E+02 -0.44309082022E+02 -0.21454471385E+02  0.11257409047E+03  0.89194621755E+02 0.  0.
          5    1    3    3  502    0  0.22137189237E+02 -0.41400584068E+02  0.23679113539E+02  0.52746908217E+02  0.41800000000E+01 0.  1.
         -5    1    3    3    0  502  0.25754941676E+02  0.85709666090E+02 -0.41478851613E+01  0.89689136652E+02  0.41800000000E+01 0.  1.
        -11    1    4    4    0    0 -0.43473976056E+02 -0.21460858123E+02 -0.53995760243E+02  0.72567879600E+02  0.00000000000E+00 0.  1.
         11    1    4    4    0    0 -0.44181548574E+01 -0.22848223899E+02  0.32541288858E+02  0.40006210871E+02  0.00000000000E+00 0. -1.
</event>
<event>
 8    1  0.7224195E-009  0.1067462E+03  0.7561462E-02  0.1266717E+00
         -1   -1    0    0    0  501 -0.00000000000E+00  0.00000000000E+00  0.23662197078E+02  0.23662197078E+02  0.00000000000E+00 0.  1.
          1   -1    0    0  501    0  0.00000000000E+00 -0.00000000000E+00 -0.57587122863E+03  0.57587122863E+03  0.00000000000E+00 0. -1.
         25    2    1    2    0    0  0.14393937183E+02  0.43132383482E+02 -0.31414906521E+03  0.34118123923E+03  0.12508962745E+03 0.  0.
         23    2    1    2    0    0 -0.14393937183E+02 -0.43132383482E+02 -0.23805996634E+03  0.25835218648E+03  0.89474671004E+02 0.  0.
          5    1    3    3  502    0 -0.37847262314E+02  0.50028652848E+02 -0.83331148111E+02  0.10438790167E+03  0.41800000000E+01 0. -1.
         -5    1    3    3    0  502  0.52241199497E+02 -0.68962693656E+01 -0.23081791710E+03  0.23679333756E+03  0.41800000000E+01 0. -1.
        -11    1    4    4    0    0 -0.35713482734E+01 -0.69327169261E+02 -0.19315625558E+03  0.20525191837E+03  0.00000000000E+00 0.  1.
         11    1    4    4    0    0 -0.10822588909E+02  0.26194785779E+02 -0.44903710763E+02  0.53100268106E+02  0.00000000000E+00 0. -1.
</event>
<event>
 8    1  0.7224195E-009  0.1514982E+03  0.7561462E-02  0.1198644E+00
          2   -1    0    0  501    0  0.00000000000E+00  0.00000000000E+00  0.11327497418E+04  0.11327497418E+04  0.00000000000E+00 0. -1.
         -2   -1    0    0    0  501 -0.00000000000E+00 -0.00000000000E+00 -0.22386038609E+02  0.22386038609E+02  0.00000000000E+00 0.  1.
         25    2    1    2    0    0 -0.73300051962E-01  0.11206090794E+03  0.69620371261E+03  0.71617341893E+03  0.12508838505E+03 0.  0.
         23    2    1    2    0    0  0.73300051962E-01 -0.11206090794E+03  0.41415999054E+03  0.43896236143E+03  0.92745913820E+02 0.  0.
          5    1    3    3  502    0 -0.27267361584E+02  0.13021462107E+03  0.51051315559E+03  0.52757986218E+03  0.41800000000E+01 0. -1.
         -5    1    3    3    0  502  0.27194061532E+02 -0.18153713126E+02  0.18569055702E+03  0.18859355676E+03  0.41800000000E+01 0. -1.
        -11    1    4    4    0    0  0.38624243672E+02 -0.69445024819E+02  0.16334036124E+03  0.18164392993E+03  0.00000000000E+00 0.  1.
         11    1    4    4    0    0 -0.38550943620E+02 -0.42615883121E+02  0.25081962930E+03  0.25731843150E+03  0.00000000000E+00 0. -1.
</event>
<event>
 8    1  0.7224195E-009  0.1382835E+03  0.7561462E-02  0.1215657E+00
          1   -1    0    0  501    0  0.00000000000E+00  0.00000000000E+00  0.41679724790E+03  0.41679724790E+03  0.00000000000E+00 0. -1.
         -1   -1    0    0    0  501 -0.00000000000E+00 -0.00000000000E+00 -0.51575212914E+02  0.51575212914E+02  0.00000000000E+00 0.  1.
         25    2    1    2    0    0 -0.97809641889E+02 -0.23977783054E+02  0.19015430725E+03  0.24889325008E+03  0.12509008451E+03 0.  0.
         23    2    1    2    0    0  0.97809641889E+02  0.23977783054E+02  0.17506772773E+03  0.21947921073E+03  0.85911317774E+02 0.  0.
          5    1    3    3  502    0  0.29618140679E+02 -0.87113556472E+01  0.49058788973E+02  0.58115050976E+02  0.41800000000E+01 0.  1.
         -5    1    3    3    0  502 -0.12742778257E+03 -0.15266427407E+02  0.14109551828E+03  0.19077819911E+03  0.41800000000E+01 0.  1.
        -11    1    4    4    0    0  0.80076369451E+02 -0.79639229278E+01  0.64805028796E+02  0.10332154069E+03  0.00000000000E+00 0.  1.
         11    1    4    4    0    0  0.17733272438E+02  0.31941705982E+02  0.11026269893E+03  0.11615767004E+03  0.00000000000E+00 0. -1.
</event>
<event>
 8    1  0.7224195E-009  0.1445847E+03  0.7561462E-02  0.1207290E+00
         -2   -1    0    0    0  501 -0.00000000000E+00  0.00000000000E+00  0.27633079436E+02  0.27633079436E+02  0.00000000000E+00 0.  1.
          2   -1    0    0  501    0  0.00000000000E+00 -0.00000000000E+00 -0.10324382143E+04  0.10324382143E+04  0.00000000000E+00 0. -1.
         25    2    1    2    0    0 -0.10403168524E+03 -0.74572401980E+02 -0.56852864118E+03  0.59603213859E+03  0.12508341105E+03 0.  0.
         23    2    1    2    0    0  0.10403168524E+03  0.74572401980E+02 -0.43627649365E+03  0.46403915511E+03  0.92798296830E+02 0.  0.
          5    1    3    3  502    0 -0.75668525413E+02 -0.25323792762E+01 -0.12833367663E+03  0.14906087227E+03  0.41800000000E+01 0. -1.
         -5    1    3    3    0  502 -0.28363159823E+02 -0.72040022704E+02 -0.44019496454E+03  0.44697126632E+03  0.41800000000E+01 0. -1.
        -11    1    4    4    0    0  0.82206620401E+02  0.32473632933E+02 -0.15196728253E+03  0.17580250349E+03  0.00000000000E+00 0.  1.
         11    1    4    4    0    0  0.21825064835E+02  0.42098769047E+02 -0.28430921112E+03  0.28823665162E+03  0.00000000000E+00 0. -1.
</event>
<event>
 8    1  0.7224195E-009  0.9834315E+02  0.7561462E-02  0.1283819E+00
         -1   -1    0    0    0  501 -0.00000000000E+00  0.00000000000E+00  0.11947225046E+03  0.11947225046E+03  0.00000000000E+00 0.  1.
          1   -1    0    0  501    0  0.00000000000E+00 -0.00000000000E+00 -0.14030683983E+03  0.14030683983E+03  0.00000000000E+00 0. -1.
         25    2    1    2    0    0 -0.63215623136E+02  0.18262631227E+02  0.71414817709E+01  0.14152937873E+03  0.12509926289E+03 0.  0.
         23    2    1    2    0    0  0.63215623136E+02 -0.18262631227E+02 -0.27976071139E+02  0.11824971156E+03  0.94183836295E+02 0.  0.
          5    1    3    3  502    0 -0.68113671825E+02 -0.17032749156E+02 -0.41058392986E+02  0.81442316199E+02  0.41800000000E+01 0. -1.
         -5    1    3    3    0  502  0.48980486890E+01  0.35295380383E+02  0.48199874757E+02  0.60087062534E+02  0.41800000000E+01 0. -1.
        -11    1    4    4    0    0  0.57455037447E+02 -0.38677741636E+02 -0.51697473635E+02  0.86427297807E+02  0.00000000000E+00 0. -1.
         11    1    4    4    0    0  0.57605856895E+01  0.20415110409E+02  0.23721402496E+02  0.31822413750E+02  0.00000000000E+00 0.  1.
</event>
<event>
 8    1  0.7224195E-009  0.1458502E+03  0.7561462E-02  0.1205667E+00
          1   -1    0    0  501    0  0.00000000000E+00  0.00000000000E+00  0.23644057272E+04  0.23644057272E+04  0.00000000000E+00 0. -1.
         -1   -1    0    0    0  501 -0.00000000000E+00 -0.00000000000E+00 -0.13978374928E+02  0.13978374928E+02  0.00000000000E+00 0.  1.
         25    2    1    2    0    0  0.10039789225E+03 -0.70347210892E+02  0.17544110694E+04  0.17631320292E+04  0.12509150632E+03 0.  0.
         23    2    1    2    0    0 -0.10039789225E+03  0.70347210892E+02  0.59601628282E+03  0.61525207292E+03  0.90946341313E+02 0.  0.
          5    1    3    3  502    0  0.40910816962E+00 -0.37829914023E+02  0.13380431394E+03  0.13911267589E+03  0.41800000000E+01 0. -1.
         -5    1    3    3    0  502  0.99988784082E+02 -0.32517296869E+02  0.16206067555E+04  0.16240193533E+04  0.41800000000E+01 0. -1.
        -11    1    4    4    0    0 -0.10264717761E+03  0.28535989985E+02  0.48591414336E+03  0.49745683282E+03  0.00000000000E+00 0. -1.
         11    1    4    4    0    0  0.22492853570E+01  0.41811220907E+02  0.11010213946E+03  0.11779524011E+03  0.00000000000E+00 0.  1.
</event>
<event>
 8    1  0.7224195E-009  0.1104950E+03  0.7561462E-02  0.1259656E+00
          1   -1    0    0  501    0  0.00000000000E+00  0.00000000000E+00  0.91665455068E+03  0.91665455068E+03  0.00000000000E+00 0. -1.
         -1   -1    0    0    0  501 -0.00000000000E+00 -0.00000000000E+00 -0.19676792976E+02  0.19676792976E+02  0.00000000000E+00 0.  1.
         25    2    1    2    0    0 -0.31639422465E+02 -0.66063840360E+02  0.60068574035E+03  0.61792902741E+03  0.12508972863E+03 0.  0.
         23    2    1    2    0    0  0.31639422465E+02  0.66063840360E+02  0.29629201736E+03  0.31840231624E+03  0.90695046071E+02 0.  0.
          5    1    3    3  502    0  0.23691023898E+02  0.31896887951E+01  0.36950833559E+03  0.37030436292E+03  0.41800000000E+01 0. -1.
         -5    1    3    3    0  502 -0.55330446363E+02 -0.69253529155E+02  0.23117740476E+03  0.24762466449E+03  0.41800000000E+01 0. -1.
        -11    1    4    4    0    0  0.23384283370E+01  0.76755177877E+02  0.14658989500E+03  0.16548541595E+03  0.00000000000E+00 0.  1.
         11    1    4    4    0    0  0.29300994128E+02 -0.10691337517E+02  0.14970212236E+03  0.15291690029E+03  0.00000000000E+00 0. -1.
</event>
<event>
 8    1  0.7224195E-009  0.1020554E+03  0.7561462E-02  0.1276032E+00
          2   -1    0    0  501    0  0.00000000000E+00  0.00000000000E+00  0.71256487432E+03  0.71256487432E+03  0.00000000000E+00 0. -1.
         -2   -1    0    0    0  501 -0.00000000000E+00 -0.00000000000E+00 -0.24520019436E+02  0.24520019436E+02  0.00000000000E+00 0.  1.
         25    2    1    2    0    0 -0.73189094790E+02 -0.72233147054E+01  0.43691811713E+03  0.46038542431E+03  0.12509387662E+03 0.  0.
         23    2    1    2    0    0  0.73189094790E+02  0.72233147054E+01  0.25112673776E+03  0.27669946945E+03  0.89939635900E+02 0.  0.
          5    1    3    3  502    0 -0.70726358033E+01  0.31816515742E+02  0.24835354083E+02  0.41189562557E+02  0.41800000000E+01 0. -1.
         -5    1    3    3    0  502 -0.66116458987E+02 -0.39039830447E+02  0.41208276304E+03  0.41919586175E+03  0.41800000000E+01 0. -1.
        -11    1    4    4    0    0  0.41918944765E+02 -0.25521951025E+02  0.20957708648E+03  0.21524665640E+03  0.00000000000E+00 0. -1.
         11    1    4    4    0    0  0.31270150025E+02  0.32745265730E+02  0.41549651276E+02  0.61452813048E+02  0.00000000000E+00 0.  1.
</event>
<event>
 8    1  0.7224195E-009  0.2001421E+03  0.7561462E-02  0.1149619E+00
         -3   -1    0    0    0  501 -0.00000000000E+00  0.00000000000E+00  0.15656282665E+04  0.15656282665E+04  0.00000000000E+00 0.  1.
          3   -1    0    0  501    0  0.00000000000E+00 -0.00000000000E+00 -0.27377682577E+02  0.27377682577E+02  0.00000000000E+00 0. -1.
         25    2    1    2    0    0  0.87838904471E+02  0.14568325543E+03  0.62855215102E+03  0.66307237670E+03  0.12509151104E+03 0.  0.
         23    2    1    2    0    0 -0.87838904471E+02 -0.14568325543E+03  0.90969843295E+03  0.92993357243E+03  0.91027062807E+02 0.  0.
          5    1    3    3  502    0 -0.14112105517E+02 -0.13128385444E+02  0.34375001906E+02  0.39631038121E+02  0.41800000000E+01 0.  1.
         -5    1    3    3    0  502  0.10195100999E+03  0.15881164088E+03  0.59417714911E+03  0.62344133858E+03  0.41800000000E+01 0.  1.
        -11    1    4    4    0    0 -0.67152774269E+01 -0.96903062936E+02  0.51117624898E+03  0.52032341488E+03  0.00000000000E+00 0. -1.
         11    1    4    4    0    0 -0.81123627044E+02 -0.48780192499E+02  0.39852218397E+03  0.40961015754E+03  0.00000000000E+00 0.  1.
</event>
<event>
 8    1  0.7224195E-009  0.8118099E+02  0.7561462E-02  0.1325733E+00
         -1   -1    0    0    0  501 -0.00000000000E+00  0.00000000000E+00  0.79965208825E+02  0.79965208825E+02  0.00000000000E+00 0.  1.
          1   -1    0    0  501    0  0.00000000000E+00 -0.00000000000E+00 -0.16609816796E+03  0.16609816796E+03  0.00000000000E+00 0. -1.
         25    2    1    2    0    0  0.23632993710E+02  0.14675255150E+02 -0.44669118742E+02  0.13570298906E+03  0.12508432981E+03 0.  0.
         23    2    1    2    0    0 -0.23632993710E+02 -0.14675255150E+02 -0.41463840395E+02  0.11036038773E+03  0.98418918985E+02 0.  0.
          5    1    3    3  502    0  0.44697917734E+02 -0.37492415820E+02 -0.52687050279E+02  0.78720916921E+02  0.41800000000E+01 0. -1.
         -5    1    3    3    0  502 -0.21064924024E+02  0.52167670971E+02  0.80179315376E+01  0.56982072135E+02  0.41800000000E+01 0. -1.
        -11    1    4    4    0    0  0.10464550406E+02 -0.34411695023E+00  0.28970928214E+02  0.30804868337E+02  0.00000000000E+00 0.  1.
         11    1    4    4    0    0 -0.34097544116E+02 -0.14331138200E+02 -0.70434768609E+02  0.79555519393E+02  0.00000000000E+00 0. -1.
</event>
<event>
 8    1  0.7224195E-009  0.1102497E+03  0.7561462E-02  0.1260108E+00
         -1   -1    0    0    0  501 -0.00000000000E+00  0.00000000000E+00  0.42084342248E+03  0.42084342248E+03  0.00000000000E+00 0.  1.
          1   -1    0    0  501    0  0.00000000000E+00 -0.00000000000E+00 -0.46740133822E+02  0.46740133822E+02  0.00000000000E+00 0. -1.
         25    2    1    2    0    0  0.63242012011E+02  0.46377283297E+02  0.13808716132E+03  0.20215439544E+03  0.12509169031E+03 0.  0.
         23    2    1    2    0    0 -0.63242012011E+02 -0.46377283297E+02  0.23601612734E+03  0.26542916086E+03  0.92728758126E+02 0.  0.
          5    1    3    3  502    0  0.66026221615E+01  0.76921584158E+02  0.46768556612E+02  0.90362021980E+02  0.41800000000E+01 0. -1.
         -5    1    3    3    0  502  0.56639389849E+02 -0.30544300861E+02  0.91318604711E+02  0.11179237346E+03  0.41800000000E+01 0. -1.
        -11    1    4    4    0    0 -0.24944129993E+02 -0.22295338439E+02  0.99835295295E+01  0.34913644884E+02  0.00000000000E+00 0. -1.
         11    1    4    4    0    0 -0.38297882018E+02 -0.24081944858E+02  0.22603259781E+03  0.23051551598E+03  0.00000000000E+00 0.  1.
</event>
<event>
 8    1  0.7224195E-009  0.9991558E+02  0.7561462E-02  0.1280474E+00
         -3   -1    0    0    0  501 -0.00000000000E+00  0.00000000000E+00  0.21068318998E+02  0.21068318998E+02  0.00000000000E+00 0.  1.
          3   -1    0    0  501    0  0.00000000000E+00 -0.00000000000E+00 -0.60718420552E+03  0.60718420552E+03  0.00000000000E+00 0. -1.
         25    2    1    2    0    0 -0.30383586719E+02 -0.27418526399E+01 -0.31003016937E+03  0.33570312037E+03  0.12508876453E+03 0.  0.
         23    2    1    2    0    0  0.30383586719E+02  0.27418526399E+01 -0.27608571715E+03  0.29254940414E+03  0.91821296829E+02 0.  0.
          5    1    3    3  502    0 -0.42155448726E+02 -0.58156703955E+02 -0.17315429404E+03  0.18750777588E+03  0.41800000000E+01 0.  1.
         -5    1    3    3    0  502  0.11771862007E+02  0.55414851315E+02 -0.13687587533E+03  0.14819534449E+03  0.41800000000E+01 0.  1.
        -11    1    4    4    0    0 -0.20230762738E+02 -0.14871537658E+01 -0.11884380293E+02  0.23510293113E+02  0.00000000000E+00 0.  1.
         11    1    4    4    0    0  0.50614349457E+02  0.42290064058E+01 -0.26420133685E+03  0.26903911103E+03  0.00000000000E+00 0. -1.
</event>
<event>
 8    1  0.7224195E-009  0.1844814E+03  0.7561462E-02  0.1163535E+00
          1   -1    0    0  501    0  0.00000000000E+00  0.00000000000E+00  0.87018013450E+03  0.87018013450E+03  0.00000000000E+00 0. -1.
         -1   -1    0    0    0  501 -0.00000000000E+00 -0.00000000000E+00 -0.75264014400E+02  0.75264014400E+02  0.00000000000E+00 0.  1.
         25    2    1    2    0    0 -0.28210294555E+02  0.16507545955E+03  0.11355470039E+03  0.23788131546E+03  0.12508845751E+03 0.  0.
         23    2    1    2    0    0  0.28210294555E+02 -0.16507545955E+03  0.68136141971E+03  0.70756283343E+03  0.91356723482E+02 0.  0.
          5    1    3    3  502    0  0.32146215400E+02  0.10097350911E+03  0.10514199170E+03  0.14933633023E+03  0.41800000000E+01 0.  1.
         -5    1    3    3    0  502 -0.60356509955E+02  0.64101950432E+02  0.84127086896E+01  0.88544985237E+02  0.41800000000E+01 0.  1.
        -11    1    4    4    0    0  0.42800509930E+02 -0.12211731383E+03  0.60548074248E+03  0.61915381894E+03  0.00000000000E+00 0.  1.
         11    1    4    4    0    0 -0.14590215376E+02 -0.42958145712E+02  0.75880677227E+02  0.88409014496E+02  0.00000000000E+00 0. -1.
</event>
<event>
 8    1  0.7224195E-009  0.1031146E+03  0.7561462E-02  0.1273879E+00
          2   -1    0    0  501    0  0.00000000000E+00  0.00000000000E+00  0.15794819400E+03  0.15794819400E+03  0.00000000000E+00 0.  1.
         -2   -1    0    0    0  501 -0.00000000000E+00 -0.00000000000E+00 -0.10685298267E+03  0.10685298267E+03  0.00000000000E+00 0. -1.
         25    2    1    2    0    0  0.29988001800E+02  0.41954991572E+02 -0.24044434925E+02  0.13742274648E+03  0.12508946730E+03 0.  0.
         23    2    1    2    0    0 -0.29988001800E+02 -0.41954991572E+02  0.75139646249E+02  0.12737843019E+03  0.88993238333E+02 0.  0.
          5    1    3    3  502    0  0.12329239305E+02 -0.35314418775E+02  0.24004048230E+02  0.44640621038E+02  0.41800000000E+01 0.  1.
         -5    1    3    3    0  502  0.17658762495E+02  0.77269410347E+02 -0.48048483155E+02  0.92782125443E+02  0.41800000000E+01 0.  1.
        -11    1    4    4    0    0 -0.29658521238E+02  0.14326457045E+02  0.61035567013E+02  0.69355718540E+02  0.00000000000E+00 0.  1.
         11    1    4    4    0    0 -0.32948056111E+00 -0.56281448617E+02  0.14104079235E+02  0.58022711648E+02  0.00000000000E+00 0. -1.
</event>
<event>
 8    1  0.7224195E-009  0.1659140E+03  0.7561462E-02  0.1182177E+00
         -1   -1    0    0    0  501 -0.00000000000E+00  0.00000000000E+00  0.37346482630E+02  0.37346482630E+02  0.00000000000E+00 0.  1.
          1   -1    0    0  501    0  0.00000000000E+00 -0.00000000000E+00 -0.10150182366E+04  0.10150182366E+04  0.00000000000E+00 0. -1.
         25    2    1    2    0    0  0.15809836556E+03  0.19563453345E+02 -0.57648051676E+03  0.61102827831E+03  0.12509176150E+03 0.  0.
         23    2    1    2    0    0 -0.15809836556E+03 -0.19563453345E+02 -0.40119123724E+03  0.44133644094E+03  0.91900072727E+02 0.  0.
          5    1    3    3  502    0  0.56864321408E+02  0.28782514730E+02 -0.41697532299E+03  0.42183868550E+03  0.41800000000E+01 0. -1.
         -5    1    3    3    0  502  0.10123404416E+03 -0.92190613855E+01 -0.15950519377E+03  0.18918959281E+03  0.41800000000E+01 0. -1.
        -11    1    4    4    0    0 -0.49762935106E+02  0.15875406578E+02 -0.50767011022E+02  0.72840014089E+02  0.00000000000E+00 0.  1.
         11    1    4    4    0    0 -0.10833543046E+03 -0.35438859923E+02 -0.35042422622E+03  0.36849642685E+03  0.00000000000E+00 0. -1.
</event>
<event>
 8    1  0.7224195E-009  0.3752256E+03  0.7561462E-02  0.1052713E+00
          1   -1    0    0  501    0  0.00000000000E+00  0.00000000000E+00  0.82516078794E+03  0.82516078794E+03  0.00000000000E+00 0. -1.
         -1   -1    0    0    0  501 -0.00000000000E+00 -0.00000000000E+00 -0.18117845610E+03  0.18117845610E+03  0.00000000000E+00 0.  1.
         25    2    1    2    0    0  0.29330045859E+03  0.21692988646E+03  0.41483393685E+03  0.56640811962E+03  0.12508888108E+03 0.  0.
         23    2    1    2    0    0 -0.29330045859E+03 -0.21692988646E+03  0.22914839499E+03  0.43993112442E+03  0.89144111766E+02 0.  0.
          5    1    3    3  502    0  0.20704906909E+03  0.76977237092E+02  0.22724804355E+03  0.31694472348E+03  0.41800000000E+01 0.  1.
         -5    1    3    3    0  502  0.86251389501E+02  0.13995264937E+03  0.18758589329E+03  0.24946339615E+03  0.41800000000E+01 0.  1.
        -11    1    4    4    0    0 -0.14492917280E+03 -0.11576897230E+03  0.64749226714E+02  0.19646725538E+03  0.00000000000E+00 0.  1.
         11    1    4    4    0    0 -0.14837128579E+03 -0.10116091416E+03  0.16439916828E+03  0.24346386904E+03  0.00000000000E+00 0. -1.
</event>
<event>
 8    1  0.7224195E-009  0.1287906E+03  0.7561462E-02  0.1229261E+00
         -1   -1    0    0    0  501 -0.00000000000E+00  0.00000000000E+00  0.94855468004E+02  0.94855468004E+02  0.00000000000E+00 0.  1.
          1   -1    0    0  501    0  0.00000000000E+00 -0.00000000000E+00 -0.23152992751E+03  0.23152992751E+03  0.00000000000E+00 0. -1.
         25    2    1    2    0    0  0.76239367185E+02  0.22438365058E+01 -0.17126241130E+01  0.14651014825E+03  0.12507923308E+03 0.  0.
         23    2    1    2    0    0 -0.76239367185E+02 -0.22438365058E+01 -0.13496183539E+03  0.17987524726E+03  0.91230102781E+02 0.  0.
          5    1    3    3  502    0  0.82586150297E+02  0.46682005016E+02  0.19090413789E+02  0.96858650165E+02  0.41800000000E+01 0. -1.
         -5    1    3    3    0  502 -0.63467831122E+01 -0.44438168510E+02 -0.20803037902E+02  0.49651498088E+02  0.41800000000E+01 0. -1.
        -11    1    4    4    0    0 -0.54401319244E+02 -0.44296194911E+02 -0.66871229164E+02  0.96919645630E+02  0.00000000000E+00 0.  1.
         11    1    4    4    0    0 -0.21838047941E+02  0.42052358405E+02 -0.68090606228E+02  0.82955601630E+02  0.00000000000E+00 0. -1.
</event>
<event>
 8    1  0.7224195E-009  0.1143315E+03  0.7561462E-02  0.1252753E+00
         -1   -1    0    0    0  501 -0.00000000000E+00  0.00000000000E+00  0.23699603177E+02  0.23699603177E+02  0.00000000000E+00 0.  1.
          1   -1    0    0  501    0  0.00000000000E+00 -0.00000000000E+00 -0.65233312859E+03  0.65233312859E+03  0.00000000000E+00 0. -1.
         25    2    1    2    0    0 -0.37522382146E+02 -0.45731199403E+02 -0.36066557195E+03  0.38629756376E+03  0.12508749423E+03 0.  0.
         23    2    1    2    0    0  0.37522382146E+02  0.45731199403E+02 -0.26796795346E+03  0.28973516801E+03  0.92953599918E+02 0.  0.
          5    1    3    3  502    0  0.43225161871E+02  0.37013501705E+01 -0.11636999653E+03  0.12426408614E+03  0.41800000000E+01 0.  1.
         -5    1    3    3    0  502 -0.80747544017E+02 -0.49432549574E+02 -0.24429557542E+03  0.26203347762E+03  0.41800000000E+01 0.  1.
        -11    1    4    4    0    0  0.47756882492E+02  0.46615779403E+01 -0.22250298685E+03  0.22761816556E+03  0.00000000000E+00 0.  1.
         11    1    4    4    0    0 -0.10234500346E+02  0.41069621463E+02 -0.45464966607E+02  0.62117002447E+02  0.00000000000E+00 0. -1.
</event>
<event>
 8    1  0.7224195E-009  0.1579760E+03  0.7561462E-02  0.1191001E+00
         -2   -1    0    0    0  501 -0.00000000000E+00  0.00000000000E+00  0.27762773808E+02  0.27762773808E+02  0.00000000000E+00 0.  1.
          2   -1    0    0  501    0  0.00000000000E+00 -0.00000000000E+00 -0.97266183484E+03  0.97266183484E+03  0.00000000000E+00 0. -1.
         25    2    1    2    0    0 -0.49222772667E+02 -0.11367899458E+03 -0.50645641885E+03  0.53618278575E+03  0.12509228744E+03 0.  0.
         23    2    1    2    0    0  0.49222772667E+02  0.11367899458E+03 -0.43844264218E+03  0.46424182290E+03  0.89121964142E+02 0.  0.
          5    1    3    3  502    0  0.12903918910E+02 -0.98898685287E+02 -0.20506191672E+03  0.22806868081E+03  0.41800000000E+01 0. -1.
         -5    1    3    3    0  502 -0.62126691577E+02 -0.14780309293E+02 -0.30139450213E+03  0.30811410494E+03  0.41800000000E+01 0. -1.
        -11    1    4    4    0    0  0.74641227147E+02  0.93725138938E+02 -0.35952691753E+03  0.37896611839E+03  0.00000000000E+00 0.  1.
         11    1    4    4    0    0 -0.25418454480E+02  0.19953855642E+02 -0.78915724655E+02  0.85275704517E+02  0.00000000000E+00 0. -1.
</event>
<event>
 8    1  0.7224195E-009  0.1427225E+03  0.7561462E-02  0.1209712E+00
          2   -1    0    0  501    0  0.00000000000E+00  0.00000000000E+00  0.54872580507E+03  0.54872580507E+03  0.00000000000E+00 0. -1.
         -2   -1    0    0    0  501 -0.00000000000E+00 -0.00000000000E+00 -0.40393091549E+02  0.40393091549E+02  0.00000000000E+00 0.  1.
         25    2    1    2    0    0  0.86668391531E+02 -0.52380610078E+02  0.30152430504E+03  0.34178902881E+03  0.12509074821E+03 0.  0.
         23    2    1    2    0    0 -0.86668391531E+02  0.52380610078E+02  0.20680840848E+03  0.24732986780E+03  0.90261881688E+02 0.  0.
          5    1    3    3  502    0 -0.97555114705E+01  0.25888257266E+02  0.10986650319E+03  0.11337324548E+03  0.41800000000E+01 0. -1.
         -5    1    3    3    0  502  0.96423903001E+02 -0.78268867344E+02  0.19165780185E+03  0.22841578333E+03  0.41800000000E+01 0. -1.
        -11    1    4    4    0    0 -0.64506041770E+02 -0.11557754285E+02  0.78403351023E+02  0.10218461998E+03  0.00000000000E+00 0.  1.
         11    1    4    4    0    0 -0.22162349761E+02  0.63938364363E+02  0.12840505746E+03  0.14514524782E+03  0.00000000000E+00 0. -1.
</event>
<event>
 8    1  0.7224195E-009  0.1064552E+03  0.7561462E-02  0.1267279E+00
         -2   -1    0    0    0  501 -0.00000000000E+00  0.00000000000E+00  0.66393370421E+02  0.66393370421E+02  0.00000000000E+00 0.  1.
          2   -1    0    0  501    0  0.00000000000E+00 -0.00000000000E+00 -0.18910358385E+03  0.18910358385E+03  0.00000000000E+00 0. -1.
         25    2    1    2    0    0 -0.87241143356E+01 -0.12348817380E+02 -0.40243104559E+02  0.13226485158E+03  0.12508349226E+03 0.  0.
         23    2    1    2    0    0  0.87241143356E+01  0.12348817380E+02 -0.82467108866E+02  0.12323210269E+03  0.90314581477E+02 0.  0.
          5    1    3    3  502    0 -0.62989167929E+02  0.82121158636E+01 -0.37793859860E+02  0.74033251762E+02  0.41800000000E+01 0. -1.
         -5    1    3    3    0  502  0.54265053593E+02 -0.20560933244E+02 -0.24492446983E+01  0.58231599814E+02  0.41800000000E+01 0. -1.
        -11    1    4    4    0    0 -0.27964699214E+02 -0.25867385529E+02 -0.40917428396E+02  0.55905115891E+02  0.00000000000E+00 0. -1.
         11    1    4    4    0    0  0.36688813549E+02  0.38216202909E+02 -0.41549680470E+02  0.67326986800E+02  0.00000000000E+00 0.  1.
</event>
<event>
 8    1  0.7224195E-009  0.2115198E+03  0.7561462E-02  0.1140368E+00
         -2   -1    0    0    0  501 -0.00000000000E+00  0.00000000000E+00  0.65439865487E+02  0.65439865487E+02  0.00000000000E+00 0.  1.
          2   -1    0    0  501    0  0.00000000000E+00 -0.00000000000E+00 -0.81273016604E+03  0.81273016604E+03  0.00000000000E+00 0. -1.
         25    2    1    2    0    0  0.89010574951E+02 -0.16133021597E+03 -0.54943197544E+03  0.59285245247E+03  0.12509282043E+03 0.  0.
         23    2    1    2    0    0 -0.89010574951E+02  0.16133021597E+03 -0.19785832512E+03  0.28531757907E+03  0.91147589474E+02 0.  0.
          5    1    3    3  502    0 -0.28623829280E+02 -0.59826610242E+02 -0.18873190382E+03  0.20008935708E+03  0.41800000000E+01 0. -1.
         -5    1    3    3    0  502  0.11763440423E+03 -0.10150360573E+03 -0.36070007162E+03  0.39276309539E+03  0.41800000000E+01 0. -1.
        -11    1    4    4    0    0 -0.10138569693E+03  0.11550175990E+03 -0.17411553187E+03  0.23224111290E+03  0.00000000000E+00 0. -1.
         11    1    4    4    0    0  0.12375121974E+02  0.45828456072E+02 -0.23742793248E+02  0.53076466169E+02  0.00000000000E+00 0.  1.
</event>
<event>
 8    1  0.7224195E-009  0.9140110E+02  0.7561462E-02  0.1299494E+00
          1   -1    0    0  501    0  0.00000000000E+00  0.00000000000E+00  0.80028877936E+02  0.80028877936E+02  0.00000000000E+00 0. -1.
         -1   -1    0    0    0  501 -0.00000000000E+00 -0.00000000000E+00 -0.16625289466E+03  0.16625289466E+03  0.00000000000E+00 0.  1.
         25    2    1    2    0    0  0.17824487894E+02 -0.15820050936E+02 -0.83367880663E+02  0.15220334446E+03  0.12509063977E+03 0.  0.
         23    2    1    2    0    0 -0.17824487894E+02  0.15820050936E+02 -0.28561360665E+01  0.94078428142E+02  0.90964865460E+02 0.  0.
          5    1    3    3  502    0  0.59576631528E+02  0.24517475524E+02 -0.63881697956E+02  0.90823044235E+02  0.41800000000E+01 0. -1.
         -5    1    3    3    0  502 -0.41752143634E+02 -0.40337526461E+02 -0.19486182706E+02  0.61380300223E+02  0.41800000000E+01 0. -1.
        -11    1    4    4    0    0 -0.37647706147E+02  0.13858436696E+02 -0.36982987591E+02  0.54563242361E+02  0.00000000000E+00 0.  1.
         11    1    4    4    0    0  0.19823218252E+02  0.19616142403E+01  0.34126851525E+02  0.39515185781E+02  0.00000000000E+00 0. -1.
</event>
<event>
 8    1  0.7224195E-009  0.1147094E+03  0.7561462E-02  0.1252089E+00
          2   -1    0    0  501    0  0.00000000000E+00  0.00000000000E+00  0.51382587251E+03  0.51382587251E+03  0.00000000000E+00 0. -1.
         -2   -1    0    0    0  501 -0.00000000000E+00 -0.00000000000E+00 -0.32471197543E+02  0.32471197543E+02  0.00000000000E+00 0.  1.
         25    2    1    2    0    0 -0.28049214288E+02  0.32238148747E+02  0.15195341074E+03  0.20141474289E+03  0.12510796522E+03 0.  0.
         23    2    1    2    0    0  0.28049214288E+02 -0.32238148747E+02  0.32940126423E+03  0.34488232716E+03  0.92803933413E+02 0.  0.
          5    1    3    3  502    0 -0.26795967586E+02  0.78003019898E+02  0.73856965565E+02  0.11079178108E+03  0.41800000000E+01 0. -1.
         -5    1    3    3    0  502 -0.12532467016E+01 -0.45764871151E+02  0.78096445176E+02  0.90622961814E+02  0.41800000000E+01 0. -1.
        -11    1    4    4    0    0 -0.33490389552E+02 -0.62860678252E+01  0.86600143745E+02  0.93062912794E+02  0.00000000000E+00 0.  1.
         11    1    4    4    0    0  0.61539603839E+02 -0.25952080922E+02  0.24280112048E+03  0.25181941437E+03  0.00000000000E+00 0. -1.
</event>
<event>
 8    1  0.7224195E-009  0.1750329E+03  0.7561462E-02  0.1172699E+00
         -2   -1    0    0    0  501 -0.00000000000E+00  0.00000000000E+00  0.10880347192E+03  0.10880347192E+03  0.00000000000E+00 0.  1.
          2   -1    0    0  501    0  0.00000000000E+00 -0.00000000000E+00 -0.41376119444E+03  0.41376119444E+03  0.00000000000E+00 0. -1.
         25    2    1    2    0    0 -0.91721496202E+02 -0.12237798519E+03 -0.28112981675E+03  0.34361390252E+03  0.12508931215E+03 0.  0.
         23    2    1    2    0    0  0.91721496202E+02  0.12237798519E+03 -0.23827905766E+02  0.17895076384E+03  0.89813154152E+02 0.  0.
          5    1    3    3  502    0 -0.94938660601E+02 -0.58773899585E+02 -0.24731887295E+03  0.27138868412E+03  0.41800000000E+01 0.  1.
         -5    1    3    3    0  502  0.32171643982E+01 -0.63604085608E+02 -0.33810943800E+02  0.72225218404E+02  0.41800000000E+01 0.  1.
        -11    1    4    4    0    0  0.10712123257E+03  0.95407362975E+02 -0.31703506898E+02  0.14691029823E+03  0.00000000000E+00 0.  1.
         11    1    4    4    0    0 -0.15399736366E+02  0.26970622219E+02  0.78756011319E+01  0.32040465605E+02  0.00000000000E+00 0. -1.
</event>
<event>
 8    1  0.7224195E-009  0.8409891E+02  0.7561462E-02  0.1317806E+00
         -2   -1    0    0    0  501 -0.00000000000E+00  0.00000000000E+00  0.50563224903E+02  0.50563224903E+02  0.00000000000E+00 0.  1.
          2   -1    0    0  501    0  0.00000000000E+00 -0.00000000000E+00 -0.29086194755E+03  0.29086194755E+03  0.00000000000E+00 0. -1.
         25    2    1    2    0    0  0.26944106342E+02  0.41247992285E+02 -0.16609218755E+03  0.21368549524E+03  0.12508994515E+03 0.  0.
         23    2    1    2    0    0 -0.26944106342E+02 -0.41247992285E+02 -0.74206535095E+02  0.12773967721E+03  0.91561091889E+02 0.  0.
          5    1    3    3  502    0 -0.18269860979E+02 -0.14416510184E+02  0.83142724366E+01  0.25064379351E+02  0.41800000000E+01 0. -1.
         -5    1    3    3    0  502  0.45213967322E+02  0.55664502469E+02 -0.17440645999E+03  0.18862111589E+03  0.41800000000E+01 0. -1.
        -11    1    4    4    0    0  0.65428635931E+01  0.97294752440E+01 -0.65008724970E+02  0.66057596647E+02  0.00000000000E+00 0. -1.
         11    1    4    4    0    0 -0.33486969936E+02 -0.50977467529E+02 -0.91978101251E+01  0.61682080560E+02  0.00000000000E+00 0.  1.
</event>
<event>
 8    1  0.7224195E-009  0.1734059E+03  0.7561462E-02  0.1174342E+00
         -2   -1    0    0    0  501 -0.00000000000E+00  0.00000000000E+00  0.32018931391E+02  0.32018931391E+02  0.00000000000E+00 0. -1.
          2   -1    0    0  501    0  0.00000000000E+00 -0.00000000000E+00 -0.10645872358E+04  0.10645872358E+04  0.00000000000E+00 0.  1.
         25    2    1    2    0    0 -0.13466024446E+03  0.50621178934E+02 -0.68977069207E+03  0.71563056545E+03  0.12509042081E+03 0.  0.
         23    2    1    2    0    0  0.13466024446E+03 -0.50621178934E+02 -0.34279761236E+03  0.38097560176E+03  0.83284577822E+02 0.  0.
          5    1    3    3  502    0  0.20351852114E+02  0.99663827051E+01 -0.38055221000E+02  0.44488188478E+02  0.41800000000E+01 0. -1.
         -5    1    3    3    0  502 -0.15501209657E+03  0.40654796229E+02 -0.65171547107E+03  0.67114237697E+03  0.41800000000E+01 0. -1.
        -11    1    4    4    0    0 -0.83990478922E+01 -0.13099770016E+02 -0.16263121898E+02  0.22508600886E+02  0.00000000000E+00 0. -1.
         11    1    4    4    0    0  0.14305929235E+03 -0.37521408918E+02 -0.32653449046E+03  0.35846700087E+03  0.00000000000E+00 0.  1.
</event>
<event>
 8    1  0.7224195E-009  0.9672886E+02  0.7561462E-02  0.1287329E+00
          3   -1    0    0  501    0  0.00000000000E+00  0.00000000000E+00  0.13282358039E+03  0.13282358039E+03  0.00000000000E+00 0. -1.
         -3   -1    0    0    0  501 -0.00000000000E+00 -0.00000000000E+00 -0.12072637357E+03  0.12072637357E+03  0.00000000000E+00 0.  1.
         25    2    1    2    0    0 -0.22659872244E+02 -0.41495650026E+02 -0.39926281160E+02  0.13956135141E+03  0.12509158284E+03 0.  0.
         23    2    1    2    0    0  0.22659872244E+02  0.41495650026E+02  0.52023487976E+02  0.11398860256E+03  0.89730705060E+02 0.  0.
          5    1    3    3  502    0 -0.51084995478E+02 -0.41462266350E+02  0.23453308835E+02  0.69973755003E+02  0.41800000000E+01 0. -1.
         -5    1    3    3    0  502  0.28425123233E+02 -0.33383675775E-01 -0.63379589995E+02  0.69587596404E+02  0.41800000000E+01 0. -1.
        -11    1    4    4    0    0  0.25550978531E+02 -0.22917317549E+02  0.30776119660E+02  0.46100167992E+02  0.00000000000E+00 0. -1.
         11    1    4    4    0    0 -0.28911062871E+01  0.64412967575E+02  0.21247368316E+02  0.67888434566E+02  0.00000000000E+00 0.  1.
</event>
<event>
 8    1  0.7224195E-009  0.1910893E+03  0.7561462E-02  0.1157482E+00
          2   -1    0    0  501    0  0.00000000000E+00  0.00000000000E+00  0.15496504820E+04  0.15496504820E+04  0.00000000000E+00 0. -1.
         -2   -1    0    0    0  501 -0.00000000000E+00 -0.00000000000E+00 -0.27465909399E+02  0.27465909399E+02  0.00000000000E+00 0.  1.
         25    2    1    2    0    0  0.14966621273E+03 -0.50483264317E+02  0.50266608871E+03  0.54154298016E+03  0.12508823851E+03 0.  0.
         23    2    1    2    0    0 -0.14966621273E+03  0.50483264317E+02  0.10195184839E+04  0.10355734112E+04  0.89698471917E+02 0.  0.
          5    1    3    3  502    0  0.12326819847E+03  0.20188239863E+02  0.28727955000E+03  0.31328840711E+03  0.41800000000E+01 0.  1.
         -5    1    3    3    0  502  0.26398014259E+02 -0.70671504180E+02  0.21538653871E+03  0.22825457305E+03  0.41800000000E+01 0.  1.
        -11    1    4    4    0    0 -0.35959580483E+02 -0.26201785931E+02  0.24781450487E+03  0.25177699228E+03  0.00000000000E+00 0.  1.
         11    1    4    4    0    0 -0.11370663224E+03  0.76685050248E+02  0.77170397899E+03  0.78379641894E+03  0.00000000000E+00 0. -1.
</event>
<event>
 8    1  0.7224195E-009  0.1132136E+03  0.7561462E-02  0.1254732E+00
         -1   -1    0    0    0  501 -0.00000000000E+00  0.00000000000E+00  0.35913998055E+02  0.35913998055E+02  0.00000000000E+00 0.  1.
          1   -1    0    0  501    0  0.00000000000E+00 -0.00000000000E+00 -0.55908234019E+03  0.55908234019E+03  0.00000000000E+00 0. -1.
         25    2    1    2    0    0 -0.27670585205E+02  0.71970633343E+02 -0.38798707151E+03  0.41487911515E+03  0.12508109039E+03 0.  0.
         23    2    1    2    0    0  0.27670585205E+02 -0.71970633343E+02 -0.13518127062E+03  0.18011722310E+03  0.90679682291E+02 0.  0.
          5    1    3    3  502    0 -0.65738832662E+02  0.73506462691E+02 -0.20006213320E+03  0.22308546281E+03  0.41800000000E+01 0.  1.
         -5    1    3    3    0  502  0.38068247458E+02 -0.15358293474E+01 -0.18792493831E+03  0.19179365233E+03  0.41800000000E+01 0.  1.
        -11    1    4    4    0    0  0.25686928193E+02 -0.10270053486E+02  0.39130348420E+01  0.27939293482E+02  0.00000000000E+00 0.  1.
         11    1    4    4    0    0  0.19836570118E+01 -0.61700579857E+02 -0.13909430547E+03  0.15217792962E+03  0.00000000000E+00 0. -1.
</event>
<event>
 8    1  0.7224195E-009  0.1456868E+03  0.7561462E-02  0.1205875E+00
          1   -1    0    0  501    0  0.00000000000E+00  0.00000000000E+00  0.12354271439E+03  0.12354271439E+03  0.00000000000E+00 0. -1.
         -1   -1    0    0    0  501 -0.00000000000E+00 -0.00000000000E+00 -0.21341488137E+03  0.21341488137E+03  0.00000000000E+00 0.  1.
         25    2    1    2    0    0  0.67401448666E+02 -0.97196031987E+02 -0.41369257824E+02  0.17705345864E+03  0.12508592170E+03 0.  0.
         23    2    1    2    0    0 -0.67401448666E+02  0.97196031987E+02 -0.48502909149E+02  0.15990413712E+03  0.96056113575E+02 0.  0.
          5    1    3    3  502    0  0.22145692728E+02  0.29744436492E+02 -0.85097477188E+01  0.38275990057E+02  0.41800000000E+01 0. -1.
         -5    1    3    3    0  502  0.45255755938E+02 -0.12694046848E+03 -0.32859510105E+02  0.13877746859E+03  0.41800000000E+01 0. -1.
        -11    1    4    4    0    0 -0.42341021213E+02  0.72994250728E+02 -0.77502096805E+02  0.11457529282E+03  0.00000000000E+00 0.  1.
         11    1    4    4    0    0 -0.25060427453E+02  0.24201781259E+02  0.28999187656E+02  0.45328844293E+02  0.00000000000E+00 0. -1.
</event>
<event>
 8    1  0.7224195E-009  0.7468045E+02  0.7561462E-02  0.1344863E+00
          1   -1    0    0  501    0  0.00000000000E+00  0.00000000000E+00  0.10678580640E+04  0.10678580640E+04  0.00000000000E+00 0. -1.
         -1   -1    0    0    0  501 -0.00000000000E+00 -0.00000000000E+00 -0.11824267643E+02  0.11824267643E+02  0.00000000000E+00 0.  1.
         25    2    1    2    0    0 -0.27426414438E+02 -0.83432452967E+01  0.58596737908E+03  0.59985623985E+03  0.12509165117E+03 0.  0.
         23    2    1    2    0    0  0.27426414438E+02  0.83432452967E+01  0.47006641731E+03  0.47982609182E+03  0.91917483439E+02 0.  0.
          5    1    3    3  502    0 -0.81626195434E+01 -0.27154926614E+02  0.56434292666E+03  0.56507028737E+03  0.41800000000E+01 0.  1.
         -5    1    3    3    0  502 -0.19263794894E+02  0.18811681317E+02  0.21624452423E+02  0.34785952486E+02  0.41800000000E+01 0.  1.
        -11    1    4    4    0    0 -0.11911616045E+02 -0.33778361762E+02  0.12707891638E+03  0.13202997882E+03  0.00000000000E+00 0.  1.
         11    1    4    4    0    0  0.39338030483E+02  0.42121607059E+02  0.34298750093E+03  0.34779611300E+03  0.00000000000E+00 0. -1.
</event>
<event>
 8    1  0.7224195E-009  0.1285862E+03  0.7561462E-02  0.1229569E+00
         -2   -1    0    0    0  501 -0.00000000000E+00  0.00000000000E+00  0.25304596782E+03  0.25304596782E+03  0.00000000000E+00 0.  1.
          2   -1    0    0  501    0  0.00000000000E+00 -0.00000000000E+00 -0.13841115832E+03  0.13841115832E+03  0.00000000000E+00 0. -1.
         25    2    1    2    0    0 -0.11535337133E+03 -0.47306715774E+02 -0.31489527673E+02  0.17939781255E+03  0.12509060381E+03 0.  0.
         23    2    1    2    0    0  0.11535337133E+03  0.47306715774E+02  0.14612433717E+03  0.21205931358E+03  0.89847119754E+02 0.  0.
          5    1    3    3  502    0 -0.14453942290E+02 -0.23060196861E+02  0.43371391454E+02  0.51373525513E+02  0.41800000000E+01 0. -1.
         -5    1    3    3    0  502 -0.10089942904E+03 -0.24246518912E+02 -0.74860919126E+02  0.12802428704E+03  0.41800000000E+01 0. -1.
        -11    1    4    4    0    0  0.23236786555E+02  0.25764207302E+01  0.94559510956E+02  0.97406813444E+02  0.00000000000E+00 0.  1.
         11    1    4    4    0    0  0.92116584771E+02  0.44730295043E+02  0.51564826218E+02  0.11465250014E+03  0.00000000000E+00 0. -1.
</event>
<event>
 8    1  0.7224195E-009  0.1715852E+03  0.7561462E-02  0.1176205E+00
          3   -1    0    0  501    0  0.00000000000E+00  0.00000000000E+00  0.63002662204E+03  0.63002662204E+03  0.00000000000E+00 0. -1.
         -3   -1    0    0    0  501 -0.00000000000E+00 -0.00000000000E+00 -0.63220378820E+02  0.63220378820E+02  0.00000000000E+00 0.  1.
         25    2    1    2    0    0  0.36492724359E+00 -0.14023136374E+03  0.45152301325E+03  0.48906384076E+03  0.12508173445E+03 0.  0.
         23    2    1    2    0    0 -0.36492724359E+00  0.14023136374E+03  0.11528322996E+03  0.20418316010E+03  0.93464277712E+02 0.  0.
          5    1    3    3  502    0  0.27871968369E+02 -0.15381771304E+03  0.36181810232E+03  0.39416563400E+03  0.41800000000E+01 0. -1.
         -5    1    3    3    0  502 -0.27507041125E+02  0.13586349305E+02  0.89704910937E+02  0.94898206754E+02  0.41800000000E+01 0. -1.
        -11    1    4    4    0    0  0.23058943287E+02  0.12669268641E+03  0.58817929946E+02  0.14157083223E+03  0.00000000000E+00 0.  1.
         11    1    4    4    0    0 -0.23423870530E+02  0.13538677325E+02  0.56465300017E+02  0.62612327862E+02  0.00000000000E+00 0. -1.
</event>
<event>
 8    1  0.7224195E-009  0.1366163E+03  0.7561462E-02  0.1217956E+00
         -2   -1    0    0    0  501 -0.00000000000E+00  0.00000000000E+00  0.72196615311E+02  0.72196615311E+02  0.00000000000E+00 0. -1.
          2   -1    0    0  501    0  0.00000000000E+00 -0.00000000000E+00 -0.38624890621E+03  0.38624890621E+03  0.00000000000E+00 0.  1.
         25    2    1    2    0    0 -0.11594419676E+03  0.45568780837E+02 -0.13228795136E+03  0.22060206506E+03  0.12508236680E+03 0.  0.
         23    2    1    2    0    0  0.11594419676E+03 -0.45568780837E+02 -0.18176433954E+03  0.23784345646E+03  0.89507899661E+02 0.  0.
          5    1    3    3  502    0 -0.67251768981E+02  0.63536146922E+02 -0.17081085796E+02  0.94174722133E+02  0.41800000000E+01 0. -1.
         -5    1    3    3    0  502 -0.48692427782E+02 -0.17967366085E+02 -0.11520686556E+03  0.12642734293E+03  0.41800000000E+01 0. -1.
        -11    1    4    4    0    0  0.80040079366E+02 -0.46626342452E+02 -0.58745919135E+02  0.10968825430E+03  0.00000000000E+00 0. -1.
         11    1    4    4    0    0  0.35904117398E+02  0.10575616150E+01 -0.12301842040E+03  0.12815520216E+03  0.00000000000E+00 0.  1.
</event>
<event>
 8    1  0.7224195E-009  0.1151210E+03  0.7561462E-02  0.1251370E+00
          1   -1    0    0  501    0  0.00000000000E+00  0.00000000000E+00  0.86466613674E+03  0.86466613674E+03  0.00000000000E+00 0. -1.
         -1   -1    0    0    0  501 -0.00000000000E+00 -0.00000000000E+00 -0.17561027818E+02  0.17561027818E+02  0.00000000000E+00 0.  1.
         25    2    1    2    0    0  0.33822423351E+02  0.47291842470E+02  0.45595615043E+03  0.47636511060E+03  0.12508889957E+03 0.  0.
         23    2    1    2    0    0 -0.33822423351E+02 -0.47291842470E+02  0.39114895849E+03  0.40586205395E+03  0.91356578464E+02 0.  0.
          5    1    3    3  502    0  0.15833762417E+02  0.81832802822E+02  0.18973389036E+03  0.20727695772E+03  0.41800000000E+01 0.  1.
         -5    1    3    3    0  502  0.17988660934E+02 -0.34540960352E+02  0.26622226007E+03  0.26908815288E+03  0.41800000000E+01 0.  1.
        -11    1    4    4    0    0  0.15427408807E+02 -0.55575347847E+02  0.18696882274E+03  0.19566288587E+03  0.00000000000E+00 0.  1.
         11    1    4    4    0    0 -0.49249832158E+02  0.82835053761E+01  0.20418013575E+03  0.21019916808E+03  0.00000000000E+00 0. -1.
</event>
<event>
 8    1  0.7224195E-009  0.9683298E+02  0.7561462E-02  0.1287100E+00
         -2   -1    0    0    0  501 -0.00000000000E+00  0.00000000000E+00  0.53956368728E+03  0.53956368728E+03  0.00000000000E+00 0.  1.
          2   -1    0    0  501    0  0.00000000000E+00 -0.00000000000E+00 -0.45448580209E+02  0.45448580209E+02  0.00000000000E+00 0. -1.
         25    2    1    2    0    0 -0.52470044375E+02  0.30284241445E+02  0.44038803765E+03  0.46180133672E+03  0.12509440460E+03 0.  0.
         23    2    1    2    0    0  0.52470044375E+02 -0.30284241445E+02  0.53727069431E+02  0.12321093077E+03  0.92866003656E+02 0.  0.
          5    1    3    3  502    0  0.19244737333E+02 -0.26770890815E+00  0.30412039625E+03  0.30475747636E+03  0.41800000000E+01 0. -1.
         -5    1    3    3    0  502 -0.71714781708E+02  0.30551950353E+02  0.13626764139E+03  0.15704386036E+03  0.41800000000E+01 0. -1.
        -11    1    4    4    0    0  0.39943236790E+02 -0.55131747752E+02  0.64105459150E+02  0.93511933294E+02  0.00000000000E+00 0.  1.
         11    1    4    4    0    0  0.12526807585E+02  0.24847506307E+02 -0.10378389719E+02  0.29698997477E+02  0.00000000000E+00 0. -1.
</event>
<event>
 8    1  0.7224195E-009  0.1008398E+03  0.7561462E-02  0.1278540E+00
          1   -1    0    0  501    0  0.00000000000E+00  0.00000000000E+00  0.81811985074E+03  0.81811985074E+03  0.00000000000E+00 0. -1.
         -1   -1    0    0    0  501 -0.00000000000E+00 -0.00000000000E+00 -0.16650899305E+02  0.16650899305E+02  0.00000000000E+00 0.  1.
         25    2    1    2    0    0  0.30500585936E+02  0.27428330231E+02  0.45486134620E+03  0.47352815555E+03  0.12508985086E+03 0.  0.
         23    2    1    2    0    0 -0.30500585936E+02 -0.27428330231E+02  0.34660760524E+03  0.36124259450E+03  0.93149240630E+02 0.  0.
          5    1    3    3  502    0  0.52105574552E+01  0.61343007621E+02  0.39678877816E+03  0.40155811705E+03  0.41800000000E+01 0.  1.
         -5    1    3    3    0  502  0.25290028481E+02 -0.33914677390E+02  0.58072568038E+02  0.71970038499E+02  0.41800000000E+01 0.  1.
        -11    1    4    4    0    0  0.15121146338E+02  0.24218145840E+02  0.59708593500E+02  0.66183712440E+02  0.00000000000E+00 0. -1.
         11    1    4    4    0    0 -0.45621732274E+02 -0.51646476071E+02  0.28689901174E+03  0.29505888206E+03  0.00000000000E+00 0.  1.
</event>
<event>
 8    1  0.7224195E-009  0.1027288E+03  0.7561462E-02  0.1274660E+00
         -1   -1    0    0    0  501 -0.00000000000E+00  0.00000000000E+00  0.41415290227E+02  0.41415290227E+02  0.00000000000E+00 0.  1.
          1   -1    0    0  501    0  0.00000000000E+00 -0.00000000000E+00 -0.30045477583E+03  0.30045477583E+03  0.00000000000E+00 0. -1.
         25    2    1    2    0    0  0.14902196879E+02 -0.22616959931E+02 -0.15850044176E+03  0.20372363591E+03  0.12508927788E+03 0.  0.
         23    2    1    2    0    0 -0.14902196879E+02  0.22616959931E+02 -0.10053904384E+03  0.13814643015E+03  0.90789506436E+02 0.  0.
          5    1    3    3  502    0 -0.24974787066E+02  0.40408098319E+02 -0.92394934506E+02  0.10397524090E+03  0.41800000000E+01 0.  1.
         -5    1    3    3    0  502  0.39876983945E+02 -0.63025058249E+02 -0.66105507255E+02  0.99748395001E+02  0.41800000000E+01 0.  1.
        -11    1    4    4    0    0 -0.29125965460E+02 -0.21834258408E+02 -0.78507867300E+02  0.86536361907E+02  0.00000000000E+00 0. -1.
         11    1    4    4    0    0  0.14223768581E+02  0.44451218339E+02 -0.22031176543E+02  0.51610068245E+02  0.00000000000E+00 0.  1.
</event>
<event>
 8    1  0.7224195E-009  0.8902295E+02  0.7561462E-02  0.1305235E+00
         -2   -1    0    0    0  501 -0.00000000000E+00  0.00000000000E+00  0.25715587226E+02  0.25715587226E+02  0.00000000000E+00 0.  1.
          2   -1    0    0  501    0  0.00000000000E+00 -0.00000000000E+00 -0.43618585527E+03  0.43618585527E+03  0.00000000000E+00 0. -1.
         25    2    1    2    0    0 -0.24212987874E+01  0.14717722706E+02 -0.23433429309E+03  0.26604981012E+03  0.12508983370E+03 0.  0.
         23    2    1    2    0    0  0.24212987874E+01 -0.14717722706E+02 -0.17613597495E+03  0.19585163238E+03  0.84329746731E+02 0.  0.
          5    1    3    3  502    0  0.40355131178E+02  0.31624950332E+02 -0.36955184719E+02  0.63339025675E+02  0.41800000000E+01 0. -1.
         -5    1    3    3    0  502 -0.42776429965E+02 -0.16907227626E+02 -0.19737910837E+03  0.20271078444E+03  0.41800000000E+01 0. -1.
        -11    1    4    4    0    0  0.22231884094E+02 -0.41515696012E+02 -0.68137146588E+02  0.82828017185E+02  0.00000000000E+00 0.  1.
         11    1    4    4    0    0 -0.19810585306E+02  0.26797973306E+02 -0.10799882836E+03  0.11302361519E+03  0.00000000000E+00 0. -1.
</event>
<event>
 8    1  0.7224195E-009  0.1297395E+03  0.7561462E-02  0.1227843E+00
         -2   -1    0    0    0  501 -0.00000000000E+00  0.00000000000E+00  0.43948833476E+02  0.43948833476E+02  0.00000000000E+00 0.  1.
          2   -1    0    0  501    0  0.00000000000E+00 -0.00000000000E+00 -0.47926714016E+03  0.47926714016E+03  0.00000000000E+00 0. -1.
         25    2    1    2    0    0 -0.91411910990E+02  0.14444504589E+01 -0.28788192808E+03  0.32692805391E+03  0.12509086301E+03 0.  0.
         23    2    1    2    0    0  0.91411910990E+02 -0.14444504589E+01 -0.14743637861E+03  0.19628791973E+03  0.91832661879E+02 0.  0.
          5    1    3    3  502    0 -0.26910968138E+02 -0.58868091035E+02 -0.98639525570E+02  0.11805456685E+03  0.41800000000E+01 0.  1.
         -5    1    3    3    0  502 -0.64500942851E+02  0.60312541494E+02 -0.18924240251E+03  0.20887348707E+03  0.41800000000E+01 0.  1.
        -11    1    4    4    0    0  0.21620926995E+02 -0.24532922551E+02 -0.10805102125E+03  0.11289088522E+03  0.00000000000E+00 0. -1.
         11    1    4    4    0    0  0.69790983995E+02  0.23088472092E+02 -0.39385357353E+02  0.83397034506E+02  0.00000000000E+00 0.  1.
</event>
<event>
 8    1  0.7224195E-009  0.1115773E+03  0.7561462E-02  0.1257677E+00
         -2   -1    0    0    0  501 -0.00000000000E+00  0.00000000000E+00  0.17888056255E+03  0.17888056255E+03  0.00000000000E+00 0. -1.
          2   -1    0    0  501    0  0.00000000000E+00 -0.00000000000E+00 -0.20160888815E+03  0.20160888815E+03  0.00000000000E+00 0.  1.
         25    2    1    2    0    0 -0.42701401674E+02  0.76419179991E+02 -0.14045155762E+03  0.20745434623E+03  0.12508942783E+03 0.  0.
         23    2    1    2    0    0  0.42701401674E+02 -0.76419179991E+02  0.11772323202E+03  0.17303510447E+03  0.91755584283E+02 0.  0.
          5    1    3    3  502    0 -0.38450243910E+02  0.91998410744E+02 -0.43139058658E+02  0.10872248902E+03  0.41800000000E+01 0.  1.
         -5    1    3    3    0  502 -0.42511577639E+01 -0.15579230754E+02 -0.97312498967E+02  0.98731857211E+02  0.41800000000E+01 0.  1.
        -11    1    4    4    0    0 -0.13630691706E+02 -0.26968252984E+01 -0.85693053368E+01  0.16324877244E+02  0.00000000000E+00 0.  1.
         11    1    4    4    0    0  0.56332093380E+02 -0.73722354692E+02  0.12629253736E+03  0.15671022723E+03  0.00000000000E+00 0. -1.
</event>
<event>
 8    1  0.7224195E-009  0.1197153E+03  0.7561462E-02  0.1243567E+00
         -2   -1    0    0    0  501 -0.00000000000E+00  0.00000000000E+00  0.13983495538E+03  0.13983495538E+03  0.00000000000E+00 0.  1.
          2   -1    0    0  501    0  0.00000000000E+00 -0.00000000000E+00 -0.18071220021E+03  0.18071220021E+03  0.00000000000E+00 0. -1.
         25    2    1    2    0    0  0.87295540532E+02 -0.27688505061E+02  0.45065585067E+02  0.16144977271E+03  0.12509179605E+03 0.  0.
         23    2    1    2    0    0 -0.87295540532E+02  0.27688505061E+02 -0.85942829898E+02  0.15909738287E+03  0.97665974206E+02 0.  0.
          5    1    3    3  502    0  0.27124617509E+01 -0.27086081382E+02  0.68290247091E+02  0.73634526556E+02  0.41800000000E+01 0. -1.
         -5    1    3    3    0  502  0.84583078781E+02 -0.60242367916E+00 -0.23224662024E+02  0.87815246150E+02  0.41800000000E+01 0. -1.
        -11    1    4    4    0    0  0.41681386920E+01 -0.22493180105E+02  0.15662571842E+01  0.22929668401E+02  0.00000000000E+00 0.  1.
         11    1    4    4    0    0 -0.91463679224E+02  0.50181685166E+02 -0.87509087082E+02  0.13616771447E+03  0.00000000000E+00 0. -1.
</event>
<event>
 8    1  0.7224195E-009  0.1591679E+03  0.7561462E-02  0.1189639E+00
         -1   -1    0    0    0  501 -0.00000000000E+00  0.00000000000E+00  0.10043943352E+03  0.10043943352E+03  0.00000000000E+00 0.  1.
          1   -1    0    0  501    0  0.00000000000E+00 -0.00000000000E+00 -0.30447090012E+03  0.30447090012E+03  0.00000000000E+00 0. -1.
         25    2    1    2    0    0  0.12266916493E+03 -0.59177925097E+02 -0.12396495816E+03  0.22263003268E+03  0.12508824786E+03 0.  0.
         23    2    1    2    0    0 -0.12266916493E+03  0.59177925097E+02 -0.80066508444E+02  0.18228030097E+03  0.90915958451E+02 0.  0.
          5    1    3    3  502    0  0.13226944779E+03 -0.81852439944E+02 -0.12171660076E+03  0.19755361815E+03  0.41800000000E+01 0.  1.
         -5    1    3    3    0  502 -0.96002828550E+01  0.22674514846E+02 -0.22483574003E+01  0.25076414525E+02  0.41800000000E+01 0.  1.
        -11    1    4    4    0    0 -0.11265167801E+03  0.47195637409E+02 -0.24514316211E+02  0.12457439724E+03  0.00000000000E+00 0.  1.
         11    1    4    4    0    0 -0.10017486923E+02  0.11982287688E+02 -0.55552192232E+02  0.57705903721E+02  0.00000000000E+00 0. -1.
</event>
<event>
 8    1  0.7224195E-009  0.9000158E+02  0.7561462E-02  0.1302848E+00
         -3   -1    0    0    0  501 -0.00000000000E+00  0.00000000000E+00  0.28631160087E+03  0.28631160087E+03  0.00000000000E+00 0.  1.
          3   -1    0    0  501    0  0.00000000000E+00 -0.00000000000E+00 -0.73652231868E+02  0.73652231868E+02  0.00000000000E+00 0. -1.
         25    2    1    2    0    0 -0.73541382986E+01 -0.88623290780E+02  0.16259339699E+03  0.22358953392E+03  0.12508995130E+03 0.  0.
         23    2    1    2    0    0  0.73541382986E+01  0.88623290780E+02  0.50065972020E+02  0.13637429882E+03  0.90460913143E+02 0.  0.
          5    1    3    3  502    0 -0.66024587551E+01 -0.13761536369E+02  0.14592042761E+03  0.14677607414E+03  0.41800000000E+01 0.  1.
         -5    1    3    3    0  502 -0.75167954354E+00 -0.74861754412E+02  0.16672969375E+02  0.76813459781E+02  0.41800000000E+01 0.  1.
        -11    1    4    4    0    0 -0.64468547458E+00  0.32372408817E+02  0.69217757249E+02  0.76416532181E+02  0.00000000000E+00 0.  1.
         11    1    4    4    0    0  0.79988237732E+01  0.56250881963E+02 -0.19151785229E+02  0.59957766644E+02  0.00000000000E+00 0. -1.
</event>
<event>
 8    1  0.7224195E-009  0.1013164E+03  0.7561462E-02  0.1277552E+00
          1   -1    0    0  501    0  0.00000000000E+00  0.00000000000E+00  0.52089008050E+03  0.52089008050E+03  0.00000000000E+00 0. -1.
         -1   -1    0    0    0  501 -0.00000000000E+00 -0.00000000000E+00 -0.30989451812E+02  0.30989451812E+02  0.00000000000E+00 0.  1.
         25    2    1    2    0    0 -0.24791133187E+02  0.30033063460E+02  0.37202337000E+03  0.39441799269E+03  0.12509028718E+03 0.  0.
         23    2    1    2    0    0  0.24791133187E+02 -0.30033063460E+02  0.11787725869E+03  0.15746153962E+03  0.96863322051E+02 0.  0.
          5    1    3    3  502    0 -0.60269218228E+02  0.25696424997E+02  0.33989344476E+03  0.34617583843E+03  0.41800000000E+01 0. -1.
         -5    1    3    3    0  502  0.35478085042E+02  0.43366384629E+01  0.32129925234E+02  0.48242154252E+02  0.41800000000E+01 0. -1.
        -11    1    4    4    0    0 -0.10227091502E+02  0.29889492182E+02  0.19701659533E+02  0.37230773989E+02  0.00000000000E+00 0.  1.
         11    1    4    4    0    0  0.35018224689E+02 -0.59922555642E+02  0.98175599158E+02  0.12023076563E+03  0.00000000000E+00 0. -1.
</event>
<event>
 8    1  0.7224195E-009  0.5166905E+02  0.7561462E-02  0.1436542E+00
         -1   -1    0    0    0  501 -0.00000000000E+00  0.00000000000E+00  0.18596608365E+03  0.18596608365E+03  0.00000000000E+00 0.  1.
          1   -1    0    0  501    0  0.00000000000E+00 -0.00000000000E+00 -0.82625455796E+02  0.82625455796E+02  0.00000000000E+00 0. -1.
         25    2    1    2    0    0 -0.34143145160E+02  0.11261634938E+02  0.47286875833E+01  0.13023772604E+03  0.12508767332E+03 0.  0.
         23    2    1    2    0    0  0.34143145160E+02 -0.11261634938E+02  0.98611940269E+02  0.13835381340E+03  0.90138139189E+02 0.  0.
          5    1    3    3  502    0 -0.29104134490E+01  0.51265635078E+01 -0.58702397393E+02  0.59145549448E+02  0.41800000000E+01 0. -1.
         -5    1    3    3    0  502 -0.31232731711E+02  0.61350714302E+01  0.63431084976E+02  0.71092176594E+02  0.41800000000E+01 0. -1.
        -11    1    4    4    0    0  0.38178323541E+02 -0.27644549833E+02  0.10045569065E+02  0.48194594943E+02  0.00000000000E+00 0. -1.
         11    1    4    4    0    0 -0.40351783808E+01  0.16382914895E+02  0.88566371204E+02  0.90159218460E+02  0.00000000000E+00 0.  1.
</event>
<event>
 8    1  0.7224195E-009  0.1077860E+03  0.7561462E-02  0.1264726E+00
          1   -1    0    0  501    0  0.00000000000E+00  0.00000000000E+00  0.27656860810E+03  0.27656860810E+03  0.00000000000E+00 0. -1.
         -1   -1    0    0    0  501 -0.00000000000E+00 -0.00000000000E+00 -0.63222966582E+02  0.63222966582E+02  0.00000000000E+00 0.  1.
         25    2    1    2    0    0  0.45226530866E+02 -0.26436975187E+02  0.54000284731E+02  0.14597241941E+03  0.12509022235E+03 0.  0.
         23    2    1    2    0    0 -0.45226530866E+02  0.26436975187E+02  0.15934535678E+03  0.19381915527E+03  0.97111119181E+02 0.  0.
          5    1    3    3  502    0  0.86389239081E+02 -0.37154839030E+00  0.30431033654E+02  0.91688379234E+02  0.41800000000E+01 0. -1.
         -5    1    3    3    0  502 -0.41162708215E+02 -0.26065426796E+02  0.23569251077E+02  0.54284040178E+02  0.41800000000E+01 0. -1.
        -11    1    4    4    0    0  0.91100815022E+01  0.24132817610E+02  0.12897337551E+03  0.13152763231E+03  0.00000000000E+00 0. -1.
         11    1    4    4    0    0 -0.54336612368E+02  0.23041575764E+01  0.30371981275E+02  0.62291522957E+02  0.00000000000E+00 0.  1.
</event>
<event>
 8    1  0.7224195E-009  0.1072678E+03  0.7561462E-02  0.1265715E+00
         -2   -1    0    0    0  501 -0.00000000000E+00  0.00000000000E+00  0.37076946346E+03  0.37076946346E+03  0.00000000000E+00 0.  1.
          2   -1    0    0  501    0  0.00000000000E+00 -0.00000000000E+00 -0.45728947425E+02  0.45728947425E+02  0.00000000000E+00 0. -1.
         25    2    1    2    0    0  0.28739795503E+01  0.69397390994E+02  0.20240581620E+03  0.24787087267E+03  0.12509035714E+03 0.  0.
         23    2    1    2    0    0 -0.28739795503E+01 -0.69397390994E+02  0.12263469983E+03  0.16862753822E+03  0.92583580658E+02 0.  0.
          5    1    3    3  502    0 -0.34093557436E+02  0.75065604000E+02  0.64039985888E+02  0.10447874308E+03  0.41800000000E+01 0.  1.
         -5    1    3    3    0  502  0.36967536987E+02 -0.56682130063E+01  0.13836583032E+03  0.14339212959E+03  0.41800000000E+01 0.  1.
        -11    1    4    4    0    0 -0.33381951061E+02 -0.37801555502E+02  0.11288461495E+03  0.12363756932E+03  0.00000000000E+00 0.  1.
         11    1    4    4    0    0  0.30507971511E+02 -0.31595835491E+02  0.97500848804E+01  0.44989968896E+02  0.00000000000E+00 0. -1.
</event>
<event>
 8    1  0.7224195E-009  0.1288888E+03  0.7561462E-02  0.1229114E+00
         -1   -1    0    0    0  501 -0.00000000000E+00  0.00000000000E+00  0.65000896753E+02  0.65000896753E+02  0.00000000000E+00 0.  1.
          1   -1    0    0  501    0  0.00000000000E+00 -0.00000000000E+00 -0.33116820388E+03  0.33116820388E+03  0.00000000000E+00 0. -1.
         25    2    1    2    0    0 -0.50180319948E+02 -0.89344310586E+02 -0.13290779446E+03  0.20931282966E+03  0.12508760326E+03 0.  0.
         23    2    1    2    0    0  0.50180319948E+02  0.89344310586E+02 -0.13325951267E+03  0.18685627097E+03  0.81588589517E+02 0.  0.
          5    1    3    3  502    0 -0.86100883672E+02 -0.63061440834E+02 -0.12412766218E+03  0.16375364548E+03  0.41800000000E+01 0.  1.
         -5    1    3    3    0  502  0.35920563725E+02 -0.26282869752E+02 -0.87801322738E+01  0.45559184183E+02  0.41800000000E+01 0.  1.
        -11    1    4    4    0    0  0.35493011909E+02  0.82993661667E+02 -0.52281247623E+02  0.10431217870E+03  0.00000000000E+00 0.  1.
         11    1    4    4    0    0  0.14687308038E+02  0.63506489194E+01 -0.80978265049E+02  0.82544092275E+02  0.00000000000E+00 0. -1.
</event>
<event>
 8    1  0.7224195E-009  0.6884289E+02  0.7561462E-02  0.1364073E+00
         -1   -1    0    0    0  501 -0.00000000000E+00  0.00000000000E+00  0.48963094093E+03  0.48963094093E+03  0.00000000000E+00 0. -1.
          1   -1    0    0  501    0  0.00000000000E+00 -0.00000000000E+00 -0.26923467578E+02  0.26923467578E+02  0.00000000000E+00 0.  1.
         25    2    1    2    0    0 -0.60267825086E+01 -0.30781577362E+02  0.31967659870E+03  0.34471017664E+03  0.12509256778E+03 0.  0.
         23    2    1    2    0    0  0.60267825086E+01  0.30781577362E+02  0.14303087466E+03  0.17184423187E+03  0.89937652338E+02 0.  0.
          5    1    3    3  502    0  0.14951322815E+02 -0.14321272608E+02  0.31687094539E+03  0.31757410054E+03  0.41800000000E+01 0. -1.
         -5    1    3    3    0  502 -0.20978105324E+02 -0.16460304754E+02  0.28056533048E+01  0.27136076099E+02  0.41800000000E+01 0. -1.
        -11    1    4    4    0    0  0.33943233172E+02  0.46473444676E+02  0.11768773011E+03  0.13100506080E+03  0.00000000000E+00 0.  1.
         11    1    4    4    0    0 -0.27916450663E+02 -0.15691867314E+02  0.25343144551E+02  0.40839171064E+02  0.00000000000E+00 0. -1.
</event>
<event>
 8    1  0.7224195E-009  0.1934752E+03  0.7561462E-02  0.1155364E+00
         -4   -1    0    0    0  501 -0.00000000000E+00  0.00000000000E+00  0.10360450141E+04  0.10360450141E+04  0.00000000000E+00 0.  1.
          4   -1    0    0  501    0  0.00000000000E+00 -0.00000000000E+00 -0.48329506647E+02  0.48329506647E+02  0.00000000000E+00 0. -1.
         25    2    1    2    0    0  0.58848707686E+02 -0.16354630136E+03  0.29655917482E+03  0.36579411770E+03  0.12508968500E+03 0.  0.
         23    2    1    2    0    0 -0.58848707686E+02  0.16354630136E+03  0.69115633259E+03  0.71858040300E+03  0.91924732322E+02 0.  0.
          5    1    3    3  502    0  0.79442670086E+02 -0.12172961253E+03  0.28113533198E+03  0.31651822015E+03  0.41800000000E+01 0. -1.
         -5    1    3    3    0  502 -0.20593962400E+02 -0.41816688829E+02  0.15423842836E+02  0.49275897554E+02  0.41800000000E+01 0. -1.
        -11    1    4    4    0    0  0.99633999069E+01  0.10177371597E+03  0.41227385441E+03  0.42476686504E+03  0.00000000000E+00 0.  1.
         11    1    4    4    0    0 -0.68812107593E+02  0.61772585392E+02  0.27888247818E+03  0.29381353796E+03  0.00000000000E+00 0. -1.
</event>
<event>
 8    1  0.7224195E-009  0.1045044E+03  0.7561462E-02  0.1271099E+00
          2   -1    0    0  501    0  0.00000000000E+00  0.00000000000E+00  0.43825609184E+03  0.43825609184E+03  0.00000000000E+00 0. -1.
         -2   -1    0    0    0  501 -0.00000000000E+00 -0.00000000000E+00 -0.35157242982E+02  0.35157242982E+02  0.00000000000E+00 0.  1.
         25    2    1    2    0    0 -0.13526970976E+02 -0.58022650758E+02  0.20953432987E+03  0.25119951426E+03  0.12508778367E+03 0.  0.
         23    2    1    2    0    0  0.13526970976E+02  0.58022650758E+02  0.19356451898E+03  0.22221382056E+03  0.91444803544E+02 0.  0.
          5    1    3    3  502    0 -0.36848180308E+02  0.89756940459E+01  0.16022054111E+03  0.16470107974E+03  0.41800000000E+01 0. -1.
         -5    1    3    3    0  502  0.23321209331E+02 -0.66998344804E+02  0.49313788765E+02  0.86498434514E+02  0.41800000000E+01 0. -1.
        -11    1    4    4    0    0  0.43922175352E+02  0.13630877144E+02  0.45565144571E+02  0.64739019912E+02  0.00000000000E+00 0.  1.
         11    1    4    4    0    0 -0.30395204376E+02  0.44391773614E+02  0.14799937441E+03  0.15747480065E+03  0.00000000000E+00 0. -1.
</event>
<event>
 8    1  0.7224195E-009  0.1644155E+03  0.7561462E-02  0.1183800E+00
         -1   -1    0    0    0  501 -0.00000000000E+00  0.00000000000E+00  0.25144981209E+02  0.25144981209E+02  0.00000000000E+00 0.  1.
          1   -1    0    0  501    0  0.00000000000E+00 -0.00000000000E+00 -0.12349655663E+04  0.12349655663E+04  0.00000000000E+00 0. -1.
         25    2    1    2    0    0 -0.12763208423E+03  0.14529499612E+02 -0.81511566082E+03  0.83460287281E+03  0.12508940606E+03 0.  0.
         23    2    1    2    0    0  0.12763208423E+03 -0.14529499612E+02 -0.39470492427E+03  0.42550767470E+03  0.93614895707E+02 0.  0.
          5    1    3    3  502    0 -0.14051773724E+03 -0.13044795222E+02 -0.55486922635E+03  0.57254932705E+03  0.41800000000E+01 0.  1.
         -5    1    3    3    0  502  0.12885653010E+02  0.27574294834E+02 -0.26024643447E+03  0.26205354576E+03  0.41800000000E+01 0.  1.
        -11    1    4    4    0    0  0.40674396503E+01  0.26435724105E+02 -0.96264965319E+02  0.99911636570E+02  0.00000000000E+00 0. -1.
         11    1    4    4    0    0  0.12356464458E+03 -0.40965223718E+02 -0.29843995895E+03  0.32559603813E+03  0.00000000000E+00 0.  1.
</event>
<event>
 8    1  0.7224195E-009  0.1582067E+03  0.7561462E-02  0.1190736E+00
         -2   -1    0    0    0  501 -0.00000000000E+00  0.00000000000E+00  0.23324018374E+02  0.23324018374E+02  0.00000000000E+00 0.  1.
          2   -1    0    0  501    0  0.00000000000E+00 -0.00000000000E+00 -0.11673184454E+04  0.11673184454E+04  0.00000000000E+00 0. -1.
         25    2    1    2    0    0  0.54642996769E+02  0.10939303696E+03 -0.67135209185E+03  0.69376764024E+03  0.12508882356E+03 0.  0.
         23    2    1    2    0    0 -0.54642996769E+02 -0.10939303696E+03 -0.47264233515E+03  0.49687482351E+03  0.92418178023E+02 0.  0.
          5    1    3    3  502    0  0.77828248470E+01  0.11720924981E+03 -0.56669352357E+03  0.57875521825E+03  0.41800000000E+01 0.  1.
         -5    1    3    3    0  502  0.46860171922E+02 -0.78162128447E+01 -0.10465856829E+03  0.11501242199E+03  0.41800000000E+01 0.  1.
        -11    1    4    4    0    0 -0.78251013850E+02 -0.96639751228E+02 -0.35302228893E+03  0.37428224533E+03  0.00000000000E+00 0.  1.
         11    1    4    4    0    0  0.23608017081E+02 -0.12753285736E+02 -0.11962004622E+03  0.12259257818E+03  0.00000000000E+00 0. -1.
</event>
<event>
 8    1  0.7224195E-009  0.6942460E+02  0.7561462E-02  0.1362061E+00
          1   -1    0    0  501    0  0.00000000000E+00  0.00000000000E+00  0.12658751601E+03  0.12658751601E+03  0.00000000000E+00 0. -1.
         -1   -1    0    0    0  501 -0.00000000000E+00 -0.00000000000E+00 -0.14552934740E+03  0.14552934740E+03  0.00000000000E+00 0.  1.
         25    2    1    2    0    0  0.30291561752E+02 -0.47007139079E+02 -0.71071697642E+02  0.15435438176E+03  0.12508732599E+03 0.  0.
         23    2    1    2    0    0 -0.30291561752E+02  0.47007139079E+02  0.52129866249E+02  0.11776248165E+03  0.89572480661E+02 0.  0.
          5    1    3    3  502    0  0.19397339434E+02 -0.31121742537E+02 -0.10710293458E+03  0.11328429120E+03  0.41800000000E+01 0. -1.
         -5    1    3    3    0  502  0.10894222319E+02 -0.15885396541E+02  0.36031236941E+02  0.41070090561E+02  0.41800000000E+01 0. -1.
        -11    1    4    4    0    0 -0.20300361636E+02  0.61422479358E+02  0.68181438441E+02  0.93986883132E+02  0.00000000000E+00 0. -1.
         11    1    4    4    0    0 -0.99912001166E+01 -0.14415340279E+02 -0.16051572192E+02  0.23775598519E+02  0.00000000000E+00 0.  1.
</event>
<event>
 8    1  0.7224195E-009  0.1010442E+03  0.7561462E-02  0.1278115E+00
         -1   -1    0    0    0  501 -0.00000000000E+00  0.00000000000E+00  0.15210723862E+03  0.15210723862E+03  0.00000000000E+00 0.  1.
          1   -1    0    0  501    0  0.00000000000E+00 -0.00000000000E+00 -0.74395485488E+02  0.74395485488E+02  0.00000000000E+00 0. -1.
         25    2    1    2    0    0 -0.27466922889E+01 -0.73994431136E+01  0.37857583784E+02  0.13093741541E+03  0.12509641892E+03 0.  0.
         23    2    1    2    0    0  0.27466922889E+01  0.73994431136E+01  0.39854169347E+02  0.95565308694E+02  0.86499001928E+02 0.  0.
          5    1    3    3  502    0  0.12958971386E+02 -0.62788743715E+02  0.34951412765E+02  0.73139831357E+02  0.41800000000E+01 0.  1.
         -5    1    3    3    0  502 -0.15705663675E+02  0.55389300601E+02  0.29061710198E+01  0.57797584055E+02  0.41800000000E+01 0.  1.
        -11    1    4    4    0    0 -0.23057359751E+02 -0.28024019066E+02  0.36721462399E+02  0.51628028086E+02  0.00000000000E+00 0.  1.
         11    1    4    4    0    0  0.25804052040E+02  0.35423462179E+02  0.31327069474E+01  0.43937280609E+02  0.00000000000E+00 0. -1.
</event>
<event>
 8    1  0.7224195E-009  0.1207160E+03  0.7561462E-02  0.1241921E+00
         -1   -1    0    0    0  501 -0.00000000000E+00  0.00000000000E+00  0.27571370820E+03  0.27571370820E+03  0.00000000000E+00 0.  1.
          1   -1    0    0  501    0  0.00000000000E+00 -0.00000000000E+00 -0.76847440600E+02  0.76847440600E+02  0.00000000000E+00 0. -1.
         25    2    1    2    0    0 -0.92016976211E+02  0.80148207125E+01  0.14413283182E+03  0.21202111457E+03  0.12508924235E+03 0.  0.
         23    2    1    2    0    0  0.92016976211E+02 -0.80148207125E+01  0.54733435774E+02  0.14054003423E+03  0.90688427970E+02 0.  0.
          5    1    3    3  502    0  0.18368710550E+01 -0.26273587316E+02  0.98586290996E+02  0.10212935258E+03  0.41800000000E+01 0.  1.
         -5    1    3    3    0  502 -0.93853847266E+02  0.34288408029E+02  0.45546540828E+02  0.10989176199E+03  0.41800000000E+01 0.  1.
        -11    1    4    4    0    0  0.59642087547E+02  0.28376173968E+02 -0.16019709386E+01  0.66067784638E+02  0.00000000000E+00 0. -1.
         11    1    4    4    0    0  0.32374888665E+02 -0.36390994681E+02  0.56335406713E+02  0.74472249593E+02  0.00000000000E+00 0.  1.
</event>
<event>
 8    1  0.7224195E-009  0.1091286E+03  0.7561462E-02  0.1262192E+00
         -2   -1    0    0    0  501 -0.00000000000E+00  0.00000000000E+00  0.14724297919E+03  0.14724297919E+03  0.00000000000E+00 0.  1.
          2   -1    0    0  501    0  0.00000000000E+00 -0.00000000000E+00 -0.83996517957E+02  0.83996517957E+02  0.00000000000E+00 0. -1.
         25    2    1    2    0    0  0.15792977472E+02  0.13862329394E+02  0.56997302253E+02  0.13906079943E+03  0.12509049189E+03 0.  0.
         23    2    1    2    0    0 -0.15792977472E+02 -0.13862329394E+02  0.62491589795E+01  0.92178697715E+02  0.89533669705E+02 0.  0.
          5    1    3    3  502    0 -0.48192853935E+02 -0.21864950275E+02  0.29069194151E+02  0.60523695108E+02  0.41800000000E+01 0.  1.
         -5    1    3    3    0  502  0.63985831407E+02  0.35727279669E+02  0.27928108102E+02  0.78537104324E+02  0.41800000000E+01 0.  1.
        -11    1    4    4    0    0 -0.25287845651E+02 -0.49123625653E+02  0.67261586801E+01  0.55658305271E+02  0.00000000000E+00 0.  1.
         11    1    4    4    0    0  0.94948681797E+01  0.35261296259E+02 -0.47699970061E+00  0.36520392445E+02  0.00000000000E+00 0. -1.
</event>
<event>
 8    1  0.7224195E-009  0.1141755E+03  0.7561462E-02  0.1253027E+00
          2   -1    0    0  501    0  0.00000000000E+00  0.00000000000E+00  0.85741843425E+02  0.85741843425E+02  0.00000000000E+00 0. -1.
         -2   -1    0    0    0  501 -0.00000000000E+00 -0.00000000000E+00 -0.15849258658E+03  0.15849258658E+03  0.00000000000E+00 0.  1.
         25    2    1    2    0    0  0.38795193122E+02  0.10961551706E+02 -0.27189421305E+02  0.13420836524E+03  0.12508956010E+03 0.  0.
         23    2    1    2    0    0 -0.38795193122E+02 -0.10961551706E+02 -0.45561321849E+02  0.11002606476E+03  0.91677032310E+02 0.  0.
          5    1    3    3  502    0 -0.28463776740E+02  0.44897577432E+02  0.18641980958E+01  0.53356599218E+02  0.41800000000E+01 0. -1.
         -5    1    3    3    0  502  0.67258969862E+02 -0.33936025726E+02 -0.29053619401E+02  0.80851766024E+02  0.41800000000E+01 0. -1.
        -11    1    4    4    0    0 -0.33524681417E+01 -0.48112960504E+02 -0.16198435028E+02  0.50877159006E+02  0.00000000000E+00 0. -1.
         11    1    4    4    0    0 -0.35442724981E+02  0.37151408798E+02 -0.29362886820E+02  0.59148905756E+02  0.00000000000E+00 0.  1.
</event>
<event>
 8    1  0.7224195E-009  0.1606429E+03  0.7561462E-02  0.1187973E+00
         -1   -1    0    0    0  501 -0.00000000000E+00  0.00000000000E+00  0.10835354541E+03  0.10835354541E+03  0.00000000000E+00 0.  1.
          1   -1    0    0  501    0  0.00000000000E+00 -0.00000000000E+00 -0.29582123209E+03  0.29582123209E+03  0.00000000000E+00 0. -1.
         25    2    1    2    0    0 -0.10332276509E+03  0.96063315639E+02 -0.11112765366E+03  0.21886248850E+03  0.12509068337E+03 0.  0.
         23    2    1    2    0    0  0.10332276509E+03 -0.96063315639E+02 -0.76340033010E+02  0.18531228900E+03  0.92785178856E+02 0.  0.
          5    1    3    3  502    0  0.22400950177E+02  0.30930684270E+02  0.63961369010E+00  0.38423837704E+02  0.41800000000E+01 0. -1.
         -5    1    3    3    0  502 -0.12572371527E+03  0.65132631369E+02 -0.11176726735E+03  0.18043865080E+03  0.41800000000E+01 0. -1.
        -11    1    4    4    0    0  0.38716796228E+02 -0.40061973365E+02  0.17467661005E+02  0.58387252042E+02  0.00000000000E+00 0.  1.
         11    1    4    4    0    0  0.64605968864E+02 -0.56001342274E+02 -0.93807694016E+02  0.12692503695E+03  0.00000000000E+00 0. -1.
</event>
<event>
 8    1  0.7224195E-009  0.2839458E+03  0.7561462E-02  0.1093553E+00
         -2   -1    0    0    0  501 -0.00000000000E+00  0.00000000000E+00  0.59783939768E+02  0.59783939768E+02  0.00000000000E+00 0.  1.
          2   -1    0    0  501    0  0.00000000000E+00 -0.00000000000E+00 -0.15013191391E+04  0.15013191391E+04  0.00000000000E+00 0. -1.
         25    2    1    2    0    0 -0.20299725735E+03 -0.18800449426E+03 -0.64725128831E+03  0.71493694240E+03  0.12508806910E+03 0.  0.
         23    2    1    2    0    0  0.20299725735E+03  0.18800449426E+03 -0.79428391104E+03  0.84616613649E+03  0.92502015369E+02 0.  0.
          5    1    3    3  502    0 -0.12881242380E+03 -0.94325208440E+02 -0.22390133753E+03  0.27502575665E+03  0.41800000000E+01 0.  1.
         -5    1    3    3    0  502 -0.74184833554E+02 -0.93679285820E+02 -0.42334995078E+03  0.43991118575E+03  0.41800000000E+01 0.  1.
        -11    1    4    4    0    0  0.13147647936E+03  0.65812429090E+02 -0.46621085935E+03  0.48884548257E+03  0.00000000000E+00 0. -1.
         11    1    4    4    0    0  0.71520777990E+02  0.12219206517E+03 -0.32807305169E+03  0.35732065392E+03  0.00000000000E+00 0.  1.
</event>
<event>
 8    1  0.7224195E-009  0.1064384E+03  0.7561462E-02  0.1267311E+00
          2   -1    0    0  501    0  0.00000000000E+00  0.00000000000E+00  0.31876273896E+02  0.31876273896E+02  0.00000000000E+00 0. -1.
         -2   -1    0    0    0  501 -0.00000000000E+00 -0.00000000000E+00 -0.65598843541E+03  0.65598843541E+03  0.00000000000E+00 0.  1.
         25    2    1    2    0    0 -0.14187944976E+02  0.58858214404E+02 -0.16463727624E+03  0.21545249093E+03  0.12509498765E+03 0.  0.
         23    2    1    2    0    0  0.14187944976E+02 -0.58858214404E+02 -0.45947488527E+03  0.47241221838E+03  0.91599927343E+02 0.  0.
          5    1    3    3  502    0  0.22232175201E+02 -0.20182448027E+02 -0.13169494196E+01  0.30344811390E+02  0.41800000000E+01 0. -1.
         -5    1    3    3    0  502 -0.36420120177E+02  0.79040662431E+02 -0.16332032682E+03  0.18510767954E+03  0.41800000000E+01 0. -1.
        -11    1    4    4    0    0 -0.28088228954E+00 -0.74283045649E+02 -0.42859303782E+03  0.43498280636E+03  0.00000000000E+00 0.  1.
         11    1    4    4    0    0  0.14468827266E+02  0.15424831245E+02 -0.30881847455E+02  0.37429412013E+02  0.00000000000E+00 0. -1.
</event>
<event>
 8    1  0.7224195E-009  0.1641394E+03  0.7561462E-02  0.1184101E+00
          1   -1    0    0  501    0  0.00000000000E+00  0.00000000000E+00  0.11611905996E+04  0.11611905996E+04  0.00000000000E+00 0. -1.
         -1   -1    0    0    0  501 -0.00000000000E+00 -0.00000000000E+00 -0.27108319941E+02  0.27108319941E+02  0.00000000000E+00 0.  1.
         25    2    1    2    0    0  0.13924293192E+03  0.10849267752E+02  0.55808173960E+03  0.58873357847E+03  0.12508276318E+03 0.  0.
         23    2    1    2    0    0 -0.13924293192E+03 -0.10849267752E+02  0.57600054003E+03  0.59956534104E+03  0.90529969417E+02 0.  0.
          5    1    3    3  502    0  0.11818364671E+03  0.45430599274E+02  0.51112472961E+03  0.52659023473E+03  0.41800000000E+01 0.  1.
         -5    1    3    3    0  502  0.21059285213E+02 -0.34581331522E+02  0.46957009990E+02  0.62143343737E+02  0.41800000000E+01 0.  1.
        -11    1    4    4    0    0 -0.12324867178E+02 -0.30095863403E+02  0.64925407799E+02  0.72615232030E+02  0.00000000000E+00 0. -1.
         11    1    4    4    0    0 -0.12691806474E+03  0.19246595650E+02  0.51107513223E+03  0.52695010901E+03  0.00000000000E+00 0.  1.
</event>
<event>
 8    1  0.7224195E-009  0.1108603E+03  0.7561462E-02  0.1258985E+00
         -3   -1    0    0    0  501 -0.00000000000E+00  0.00000000000E+00  0.10233294798E+04  0.10233294798E+04  0.00000000000E+00 0.  1.
          3   -1    0    0  501    0  0.00000000000E+00 -0.00000000000E+00 -0.18706814017E+02  0.18706814017E+02  0.00000000000E+00 0. -1.
         25    2    1    2    0    0 -0.83989692904E+02 -0.72158992282E+01  0.61810999828E+03  0.63624935261E+03  0.12508769323E+03 0.  0.
         23    2    1    2    0    0  0.83989692904E+02  0.72158992282E+01  0.38651266746E+03  0.40578694117E+03  0.90358518155E+02 0.  0.
          5    1    3    3  502    0 -0.40562342401E+02 -0.28356371345E+02  0.55220283588E+03  0.55443199021E+03  0.41800000000E+01 0. -1.
         -5    1    3    3    0  502 -0.43427350503E+02  0.21140472117E+02  0.65907162408E+02  0.81817362398E+02  0.41800000000E+01 0. -1.
        -11    1    4    4    0    0  0.93990104465E+02  0.30023750987E+02  0.30974181113E+03  0.32507776750E+03  0.00000000000E+00 0.  1.
         11    1    4    4    0    0 -0.10000411561E+02 -0.22807851759E+02  0.76770856331E+02  0.80709173674E+02  0.00000000000E+00 0. -1.
</event>
<event>
 8    1  0.7224195E-009  0.1347377E+03  0.7561462E-02  0.1220590E+00
          2   -1    0    0  501    0  0.00000000000E+00  0.00000000000E+00  0.96845650046E+03  0.96845650046E+03  0.00000000000E+00 0. -1.
         -2   -1    0    0    0  501 -0.00000000000E+00 -0.00000000000E+00 -0.33415072052E+02  0.33415072052E+02  0.00000000000E+00 0.  1.
         25    2    1    2    0    0 -0.11289881489E+03 -0.55715417520E+02  0.68355763064E+03  0.70622156385E+03  0.12509001832E+03 0.  0.
         23    2    1    2    0    0  0.11289881489E+03  0.55715417520E+02  0.25148379777E+03  0.29565000867E+03  0.91183753655E+02 0.  0.
          5    1    3    3  502    0 -0.85240409120E+02 -0.35490059127E+02  0.18828916823E+03  0.20975165057E+03  0.41800000000E+01 0.  1.
         -5    1    3    3    0  502 -0.27658405770E+02 -0.20225358392E+02  0.49526846241E+03  0.49646991328E+03  0.41800000000E+01 0.  1.
        -11    1    4    4    0    0 -0.74765609028E+01  0.12626208875E+02  0.13522562706E+01  0.14735966561E+02  0.00000000000E+00 0.  1.
         11    1    4    4    0    0  0.12037537579E+03  0.43089208645E+02  0.25013154150E+03  0.28091404210E+03  0.00000000000E+00 0. -1.
</event>
<event>
 8    1  0.7224195E-009  0.1489455E+03  0.7561462E-02  0.1201775E+00
         -1   -1    0    0    0  501 -0.00000000000E+00  0.00000000000E+00  0.92295205242E+02  0.92295205242E+02  0.00000000000E+00 0.  1.
          1   -1    0    0  501    0  0.00000000000E+00 -0.00000000000E+00 -0.28135939555E+03  0.28135939555E+03  0.00000000000E+00 0. -1.
         25    2    1    2    0    0 -0.10326186189E+03  0.39888523633E+02 -0.15289786011E+03  0.22644872521E+03  0.12508862092E+03 0.  0.
         23    2    1    2    0    0  0.10326186189E+03 -0.39888523633E+02 -0.36166330204E+02  0.14720587559E+03  0.90041434509E+02 0.  0.
          5    1    3    3  502    0  0.12053468708E+02 -0.27412181767E+02 -0.47436239438E+02  0.56252849076E+02  0.41800000000E+01 0.  1.
         -5    1    3    3    0  502 -0.11531533060E+03  0.67300705400E+02 -0.10546162067E+03  0.17019587613E+03  0.41800000000E+01 0.  1.
        -11    1    4    4    0    0  0.83687753413E+02  0.62825783248E+01  0.23761109242E+01  0.83956874434E+02  0.00000000000E+00 0.  1.
         11    1    4    4    0    0  0.19574108476E+02 -0.46171101958E+02 -0.38542441128E+02  0.63249001152E+02  0.00000000000E+00 0. -1.
</event>
<event>
 8    1  0.7224195E-009  0.1025406E+03  0.7561462E-02  0.1275042E+00
         -2   -1    0    0    0  501 -0.00000000000E+00  0.00000000000E+00  0.78644970271E+02  0.78644970271E+02  0.00000000000E+00 0.  1.
          2   -1    0    0  501    0  0.00000000000E+00 -0.00000000000E+00 -0.34339639658E+03  0.34339639658E+03  0.00000000000E+00 0. -1.
         25    2    1    2    0    0  0.35960378860E+02 -0.55237115534E+02 -0.27297818121E+03  0.30741965599E+03  0.12508185196E+03 0.  0.
         23    2    1    2    0    0 -0.35960378860E+02  0.55237115534E+02  0.82267549056E+01  0.11462171086E+03  0.93413967500E+02 0.  0.
          5    1    3    3  502    0 -0.32766820889E+02 -0.17978405999E+02 -0.19981098605E+02  0.42586433696E+02  0.41800000000E+01 0. -1.
         -5    1    3    3    0  502  0.68727199749E+02 -0.37258709535E+02 -0.25299708261E+03  0.26483322229E+03  0.41800000000E+01 0. -1.
        -11    1    4    4    0    0 -0.21215036923E+02 -0.91693414745E+01 -0.30321988447E+02  0.38125812753E+02  0.00000000000E+00 0. -1.
         11    1    4    4    0    0 -0.14745341936E+02  0.64406457008E+02  0.38548743353E+02  0.76495898107E+02  0.00000000000E+00 0.  1.
</event>
<event>
 8    1  0.7224195E-009  0.1104987E+03  0.7561462E-02  0.1259649E+00
         -2   -1    0    0    0  501 -0.00000000000E+00  0.00000000000E+00  0.52939064899E+02  0.52939064899E+02  0.00000000000E+00 0.  1.
          2   -1    0    0  501    0  0.00000000000E+00 -0.00000000000E+00 -0.31540654943E+03  0.31540654943E+03  0.00000000000E+00 0. -1.
         25    2    1    2    0    0 -0.38678482386E+02  0.59985267939E+02 -0.14467609562E+03  0.20414090097E+03  0.12509227569E+03 0.  0.
         23    2    1    2    0    0  0.38678482386E+02 -0.59985267939E+02 -0.11779138891E+03  0.16420471335E+03  0.89409838481E+02 0.  0.
          5    1    3    3  502    0  0.38661265993E+02  0.51975901379E+02 -0.52557923599E+02  0.83522425404E+02  0.41800000000E+01 0. -1.
         -5    1    3    3    0  502 -0.77339748379E+02  0.80093665606E+01 -0.92118172022E+02  0.12061847557E+03  0.41800000000E+01 0. -1.
        -11    1    4    4    0    0  0.38625439012E+02 -0.31794078729E+02 -0.77684178276E+01  0.50627426328E+02  0.00000000000E+00 0.  1.
         11    1    4    4    0    0  0.53043373724E-01 -0.28191189211E+02 -0.11002297108E+03  0.11357728702E+03  0.00000000000E+00 0. -1.
</event>
<event>
 8    1  0.7224195E-009  0.9382546E+02  0.7561462E-02  0.1293844E+00
          3   -1    0    0  501    0  0.00000000000E+00  0.00000000000E+00  0.30080055801E+03  0.30080055801E+03  0.00000000000E+00 0. -1.
         -3   -1    0    0    0  501 -0.00000000000E+00 -0.00000000000E+00 -0.43254999263E+02  0.43254999263E+02  0.00000000000E+00 0.  1.
         25    2    1    2    0    0  0.97125666969E+00  0.10160547220E+02  0.19184663173E+03  0.22925167820E+03  0.12508805615E+03 0.  0.
         23    2    1    2    0    0 -0.97125666969E+00 -0.10160547220E+02  0.65698927024E+02  0.11480387908E+03  0.93591674738E+02 0.  0.
          5    1    3    3  502    0  0.36316256480E+01 -0.51771501634E+02  0.41529677060E+02  0.66600777496E+02  0.41800000000E+01 0. -1.
         -5    1    3    3    0  502 -0.26603689783E+01  0.61932048854E+02  0.15031695467E+03  0.16265090070E+03  0.41800000000E+01 0. -1.
        -11    1    4    4    0    0  0.25324906603E+02 -0.30908417351E+02  0.70429992197E+02  0.80975705976E+02  0.00000000000E+00 0. -1.
         11    1    4    4    0    0 -0.26296163273E+02  0.20747870131E+02 -0.47310651728E+01  0.33828173103E+02  0.00000000000E+00 0.  1.
</event>
<event>
 8    1  0.7224195E-009  0.1228001E+03  0.7561462E-02  0.1238548E+00
          2   -1    0    0  501    0  0.00000000000E+00  0.00000000000E+00  0.71192189207E+03  0.71192189207E+03  0.00000000000E+00 0.  1.
         -2   -1    0    0    0  501 -0.00000000000E+00 -0.00000000000E+00 -0.51536123133E+02  0.51536123133E+02  0.00000000000E+00 0. -1.
         25    2    1    2    0    0 -0.14976799262E+02 -0.57316609180E+02  0.63571627852E+03  0.65060856902E+03  0.12508726992E+03 0.  0.
         23    2    1    2    0    0  0.14976799262E+02  0.57316609180E+02  0.24669490416E+02  0.11284944619E+03  0.92827342648E+02 0.  0.
          5    1    3    3  502    0  0.22898638449E+02 -0.85556672999E+02  0.46748632062E+03  0.47582057995E+03  0.41800000000E+01 0.  1.
         -5    1    3    3    0  502 -0.37875437711E+02  0.28240063819E+02  0.16822995791E+03  0.17478798907E+03  0.41800000000E+01 0.  1.
        -11    1    4    4    0    0 -0.35564380819E+02  0.35955179061E+01  0.25094687470E+01  0.35833648508E+02  0.00000000000E+00 0.  1.
         11    1    4    4    0    0  0.50541180081E+02  0.53721091274E+02  0.22160021669E+02  0.77015797678E+02  0.00000000000E+00 0. -1.
</event>
<event>
 8    1  0.7224195E-009  0.9443144E+02  0.7561462E-02  0.1292462E+00
          2   -1    0    0  501    0  0.00000000000E+00  0.00000000000E+00  0.34675460860E+02  0.34675460860E+02  0.00000000000E+00 0. -1.
         -2   -1    0    0    0  501 -0.00000000000E+00 -0.00000000000E+00 -0.56112982597E+03  0.56112982597E+03  0.00000000000E+00 0.  1.
         25    2    1    2    0    0 -0.77296350206E+02  0.37850251191E+02 -0.30411081689E+03  0.33990930194E+03  0.12509027668E+03 0.  0.
         23    2    1    2    0    0  0.77296350206E+02 -0.37850251191E+02 -0.22234354821E+03  0.25589598489E+03  0.92944792109E+02 0.  0.
          5    1    3    3  502    0 -0.47515946558E+02 -0.30797059626E+01 -0.27934164970E+03  0.28340162213E+03  0.41800000000E+01 0.  1.
         -5    1    3    3    0  502 -0.29780403648E+02  0.40929957153E+02 -0.24769167191E+02  0.56507679809E+02  0.41800000000E+01 0.  1.
        -11    1    4    4    0    0  0.44734562102E+02 -0.67396118979E+01 -0.21542404734E+02  0.50106672378E+02  0.00000000000E+00 0. -1.
         11    1    4    4    0    0  0.32561788104E+02 -0.31110639293E+02 -0.20080114348E+03  0.20578931251E+03  0.00000000000E+00 0.  1.
</event>
<event>
 8    1  0.7224195E-009  0.1345854E+03  0.7561462E-02  0.1220806E+00
         -2   -1    0    0    0  501 -0.00000000000E+00  0.00000000000E+00  0.84161730390E+02  0.84161730390E+02  0.00000000000E+00 0.  1.
          2   -1    0    0  501    0  0.00000000000E+00 -0.00000000000E+00 -0.34414045962E+03  0.34414045962E+03  0.00000000000E+00 0. -1.
         25    2    1    2    0    0  0.45705984509E+02  0.11999337688E+03 -0.16644885752E+03  0.24462270949E+03  0.12509036860E+03 0.  0.
         23    2    1    2    0    0 -0.45705984509E+02 -0.11999337688E+03 -0.93529871713E+02  0.18367948052E+03  0.92210992540E+02 0.  0.
          5    1    3    3  502    0  0.31638676980E+01  0.82432334261E+02 -0.16852676632E+03  0.18768016186E+03  0.41800000000E+01 0.  1.
         -5    1    3    3    0  502  0.42542116811E+02  0.37561042619E+02  0.20779088051E+01  0.56942547628E+02  0.41800000000E+01 0.  1.
        -11    1    4    4    0    0 -0.15675809878E+02 -0.66485648844E+02 -0.10093372771E+03  0.12187571500E+03  0.00000000000E+00 0. -1.
         11    1    4    4    0    0 -0.30030174631E+02 -0.53507728036E+02  0.74038559999E+01  0.61803765513E+02  0.00000000000E+00 0.  1.
</event>
<event>
 8    1  0.7224195E-009  0.1014367E+03  0.7561462E-02  0.1277304E+00
          1   -1    0    0  501    0  0.00000000000E+00  0.00000000000E+00  0.35310127728E+03  0.35310127728E+03  0.00000000000E+00 0. -1.
         -1   -1    0    0    0  501 -0.00000000000E+00 -0.00000000000E+00 -0.36167961942E+02  0.36167961942E+02  0.00000000000E+00 0.  1.
         25    2    1    2    0    0  0.16301539357E+02 -0.58202955982E+01  0.22898415139E+03  0.26149629922E+03  0.12508779673E+03 0.  0.
         23    2    1    2    0    0 -0.16301539357E+02  0.58202955982E+01  0.87949163942E+02  0.12777294000E+03  0.91056316264E+02 0.  0.
          5    1    3    3  502    0  0.68032718764E+02 -0.62854911864E+01  0.16803846299E+03  0.18144518639E+03  0.41800000000E+01 0. -1.
         -5    1    3    3    0  502 -0.51731179408E+02  0.46519558821E+00  0.60945688406E+02  0.80051112829E+02  0.41800000000E+01 0. -1.
        -11    1    4    4    0    0 -0.24409095152E+02  0.40292042906E+02  0.77772182622E+02  0.90927251347E+02  0.00000000000E+00 0. -1.
         11    1    4    4    0    0  0.81075557954E+01 -0.34471747308E+02  0.10176981320E+02  0.36845688652E+02  0.00000000000E+00 0.  1.
</event>
<event>
 8    1  0.7224195E-009  0.1395133E+03  0.7561462E-02  0.1213985E+00
         -1   -1    0    0    0  501 -0.00000000000E+00  0.00000000000E+00  0.20478783837E+03  0.20478783837E+03  0.00000000000E+00 0.  1.
          1   -1    0    0  501    0  0.00000000000E+00 -0.00000000000E+00 -0.11520007683E+03  0.11520007683E+03  0.00000000000E+00 0. -1.
         25    2    1    2    0    0  0.46793040272E+02  0.93932508658E+02  0.75592090557E+02  0.17993623610E+03  0.12509988052E+03 0.  0.
         23    2    1    2    0    0 -0.46793040272E+02 -0.93932508658E+02  0.13995670982E+02  0.14005167911E+03  0.91682545849E+02 0.  0.
          5    1    3    3  502    0 -0.22755937837E+02  0.59385010086E+02 -0.97505007453E+01  0.64474466222E+02  0.41800000000E+01 0.  1.
         -5    1    3    3    0  502  0.69548978109E+02  0.34547498572E+02  0.85342591302E+02  0.11546176988E+03  0.41800000000E+01 0.  1.
        -11    1    4    4    0    0  0.26598532093E+02 -0.19388955133E+02  0.13134360857E+02  0.35439031106E+02  0.00000000000E+00 0.  1.
         11    1    4    4    0    0 -0.73391572365E+02 -0.74543553525E+02  0.86131012502E+00  0.10461264800E+03  0.00000000000E+00 0. -1.
</event>
<event>
 8    1  0.7224195E-009  0.1072998E+03  0.7561462E-02  0.1265654E+00
          1   -1    0    0  501    0  0.00000000000E+00  0.00000000000E+00  0.47185752705E+03  0.47185752705E+03  0.00000000000E+00 0. -1.
         -1   -1    0    0    0  501 -0.00000000000E+00 -0.00000000000E+00 -0.38366850418E+02  0.38366850418E+02  0.00000000000E+00 0.  1.
         25    2    1    2    0    0  0.55040684841E+02 -0.59383079633E+01  0.34396211915E+03  0.37016567098E+03  0.12509174262E+03 0.  0.
         23    2    1    2    0    0 -0.55040684841E+02  0.59383079633E+01  0.89528557482E+02  0.14005870649E+03  0.92392305790E+02 0.  0.
          5    1    3    3  502    0 -0.25188481962E+02  0.44091164296E+01  0.12165504808E+02  0.28624671849E+02  0.41800000000E+01 0.  1.
         -5    1    3    3    0  502  0.80229166803E+02 -0.10347424393E+02  0.33179661435E+03  0.34154099913E+03  0.41800000000E+01 0.  1.
        -11    1    4    4    0    0 -0.71561988574E+01  0.45200950619E+02  0.39423499172E+02  0.60403223473E+02  0.00000000000E+00 0. -1.
         11    1    4    4    0    0 -0.47884485984E+02 -0.39262642656E+02  0.50105058310E+02  0.79655483016E+02  0.00000000000E+00 0.  1.
</event>
<event>
 8    1  0.7224195E-009  0.9304641E+02  0.7561462E-02  0.1295638E+00
         -2   -1    0    0    0  501 -0.00000000000E+00  0.00000000000E+00  0.96560092251E+02  0.96560092251E+02  0.00000000000E+00 0.  1.
          2   -1    0    0  501    0  0.00000000000E+00 -0.00000000000E+00 -0.20976221722E+03  0.20976221722E+03  0.00000000000E+00 0. -1.
         25    2    1    2    0    0  0.43806790088E+01  0.38010346903E+02 -0.15415282086E+03  0.20217528346E+03  0.12509107179E+03 0.  0.
         23    2    1    2    0    0 -0.43806790088E+01 -0.38010346903E+02  0.40950695894E+02  0.10414702601E+03  0.87781927029E+02 0.  0.
          5    1    3    3  502    0  0.15063966140E+02 -0.23758804702E+02  0.69313235358E+01  0.29273187778E+02  0.41800000000E+01 0.  1.
         -5    1    3    3    0  502 -0.10683287131E+02  0.61769151605E+02 -0.16108414440E+03  0.17290209568E+03  0.41800000000E+01 0.  1.
        -11    1    4    4    0    0 -0.40591781542E+02  0.22791759324E+01  0.10440074179E+02  0.41974784342E+02  0.00000000000E+00 0. -1.
         11    1    4    4    0    0  0.36211102533E+02 -0.40289522835E+02  0.30510621714E+02  0.62172241671E+02  0.00000000000E+00 0.  1.
</event>
<event>
 8    1  0.7224195E-009  0.8610563E+02  0.7561462E-02  0.1312566E+00
          2   -1    0    0  501    0  0.00000000000E+00  0.00000000000E+00  0.24758476737E+03  0.24758476737E+03  0.00000000000E+00 0. -1.
         -2   -1    0    0    0  501 -0.00000000000E+00 -0.00000000000E+00 -0.66921501662E+02  0.66921501662E+02  0.00000000000E+00 0.  1.
         25    2    1    2    0    0  0.42014186918E+02 -0.31074879546E+02  0.15390383438E+03  0.20509746260E+03  0.12509092248E+03 0.  0.
         23    2    1    2    0    0 -0.42014186918E+02  0.31074879546E+02  0.26759431329E+02  0.10940880643E+03  0.92322151832E+02 0.  0.
          5    1    3    3  502    0 -0.27765636531E+02  0.70195654527E+01  0.11089944956E+03  0.11461398337E+03  0.41800000000E+01 0.  1.
         -5    1    3    3    0  502  0.69779823449E+02 -0.38094444999E+02  0.43004384826E+02  0.90483479236E+02  0.41800000000E+01 0.  1.
        -11    1    4    4    0    0 -0.14028707723E+02 -0.75724102928E+01  0.52727223762E+02  0.55084536520E+02  0.00000000000E+00 0. -1.
         11    1    4    4    0    0 -0.27985479195E+02  0.38647289839E+02 -0.25967792433E+02  0.54324269912E+02  0.00000000000E+00 0.  1.
</event>
<event>
 8    1  0.7224195E-009  0.2295698E+03  0.7561462E-02  0.1126943E+00
          2   -1    0    0  501    0  0.00000000000E+00  0.00000000000E+00  0.15041512943E+03  0.15041512943E+03  0.00000000000E+00 0. -1.
         -2   -1    0    0    0  501 -0.00000000000E+00 -0.00000000000E+00 -0.38204670921E+03  0.38204670921E+03  0.00000000000E+00 0.  1.
         25    2    1    2    0    0  0.41254454620E+02 -0.19931072195E+03 -0.48575560560E+02  0.24379056196E+03  0.12509020388E+03 0.  0.
         23    2    1    2    0    0 -0.41254454620E+02  0.19931072195E+03 -0.18305601922E+03  0.28867127669E+03  0.91623719102E+02 0.  0.
          5    1    3    3  502    0 -0.42362682454E+02 -0.87226723313E+02 -0.35227755421E+02  0.10325485595E+03  0.41800000000E+01 0. -1.
         -5    1    3    3    0  502  0.83617137074E+02 -0.11208399863E+03 -0.13347805138E+02  0.14053570601E+03  0.41800000000E+01 0. -1.
        -11    1    4    4    0    0 -0.94400521682E+01 -0.80415761642E+01 -0.45035928788E+01  0.13193327138E+02  0.00000000000E+00 0. -1.
         11    1    4    4    0    0 -0.31814402452E+02  0.20735229811E+03 -0.17855242634E+03  0.27547794955E+03  0.00000000000E+00 0.  1.
</event>
<event>
 8    1  0.7224195E-009  0.1144240E+03  0.7561462E-02  0.1252590E+00
         -3   -1    0    0    0  501 -0.00000000000E+00  0.00000000000E+00  0.32880565181E+02  0.32880565181E+02  0.00000000000E+00 0.  1.
          3   -1    0    0  501    0  0.00000000000E+00 -0.00000000000E+00 -0.81572251770E+03  0.81572251770E+03  0.00000000000E+00 0. -1.
         25    2    1    2    0    0  0.51193868221E+02 -0.94642340595E+00 -0.70253074279E+03  0.71541519674E+03  0.12509097212E+03 0.  0.
         23    2    1    2    0    0 -0.51193868221E+02  0.94642340595E+00 -0.80311209733E+02  0.13318788614E+03  0.93098951365E+02 0.  0.
          5    1    3    3  502    0 -0.18577558806E+01 -0.51168930172E+02 -0.43622245934E+03  0.43923708530E+03  0.41800000000E+01 0. -1.
         -5    1    3    3    0  502  0.53051624102E+02  0.50222506766E+02 -0.26630828345E+03  0.27617811144E+03  0.41800000000E+01 0. -1.
        -11    1    4    4    0    0 -0.48160654896E+02 -0.40389627734E+02 -0.35665156653E+02  0.72268763014E+02  0.00000000000E+00 0.  1.
         11    1    4    4    0    0 -0.30332133255E+01  0.41336051140E+02 -0.44646053080E+02  0.60919123127E+02  0.00000000000E+00 0. -1.
</event>
<event>
 8    1  0.7224195E-009  0.1246959E+03  0.7561462E-02  0.1235545E+00
          1   -1    0    0  501    0  0.00000000000E+00  0.00000000000E+00  0.18114563572E+03  0.18114563572E+03  0.00000000000E+00 0. -1.
         -1   -1    0    0    0  501 -0.00000000000E+00 -0.00000000000E+00 -0.16230388957E+03  0.16230388957E+03  0.00000000000E+00 0.  1.
         25    2    1    2    0    0  0.43474939158E+01 -0.12107289035E+03  0.62846925174E+02  0.18513426314E+03  0.12508962348E+03 0.  0.
         23    2    1    2    0    0 -0.43474939158E+01  0.12107289035E+03 -0.44005179026E+02  0.15831526215E+03  0.91922363810E+02 0.  0.
          5    1    3    3  502    0 -0.10685469464E+02 -0.33040154166E+02 -0.37132320422E+02  0.51010907313E+02  0.41800000000E+01 0. -1.
         -5    1    3    3    0  502  0.15032963380E+02 -0.88032736185E+02  0.99979245596E+02  0.13412335583E+03  0.41800000000E+01 0. -1.
        -11    1    4    4    0    0  0.12617009656E+02  0.33217950101E+02  0.26557992104E+02  0.44361560907E+02  0.00000000000E+00 0. -1.
         11    1    4    4    0    0 -0.16964503572E+02  0.87854940251E+02 -0.70563171130E+02  0.11395370125E+03  0.00000000000E+00 0.  1.
</event>
<event>
 8    1  0.7224195E-009  0.8957092E+02  0.7561462E-02  0.1303894E+00
         -1   -1    0    0    0  501 -0.00000000000E+00  0.00000000000E+00  0.12335985125E+03  0.12335985125E+03  0.00000000000E+00 0.  1.
          1   -1    0    0  501    0  0.00000000000E+00 -0.00000000000E+00 -0.20509709591E+03  0.20509709591E+03  0.00000000000E+00 0. -1.
         25    2    1    2    0    0 -0.69609298179E+01  0.10649417601E+02 -0.16247490509E+03  0.20543797911E+03  0.12507919026E+03 0.  0.
         23    2    1    2    0    0  0.69609298179E+01 -0.10649417601E+02  0.80737660439E+02  0.12301896805E+03  0.91941459900E+02 0.  0.
          5    1    3    3  502    0 -0.36522816665E+02  0.43581470624E+02 -0.14813931338E+03  0.15873244560E+03  0.41800000000E+01 0.  1.
         -5    1    3    3    0  502  0.29561886847E+02 -0.32932053023E+02 -0.14335591711E+02  0.46705533505E+02  0.41800000000E+01 0.  1.
        -11    1    4    4    0    0  0.28808054360E+02 -0.34755484270E+02  0.11599467333E+02  0.46608961856E+02  0.00000000000E+00 0. -1.
         11    1    4    4    0    0 -0.21847124542E+02  0.24106066669E+02  0.69138193106E+02  0.76410006197E+02  0.00000000000E+00 0.  1.
</event>
<event>
 8    1  0.7224195E-009  0.1114947E+03  0.7561462E-02  0.1257827E+00
          1   -1    0    0  501    0  0.00000000000E+00  0.00000000000E+00  0.63380097364E+03  0.63380097364E+03  0.00000000000E+00 0. -1.
         -1   -1    0    0    0  501 -0.00000000000E+00 -0.00000000000E+00 -0.41313624332E+02  0.41313624332E+02  0.00000000000E+00 0.  1.
         25    2    1    2    0    0 -0.28667739665E+02  0.10312136170E+03  0.42988871880E+03  0.46033460872E+03  0.12509111439E+03 0.  0.
         23    2    1    2    0    0  0.28667739665E+02 -0.10312136170E+03  0.16259863051E+03  0.21477998925E+03  0.90753923346E+02 0.  0.
          5    1    3    3  502    0 -0.15540853987E+02  0.23252106474E+02  0.61821442231E+01  0.28945982542E+02  0.41800000000E+01 0.  1.
         -5    1    3    3    0  502 -0.13126885679E+02  0.79869255227E+02  0.42370657458E+03  0.43138862618E+03  0.41800000000E+01 0.  1.
        -11    1    4    4    0    0  0.33484594149E+02 -0.49123080522E+02  0.14669353125E+03  0.15828230222E+03  0.00000000000E+00 0. -1.
         11    1    4    4    0    0 -0.48168544837E+01 -0.53998281179E+02  0.15905099257E+02  0.56497687030E+02  0.00000000000E+00 0.  1.
</event>
<event>
 8    1  0.7224195E-009  0.1072600E+03  0.7561462E-02  0.1265730E+00
         -2   -1    0    0    0  501 -0.00000000000E+00  0.00000000000E+00  0.40643123748E+02  0.40643123748E+02  0.00000000000E+00 0.  1.
          2   -1    0    0  501    0  0.00000000000E+00 -0.00000000000E+00 -0.35513914358E+03  0.35513914358E+03  0.00000000000E+00 0. -1.
         25    2    1    2    0    0 -0.13657866396E+02  0.28852224698E+02 -0.24470965955E+03  0.27667360575E+03  0.12508588433E+03 0.  0.
         23    2    1    2    0    0  0.13657866396E+02 -0.28852224698E+02 -0.69786360282E+02  0.11910866157E+03  0.91091980964E+02 0.  0.
          5    1    3    3  502    0 -0.61439415256E+02  0.33345128785E+02 -0.86512090811E+02  0.11130369993E+03  0.41800000000E+01 0. -1.
         -5    1    3    3    0  502  0.47781548860E+02 -0.44929040874E+01 -0.15819756873E+03  0.16536990582E+03  0.41800000000E+01 0. -1.
        -11    1    4    4    0    0 -0.38939001169E+02 -0.16486476022E+02 -0.26787268746E+02  0.50056043297E+02  0.00000000000E+00 0.  1.
         11    1    4    4    0    0  0.52596867565E+02 -0.12365748676E+02 -0.42999091536E+02  0.69052618277E+02  0.00000000000E+00 0. -1.
</event>
<event>
 8    1  0.7224195E-009  0.8901986E+02  0.7561462E-02  0.1305243E+00
         -3   -1    0    0    0  501 -0.00000000000E+00  0.00000000000E+00  0.15404004334E+03  0.15404004334E+03  0.00000000000E+00 0.  1.
          3   -1    0    0  501    0  0.00000000000E+00 -0.00000000000E+00 -0.93456978992E+02  0.93456978992E+02  0.00000000000E+00 0. -1.
         25    2    1    2    0    0  0.22889785517E+01  0.23817020789E+02 -0.12591908377E+02  0.12797792622E+03  0.12508918234E+03 0.  0.
         23    2    1    2    0    0 -0.22889785517E+01 -0.23817020789E+02  0.73174972724E+02  0.11951909612E+03  0.91420718664E+02 0.  0.
          5    1    3    3  502    0 -0.23904578526E+02  0.60096249023E+02 -0.39206262491E+02  0.75746890627E+02  0.41800000000E+01 0.  1.
         -5    1    3    3    0  502  0.26193557077E+02 -0.36279228235E+02  0.26614354114E+02  0.52231035588E+02  0.41800000000E+01 0.  1.
        -11    1    4    4    0    0  0.23441965598E+02 -0.33420620755E+02 -0.56947306603E+00  0.40826314337E+02  0.00000000000E+00 0. -1.
         11    1    4    4    0    0 -0.25730944150E+02  0.96035999663E+01  0.73744445790E+02  0.78692781779E+02  0.00000000000E+00 0.  1.
</event>
<event>
 8    1  0.7224195E-009  0.1132809E+03  0.7561462E-02  0.1254612E+00
         -2   -1    0    0    0  501 -0.00000000000E+00  0.00000000000E+00  0.15024720046E+03  0.15024720046E+03  0.00000000000E+00 0.  1.
          2   -1    0    0  501    0  0.00000000000E+00 -0.00000000000E+00 -0.11688815022E+03  0.11688815022E+03  0.00000000000E+00 0. -1.
         25    2    1    2    0    0  0.34720356192E+02 -0.66867475573E+02  0.33763241182E+02  0.14988092420E+03  0.12509025766E+03 0.  0.
         23    2    1    2    0    0 -0.34720356192E+02  0.66867475573E+02 -0.40419094167E+00  0.11725442648E+03  0.89842499604E+02 0.  0.
          5    1    3    3  502    0  0.72833515992E+02 -0.77276476302E+02  0.23301311978E+02  0.10879705134E+03  0.41800000000E+01 0.  1.
         -5    1    3    3    0  502 -0.38113159800E+02  0.10409000729E+02  0.10461929204E+02  0.41083872855E+02  0.41800000000E+01 0.  1.
        -11    1    4    4    0    0 -0.15227256787E+02  0.56429514019E+02  0.40256661254E+02  0.70970121720E+02  0.00000000000E+00 0.  1.
         11    1    4    4    0    0 -0.19493099405E+02  0.10437961555E+02 -0.40660852195E+02  0.46284304760E+02  0.00000000000E+00 0. -1.
</event>
<event>
 8    1  0.7224195E-009  0.2045274E+03  0.7561462E-02  0.1145975E+00
         -1   -1    0    0    0  501 -0.00000000000E+00  0.00000000000E+00  0.39749420772E+02  0.39749420772E+02  0.00000000000E+00 0.  1.
          1   -1    0    0  501    0  0.00000000000E+00 -0.00000000000E+00 -0.14048969933E+04  0.14048969933E+04  0.00000000000E+00 0. -1.
         25    2    1    2    0    0  0.13364987229E+03 -0.14218950415E+03 -0.93867810858E+03  0.96687365545E+03  0.12509168886E+03 0.  0.
         23    2    1    2    0    0 -0.13364987229E+03  0.14218950415E+03 -0.42646946393E+03  0.47777275861E+03  0.91161733991E+02 0.  0.
          5    1    3    3  502    0  0.85448641443E+02 -0.11679255704E+03 -0.85338652502E+03  0.86557957762E+03  0.41800000000E+01 0. -1.
         -5    1    3    3    0  502  0.48201230848E+02 -0.25396947111E+02 -0.85291583564E+02  0.10129407784E+03  0.41800000000E+01 0. -1.
        -11    1    4    4    0    0 -0.73570131233E+02  0.24573057445E+02 -0.10768201793E+03  0.13270951868E+03  0.00000000000E+00 0. -1.
         11    1    4    4    0    0 -0.60079741058E+02  0.11761644671E+03 -0.31878744600E+03  0.34506323993E+03  0.00000000000E+00 0.  1.
</event>
<event>
 8    1  0.7224195E-009  0.1120801E+03  0.7561462E-02  0.1256766E+00
         -4   -1    0    0    0  501 -0.00000000000E+00  0.00000000000E+00  0.11988009160E+02  0.11988009160E+02  0.00000000000E+00 0.  1.
          4   -1    0    0  501    0  0.00000000000E+00 -0.00000000000E+00 -0.12747917760E+04  0.12747917760E+04  0.00000000000E+00 0. -1.
         25    2    1    2    0    0  0.14508025580E+02 -0.39965229365E+02 -0.92884762939E+03  0.93819656993E+03  0.12508869987E+03 0.  0.
         23    2    1    2    0    0 -0.14508025580E+02  0.39965229365E+02 -0.33395613745E+03  0.34858321523E+03  0.90420428206E+02 0.  0.
          5    1    3    3  502    0  0.55508599672E+02 -0.58929235359E+02 -0.71558447982E+03  0.72016142606E+03  0.41800000000E+01 0.  1.
         -5    1    3    3    0  502 -0.41000574092E+02  0.18964005994E+02 -0.21326314957E+03  0.21803514387E+03  0.41800000000E+01 0.  1.
        -11    1    4    4    0    0  0.37334176305E+02  0.17375890568E+02 -0.17769902129E+03  0.18240807126E+03  0.00000000000E+00 0.  1.
         11    1    4    4    0    0 -0.51842201885E+02  0.22589338797E+02 -0.15625711616E+03  0.16617514397E+03  0.00000000000E+00 0. -1.
</event>
<event>
 8    1  0.7224195E-009  0.1579290E+03  0.7561462E-02  0.1191055E+00
         -1   -1    0    0    0  501 -0.00000000000E+00  0.00000000000E+00  0.75096132225E+02  0.75096132225E+02  0.00000000000E+00 0.  1.
          1   -1    0    0  501    0  0.00000000000E+00 -0.00000000000E+00 -0.57037253477E+03  0.57037253477E+03  0.00000000000E+00 0. -1.
         25    2    1    2    0    0 -0.78405710978E+02 -0.11431410873E+03 -0.89222648087E+02  0.20693917892E+03  0.12509185374E+03 0.  0.
         23    2    1    2    0    0  0.78405710978E+02  0.11431410873E+03 -0.40605375445E+03  0.43852948807E+03  0.90627200304E+02 0.  0.
          5    1    3    3  502    0  0.18495843749E+02 -0.49951521932E+01 -0.52801873414E+02  0.56325465088E+02  0.41800000000E+01 0. -1.
         -5    1    3    3    0  502 -0.96901554727E+02 -0.10931895653E+03 -0.36420774673E+02  0.15061371383E+03  0.41800000000E+01 0. -1.
        -11    1    4    4    0    0  0.26592837622E+02  0.88123997449E+02 -0.15012156679E+03  0.17609515256E+03  0.00000000000E+00 0.  1.
         11    1    4    4    0    0  0.51812873356E+02  0.26190111278E+02 -0.25593218766E+03  0.26243433551E+03  0.00000000000E+00 0. -1.
</event>
<event>
 8    1  0.7224195E-009  0.1021368E+03  0.7561462E-02  0.1275866E+00
          1   -1    0    0  501    0  0.00000000000E+00  0.00000000000E+00  0.14088752979E+04  0.14088752979E+04  0.00000000000E+00 0. -1.
         -1   -1    0    0    0  501 -0.00000000000E+00 -0.00000000000E+00 -0.97946384464E+01  0.97946384464E+01  0.00000000000E+00 0.  1.
         25    2    1    2    0    0  0.18656679790E+01  0.98252046611E+01  0.11594554592E+04  0.11662265511E+04  0.12508953254E+03 0.  0.
         23    2    1    2    0    0 -0.18656679790E+01 -0.98252046611E+01  0.23962520025E+03  0.25244338529E+03  0.78787123426E+02 0.  0.
          5    1    3    3  502    0  0.63112505300E+02  0.39038897033E+01  0.63650568580E+03  0.63965255345E+03  0.41800000000E+01 0.  1.
         -5    1    3    3    0  502 -0.61246837321E+02  0.59213149579E+01  0.52294977341E+03  0.52657399761E+03  0.41800000000E+01 0.  1.
        -11    1    4    4    0    0 -0.13242889153E+02  0.32661791304E+02  0.11535509685E+03  0.12061909091E+03  0.00000000000E+00 0. -1.
         11    1    4    4    0    0  0.11377221174E+02 -0.42486995965E+02  0.12427010340E+03  0.13182429438E+03  0.00000000000E+00 0.  1.
</event>
<event>
 8    1  0.7224195E-009  0.1189397E+03  0.7561462E-02  0.1244857E+00
          2   -1    0    0  501    0  0.00000000000E+00  0.00000000000E+00  0.56517964671E+02  0.56517964671E+02  0.00000000000E+00 0. -1.
         -2   -1    0    0    0  501 -0.00000000000E+00 -0.00000000000E+00 -0.31982163857E+03  0.31982163857E+03  0.00000000000E+00 0.  1.
         25    2    1    2    0    0 -0.49592845822E+02 -0.59189024334E+02 -0.17022745927E+03  0.22491540964E+03  0.12508702030E+03 0.  0.
         23    2    1    2    0    0  0.49592845822E+02  0.59189024334E+02 -0.93076214623E+02  0.15142419359E+03  0.91122520367E+02 0.  0.
          5    1    3    3  502    0 -0.27178108287E+02 -0.95242076383E+02 -0.89251461659E+02  0.13339039880E+03  0.41800000000E+01 0.  1.
         -5    1    3    3    0  502 -0.22414737535E+02  0.36053052049E+02 -0.80975997612E+02  0.91525010844E+02  0.41800000000E+01 0.  1.
        -11    1    4    4    0    0  0.35781533372E+02  0.48761729320E+00 -0.82864795369E+02  0.90261454744E+02  0.00000000000E+00 0.  1.
         11    1    4    4    0    0  0.13811312449E+02  0.58701407041E+02 -0.10211419254E+02  0.61162738847E+02  0.00000000000E+00 0. -1.
</event>
<event>
 8    1  0.7224195E-009  0.8393140E+02  0.7561462E-02  0.1318251E+00
         -1   -1    0    0    0  501 -0.00000000000E+00  0.00000000000E+00  0.81707804482E+02  0.81707804482E+02  0.00000000000E+00 0.  1.
          1   -1    0    0  501    0  0.00000000000E+00 -0.00000000000E+00 -0.17150191779E+03  0.17150191779E+03  0.00000000000E+00 0. -1.
         25    2    1    2    0    0  0.98527093827E+01  0.30435246804E+02 -0.92208912542E+02  0.15866237746E+03  0.12509151185E+03 0.  0.
         23    2    1    2    0    0 -0.98527093827E+01 -0.30435246804E+02  0.24147992302E+01  0.94547344818E+02  0.88938119086E+02 0.  0.
          5    1    3    3  502    0  0.55147692981E+02 -0.93527191948E-01 -0.48115727559E+01  0.55514866666E+02  0.41800000000E+01 0.  1.
         -5    1    3    3    0  502 -0.45294983599E+02  0.30528773996E+02 -0.87397339786E+02  0.10314751079E+03  0.41800000000E+01 0.  1.
        -11    1    4    4    0    0 -0.21421317399E+02 -0.38231673001E+02  0.36936444523E+02  0.57313476544E+02  0.00000000000E+00 0.  1.
         11    1    4    4    0    0  0.11568608017E+02  0.77964261963E+01 -0.34521645293E+02  0.37233868274E+02  0.00000000000E+00 0. -1.
</event>
<event>
 8    1  0.7224195E-009  0.9611773E+02  0.7561462E-02  0.1288678E+00
         -2   -1    0    0    0  501 -0.00000000000E+00  0.00000000000E+00  0.10226201134E+02  0.10226201134E+02  0.00000000000E+00 0.  1.
          2   -1    0    0  501    0  0.00000000000E+00 -0.00000000000E+00 -0.20766269381E+04  0.20766269381E+04  0.00000000000E+00 0. -1.
         25    2    1    2    0    0 -0.16863937366E+02 -0.53680099172E+00 -0.18724816525E+04  0.18767313155E+04  0.12509280997E+03 0.  0.
         23    2    1    2    0    0  0.16863937366E+02  0.53680099172E+00 -0.19391908452E+03  0.21012182378E+03  0.79132098103E+02 0.  0.
          5    1    3    3  502    0 -0.63158360530E+02  0.27240156098E+02 -0.12503990822E+04  0.12522964273E+04  0.41800000000E+01 0.  1.
         -5    1    3    3    0  502  0.46294423164E+02 -0.27776957089E+02 -0.62208257021E+03  0.62443488814E+03  0.41800000000E+01 0.  1.
        -11    1    4    4    0    0  0.43019127722E+02  0.30197764796E+00 -0.60941733803E+02  0.74596457418E+02  0.00000000000E+00 0.  1.
         11    1    4    4    0    0 -0.26155190357E+02  0.23482334375E+00 -0.13297735072E+03  0.13552536636E+03  0.00000000000E+00 0. -1.
</event>
<event>
 8    1  0.7224195E-009  0.1935856E+03  0.7561462E-02  0.1155267E+00
          2   -1    0    0  501    0  0.00000000000E+00  0.00000000000E+00  0.78627286070E+03  0.78627286070E+03  0.00000000000E+00 0.  1.
         -2   -1    0    0    0  501 -0.00000000000E+00 -0.00000000000E+00 -0.83293390408E+02  0.83293390408E+02  0.00000000000E+00 0. -1.
         25    2    1    2    0    0  0.15633189987E+03 -0.59671626177E+02  0.63260571518E+03  0.66621145215E+03  0.12508933692E+03 0.  0.
         23    2    1    2    0    0 -0.15633189987E+03  0.59671626177E+02  0.70373755110E+02  0.20335479896E+03  0.91653384901E+02 0.  0.
          5    1    3    3  502    0 -0.11022605619E+02 -0.24262488804E+02  0.18604720067E+03  0.18799255165E+03  0.41800000000E+01 0.  1.
         -5    1    3    3    0  502  0.16735450549E+03 -0.35409137373E+02  0.44655851450E+03  0.47821890050E+03  0.41800000000E+01 0.  1.
        -11    1    4    4    0    0 -0.32970438392E+02  0.56818232263E+02  0.37563160011E+02  0.75672665575E+02  0.00000000000E+00 0.  1.
         11    1    4    4    0    0 -0.12336146148E+03  0.28533939139E+01  0.32810595098E+02  0.12768213338E+03  0.00000000000E+00 0. -1.
</event>
<event>
 8    1  0.7224195E-009  0.1277884E+03  0.7561462E-02  0.1230775E+00
         -2   -1    0    0    0  501 -0.00000000000E+00  0.00000000000E+00  0.47745248296E+02  0.47745248296E+02  0.00000000000E+00 0. -1.
          2   -1    0    0  501    0  0.00000000000E+00 -0.00000000000E+00 -0.49424561980E+03  0.49424561980E+03  0.00000000000E+00 0.  1.
         25    2    1    2    0    0 -0.55627057818E+02  0.91817627423E+02 -0.23163109013E+03  0.28429802305E+03  0.12509019838E+03 0.  0.
         23    2    1    2    0    0  0.55627057818E+02 -0.91817627423E+02 -0.21486928138E+03  0.25769284505E+03  0.93337816771E+02 0.  0.
          5    1    3    3  502    0  0.56517980957E+01  0.36516441114E+01  0.14059899380E+02  0.16137859121E+02  0.41800000000E+01 0.  1.
         -5    1    3    3    0  502 -0.61278855913E+02  0.88165983312E+02 -0.24569098951E+03  0.26816016393E+03  0.41800000000E+01 0.  1.
        -11    1    4    4    0    0 -0.12950688431E+02  0.10744024495E+02 -0.13678569000E+02  0.21685424669E+02  0.00000000000E+00 0. -1.
         11    1    4    4    0    0  0.68577746249E+02 -0.10256165192E+03 -0.20119071238E+03  0.23600742038E+03  0.00000000000E+00 0.  1.
</event>
<event>
 8    1  0.7224195E-009  0.1719808E+03  0.7561462E-02  0.1175798E+00
          1   -1    0    0  501    0  0.00000000000E+00  0.00000000000E+00  0.13077554638E+04  0.13077554638E+04  0.00000000000E+00 0. -1.
         -1   -1    0    0    0  501 -0.00000000000E+00 -0.00000000000E+00 -0.34299527614E+02  0.34299527614E+02  0.00000000000E+00 0.  1.
         25    2    1    2    0    0  0.32076495883E+02  0.14660082096E+03  0.99045269811E+03  0.10095364073E+04  0.12508600275E+03 0.  0.
         23    2    1    2    0    0 -0.32076495883E+02 -0.14660082096E+03  0.28300323813E+03  0.33251858421E+03  0.89202431364E+02 0.  0.
          5    1    3    3  502    0 -0.10151067852E+02  0.14924419216E+03  0.68624860680E+03  0.70237560878E+03  0.41800000000E+01 0.  1.
         -5    1    3    3    0  502  0.42227563735E+02 -0.26433711991E+01  0.30420409131E+03  0.30716079848E+03  0.41800000000E+01 0.  1.
        -11    1    4    4    0    0 -0.22083556099E+02 -0.49727424795E+02  0.31621897703E+02  0.62932063696E+02  0.00000000000E+00 0.  1.
         11    1    4    4    0    0 -0.99929397840E+01 -0.96873396166E+02  0.25138134043E+03  0.26958652052E+03  0.00000000000E+00 0. -1.
</event>
<event>
 8    1  0.7224195E-009  0.1922045E+03  0.7561462E-02  0.1156488E+00
          1   -1    0    0  501    0  0.00000000000E+00  0.00000000000E+00  0.74619588365E+02  0.74619588365E+02  0.00000000000E+00 0. -1.
         -1   -1    0    0    0  501 -0.00000000000E+00 -0.00000000000E+00 -0.66550892278E+03  0.66550892278E+03  0.00000000000E+00 0.  1.
         25    2    1    2    0    0 -0.82768985246E+02 -0.15136701898E+03 -0.16599530096E+03  0.27011518202E+03  0.12508034322E+03 0.  0.
         23    2    1    2    0    0  0.82768985246E+02  0.15136701898E+03 -0.42489403346E+03  0.47001332913E+03  0.10302868794E+03 0.  0.
          5    1    3    3  502    0 -0.62112926853E+02 -0.49698554144E+02 -0.14312072408E+03  0.16379553116E+03  0.41800000000E+01 0.  1.
         -5    1    3    3    0  502 -0.20656058393E+02 -0.10166846484E+03 -0.22874576881E+02  0.10631965086E+03  0.41800000000E+01 0.  1.
        -11    1    4    4    0    0  0.30671939451E+02 -0.92740198425E+01 -0.70270250907E+02  0.77231363294E+02  0.00000000000E+00 0. -1.
         11    1    4    4    0    0  0.52097045795E+02  0.16064103883E+03 -0.35462378255E+03  0.39278196584E+03  0.00000000000E+00 0.  1.
</event>
<event>
 8    1  0.7224195E-009  0.8430752E+02  0.7561462E-02  0.1317253E+00
          2   -1    0    0  501    0  0.00000000000E+00  0.00000000000E+00  0.65037261080E+02  0.65037261080E+02  0.00000000000E+00 0. -1.
         -2   -1    0    0    0  501 -0.00000000000E+00 -0.00000000000E+00 -0.42098521735E+03  0.42098521735E+03  0.00000000000E+00 0.  1.
         25    2    1    2    0    0 -0.16823142847E+02 -0.33789951566E+02 -0.36542865080E+03  0.38808531000E+03  0.12508928830E+03 0.  0.
         23    2    1    2    0    0  0.16823142847E+02  0.33789951566E+02  0.94806945316E+01  0.97937168433E+02  0.89872278428E+02 0.  0.
          5    1    3    3  502    0 -0.53095032897E+02 -0.72646635780E+00 -0.30734984091E+03  0.31193109396E+03  0.41800000000E+01 0. -1.
         -5    1    3    3    0  502  0.36271890049E+02 -0.33063485208E+02 -0.58078809891E+02  0.76154216037E+02  0.41800000000E+01 0. -1.
        -11    1    4    4    0    0  0.62765820383E+01  0.47993477281E+02  0.39913195558E+02  0.62736213810E+02  0.00000000000E+00 0. -1.
         11    1    4    4    0    0  0.10546560809E+02 -0.14203525715E+02 -0.30432501026E+02  0.35200954623E+02  0.00000000000E+00 0.  1.
</event>
<event>
 8    1  0.7224195E-009  0.1214426E+03  0.7561462E-02  0.1240736E+00
          1   -1    0    0  501    0  0.00000000000E+00  0.00000000000E+00  0.46929130653E+03  0.46929130653E+03  0.00000000000E+00 0. -1.
         -1   -1    0    0    0  501 -0.00000000000E+00 -0.00000000000E+00 -0.49366886972E+02  0.49366886972E+02  0.00000000000E+00 0.  1.
         25    2    1    2    0    0  0.50508711401E+02  0.66254426572E+02  0.33845843094E+03  0.37032656258E+03  0.12508746745E+03 0.  0.
         23    2    1    2    0    0 -0.50508711401E+02 -0.66254426572E+02  0.81465988618E+02  0.14833163092E+03  0.91786635530E+02 0.  0.
          5    1    3    3  502    0  0.23715008407E+02 -0.20514270604E+02  0.21332292645E+03  0.21565569844E+03  0.41800000000E+01 0. -1.
         -5    1    3    3    0  502  0.26793702994E+02  0.86768697176E+02  0.12513550449E+03  0.15467086414E+03  0.41800000000E+01 0. -1.
        -11    1    4    4    0    0 -0.61757209052E+02 -0.94981053493E+01  0.24441254378E+02  0.67093530171E+02  0.00000000000E+00 0.  1.
         11    1    4    4    0    0  0.11248497652E+02 -0.56756321222E+02  0.57024734239E+02  0.81238100748E+02  0.00000000000E+00 0. -1.
</event>
<event>
 8    1  0.7224195E-009  0.1217424E+03  0.7561462E-02  0.1240250E+00
          2   -1    0    0  501    0  0.00000000000E+00  0.00000000000E+00  0.17013819768E+03  0.17013819768E+03  0.00000000000E+00 0. -1.
         -2   -1    0    0    0  501 -0.00000000000E+00 -0.00000000000E+00 -0.11298017195E+03  0.11298017195E+03  0.00000000000E+00 0.  1.
         25    2    1    2    0    0 -0.69132294900E+02  0.15904729080E+02 -0.18002386293E+02  0.14493079874E+03  0.12509442796E+03 0.  0.
         23    2    1    2    0    0  0.69132294900E+02 -0.15904729080E+02  0.75160412019E+02  0.13818757088E+03  0.91730488971E+02 0.  0.
          5    1    3    3  502    0 -0.69822482391E+02  0.63453751472E+02 -0.16002059946E+01  0.94454172392E+02  0.41800000000E+01 0.  1.
         -5    1    3    3    0  502  0.69018749101E+00 -0.47549022392E+02 -0.16402180299E+02  0.50476626350E+02  0.41800000000E+01 0.  1.
        -11    1    4    4    0    0  0.37395359267E+02  0.28294630258E+02  0.68999947384E+02  0.83426564925E+02  0.00000000000E+00 0. -1.
         11    1    4    4    0    0  0.31736935633E+02 -0.44199359338E+02  0.61604646346E+01  0.54761005960E+02  0.00000000000E+00 0.  1.
</event>
<event>
 8    1  0.7224195E-009  0.1073780E+03  0.7561462E-02  0.1265504E+00
          2   -1    0    0  501    0  0.00000000000E+00  0.00000000000E+00  0.26331012091E+03  0.26331012091E+03  0.00000000000E+00 0. -1.
         -2   -1    0    0    0  501 -0.00000000000E+00 -0.00000000000E+00 -0.77819426010E+02  0.77819426010E+02  0.00000000000E+00 0.  1.
         25    2    1    2    0    0  0.37309523893E+02 -0.79682193460E+02  0.62429342319E+02  0.16518578827E+03  0.12509064448E+03 0.  0.
         23    2    1    2    0    0 -0.37309523893E+02  0.79682193460E+02  0.12306135258E+03  0.17594375865E+03  0.89837949562E+02 0.  0.
          5    1    3    3  502    0  0.33785218345E+02 -0.65567658460E+02 -0.23815907513E+02  0.77622346429E+02  0.41800000000E+01 0.  1.
         -5    1    3    3    0  502  0.35243055475E+01 -0.14114535000E+02  0.86245249833E+02  0.87563441838E+02  0.41800000000E+01 0.  1.
        -11    1    4    4    0    0 -0.42496281638E+02  0.97939229112E+02  0.10505345968E+03  0.14978069282E+03  0.00000000000E+00 0.  1.
         11    1    4    4    0    0  0.51867577449E+01 -0.18257035653E+02  0.18007892900E+02  0.26163065826E+02  0.00000000000E+00 0. -1.
</event>
<event>
 8    1  0.7224195E-009  0.1101749E+03  0.7561462E-02  0.1260246E+00
          1   -1    0    0  501    0  0.00000000000E+00  0.00000000000E+00  0.65167384031E+03  0.65167384031E+03  0.00000000000E+00 0. -1.
         -1   -1    0    0    0  501 -0.00000000000E+00 -0.00000000000E+00 -0.27012207645E+02  0.27012207645E+02  0.00000000000E+00 0.  1.
         25    2    1    2    0    0 -0.53487972685E+02  0.48350622932E+02  0.28158280952E+03  0.31644257052E+03  0.12509306880E+03 0.  0.
         23    2    1    2    0    0  0.53487972685E+02 -0.48350622932E+02  0.34307882315E+03  0.36224347743E+03  0.91205877505E+02 0.  0.
          5    1    3    3  502    0 -0.16528286605E+02  0.84939386717E+02  0.21538400391E+03  0.23215431336E+03  0.41800000000E+01 0. -1.
         -5    1    3    3    0  502 -0.36959686080E+02 -0.36588763785E+02  0.66198805610E+02  0.84288257158E+02  0.41800000000E+01 0. -1.
        -11    1    4    4    0    0  0.15762559094E+02  0.46966050029E+01  0.39381096606E+01  0.16912275880E+02  0.00000000000E+00 0.  1.
         11    1    4    4    0    0  0.37725413590E+02 -0.53047227935E+02  0.33914071349E+03  0.34533120155E+03  0.00000000000E+00 0. -1.
</event>
<event>
 8    1  0.7224195E-009  0.1064852E+03  0.7561462E-02  0.1267221E+00
          1   -1    0    0  501    0  0.00000000000E+00  0.00000000000E+00  0.40266855035E+02  0.40266855035E+02  0.00000000000E+00 0. -1.
         -1   -1    0    0    0  501 -0.00000000000E+00 -0.00000000000E+00 -0.32415555811E+03  0.32415555811E+03  0.00000000000E+00 0.  1.
         25    2    1    2    0    0  0.81457324822E+01  0.24788123646E+02 -0.12343644682E+03  0.17766386189E+03  0.12508831835E+03 0.  0.
         23    2    1    2    0    0 -0.81457324822E+01 -0.24788123646E+02 -0.16045225626E+03  0.18675855126E+03  0.91940338794E+02 0.  0.
          5    1    3    3  502    0 -0.40184656199E+02 -0.31169025031E+02 -0.32975566608E+02  0.60755041834E+02  0.41800000000E+01 0. -1.
         -5    1    3    3    0  502  0.48330388681E+02  0.55957148677E+02 -0.90460880209E+02  0.11690882005E+03  0.41800000000E+01 0. -1.
        -11    1    4    4    0    0  0.24546440823E+02  0.20534261051E+02 -0.26268185705E+02  0.41402913113E+02  0.00000000000E+00 0. -1.
         11    1    4    4    0    0 -0.32692173305E+02 -0.45322384698E+02 -0.13418407055E+03  0.14535563814E+03  0.00000000000E+00 0.  1.
</event>
<event>
 8    1  0.7224195E-009  0.9467553E+02  0.7561462E-02  0.1291909E+00
         -1   -1    0    0    0  501 -0.00000000000E+00  0.00000000000E+00  0.10938587098E+03  0.10938587098E+03  0.00000000000E+00 0.  1.
          1   -1    0    0  501    0  0.00000000000E+00 -0.00000000000E+00 -0.12840118938E+03  0.12840118938E+03  0.00000000000E+00 0. -1.
         25    2    1    2    0    0 -0.25374975770E+02 -0.37282232032E+01 -0.51941594002E+02  0.13784758276E+03  0.12508492252E+03 0.  0.
         23    2    1    2    0    0  0.25374975770E+02  0.37282232032E+01  0.32926275607E+02  0.99939477599E+02  0.90807326322E+02 0.  0.
          5    1    3    3  502    0 -0.46949422014E+02  0.31099158645E+02 -0.72437469031E+02  0.91848055045E+02  0.41800000000E+01 0. -1.
         -5    1    3    3    0  502  0.21574446244E+02 -0.34827381849E+02  0.20495875029E+02  0.45999527719E+02  0.41800000000E+01 0. -1.
        -11    1    4    4    0    0  0.54819086433E+02 -0.14962573332E+02  0.31642287196E+02  0.65040335001E+02  0.00000000000E+00 0. -1.
         11    1    4    4    0    0 -0.29444110663E+02  0.18690796535E+02  0.12839884113E+01  0.34899142598E+02  0.00000000000E+00 0.  1.
</event>
<event>
 8    1  0.7224195E-009  0.1120942E+03  0.7561462E-02  0.1256740E+00
          2   -1    0    0  501    0  0.00000000000E+00  0.00000000000E+00  0.86628394699E+02  0.86628394699E+02  0.00000000000E+00 0. -1.
         -2   -1    0    0    0  501 -0.00000000000E+00 -0.00000000000E+00 -0.18291091391E+03  0.18291091391E+03  0.00000000000E+00 0.  1.
         25    2    1    2    0    0  0.27879071311E+02  0.50562585031E+02 -0.82173386756E+02  0.16043097737E+03  0.12510721557E+03 0.  0.
         23    2    1    2    0    0 -0.27879071311E+02 -0.50562585031E+02 -0.14109132457E+02  0.10910833124E+03  0.91497227852E+02 0.  0.
          5    1    3    3  502    0 -0.34439217891E+01 -0.40703923321E+02 -0.21202307602E+02  0.46213420331E+02  0.41800000000E+01 0.  1.
         -5    1    3    3    0  502  0.31322993100E+02  0.91266508353E+02 -0.60971079154E+02  0.11421755704E+03  0.41800000000E+01 0.  1.
        -11    1    4    4    0    0 -0.13844484848E+02  0.14462446706E+02  0.24932147468E+02  0.31975679865E+02  0.00000000000E+00 0. -1.
         11    1    4    4    0    0 -0.14034586462E+02 -0.65025031738E+02 -0.39041279925E+02  0.77132651373E+02  0.00000000000E+00 0.  1.
</event>
<event>
 8    1  0.7224195E-009  0.1036346E+03  0.7561462E-02  0.1272833E+00
         -2   -1    0    0    0  501 -0.00000000000E+00  0.00000000000E+00  0.98800625714E+02  0.98800625714E+02  0.00000000000E+00 0.  1.
          2   -1    0    0  501    0  0.00000000000E+00 -0.00000000000E+00 -0.41041469162E+03  0.41041469162E+03  0.00000000000E+00 0. -1.
         25    2    1    2    0    0  0.68780997991E+01 -0.39467060528E+02 -0.37244485694E+03  0.39493282727E+03  0.12510719193E+03 0.  0.
         23    2    1    2    0    0 -0.68780997991E+01  0.39467060528E+02  0.60830791030E+02  0.11428249007E+03  0.88063302659E+02 0.  0.
          5    1    3    3  502    0 -0.48150081445E+02 -0.18868513123E+02 -0.71873945655E+02  0.88644162778E+02  0.41800000000E+01 0.  1.
         -5    1    3    3    0  502  0.55028181244E+02 -0.20598547404E+02 -0.30057091128E+03  0.30628866449E+03  0.41800000000E+01 0.  1.
        -11    1    4    4    0    0 -0.47254179740E+02  0.16644608889E+02  0.35827537634E+02  0.61592312515E+02  0.00000000000E+00 0.  1.
         11    1    4    4    0    0  0.40376079941E+02  0.22822451639E+02  0.25003253395E+02  0.52690177553E+02  0.00000000000E+00 0. -1.
</event>
<event>
 8    1  0.7224195E-009  0.1020182E+03  0.7561462E-02  0.1276108E+00
         -1   -1    0    0    0  501 -0.00000000000E+00  0.00000000000E+00  0.47929797291E+02  0.47929797291E+02  0.00000000000E+00 0.  1.
          1   -1    0    0  501    0  0.00000000000E+00 -0.00000000000E+00 -0.33101185069E+03  0.33101185069E+03  0.00000000000E+00 0. -1.
         25    2    1    2    0    0  0.46155020359E+02 -0.35428196309E+02 -0.21644766019E+03  0.25667838078E+03  0.12509499814E+03 0.  0.
         23    2    1    2    0    0 -0.46155020359E+02  0.35428196309E+02 -0.66634393205E+02  0.12226326720E+03  0.84396215259E+02 0.  0.
          5    1    3    3  502    0  0.10121628360E+01  0.40557034920E+02 -0.11524923978E+03  0.12225284138E+03  0.41800000000E+01 0. -1.
         -5    1    3    3    0  502  0.45142857523E+02 -0.75985231229E+02 -0.10119842042E+03  0.13442553941E+03  0.41800000000E+01 0. -1.
        -11    1    4    4    0    0 -0.15395079291E+02  0.40742521118E+02  0.52734745080E+01  0.43872212468E+02  0.00000000000E+00 0.  1.
         11    1    4    4    0    0 -0.30759941068E+02 -0.53143248093E+01 -0.71907867713E+02  0.78391054730E+02  0.00000000000E+00 0. -1.
</event>
<event>
 8    1  0.7224195E-009  0.1144145E+03  0.7561462E-02  0.1252607E+00
         -3   -1    0    0    0  501 -0.00000000000E+00  0.00000000000E+00  0.23574609439E+03  0.23574609439E+03  0.00000000000E+00 0.  1.
          3   -1    0    0  501    0  0.00000000000E+00 -0.00000000000E+00 -0.91780388911E+02  0.91780388911E+02  0.00000000000E+00 0. -1.
         25    2    1    2    0    0  0.79654439916E+02  0.28137277517E+02  0.13740421344E+03  0.20411932653E+03  0.12509294708E+03 0.  0.
         23    2    1    2    0    0 -0.79654439916E+02 -0.28137277517E+02  0.65614920389E+01  0.12340715677E+03  0.89720326455E+02 0.  0.
          5    1    3    3  502    0  0.63576181097E+02  0.49297984973E+02  0.19096176666E+02  0.82791053192E+02  0.41800000000E+01 0. -1.
         -5    1    3    3    0  502  0.16078258819E+02 -0.21160707456E+02  0.11830803677E+03  0.12132827334E+03  0.41800000000E+01 0. -1.
        -11    1    4    4    0    0 -0.69069440651E+02 -0.57679576111E+02  0.14224950609E+02  0.91103624253E+02  0.00000000000E+00 0.  1.
         11    1    4    4    0    0 -0.10584999265E+02  0.29542298594E+02 -0.76634585699E+01  0.32303532515E+02  0.00000000000E+00 0. -1.
</event>
<event>
 8    1  0.7224195E-009  0.1204945E+03  0.7561462E-02  0.1242284E+00
          2   -1    0    0  501    0  0.00000000000E+00  0.00000000000E+00  0.93711876094E+02  0.93711876094E+02  0.00000000000E+00 0. -1.
         -2   -1    0    0    0  501 -0.00000000000E+00 -0.00000000000E+00 -0.28623915620E+03  0.28623915620E+03  0.00000000000E+00 0.  1.
         25    2    1    2    0    0  0.88736625397E+02 -0.38197746599E+02 -0.19016480267E+03  0.24727062812E+03  0.12508738875E+03 0.  0.
         23    2    1    2    0    0 -0.88736625397E+02  0.38197746599E+02 -0.23624774379E+01  0.13268040417E+03  0.90913430359E+02 0.  0.
          5    1    3    3  502    0  0.93828258514E+02 -0.39112730595E+02 -0.20618750346E+03  0.22992239293E+03  0.41800000000E+01 0.  1.
         -5    1    3    3    0  502 -0.50916331167E+01  0.91498399563E+00  0.16022700790E+02  0.17348235187E+02  0.41800000000E+01 0.  1.
        -11    1    4    4    0    0 -0.39394102095E+02  0.65329655921E+02 -0.33523718631E+01  0.76361623999E+02  0.00000000000E+00 0.  1.
         11    1    4    4    0    0 -0.49342523302E+02 -0.27131909322E+02  0.98989442528E+00  0.56318780174E+02  0.00000000000E+00 0. -1.
</event>
<event>
 8    1  0.7224195E-009  0.1035630E+03  0.7561462E-02  0.1272977E+00
         -2   -1    0    0    0  501 -0.00000000000E+00  0.00000000000E+00  0.49706500696E+02  0.49706500696E+02  0.00000000000E+00 0.  1.
          2   -1    0    0  501    0  0.00000000000E+00 -0.00000000000E+00 -0.37601967572E+03  0.37601967572E+03  0.00000000000E+00 0. -1.
         25    2    1    2    0    0  0.31053996794E+02  0.66714108610E+02 -0.23623340273E+03  0.27725046271E+03  0.12508587251E+03 0.  0.
         23    2    1    2    0    0 -0.31053996794E+02 -0.66714108610E+02 -0.90079772291E+02  0.14847571371E+03  0.92279733312E+02 0.  0.
          5    1    3    3  502    0 -0.18496607732E+02 -0.20154469379E+02 -0.92515404359E+01  0.29178597190E+02  0.41800000000E+01 0. -1.
         -5    1    3    3    0  502  0.49550604526E+02  0.86868577989E+02 -0.22698186229E+03  0.24807186552E+03  0.41800000000E+01 0. -1.
        -11    1    4    4    0    0 -0.32180400440E+01 -0.42034292974E+02  0.85920944910E+01  0.43023966057E+02  0.00000000000E+00 0.  1.
         11    1    4    4    0    0 -0.27835956750E+02 -0.24679815635E+02 -0.98671866782E+02  0.10545174765E+03  0.00000000000E+00 0. -1.
</event>
<event>
 8    1  0.7224195E-009  0.1301803E+03  0.7561462E-02  0.1227188E+00
          2   -1    0    0  501    0  0.00000000000E+00  0.00000000000E+00  0.50059652820E+03  0.50059652820E+03  0.00000000000E+00 0. -1.
         -2   -1    0    0    0  501 -0.00000000000E+00 -0.00000000000E+00 -0.44651195230E+02  0.44651195230E+02  0.00000000000E+00 0.  1.
         25    2    1    2    0    0 -0.77209336904E+02 -0.56030149774E+02  0.31547176335E+03  0.35251957945E+03  0.12508781332E+03 0.  0.
         23    2    1    2    0    0  0.77209336904E+02  0.56030149774E+02  0.14047356962E+03  0.19272814397E+03  0.91162790260E+02 0.  0.
          5    1    3    3  502    0  0.29347596239E+02  0.65785316314E+01  0.95015887396E+02  0.99749936046E+02  0.41800000000E+01 0. -1.
         -5    1    3    3    0  502 -0.10655693314E+03 -0.62608681406E+02  0.22045587595E+03  0.25276964341E+03  0.41800000000E+01 0. -1.
        -11    1    4    4    0    0  0.23389270309E+02 -0.60651556917E+01  0.96599812351E+02  0.99575939992E+02  0.00000000000E+00 0. -1.
         11    1    4    4    0    0  0.53820066595E+02  0.62095305466E+02  0.43873757270E+02  0.93152203979E+02  0.00000000000E+00 0.  1.
</event>
<event>
 8    1  0.7224195E-009  0.1255397E+03  0.7561462E-02  0.1234228E+00
          1   -1    0    0  501    0  0.00000000000E+00  0.00000000000E+00  0.74812925409E+03  0.74812925409E+03  0.00000000000E+00 0. -1.
         -1   -1    0    0    0  501 -0.00000000000E+00 -0.00000000000E+00 -0.22665991276E+02  0.22665991276E+02  0.00000000000E+00 0.  1.
         25    2    1    2    0    0 -0.12258774915E+02  0.62984815932E+02  0.30854435992E+03  0.33906160385E+03  0.12508311064E+03 0.  0.
         23    2    1    2    0    0  0.12258774915E+02 -0.62984815932E+02  0.41691890289E+03  0.43173364151E+03  0.91952167040E+02 0.  0.
          5    1    3    3  502    0 -0.41070636605E+02 -0.23799032019E+02  0.83973613311E+02  0.96551702464E+02  0.41800000000E+01 0. -1.
         -5    1    3    3    0  502  0.28811861690E+02  0.86783847950E+02  0.22457074661E+03  0.24250990139E+03  0.41800000000E+01 0. -1.
        -11    1    4    4    0    0 -0.33590313459E+02 -0.56296978445E+02  0.25793014239E+03  0.26613082741E+03  0.00000000000E+00 0. -1.
         11    1    4    4    0    0  0.45849088373E+02 -0.66878374871E+01  0.15898876050E+03  0.16560281411E+03  0.00000000000E+00 0.  1.
</event>
<event>
 8    1  0.7224195E-009  0.1125543E+03  0.7561462E-02  0.1255912E+00
         -2   -1    0    0    0  501 -0.00000000000E+00  0.00000000000E+00  0.20430411282E+03  0.20430411282E+03  0.00000000000E+00 0. -1.
          2   -1    0    0  501    0  0.00000000000E+00 -0.00000000000E+00 -0.79853301669E+02  0.79853301669E+02  0.00000000000E+00 0.  1.
         25    2    1    2    0    0 -0.27384748899E+02 -0.61212344346E+02  0.62358652253E+02  0.15502725948E+03  0.12509186264E+03 0.  0.
         23    2    1    2    0    0  0.27384748899E+02  0.61212344346E+02  0.62092158902E+02  0.12913015501E+03  0.91226559534E+02 0.  0.
          5    1    3    3  502    0  0.18317319844E+02  0.23458068078E+02  0.49437653505E+02  0.57856366532E+02  0.41800000000E+01 0.  1.
         -5    1    3    3    0  502 -0.45702068742E+02 -0.84670412425E+02  0.12920998749E+02  0.97170892947E+02  0.41800000000E+01 0.  1.
        -11    1    4    4    0    0  0.52384643826E+02  0.43751611407E+02  0.10296084144E+02  0.69024370755E+02  0.00000000000E+00 0.  1.
         11    1    4    4    0    0 -0.24999894927E+02  0.17460732940E+02  0.51796074758E+02  0.60105784260E+02  0.00000000000E+00 0. -1.
</event>
<event>
 8    1  0.7224195E-009  0.1192881E+03  0.7561462E-02  0.1244276E+00
          1   -1    0    0  501    0  0.00000000000E+00  0.00000000000E+00  0.10901525699E+03  0.10901525699E+03  0.00000000000E+00 0. -1.
         -1   -1    0    0    0  501 -0.00000000000E+00 -0.00000000000E+00 -0.13684754574E+03  0.13684754574E+03  0.00000000000E+00 0.  1.
         25    2    1    2    0    0  0.48657157800E+02  0.39586352096E+01  0.11815865953E+01  0.13428514470E+03  0.12509162299E+03 0.  0.
         23    2    1    2    0    0 -0.48657157800E+02 -0.39586352096E+01 -0.29013875347E+02  0.11157765803E+03  0.96044671959E+02 0.  0.
          5    1    3    3  502    0 -0.33170096301E+02  0.33187304364E+02 -0.29126491379E+01  0.47197546383E+02  0.41800000000E+01 0. -1.
         -5    1    3    3    0  502  0.81827254101E+02 -0.29228669154E+02  0.40942357332E+01  0.87087598316E+02  0.41800000000E+01 0. -1.
        -11    1    4    4    0    0 -0.35087419235E+02 -0.47395612703E+02 -0.27475262209E+01  0.59034057902E+02  0.00000000000E+00 0.  1.
         11    1    4    4    0    0 -0.13569738565E+02  0.43436977493E+02 -0.26266349126E+02  0.52543600132E+02  0.00000000000E+00 0. -1.
</event>
<event>
 8    1  0.7224195E-009  0.7997511E+02  0.7561462E-02  0.1329122E+00
          1   -1    0    0  501    0  0.00000000000E+00  0.00000000000E+00  0.53563091403E+02  0.53563091403E+02  0.00000000000E+00 0. -1.
         -1   -1    0    0    0  501 -0.00000000000E+00 -0.00000000000E+00 -0.32567788371E+03  0.32567788371E+03  0.00000000000E+00 0.  1.
         25    2    1    2    0    0 -0.31473128011E+02 -0.28367283660E+02 -0.23880624349E+03  0.27289403574E+03  0.12508985669E+03 0.  0.
         23    2    1    2    0    0  0.31473128011E+02  0.28367283660E+02 -0.33308548824E+02  0.10634693937E+03  0.91678522678E+02 0.  0.
          5    1    3    3  502    0  0.18270277336E+02  0.32604345278E+02 -0.25340134520E+02  0.45348000865E+02  0.41800000000E+01 0. -1.
         -5    1    3    3    0  502 -0.49743405347E+02 -0.60971628938E+02 -0.21346610897E+03  0.22754603488E+03  0.41800000000E+01 0. -1.
        -11    1    4    4    0    0  0.19592156486E+02  0.10906319295E+02  0.31226817110E+02  0.38443653614E+02  0.00000000000E+00 0. -1.
         11    1    4    4    0    0  0.11880971525E+02  0.17460964365E+02 -0.64535365934E+02  0.67903285761E+02  0.00000000000E+00 0.  1.
</event>
<event>
 8    1  0.7224195E-009  0.1341260E+03  0.7561462E-02  0.1221459E+00
         -2   -1    0    0    0  501 -0.00000000000E+00  0.00000000000E+00  0.12582711368E+03  0.12582711368E+03  0.00000000000E+00 0.  1.
          2   -1    0    0  501    0  0.00000000000E+00 -0.00000000000E+00 -0.14799399803E+03  0.14799399803E+03  0.00000000000E+00 0. -1.
         25    2    1    2    0    0  0.47954894493E+01  0.81175912214E+02 -0.14566158524E+02  0.14990692983E+03  0.12508952472E+03 0.  0.
         23    2    1    2    0    0 -0.47954894493E+01 -0.81175912214E+02 -0.76007258178E+01  0.12391418188E+03  0.93190278431E+02 0.  0.
          5    1    3    3  502    0  0.64742082915E+02  0.39869831068E+02 -0.43201769458E+01  0.76271076159E+02  0.41800000000E+01 0.  1.
         -5    1    3    3    0  502 -0.59946593466E+02  0.41306081146E+02 -0.10245981579E+02  0.73635853674E+02  0.41800000000E+01 0.  1.
        -11    1    4    4    0    0  0.35183384631E+02 -0.68899036830E+02  0.11004092199E+02  0.78141140734E+02  0.00000000000E+00 0.  1.
         11    1    4    4    0    0 -0.39978874080E+02 -0.12276875385E+02 -0.18604818017E+02  0.45773041141E+02  0.00000000000E+00 0. -1.
</event>
<event>
 8    1  0.7224195E-009  0.1014108E+03  0.7561462E-02  0.1277357E+00
         -2   -1    0    0    0  501 -0.00000000000E+00  0.00000000000E+00  0.14896422567E+03  0.14896422567E+03  0.00000000000E+00 0.  1.
          2   -1    0    0  501    0  0.00000000000E+00 -0.00000000000E+00 -0.10025304308E+03  0.10025304308E+03  0.00000000000E+00 0. -1.
         25    2    1    2    0    0 -0.56109982150E+02 -0.67242815033E+01  0.36989133265E+02  0.14215946080E+03  0.12509024845E+03 0.  0.
         23    2    1    2    0    0  0.56109982150E+02  0.67242815033E+01  0.11722049326E+02  0.10705780794E+03  0.90168851288E+02 0.  0.
          5    1    3    3  502    0  0.38130717454E+02  0.13105418794E+02  0.64745202777E+01  0.41049913863E+02  0.41800000000E+01 0. -1.
         -5    1    3    3    0  502 -0.94240699604E+02 -0.19829700297E+02  0.30514612987E+02  0.10110954694E+03  0.41800000000E+01 0. -1.
        -11    1    4    4    0    0  0.45590412801E+02 -0.94851473916E+01  0.47422492332E+02  0.66463121650E+02  0.00000000000E+00 0.  1.
         11    1    4    4    0    0  0.10519569349E+02  0.16209428895E+02 -0.35700443007E+02  0.40594686293E+02  0.00000000000E+00 0. -1.
</event>
<event>
 8    1  0.7224195E-009  0.1028181E+03  0.7561462E-02  0.1274479E+00
          1   -1    0    0  501    0  0.00000000000E+00  0.00000000000E+00  0.45695176137E+02  0.45695176137E+02  0.00000000000E+00 0. -1.
         -1   -1    0    0    0  501 -0.00000000000E+00 -0.00000000000E+00 -0.36812399002E+03  0.36812399002E+03  0.00000000000E+00 0.  1.
         25    2    1    2    0    0  0.90979419669E+01  0.62266866391E+02 -0.22902375612E+03  0.26843531935E+03  0.12508279102E+03 0.  0.
         23    2    1    2    0    0 -0.90979419669E+01 -0.62266866391E+02 -0.93405057769E+02  0.14538384681E+03  0.91934884010E+02 0.  0.
          5    1    3    3  502    0  0.49666422555E+02  0.75566485265E+01 -0.17284601573E+03  0.18004742159E+03  0.41800000000E+01 0.  1.
         -5    1    3    3    0  502 -0.40568480588E+02  0.54710217864E+02 -0.56177740385E+02  0.88387897761E+02  0.41800000000E+01 0.  1.
        -11    1    4    4    0    0 -0.30875534146E+02 -0.13736110408E+02  0.43713192637E+01  0.34074738004E+02  0.00000000000E+00 0. -1.
         11    1    4    4    0    0  0.21777592179E+02 -0.48530755983E+02 -0.97776377032E+02  0.11130910880E+03  0.00000000000E+00 0.  1.
</event>
<event>
 8    1  0.7224195E-009  0.1227072E+03  0.7561462E-02  0.1238697E+00
          1   -1    0    0  501    0  0.00000000000E+00  0.00000000000E+00  0.79982846485E+02  0.79982846485E+02  0.00000000000E+00 0. -1.
         -1   -1    0    0    0  501 -0.00000000000E+00 -0.00000000000E+00 -0.25183434824E+03  0.25183434824E+03  0.00000000000E+00 0.  1.
         25    2    1    2    0    0  0.49005342120E+02 -0.55100770406E+02 -0.30806077816E+02  0.14843764807E+03  0.12508837867E+03 0.  0.
         23    2    1    2    0    0 -0.49005342120E+02  0.55100770406E+02 -0.14104542394E+03  0.18337954665E+03  0.91085827992E+02 0.  0.
          5    1    3    3  502    0  0.11478380887E+02  0.40561419774E+02 -0.88631388746E+01  0.43278281304E+02  0.41800000000E+01 0.  1.
         -5    1    3    3    0  502  0.37526961233E+02 -0.95662190180E+02 -0.21942938941E+02  0.10515936677E+03  0.41800000000E+01 0.  1.
        -11    1    4    4    0    0  0.50281099991E+01  0.44949777575E+02 -0.11288353791E+03  0.12160780208E+03  0.00000000000E+00 0.  1.
         11    1    4    4    0    0 -0.54033452119E+02  0.10150992831E+02 -0.28161886024E+02  0.61771744575E+02  0.00000000000E+00 0. -1.
</event>
<event>
 8    1  0.7224195E-009  0.2223151E+03  0.7561462E-02  0.1132169E+00
         -1   -1    0    0    0  501 -0.00000000000E+00  0.00000000000E+00  0.93195377122E+02  0.93195377122E+02  0.00000000000E+00 0.  1.
          1   -1    0    0  501    0  0.00000000000E+00 -0.00000000000E+00 -0.91736693690E+03  0.91736693690E+03  0.00000000000E+00 0. -1.
         25    2    1    2    0    0 -0.20548604792E+03  0.40452047678E+02 -0.12333833052E+03  0.27335047255E+03  0.12508898040E+03 0.  0.
         23    2    1    2    0    0  0.20548604792E+03 -0.40452047678E+02 -0.70083322926E+03  0.73721184147E+03  0.91941285213E+02 0.  0.
          5    1    3    3  502    0 -0.17406170882E+03  0.14047338722E+02 -0.38292587513E+02  0.17882561578E+03  0.41800000000E+01 0. -1.
         -5    1    3    3    0  502 -0.31424339098E+02  0.26404708956E+02 -0.85045743007E+02  0.94524856765E+02  0.41800000000E+01 0. -1.
        -11    1    4    4    0    0  0.38300393484E+02  0.28610406411E+02 -0.15120316080E+03  0.15858080379E+03  0.00000000000E+00 0.  1.
         11    1    4    4    0    0  0.16718565443E+03 -0.69062454089E+02 -0.54963006846E+03  0.57863103768E+03  0.00000000000E+00 0. -1.
</event>
<event>
 8    1  0.7224195E-009  0.3366240E+03  0.7561462E-02  0.1068243E+00
          4   -1    0    0  501    0  0.00000000000E+00  0.00000000000E+00  0.37455631416E+03  0.37455631416E+03  0.00000000000E+00 0.  1.
         -4   -1    0    0    0  501 -0.00000000000E+00 -0.00000000000E+00 -0.41671575617E+03  0.41671575617E+03  0.00000000000E+00 0. -1.
         25    2    1    2    0    0  0.31564283590E+03  0.42623523364E+02 -0.22710034866E+03  0.41069453542E+03  0.12509303923E+03 0.  0.
         23    2    1    2    0    0 -0.31564283590E+03 -0.42623523364E+02  0.18494090665E+03  0.38057753491E+03  0.95859045108E+02 0.  0.
          5    1    3    3  502    0  0.18689322636E+03  0.84534011437E+02 -0.15577094327E+03  0.25759878943E+03  0.41800000000E+01 0.  1.
         -5    1    3    3    0  502  0.12874960954E+03 -0.41910488073E+02 -0.71329405391E+02  0.15309574599E+03  0.41800000000E+01 0.  1.
        -11    1    4    4    0    0 -0.16651123059E+03 -0.70646157471E+02  0.10088752785E+03  0.20711147422E+03  0.00000000000E+00 0.  1.
         11    1    4    4    0    0 -0.14913160531E+03  0.28022634107E+02  0.84053378800E+02  0.17346606069E+03  0.00000000000E+00 0. -1.
</event>
<event>
 8    1  0.7224195E-009  0.3015715E+03  0.7561462E-02  0.1084458E+00
          1   -1    0    0  501    0  0.00000000000E+00  0.00000000000E+00  0.16700909864E+04  0.16700909864E+04  0.00000000000E+00 0. -1.
         -1   -1    0    0    0  501 -0.00000000000E+00 -0.00000000000E+00 -0.57026966956E+02  0.57026966956E+02  0.00000000000E+00 0.  1.
         25    2    1    2    0    0  0.26154330961E+02 -0.28514097932E+03  0.92242309853E+03  0.97391002611E+03  0.12508772581E+03 0.  0.
         23    2    1    2    0    0 -0.26154330961E+02  0.28514097932E+03  0.69064092090E+03  0.75320792723E+03  0.91366694704E+02 0.  0.
          5    1    3    3  502    0  0.59201691747E+02 -0.72894096088E+02  0.35310354446E+03  0.36540111530E+03  0.41800000000E+01 0. -1.
         -5    1    3    3    0  502 -0.33047360786E+02 -0.21224688323E+03  0.56931955406E+03  0.60850891081E+03  0.41800000000E+01 0. -1.
        -11    1    4    4    0    0 -0.44756201590E+02  0.11931916795E+03  0.22515023785E+03  0.25871376273E+03  0.00000000000E+00 0. -1.
         11    1    4    4    0    0  0.18601870629E+02  0.16582181137E+03  0.46549068305E+03  0.49449416450E+03  0.00000000000E+00 0.  1.
</event>
<event>
 8    1  0.7224195E-009  0.2295859E+03  0.7561462E-02  0.1126932E+00
         -1   -1    0    0    0  501 -0.00000000000E+00  0.00000000000E+00  0.45227539961E+02  0.45227539961E+02  0.00000000000E+00 0.  1.
          1   -1    0    0  501    0  0.00000000000E+00 -0.00000000000E+00 -0.12976613871E+04  0.12976613871E+04  0.00000000000E+00 0. -1.
         25    2    1    2    0    0 -0.58567172864E+02 -0.20198944618E+03 -0.50717439229E+03  0.56311918318E+03  0.12508996828E+03 0.  0.
         23    2    1    2    0    0  0.58567172864E+02  0.20198944618E+03 -0.74525945490E+03  0.77976974393E+03  0.91647958677E+02 0.  0.
          5    1    3    3  502    0 -0.65056325640E+02 -0.28839969455E+02 -0.15490513400E+03  0.17052021078E+03  0.41800000000E+01 0.  1.
         -5    1    3    3    0  502  0.64891527761E+01 -0.17314947673E+03 -0.35226925829E+03  0.39259897240E+03  0.41800000000E+01 0.  1.
        -11    1    4    4    0    0  0.53903679841E+02  0.11039410259E+03 -0.55662976461E+03  0.57002557788E+03  0.00000000000E+00 0. -1.
         11    1    4    4    0    0  0.46634930228E+01  0.91595343591E+02 -0.18862969029E+03  0.20974416606E+03  0.00000000000E+00 0.  1.
</event>
<event>
 8    1  0.7224195E-009  0.1109173E+03  0.7561462E-02  0.1258881E+00
          1   -1    0    0  501    0  0.00000000000E+00  0.00000000000E+00  0.80839662864E+02  0.80839662864E+02  0.00000000000E+00 0. -1.
         -1   -1    0    0    0  501 -0.00000000000E+00 -0.00000000000E+00 -0.17857726824E+03  0.17857726824E+03  0.00000000000E+00 0.  1.
         25    2    1    2    0    0  0.50652696696E+02  0.21703447270E+02 -0.57848983187E+02  0.14842356442E+03  0.12508522820E+03 0.  0.
         23    2    1    2    0    0 -0.50652696696E+02 -0.21703447270E+02 -0.39888622186E+02  0.11099336668E+03  0.87702280246E+02 0.  0.
          5    1    3    3  502    0 -0.14757756772E+02 -0.37996373542E+02 -0.41408512661E+02  0.58255069377E+02  0.41800000000E+01 0.  1.
         -5    1    3    3    0  502  0.65410453468E+02  0.59699820812E+02 -0.16440470526E+02  0.90168495047E+02  0.41800000000E+01 0.  1.
        -11    1    4    4    0    0 -0.56290991410E+02 -0.42577507072E+02 -0.60528340220E+01  0.70838948482E+02  0.00000000000E+00 0. -1.
         11    1    4    4    0    0  0.56382947139E+01  0.20874059801E+02 -0.33835788164E+02  0.40154418195E+02  0.00000000000E+00 0.  1.
</event>
<event>
 8    1  0.7224195E-009  0.1266451E+03  0.7561462E-02  0.1232520E+00
          2   -1    0    0  501    0  0.00000000000E+00  0.00000000000E+00  0.65326438978E+03  0.65326438978E+03  0.00000000000E+00 0. -1.
         -2   -1    0    0    0  501 -0.00000000000E+00 -0.00000000000E+00 -0.28842511392E+02  0.28842511392E+02  0.00000000000E+00 0.  1.
         25    2    1    2    0    0 -0.13275087448E+02 -0.80807994464E+02  0.30121766641E+03  0.33628307942E+03  0.12509223408E+03 0.  0.
         23    2    1    2    0    0  0.13275087448E+02  0.80807994464E+02  0.32320421198E+03  0.34582382176E+03  0.91798655421E+02 0.  0.
          5    1    3    3  502    0 -0.42369697949E+02 -0.98958007268E+02  0.17568546077E+03  0.20608428381E+03  0.41800000000E+01 0.  1.
         -5    1    3    3    0  502  0.29094610501E+02  0.18150012803E+02  0.12553220564E+03  0.13019879561E+03  0.41800000000E+01 0.  1.
        -11    1    4    4    0    0  0.44582369321E+02  0.43148644829E+02  0.10302942970E+03  0.12026826925E+03  0.00000000000E+00 0.  1.
         11    1    4    4    0    0 -0.31307281873E+02  0.37659349635E+02  0.22017478228E+03  0.22555555251E+03  0.00000000000E+00 0. -1.
</event>
<event>
 8    1  0.7224195E-009  0.1527423E+03  0.7561462E-02  0.1197143E+00
          2   -1    0    0  501    0  0.00000000000E+00  0.00000000000E+00  0.69017973872E+03  0.69017973872E+03  0.00000000000E+00 0. -1.
         -2   -1    0    0    0  501 -0.00000000000E+00 -0.00000000000E+00 -0.39756693252E+02  0.39756693252E+02  0.00000000000E+00 0.  1.
         25    2    1    2    0    0  0.77371856005E+01 -0.12417737515E+03  0.32904188462E+03  0.37335732944E+03  0.12508896461E+03 0.  0.
         23    2    1    2    0    0 -0.77371856005E+01  0.12417737515E+03  0.32138116085E+03  0.35657910254E+03  0.91558294437E+02 0.  0.
          5    1    3    3  502    0  0.58036687487E+02 -0.67164190086E+02  0.24151447984E+03  0.25734413127E+03  0.41800000000E+01 0. -1.
         -5    1    3    3    0  502 -0.50299501886E+02 -0.57013185065E+02  0.87527404780E+02  0.11601319817E+03  0.41800000000E+01 0. -1.
        -11    1    4    4    0    0  0.28549277687E+02  0.43737726769E+02  0.54500595351E+02  0.75487514815E+02  0.00000000000E+00 0.  1.
         11    1    4    4    0    0 -0.36286463288E+02  0.80439648382E+02  0.26688056550E+03  0.28109158773E+03  0.00000000000E+00 0. -1.
</event>
<event>
 8    1  0.7224195E-009  0.1218105E+03  0.7561462E-02  0.1240140E+00
         -1   -1    0    0    0  501 -0.00000000000E+00  0.00000000000E+00  0.11673159286E+02  0.11673159286E+02  0.00000000000E+00 0.  1.
          1   -1    0    0  501    0  0.00000000000E+00 -0.00000000000E+00 -0.21182430585E+04  0.21182430585E+04  0.00000000000E+00 0. -1.
         25    2    1    2    0    0  0.88038472690E+01 -0.69200225969E+02 -0.17385302859E+04  0.17444204859E+04  0.12509635276E+03 0.  0.
         23    2    1    2    0    0 -0.88038472690E+01  0.69200225969E+02 -0.36803961323E+03  0.38549573185E+03  0.91036384847E+02 0.  0.
          5    1    3    3  502    0  0.56440924317E+01  0.36410473654E+02 -0.51159293483E+03  0.51293506581E+03  0.41800000000E+01 0. -1.
         -5    1    3    3    0  502  0.31597548373E+01 -0.10561069962E+03 -0.12269373511E+04  0.12314854201E+04  0.41800000000E+01 0. -1.
        -11    1    4    4    0    0  0.30036321993E+02  0.13589945290E+02 -0.47258971622E+02  0.57621850462E+02  0.00000000000E+00 0.  1.
         11    1    4    4    0    0 -0.38840169262E+02  0.55610280679E+02 -0.32078064161E+03  0.32787388139E+03  0.00000000000E+00 0. -1.
</event>
<event>
 8    1  0.7224195E-009  0.2272923E+03  0.7561462E-02  0.1128560E+00
          1   -1    0    0  501    0  0.00000000000E+00  0.00000000000E+00  0.10729808931E+03  0.10729808931E+03  0.00000000000E+00 0. -1.
         -1   -1    0    0    0  501 -0.00000000000E+00 -0.00000000000E+00 -0.49840600930E+03  0.49840600930E+03  0.00000000000E+00 0.  1.
         25    2    1    2    0    0 -0.12167649789E+03 -0.16313348527E+03 -0.18770000818E+03  0.30380410109E+03  0.12509170481E+03 0.  0.
         23    2    1    2    0    0  0.12167649789E+03  0.16313348527E+03 -0.20340791181E+03  0.30189999752E+03  0.91384494110E+02 0.  0.
          5    1    3    3  502    0 -0.98796662101E+02 -0.34616995209E+02 -0.58054772105E+02  0.11977873669E+03  0.41800000000E+01 0. -1.
         -5    1    3    3    0  502 -0.22879835787E+02 -0.12851649007E+03 -0.12964523608E+03  0.18402536440E+03  0.41800000000E+01 0. -1.
        -11    1    4    4    0    0  0.80313907203E+02  0.40817788171E+02 -0.56629207613E+02  0.10641091427E+03  0.00000000000E+00 0. -1.
         11    1    4    4    0    0  0.41362590685E+02  0.12231569710E+03 -0.14677870419E+03  0.19548908325E+03  0.00000000000E+00 0.  1.
</event>
<event>
 8    1  0.7224195E-009  0.1077425E+03  0.7561462E-02  0.1264808E+00
          2   -1    0    0  501    0  0.00000000000E+00  0.00000000000E+00  0.29838283222E+03  0.29838283222E+03  0.00000000000E+00 0. -1.
         -2   -1    0    0    0  501 -0.00000000000E+00 -0.00000000000E+00 -0.47289026088E+02  0.47289026088E+02  0.00000000000E+00 0.  1.
         25    2    1    2    0    0  0.29076402513E+02 -0.15292623110E+01  0.19734974509E+03  0.23546266612E+03  0.12509184395E+03 0.  0.
         23    2    1    2    0    0 -0.29076402513E+02  0.15292623110E+01  0.53744061044E+02  0.11020919219E+03  0.91705322202E+02 0.  0.
          5    1    3    3  502    0  0.57863098589E+02  0.41566162919E+02  0.14536173223E+03  0.16193637539E+03  0.41800000000E+01 0. -1.
         -5    1    3    3    0  502 -0.28786696076E+02 -0.43095425230E+02  0.51988012863E+02  0.73526290727E+02  0.41800000000E+01 0. -1.
        -11    1    4    4    0    0 -0.59190069918E+02  0.11706345407E+02  0.49691771749E+02  0.78165050241E+02  0.00000000000E+00 0. -1.
         11    1    4    4    0    0  0.30113667405E+02 -0.10177083096E+02  0.40522892956E+01  0.32044141952E+02  0.00000000000E+00 0.  1.
</event>
<event>
 8    1  0.7224195E-009  0.8594889E+02  0.7561462E-02  0.1312970E+00
          3   -1    0    0  501    0  0.00000000000E+00  0.00000000000E+00  0.32140556805E+02  0.32140556805E+02  0.00000000000E+00 0. -1.
         -3   -1    0    0    0  501 -0.00000000000E+00 -0.00000000000E+00 -0.36932037642E+03  0.36932037642E+03  0.00000000000E+00 0.  1.
         25    2    1    2    0    0 -0.70603846949E+01  0.88639313919E+01 -0.23153696552E+03  0.26341101453E+03  0.12509027884E+03 0.  0.
         23    2    1    2    0    0  0.70603846949E+01 -0.88639313919E+01 -0.10564285409E+03  0.13804991870E+03  0.88141642370E+02 0.  0.
          5    1    3    3  502    0  0.47469857926E+02  0.39800054981E+02 -0.10138837579E+03  0.11888863248E+03  0.41800000000E+01 0. -1.
         -5    1    3    3    0  502 -0.54530242621E+02 -0.30936123590E+02 -0.13014858973E+03  0.14452238205E+03  0.41800000000E+01 0. -1.
        -11    1    4    4    0    0 -0.33006569292E+01  0.17939167589E+02  0.86589877356E+01  0.20191239153E+02  0.00000000000E+00 0. -1.
         11    1    4    4    0    0  0.10361041624E+02 -0.26803098981E+02 -0.11430184183E+03  0.11785867954E+03  0.00000000000E+00 0.  1.
</event>
<event>
 8    1  0.7224195E-009  0.1092215E+03  0.7561462E-02  0.1262018E+00
         -2   -1    0    0    0  501 -0.00000000000E+00  0.00000000000E+00  0.25681521400E+03  0.25681521400E+03  0.00000000000E+00 0.  1.
          2   -1    0    0  501    0  0.00000000000E+00 -0.00000000000E+00 -0.63357228851E+02  0.63357228851E+02  0.00000000000E+00 0. -1.
         25    2    1    2    0    0 -0.48031531734E+02  0.15411512014E+02  0.48245853274E+02  0.14324776134E+03  0.12509083111E+03 0.  0.
         23    2    1    2    0    0  0.48031531734E+02 -0.15411512014E+02  0.14521213188E+03  0.17692468151E+03  0.87585597785E+02 0.  0.
          5    1    3    3  502    0  0.31880537428E+02  0.32328136931E+02  0.40686578041E+02  0.61109304830E+02  0.41800000000E+01 0. -1.
         -5    1    3    3    0  502 -0.79912069163E+02 -0.16916624917E+02  0.75592752326E+01  0.82138456514E+02  0.41800000000E+01 0. -1.
        -11    1    4    4    0    0  0.41711066342E+02 -0.44674510823E+02  0.12930690606E+03  0.14302412708E+03  0.00000000000E+00 0.  1.
         11    1    4    4    0    0  0.63204653923E+01  0.29262998809E+02  0.15905225814E+02  0.33900554424E+02  0.00000000000E+00 0. -1.
</event>
<event>
 8    1  0.7224195E-009  0.9705393E+02  0.7561462E-02  0.1286616E+00
          1   -1    0    0  501    0  0.00000000000E+00  0.00000000000E+00  0.20849362823E+03  0.20849362823E+03  0.00000000000E+00 0. -1.
         -1   -1    0    0    0  501 -0.00000000000E+00 -0.00000000000E+00 -0.83005455457E+02  0.83005455457E+02  0.00000000000E+00 0.  1.
         25    2    1    2    0    0 -0.48870694741E+01 -0.32405535689E+02 -0.31885089408E+01  0.12935404028E+03  0.12509316111E+03 0.  0.
         23    2    1    2    0    0  0.48870694741E+01  0.32405535689E+02  0.12867668171E+03  0.16214504340E+03  0.93055491466E+02 0.  0.
          5    1    3    3  502    0 -0.46404514333E+02  0.28495888749E+02 -0.87824385432E+01  0.55317250952E+02  0.41800000000E+01 0. -1.
         -5    1    3    3    0  502  0.41517444859E+02 -0.60901424438E+02  0.55939296023E+01  0.74036789332E+02  0.41800000000E+01 0. -1.
        -11    1    4    4    0    0  0.17208881217E+02 -0.11081454291E+02 -0.49693846732E+01  0.21062739755E+02  0.00000000000E+00 0.  1.
         11    1    4    4    0    0 -0.12321811743E+02  0.43486989980E+02  0.13364606638E+03  0.14108230365E+03  0.00000000000E+00 0. -1.
</event>
<event>
 8    1  0.7224195E-009  0.1267144E+03  0.7561462E-02  0.1232414E+00
         -2   -1    0    0    0  501 -0.00000000000E+00  0.00000000000E+00  0.52864104966E+02  0.52864104966E+02  0.00000000000E+00 0.  1.
          2   -1    0    0  501    0  0.00000000000E+00 -0.00000000000E+00 -0.32213072301E+03  0.32213072301E+03  0.00000000000E+00 0. -1.
         25    2    1    2    0    0  0.20455829303E+02 -0.66325706276E+02 -0.17754513174E+03  0.22800887726E+03  0.12509290164E+03 0.  0.
         23    2    1    2    0    0 -0.20455829303E+02  0.66325706276E+02 -0.91721486302E+02  0.14698595071E+03  0.91512285463E+02 0.  0.
          5    1    3    3  502    0  0.52857309790E+02  0.11807258640E+02 -0.96781036694E+02  0.11098354841E+03  0.41800000000E+01 0.  1.
         -5    1    3    3    0  502 -0.32401480487E+02 -0.78132964916E+02 -0.80764095045E+02  0.11702532885E+03  0.41800000000E+01 0.  1.
        -11    1    4    4    0    0  0.35864147713E+02  0.34324468263E+02 -0.33491018210E+02  0.59883674850E+02  0.00000000000E+00 0. -1.
         11    1    4    4    0    0 -0.56319977017E+02  0.32001238013E+02 -0.58230468092E+02  0.87102275858E+02  0.00000000000E+00 0.  1.
</event>
<event>
 8    1  0.7224195E-009  0.2400982E+03  0.7561462E-02  0.1119727E+00
         -1   -1    0    0    0  501 -0.00000000000E+00  0.00000000000E+00  0.47027656242E+03  0.47027656242E+03  0.00000000000E+00 0.  1.
          1   -1    0    0  501    0  0.00000000000E+00 -0.00000000000E+00 -0.12604263906E+03  0.12604263906E+03  0.00000000000E+00 0. -1.
         25    2    1    2    0    0 -0.25523172067E+02  0.21609675378E+03  0.19085343561E+03  0.31531449393E+03  0.12509579085E+03 0.  0.
         23    2    1    2    0    0  0.25523172067E+02 -0.21609675378E+03  0.15338048775E+03  0.28100470755E+03  0.89937936012E+02 0.  0.
          5    1    3    3  502    0 -0.72505152617E+02  0.12266746270E+03  0.13656109124E+03  0.19740999873E+03  0.41800000000E+01 0. -1.
         -5    1    3    3    0  502  0.46981980550E+02  0.93429291084E+02  0.54292344377E+02  0.11790449519E+03  0.41800000000E+01 0. -1.
        -11    1    4    4    0    0  0.56280376125E+02 -0.14309159382E+03  0.81455285539E+02  0.17400473701E+03  0.00000000000E+00 0.  1.
         11    1    4    4    0    0 -0.30757204058E+02 -0.73005159963E+02  0.71925202211E+02  0.10699997054E+03  0.00000000000E+00 0. -1.
</event>
<event>
 8    1  0.7224195E-009  0.3579515E+03  0.7561462E-02  0.1059398E+00
          1   -1    0    0  501    0  0.00000000000E+00  0.00000000000E+00  0.83301035189E+03  0.83301035189E+03  0.00000000000E+00 0. -1.
         -1   -1    0    0    0  501 -0.00000000000E+00 -0.00000000000E+00 -0.18900683879E+03  0.18900683879E+03  0.00000000000E+00 0.  1.
         25    2    1    2    0    0 -0.16305587956E+03 -0.31167594689E+03  0.51508078898E+03  0.63614878201E+03  0.12509171815E+03 0.  0.
         23    2    1    2    0    0  0.16305587956E+03  0.31167594689E+03  0.12892272412E+03  0.38586840867E+03  0.92435081464E+02 0.  0.
          5    1    3    3  502    0 -0.11062727872E+03 -0.15203136920E+03  0.36593208134E+03  0.41143127321E+03  0.41800000000E+01 0. -1.
         -5    1    3    3    0  502 -0.52428600838E+02 -0.15964457769E+03  0.14914870763E+03  0.22471750880E+03  0.41800000000E+01 0. -1.
        -11    1    4    4    0    0  0.86170860127E+02  0.87719576545E+02  0.17594153222E+02  0.12421632530E+03  0.00000000000E+00 0.  1.
         11    1    4    4    0    0  0.76885019435E+02  0.22395637035E+03  0.11132857090E+03  0.26165208337E+03  0.00000000000E+00 0. -1.
</event>
<event>
 8    1  0.7224195E-009  0.1363995E+03  0.7561462E-02  0.1218257E+00
          1   -1    0    0  501    0  0.00000000000E+00  0.00000000000E+00  0.29690009651E+03  0.29690009651E+03  0.00000000000E+00 0. -1.
         -1   -1    0    0    0  501 -0.00000000000E+00 -0.00000000000E+00 -0.94077048714E+02  0.94077048714E+02  0.00000000000E+00 0.  1.
         25    2    1    2    0    0 -0.10554185787E+03  0.34995013802E+02  0.35045517191E+02  0.17099502419E+03  0.12508946906E+03 0.  0.
         23    2    1    2    0    0  0.10554185787E+03 -0.34995013802E+02  0.16777753060E+03  0.21998212103E+03  0.88764289234E+02 0.  0.
          5    1    3    3  502    0 -0.12014137955E+03 -0.33559782890E+01  0.45268673913E+02  0.12849878952E+03  0.41800000000E+01 0. -1.
         -5    1    3    3    0  502  0.14599521683E+02  0.38350992091E+02 -0.10223156722E+02  0.42496234669E+02  0.41800000000E+01 0. -1.
        -11    1    4    4    0    0  0.94235270625E+02 -0.29699236102E+02  0.17817338806E+03  0.20373533584E+03  0.00000000000E+00 0. -1.
         11    1    4    4    0    0  0.11306587246E+02 -0.52957776996E+01 -0.10395857463E+02  0.16246785189E+02  0.00000000000E+00 0.  1.
</event>
<event>
 8    1  0.7224195E-009  0.1787663E+03  0.7561462E-02  0.1169002E+00
         -1   -1    0    0    0  501 -0.00000000000E+00  0.00000000000E+00  0.39722255540E+03  0.39722255540E+03  0.00000000000E+00 0.  1.
          1   -1    0    0  501    0  0.00000000000E+00 -0.00000000000E+00 -0.10448690456E+03  0.10448690456E+03  0.00000000000E+00 0. -1.
         25    2    1    2    0    0 -0.11680284425E+03  0.12214730140E+03  0.11719832880E+03  0.24072181996E+03  0.12509467880E+03 0.  0.
         23    2    1    2    0    0  0.11680284425E+03 -0.12214730140E+03  0.17553732204E+03  0.26098764000E+03  0.93479030474E+02 0.  0.
          5    1    3    3  502    0 -0.26782332422E+01  0.37158308074E+02  0.87652394509E+02  0.95332719752E+02  0.41800000000E+01 0. -1.
         -5    1    3    3    0  502 -0.11412461101E+03  0.84988993331E+02  0.29545934293E+02  0.14538910020E+03  0.41800000000E+01 0. -1.
        -11    1    4    4    0    0  0.10313000656E+03 -0.72167737234E+02  0.71504546404E+02  0.14476491532E+03  0.00000000000E+00 0. -1.
         11    1    4    4    0    0  0.13672837684E+02 -0.49979564170E+02  0.10403277564E+03  0.11622272468E+03  0.00000000000E+00 0.  1.
</event>
<event>
 8    1  0.7224195E-009  0.8702089E+02  0.7561462E-02  0.1310231E+00
          1   -1    0    0  501    0  0.00000000000E+00  0.00000000000E+00  0.72386649616E+02  0.72386649616E+02  0.00000000000E+00 0. -1.
         -1   -1    0    0    0  501 -0.00000000000E+00 -0.00000000000E+00 -0.22142335312E+03  0.22142335312E+03  0.00000000000E+00 0.  1.
         25    2    1    2    0    0 -0.49870060322E+02  0.37365817970E+01 -0.38072333403E+02  0.14000361788E+03  0.12510206029E+03 0.  0.
         23    2    1    2    0    0  0.49870060322E+02 -0.37365817970E+01 -0.11096437010E+03  0.15380638485E+03  0.94033651580E+02 0.  0.
          5    1    3    3  502    0  0.93207288635E+01  0.14434685026E+02 -0.69706127622E+02  0.71914204066E+02  0.41800000000E+01 0. -1.
         -5    1    3    3    0  502 -0.59190789186E+02 -0.10698103229E+02  0.31633794219E+02  0.68089413816E+02  0.41800000000E+01 0. -1.
        -11    1    4    4    0    0  0.55413169419E+02  0.29219040551E+02 -0.10114787851E+03  0.11897590093E+03  0.00000000000E+00 0.  1.
         11    1    4    4    0    0 -0.55431090974E+01 -0.32955622349E+02 -0.98164915885E+01  0.34830483918E+02  0.00000000000E+00 0. -1.
</event>
<event>
 8    1  0.7224195E-009  0.1013954E+03  0.7561462E-02  0.1277389E+00
          1   -1    0    0  501    0  0.00000000000E+00  0.00000000000E+00  0.21314639317E+02  0.21314639317E+02  0.00000000000E+00 0. -1.
         -1   -1    0    0    0  501 -0.00000000000E+00 -0.00000000000E+00 -0.68639523925E+03  0.68639523925E+03  0.00000000000E+00 0.  1.
         25    2    1    2    0    0 -0.94775968868E+01  0.38288431562E+02 -0.49839126001E+03  0.51536141504E+03  0.12509081188E+03 0.  0.
         23    2    1    2    0    0  0.94775968868E+01 -0.38288431562E+02 -0.16668933992E+03  0.19234846353E+03  0.87502951635E+02 0.  0.
          5    1    3    3  502    0 -0.38483095498E+02 -0.33862374496E+02 -0.24198224814E+03  0.24738732760E+03  0.41800000000E+01 0.  1.
         -5    1    3    3    0  502  0.29005498611E+02  0.72150806058E+02 -0.25640901188E+03  0.26797408743E+03  0.41800000000E+01 0.  1.
        -11    1    4    4    0    0 -0.21992140624E+02 -0.35672895974E+02 -0.28701836168E+02  0.50793751149E+02  0.00000000000E+00 0.  1.
         11    1    4    4    0    0  0.31469737511E+02 -0.26155355885E+01 -0.13798750375E+03  0.14155471238E+03  0.00000000000E+00 0. -1.
</event>
<event>
 8    1  0.7224195E-009  0.1280610E+03  0.7561462E-02  0.1230362E+00
         -2   -1    0    0    0  501 -0.00000000000E+00  0.00000000000E+00  0.27604598264E+03  0.27604598264E+03  0.00000000000E+00 0. -1.
          2   -1    0    0  501    0  0.00000000000E+00 -0.00000000000E+00 -0.62124366472E+02  0.62124366472E+02  0.00000000000E+00 0.  1.
         25    2    1    2    0    0 -0.51702057645E+02 -0.47268796319E+02  0.13397504035E+03  0.19622003634E+03  0.12508217040E+03 0.  0.
         23    2    1    2    0    0  0.51702057645E+02  0.47268796319E+02  0.79946575822E+02  0.14195031278E+03  0.94079723866E+02 0.  0.
          5    1    3    3  502    0 -0.37371081910E+02 -0.89126387279E+02  0.10695061397E+03  0.14420824145E+03  0.41800000000E+01 0. -1.
         -5    1    3    3    0  502 -0.14330975734E+02  0.41857590960E+02  0.27024426380E+02  0.52011794889E+02  0.41800000000E+01 0. -1.
        -11    1    4    4    0    0  0.63643924358E+02 -0.25720724836E+01  0.58182354093E+02  0.86269061617E+02  0.00000000000E+00 0. -1.
         11    1    4    4    0    0 -0.11941866713E+02  0.49840868803E+02  0.21764221728E+02  0.55681251163E+02  0.00000000000E+00 0.  1.
</event>
<event>
 8    1  0.7224195E-009  0.1059192E+03  0.7561462E-02  0.1268319E+00
         -2   -1    0    0    0  501 -0.00000000000E+00  0.00000000000E+00  0.14661346540E+02  0.14661346540E+02  0.00000000000E+00 0.  1.
          2   -1    0    0  501    0  0.00000000000E+00 -0.00000000000E+00 -0.16915237029E+04  0.16915237029E+04  0.00000000000E+00 0. -1.
         25    2    1    2    0    0 -0.29714809445E+02 -0.32753208273E+02 -0.14501211232E+04  0.14561778788E+04  0.12508796894E+03 0.  0.
         23    2    1    2    0    0  0.29714809445E+02  0.32753208273E+02 -0.22674123312E+03  0.25000717068E+03  0.95583764529E+02 0.  0.
          5    1    3    3  502    0 -0.77320113704E+02 -0.69001662180E+01 -0.92059305833E+03  0.92386961403E+03  0.41800000000E+01 0. -1.
         -5    1    3    3    0  502  0.47605304259E+02 -0.25853042055E+02 -0.52952806491E+03  0.53230826473E+03  0.41800000000E+01 0. -1.
        -11    1    4    4    0    0  0.49100150792E+02  0.10422776239E+02 -0.50138952898E+02  0.70946273123E+02  0.00000000000E+00 0.  1.
         11    1    4    4    0    0 -0.19385341347E+02  0.22330432034E+02 -0.17660228022E+03  0.17906089756E+03  0.00000000000E+00 0. -1.
</event>
<event>
 8    1  0.7224195E-009  0.1103734E+03  0.7561462E-02  0.1259880E+00
          1   -1    0    0  501    0  0.00000000000E+00  0.00000000000E+00  0.51423492765E+03  0.51423492765E+03  0.00000000000E+00 0. -1.
         -1   -1    0    0    0  501 -0.00000000000E+00 -0.00000000000E+00 -0.30104225530E+02  0.30104225530E+02  0.00000000000E+00 0.  1.
         25    2    1    2    0    0 -0.13397710781E+02 -0.56453713577E+02  0.24522196837E+03  0.28133179038E+03  0.12508893666E+03 0.  0.
         23    2    1    2    0    0  0.13397710781E+02  0.56453713577E+02  0.23890873374E+03  0.26300736280E+03  0.93428953737E+02 0.  0.
          5    1    3    3  502    0 -0.80742969187E+01  0.35753401859E+02  0.31653076355E+02  0.48609563441E+02  0.41800000000E+01 0.  1.
         -5    1    3    3    0  502 -0.53234138620E+01 -0.92207115437E+02  0.21356889202E+03  0.23272222694E+03  0.41800000000E+01 0.  1.
        -11    1    4    4    0    0  0.48304376719E+01 -0.16885197152E+02  0.58179697601E+01  0.18501129238E+02  0.00000000000E+00 0.  1.
         11    1    4    4    0    0  0.85672731089E+01  0.73338910729E+02  0.23309076398E+03  0.24450623356E+03  0.00000000000E+00 0. -1.
</event>
<event>
 8    1  0.7224195E-009  0.1128894E+03  0.7561462E-02  0.1255311E+00
         -2   -1    0    0    0  501 -0.00000000000E+00  0.00000000000E+00  0.55074003104E+02  0.55074003104E+02  0.00000000000E+00 0.  1.
          2   -1    0    0  501    0  0.00000000000E+00 -0.00000000000E+00 -0.31902980491E+03  0.31902980491E+03  0.00000000000E+00 0. -1.
         25    2    1    2    0    0 -0.15942043446E+02  0.33782147168E+02 -0.53758359434E+02  0.14118550696E+03  0.12509198196E+03 0.  0.
         23    2    1    2    0    0  0.15942043446E+02 -0.33782147168E+02 -0.21019744237E+03  0.23291830106E+03  0.93126730697E+02 0.  0.
          5    1    3    3  502    0  0.48579824161E+02  0.39031453841E+02 -0.41981260088E+02  0.75255247678E+02  0.41800000000E+01 0.  1.
         -5    1    3    3    0  502 -0.64521867606E+02 -0.52493066735E+01 -0.11777099346E+02  0.65930259282E+02  0.41800000000E+01 0.  1.
        -11    1    4    4    0    0  0.40210624309E+02  0.15835771351E+02 -0.11506944178E+03  0.12291721764E+03  0.00000000000E+00 0. -1.
         11    1    4    4    0    0 -0.24268580863E+02 -0.49617918518E+02 -0.95128000591E+02  0.11000108341E+03  0.00000000000E+00 0.  1.
</event>
<event>
 8    1  0.7224195E-009  0.1649418E+03  0.7561462E-02  0.1183228E+00
          1   -1    0    0  501    0  0.00000000000E+00  0.00000000000E+00  0.17766857121E+03  0.17766857121E+03  0.00000000000E+00 0. -1.
         -1   -1    0    0    0  501 -0.00000000000E+00 -0.00000000000E+00 -0.21753632164E+03  0.21753632164E+03  0.00000000000E+00 0.  1.
         25    2    1    2    0    0 -0.16216079501E+02 -0.15976778395E+03  0.10785332704E+02  0.20384494539E+03  0.12509089629E+03 0.  0.
         23    2    1    2    0    0  0.16216079501E+02  0.15976778395E+03 -0.50653083140E+02  0.19135994746E+03  0.90907582946E+02 0.  0.
          5    1    3    3  502    0 -0.10237358447E+02 -0.10910853530E+03 -0.53214545890E+02  0.12189641618E+03  0.41800000000E+01 0. -1.
         -5    1    3    3    0  502 -0.59787210540E+01 -0.50659248657E+02  0.63999878594E+02  0.81948529212E+02  0.41800000000E+01 0. -1.
        -11    1    4    4    0    0  0.33091397182E+02  0.13545782422E+03 -0.69978555498E+02  0.15601557915E+03  0.00000000000E+00 0.  1.
         11    1    4    4    0    0 -0.16875317681E+02  0.24309959739E+02  0.19325472358E+02  0.35344368309E+02  0.00000000000E+00 0. -1.
</event>
<event>
 8    1  0.7224195E-009  0.6541381E+02  0.7561462E-02  0.1376422E+00
          2   -1    0    0  501    0  0.00000000000E+00  0.00000000000E+00  0.29358254057E+03  0.29358254057E+03  0.00000000000E+00 0. -1.
         -2   -1    0    0    0  501 -0.00000000000E+00 -0.00000000000E+00 -0.62516498688E+02  0.62516498688E+02  0.00000000000E+00 0.  1.
         25    2    1    2    0    0 -0.20195300477E+02 -0.50050628830E+01  0.24350985016E+02  0.12911976004E+03  0.12508413627E+03 0.  0.
         23    2    1    2    0    0  0.20195300477E+02  0.50050628830E+01  0.20671505686E+03  0.22697927921E+03  0.91408848811E+02 0.  0.
          5    1    3    3  502    0  0.82392561080E+01 -0.46623803217E+01 -0.49134918651E+02  0.50212904340E+02  0.41800000000E+01 0. -1.
         -5    1    3    3    0  502 -0.28434556585E+02 -0.34268256131E+00  0.73485903666E+02  0.78906855704E+02  0.41800000000E+01 0. -1.
        -11    1    4    4    0    0 -0.14009152781E+02  0.40252881918E+02  0.73030882405E+02  0.84558031252E+02  0.00000000000E+00 0.  1.
         11    1    4    4    0    0  0.34204453257E+02 -0.35247819035E+02  0.13368417446E+03  0.14242124796E+03  0.00000000000E+00 0. -1.
</event>
<event>
 8    1  0.7224195E-009  0.1155718E+03  0.7561462E-02  0.1250586E+00
          2   -1    0    0  501    0  0.00000000000E+00  0.00000000000E+00  0.74266082602E+03  0.74266082602E+03  0.00000000000E+00 0. -1.
         -2   -1    0    0    0  501 -0.00000000000E+00 -0.00000000000E+00 -0.18838528792E+02  0.18838528792E+02  0.00000000000E+00 0.  1.
         25    2    1    2    0    0 -0.42106734101E+02 -0.57590275052E+01  0.33377437066E+03  0.35896949704E+03  0.12509047061E+03 0.  0.
         23    2    1    2    0    0  0.42106734101E+02  0.57590275052E+01  0.39004792657E+03  0.40252985778E+03  0.89926402838E+02 0.  0.
          5    1    3    3  502    0 -0.20244898769E+02 -0.65243065226E+02  0.16424811644E+03  0.17793658882E+03  0.41800000000E+01 0. -1.
         -5    1    3    3    0  502 -0.21861835331E+02  0.59484037721E+02  0.16952625422E+03  0.18103290822E+03  0.41800000000E+01 0. -1.
        -11    1    4    4    0    0  0.11748464720E+02  0.46738560078E+02  0.17469226518E+03  0.18121784387E+03  0.00000000000E+00 0.  1.
         11    1    4    4    0    0  0.30358269381E+02 -0.40979532573E+02  0.21535566138E+03  0.22131201391E+03  0.00000000000E+00 0. -1.
</event>
<event>
 8    1  0.7224195E-009  0.1182846E+03  0.7561462E-02  0.1245954E+00
          2   -1    0    0  501    0  0.00000000000E+00  0.00000000000E+00  0.15755345965E+03  0.15755345965E+03  0.00000000000E+00 0. -1.
         -2   -1    0    0    0  501 -0.00000000000E+00 -0.00000000000E+00 -0.10323531290E+03  0.10323531290E+03  0.00000000000E+00 0.  1.
         25    2    1    2    0    0  0.25125386469E+02  0.64045808915E+02  0.16136391727E+02  0.14367043737E+03  0.12509061017E+03 0.  0.
         23    2    1    2    0    0 -0.25125386469E+02 -0.64045808915E+02  0.38181755026E+02  0.11711833518E+03  0.86750834769E+02 0.  0.
          5    1    3    3  502    0  0.39941657919E+02 -0.27998702894E+02 -0.36021486189E-01  0.48956481682E+02  0.41800000000E+01 0. -1.
         -5    1    3    3    0  502 -0.14816271450E+02  0.92044511809E+02  0.16172413213E+02  0.94713955693E+02  0.41800000000E+01 0. -1.
        -11    1    4    4    0    0 -0.36837638153E+02 -0.88779203064E+01 -0.13890139798E+02  0.40357961263E+02  0.00000000000E+00 0.  1.
         11    1    4    4    0    0  0.11712251684E+02 -0.55167888609E+02  0.52071894824E+02  0.76760373915E+02  0.00000000000E+00 0. -1.
</event>
<event>
 8    1  0.7224195E-009  0.9811928E+02  0.7561462E-02  0.1284301E+00
          2   -1    0    0  501    0  0.00000000000E+00  0.00000000000E+00  0.23451994385E+03  0.23451994385E+03  0.00000000000E+00 0. -1.
         -2   -1    0    0    0  501 -0.00000000000E+00 -0.00000000000E+00 -0.61733796479E+02  0.61733796479E+02  0.00000000000E+00 0.  1.
         25    2    1    2    0    0 -0.25349971354E+02  0.77238012954E+01  0.42961651890E+02  0.13489141563E+03  0.12509081630E+03 0.  0.
         23    2    1    2    0    0  0.25349971354E+02 -0.77238012954E+01  0.12982449548E+03  0.16136232469E+03  0.92093007611E+02 0.  0.
          5    1    3    3  502    0 -0.22795665334E+02 -0.44151062622E+02  0.61868496832E+02  0.79461575550E+02  0.41800000000E+01 0.  1.
         -5    1    3    3    0  502 -0.25543060195E+01  0.51874863917E+02 -0.18906844942E+02  0.55429840080E+02  0.41800000000E+01 0.  1.
        -11    1    4    4    0    0  0.26759156829E+02  0.39124010230E+02  0.79770054179E+02  0.92790097502E+02  0.00000000000E+00 0. -1.
         11    1    4    4    0    0 -0.14091854751E+01 -0.46847811526E+02  0.50054441297E+02  0.68572227192E+02  0.00000000000E+00 0.  1.
</event>
<event>
 8    1  0.7224195E-009  0.1347538E+03  0.7561462E-02  0.1220568E+00
          1   -1    0    0  501    0  0.00000000000E+00  0.00000000000E+00  0.60958486701E+02  0.60958486701E+02  0.00000000000E+00 0. -1.
         -1   -1    0    0    0  501 -0.00000000000E+00 -0.00000000000E+00 -0.42041132080E+03  0.42041132080E+03  0.00000000000E+00 0.  1.
         25    2    1    2    0    0 -0.64916775261E+02  0.49984069438E+02 -0.66163320897E+02  0.16351624280E+03  0.12508949484E+03 0.  0.
         23    2    1    2    0    0  0.64916775261E+02 -0.49984069438E+02 -0.29328951320E+03  0.31785356470E+03  0.91101894237E+02 0.  0.
          5    1    3    3  502    0 -0.66543251980E+02 -0.25961294520E+02 -0.19092051484E+02  0.74053845458E+02  0.41800000000E+01 0.  1.
         -5    1    3    3    0  502  0.16264767190E+01  0.75945363958E+02 -0.47071269413E+02  0.89462397338E+02  0.41800000000E+01 0.  1.
        -11    1    4    4    0    0  0.71271199510E+02  0.22325613750E+00 -0.15519770876E+03  0.17078045125E+03  0.00000000000E+00 0. -1.
         11    1    4    4    0    0 -0.63544242489E+01 -0.50207325575E+02 -0.13809180444E+03  0.14707311345E+03  0.00000000000E+00 0.  1.
</event>
<event>
 8    1  0.7224195E-009  0.1992940E+03  0.7561462E-02  0.1150336E+00
         -1   -1    0    0    0  501 -0.00000000000E+00  0.00000000000E+00  0.57403570435E+03  0.57403570435E+03  0.00000000000E+00 0.  1.
          1   -1    0    0  501    0  0.00000000000E+00 -0.00000000000E+00 -0.74336955381E+02  0.74336955381E+02  0.00000000000E+00 0. -1.
         25    2    1    2    0    0  0.17320510763E+03  0.28561866524E+02  0.27062897567E+03  0.34598144629E+03  0.12508928481E+03 0.  0.
         23    2    1    2    0    0 -0.17320510763E+03 -0.28561866524E+02  0.22906977329E+03  0.30239121344E+03  0.90286739910E+02 0.  0.
          5    1    3    3  502    0  0.17039623221E+01  0.32216087013E+02  0.95120588057E+02  0.10052949031E+03  0.41800000000E+01 0. -1.
         -5    1    3    3    0  502  0.17150114530E+03 -0.36542204889E+01  0.17550838762E+03  0.24545195597E+03  0.41800000000E+01 0. -1.
        -11    1    4    4    0    0 -0.15086926989E+03  0.85938558209E+01  0.19789496987E+03  0.24899359440E+03  0.00000000000E+00 0.  1.
         11    1    4    4    0    0 -0.22335837738E+02 -0.37155722345E+02  0.31174803420E+02  0.53397619036E+02  0.00000000000E+00 0. -1.
</event>
<event>
 8    1  0.7224195E-009  0.1281770E+03  0.7561462E-02  0.1230186E+00
          2   -1    0    0  501    0  0.00000000000E+00  0.00000000000E+00  0.35504675181E+03  0.35504675181E+03  0.00000000000E+00 0.  1.
         -2   -1    0    0    0  501 -0.00000000000E+00 -0.00000000000E+00 -0.70166050644E+02  0.70166050644E+02  0.00000000000E+00 0. -1.
         25    2    1    2    0    0  0.70878858068E+02 -0.87737354152E+02  0.14452689461E+03  0.22193775296E+03  0.12508671827E+03 0.  0.
         23    2    1    2    0    0 -0.70878858068E+02  0.87737354152E+02  0.14035380655E+03  0.20327504949E+03  0.94339275477E+02 0.  0.
          5    1    3    3  502    0 -0.70832031490E+01  0.12279438619E+02  0.76609741809E+02  0.78022312960E+02  0.41800000000E+01 0. -1.
         -5    1    3    3    0  502  0.77962061217E+02 -0.10001679277E+03  0.67917152801E+02  0.14391544000E+03  0.41800000000E+01 0. -1.
        -11    1    4    4    0    0 -0.49092330475E+02  0.44420581668E+02  0.13633613913E+02  0.67595269180E+02  0.00000000000E+00 0. -1.
         11    1    4    4    0    0 -0.21786527593E+02  0.43316772484E+02  0.12672019264E+03  0.13567978031E+03  0.00000000000E+00 0.  1.
</event>
<event>
 8    1  0.7224195E-009  0.9643363E+02  0.7561462E-02  0.1287979E+00
         -2   -1    0    0    0  501 -0.00000000000E+00  0.00000000000E+00  0.13402474587E+02  0.13402474587E+02  0.00000000000E+00 0. -1.
          2   -1    0    0  501    0  0.00000000000E+00 -0.00000000000E+00 -0.11666501605E+04  0.11666501605E+04  0.00000000000E+00 0.  1.
         25    2    1    2    0    0  0.31482707347E+02  0.23592518698E+02 -0.88017808805E+03  0.88989279839E+03  0.12509179886E+03 0.  0.
         23    2    1    2    0    0 -0.31482707347E+02 -0.23592518698E+02 -0.27306959785E+03  0.29015983668E+03  0.89877459654E+02 0.  0.
          5    1    3    3  502    0 -0.28072166658E+02  0.34562105510E+02 -0.65961865451E+03  0.66113298772E+03  0.41800000000E+01 0.  1.
         -5    1    3    3    0  502  0.59554874005E+02 -0.10969586812E+02 -0.22055943353E+03  0.22875981066E+03  0.41800000000E+01 0.  1.
        -11    1    4    4    0    0 -0.56591008701E+02 -0.25888350444E+02 -0.24337397055E+03  0.25120437595E+03  0.00000000000E+00 0.  1.
         11    1    4    4    0    0  0.25108301354E+02  0.22958317464E+01 -0.29695627298E+02  0.38955460733E+02  0.00000000000E+00 0. -1.
</event>
<event>
 8    1  0.7224195E-009  0.1283302E+03  0.7561462E-02  0.1229955E+00
          1   -1    0    0  501    0  0.00000000000E+00  0.00000000000E+00  0.55220225077E+03  0.55220225077E+03  0.00000000000E+00 0. -1.
         -1   -1    0    0    0  501 -0.00000000000E+00 -0.00000000000E+00 -0.34943643058E+02  0.34943643058E+02  0.00000000000E+00 0.  1.
         25    2    1    2    0    0  0.75950915895E+02  0.39442170817E+02  0.28539726035E+03  0.32314541440E+03  0.12508851332E+03 0.  0.
         23    2    1    2    0    0 -0.75950915895E+02 -0.39442170817E+02  0.23186134736E+03  0.26400047943E+03  0.92802706189E+02 0.  0.
          5    1    3    3  502    0  0.71038942980E+02 -0.23491800037E+02  0.21885471733E+03  0.23132932323E+03  0.41800000000E+01 0. -1.
         -5    1    3    3    0  502  0.49119729157E+01  0.62933970854E+02  0.66542543022E+02  0.91816091167E+02  0.41800000000E+01 0. -1.
        -11    1    4    4    0    0 -0.93681390796E+02 -0.29986990636E+02  0.14757641047E+03  0.17735337470E+03  0.00000000000E+00 0.  1.
         11    1    4    4    0    0  0.17730474901E+02 -0.94551801807E+01  0.84284936887E+02  0.86647104732E+02  0.00000000000E+00 0. -1.
</event>
<event>
 8    1  0.7224195E-009  0.1509786E+03  0.7561462E-02  0.1199276E+00
          2   -1    0    0  501    0  0.00000000000E+00  0.00000000000E+00  0.13778725565E+03  0.13778725565E+03  0.00000000000E+00 0. -1.
         -2   -1    0    0    0  501 -0.00000000000E+00 -0.00000000000E+00 -0.23723245811E+03  0.23723245811E+03  0.00000000000E+00 0.  1.
         25    2    1    2    0    0 -0.32671698534E+02 -0.11887147449E+03  0.24476741346E+02  0.17732180299E+03  0.12508414614E+03 0.  0.
         23    2    1    2    0    0  0.32671698534E+02  0.11887147449E+03 -0.12392194380E+03  0.19769791078E+03  0.92357719969E+02 0.  0.
          5    1    3    3  502    0 -0.31773542972E+02  0.17829058174E+02  0.16803483737E+02  0.40339345732E+02  0.41800000000E+01 0.  1.
         -5    1    3    3    0  502 -0.89815556171E+00 -0.13670053266E+03  0.76732576086E+01  0.13698245726E+03  0.41800000000E+01 0.  1.
        -11    1    4    4    0    0  0.38238467540E+02  0.73945374624E+02 -0.12751790980E+03  0.15228563999E+03  0.00000000000E+00 0.  1.
         11    1    4    4    0    0 -0.55667690068E+01  0.44926099864E+02  0.35959660009E+01  0.45412270783E+02  0.00000000000E+00 0. -1.
</event>
<event>
 8    1  0.7224195E-009  0.1129134E+03  0.7561462E-02  0.1255268E+00
          1   -1    0    0  501    0  0.00000000000E+00  0.00000000000E+00  0.55720566864E+02  0.55720566864E+02  0.00000000000E+00 0. -1.
         -1   -1    0    0    0  501 -0.00000000000E+00 -0.00000000000E+00 -0.37695547142E+03  0.37695547142E+03  0.00000000000E+00 0.  1.
         25    2    1    2    0    0  0.28516666401E+02 -0.89705243553E+02 -0.15043918539E+03  0.21711688394E+03  0.12509021468E+03 0.  0.
         23    2    1    2    0    0 -0.28516666401E+02  0.89705243553E+02 -0.17079571917E+03  0.21555915435E+03  0.91838664800E+02 0.  0.
          5    1    3    3  502    0  0.19909495171E+02 -0.43692688209E+02 -0.16175011631E+03  0.16877799479E+03  0.41800000000E+01 0.  1.
         -5    1    3    3    0  502  0.86071712300E+01 -0.46012555344E+02  0.11310930918E+02  0.48338889148E+02  0.41800000000E+01 0.  1.
        -11    1    4    4    0    0  0.21910428963E+02  0.74957132284E+02 -0.11406113325E+03  0.13823379000E+03  0.00000000000E+00 0. -1.
         11    1    4    4    0    0 -0.50427095364E+02  0.14748111269E+02 -0.56734585918E+02  0.77325364352E+02  0.00000000000E+00 0.  1.
</event>
<event>
 8    1  0.7224195E-009  0.3130458E+03  0.7561462E-02  0.1078895E+00
         -1   -1    0    0    0  501 -0.00000000000E+00  0.00000000000E+00  0.12332235643E+03  0.12332235643E+03  0.00000000000E+00 0.  1.
          1   -1    0    0  501    0  0.00000000000E+00 -0.00000000000E+00 -0.84927847829E+03  0.84927847829E+03  0.00000000000E+00 0. -1.
         25    2    1    2    0    0  0.27161831715E+03 -0.13555058028E+03 -0.40829894451E+03  0.52393359761E+03  0.12509163278E+03 0.  0.
         23    2    1    2    0    0 -0.27161831715E+03  0.13555058028E+03 -0.31765717735E+03  0.44866723711E+03  0.90806042278E+02 0.  0.
          5    1    3    3  502    0  0.26595961257E+03 -0.14045102648E+03 -0.41535236142E+03  0.51283141762E+03  0.41800000000E+01 0.  1.
         -5    1    3    3    0  502  0.56587045813E+01  0.49004462006E+01  0.70534169106E+01  0.11102179994E+02  0.41800000000E+01 0. -1.
        -11    1    4    4    0    0 -0.15231320038E+03  0.25543643017E+02 -0.14842672073E+03  0.21420149424E+03  0.00000000000E+00 0. -1.
         11    1    4    4    0    0 -0.11930511676E+03  0.11000693727E+03 -0.16923045662E+03  0.23446574287E+03  0.00000000000E+00 0.  1.
</event>
<event>
 8    1  0.7224195E-009  0.1083717E+03  0.7561462E-02  0.1263615E+00
          2   -1    0    0  501    0  0.00000000000E+00  0.00000000000E+00  0.76845606871E+02  0.76845606871E+02  0.00000000000E+00 0. -1.
         -2   -1    0    0    0  501 -0.00000000000E+00 -0.00000000000E+00 -0.17075124995E+03  0.17075124995E+03  0.00000000000E+00 0.  1.
         25    2    1    2    0    0  0.30794949518E+02 -0.22859808318E+02 -0.56982092474E+02  0.14270799417E+03  0.12509081895E+03 0.  0.
         23    2    1    2    0    0 -0.30794949518E+02  0.22859808318E+02 -0.36923550606E+02  0.10488886265E+03  0.90373807971E+02 0.  0.
          5    1    3    3  502    0  0.16777162624E+02  0.46278029584E+02  0.37280504950E+01  0.49542910375E+02  0.41800000000E+01 0. -1.
         -5    1    3    3    0  502  0.14017786893E+02 -0.69137837901E+02 -0.60710142969E+02  0.93165083794E+02  0.41800000000E+01 0. -1.
        -11    1    4    4    0    0  0.26138641507E+02  0.29429364441E+02 -0.61525964314E+01  0.39839308654E+02  0.00000000000E+00 0.  1.
         11    1    4    4    0    0 -0.56933591024E+02 -0.65695561235E+01 -0.30770954175E+02  0.65049553999E+02  0.00000000000E+00 0. -1.
</event>
<event>
 8    1  0.7224195E-009  0.7386048E+02  0.7561462E-02  0.1347436E+00
          2   -1    0    0  501    0  0.00000000000E+00  0.00000000000E+00  0.19798213616E+03  0.19798213616E+03  0.00000000000E+00 0. -1.
         -2   -1    0    0    0  501 -0.00000000000E+00 -0.00000000000E+00 -0.80361187434E+02  0.80361187434E+02  0.00000000000E+00 0.  1.
         25    2    1    2    0    0 -0.46516992399E+02  0.19446689814E+02  0.10926518861E+03  0.17357518613E+03  0.12508980562E+03 0.  0.
         23    2    1    2    0    0  0.46516992399E+02 -0.19446689814E+02  0.83557601179E+01  0.10476813747E+03  0.91457856825E+02 0.  0.
          5    1    3    3  502    0  0.15971141783E+02 -0.38315597324E+01 -0.21113152604E+02  0.27073895780E+02  0.41800000000E+01 0.  1.
         -5    1    3    3    0  502 -0.62488134182E+02  0.23278249547E+02  0.13037834122E+03  0.14650129035E+03  0.41800000000E+01 0.  1.
        -11    1    4    4    0    0  0.33105696451E+01 -0.20474481428E+02 -0.36813036601E+02  0.42253567009E+02  0.00000000000E+00 0.  1.
         11    1    4    4    0    0  0.43206422754E+02  0.10277916138E+01  0.45168796719E+02  0.62514570461E+02  0.00000000000E+00 0. -1.
</event>
<event>
 8    1  0.7224195E-009  0.1079889E+03  0.7561462E-02  0.1264340E+00
          2   -1    0    0  501    0  0.00000000000E+00  0.00000000000E+00  0.17837016968E+03  0.17837016968E+03  0.00000000000E+00 0. -1.
         -2   -1    0    0    0  501 -0.00000000000E+00 -0.00000000000E+00 -0.92380826699E+02  0.92380826699E+02  0.00000000000E+00 0.  1.
         25    2    1    2    0    0 -0.52247820947E+02 -0.47965710200E+02  0.67186068573E+02  0.15871927229E+03  0.12508914996E+03 0.  0.
         23    2    1    2    0    0  0.52247820947E+02  0.47965710200E+02  0.18803274409E+02  0.11203172409E+03  0.84658135615E+02 0.  0.
          5    1    3    3  502    0 -0.74374098641E+02 -0.28490477507E+01  0.77193170240E+02  0.10731207553E+03  0.41800000000E+01 0.  1.
         -5    1    3    3    0  502  0.22126277695E+02 -0.45116662449E+02 -0.10007101667E+02  0.51407196763E+02  0.41800000000E+01 0.  1.
        -11    1    4    4    0    0 -0.12483941564E+02  0.58921520939E+01  0.30940101723E+02  0.33880025795E+02  0.00000000000E+00 0. -1.
         11    1    4    4    0    0  0.64731762511E+02  0.42073558106E+02 -0.12136827314E+02  0.78151698297E+02  0.00000000000E+00 0.  1.
</event>
<event>
 8    1  0.7224195E-009  0.2432287E+03  0.7561462E-02  0.1117660E+00
         -1   -1    0    0    0  501 -0.00000000000E+00  0.00000000000E+00  0.12362061808E+03  0.12362061808E+03  0.00000000000E+00 0.  1.
          1   -1    0    0  501    0  0.00000000000E+00 -0.00000000000E+00 -0.51406227232E+03  0.51406227232E+03  0.00000000000E+00 0. -1.
         25    2    1    2    0    0  0.21735127644E+03 -0.71444599774E+02 -0.21268611907E+03  0.33649555024E+03  0.12509181381E+03 0.  0.
         23    2    1    2    0    0 -0.21735127644E+03  0.71444599774E+02 -0.17775553517E+03  0.30118734016E+03  0.82285329088E+02 0.  0.
          5    1    3    3  502    0  0.30329665026E+02  0.31643634596E+02 -0.18266647951E+02  0.47669183110E+02  0.41800000000E+01 0. -1.
         -5    1    3    3    0  502  0.18702161141E+03 -0.10308823437E+03 -0.19441947112E+03  0.28882636713E+03  0.41800000000E+01 0. -1.
        -11    1    4    4    0    0 -0.67789910733E+02  0.20145098874E+02 -0.11319664630E+02  0.71620051754E+02  0.00000000000E+00 0.  1.
         11    1    4    4    0    0 -0.14956136570E+03  0.51299500900E+02 -0.16643587054E+03  0.22956728841E+03  0.00000000000E+00 0. -1.
</event>
<event>
 8    1  0.7224195E-009  0.1891204E+03  0.7561462E-02  0.1159257E+00
          1   -1    0    0  501    0  0.00000000000E+00  0.00000000000E+00  0.76401781527E+03  0.76401781527E+03  0.00000000000E+00 0. -1.
         -1   -1    0    0    0  501 -0.00000000000E+00 -0.00000000000E+00 -0.48248995980E+02  0.48248995980E+02  0.00000000000E+00 0.  1.
         25    2    1    2    0    0  0.15688735135E+03  0.18520206263E+02  0.36389334269E+03  0.41595979244E+03  0.12509014757E+03 0.  0.
         23    2    1    2    0    0 -0.15688735135E+03 -0.18520206263E+02  0.35187547660E+03  0.39630701881E+03  0.91028913373E+02 0.  0.
          5    1    3    3  502    0  0.38211901291E+02  0.60715684648E+02  0.17172537247E+03  0.18615482726E+03  0.41800000000E+01 0. -1.
         -5    1    3    3    0  502  0.11867545006E+03 -0.42195478385E+02  0.19216797023E+03  0.22980496519E+03  0.41800000000E+01 0. -1.
        -11    1    4    4    0    0 -0.89209422808E+02 -0.53655384532E+02  0.17381204111E+03  0.20260268271E+03  0.00000000000E+00 0.  1.
         11    1    4    4    0    0 -0.67677928546E+02  0.35135178270E+02  0.17806343550E+03  0.19370433610E+03  0.00000000000E+00 0. -1.
</event>
<event>
 8    1  0.7224195E-009  0.9948346E+02  0.7561462E-02  0.1281386E+00
         -4   -1    0    0    0  501 -0.00000000000E+00  0.00000000000E+00  0.10745250667E+03  0.10745250667E+03  0.00000000000E+00 0.  1.
          4   -1    0    0  501    0  0.00000000000E+00 -0.00000000000E+00 -0.13153823014E+03  0.13153823014E+03  0.00000000000E+00 0. -1.
         25    2    1    2    0    0  0.36122022063E+02 -0.43411175924E+01 -0.13747801719E+02  0.13099399532E+03  0.12508708557E+03 0.  0.
         23    2    1    2    0    0 -0.36122022063E+02  0.43411175924E+01 -0.10337921753E+02  0.10799674150E+03  0.10115719336E+03 0.  0.
          5    1    3    3  502    0  0.26977573733E+02  0.53341390885E+02 -0.34173727653E+02  0.68981225908E+02  0.41800000000E+01 0. -1.
         -5    1    3    3    0  502  0.91444483302E+01 -0.57682508477E+02  0.20425925934E+02  0.62012769409E+02  0.41800000000E+01 0. -1.
        -11    1    4    4    0    0 -0.54980118998E+02 -0.11136836490E+02 -0.40510485592E+02  0.69194956861E+02  0.00000000000E+00 0. -1.
         11    1    4    4    0    0  0.18858096935E+02  0.15477954082E+02  0.30172563839E+02  0.38801784640E+02  0.00000000000E+00 0.  1.
</event>
<event>
 8    1  0.7224195E-009  0.9235458E+02  0.7561462E-02  0.1297248E+00
          1   -1    0    0  501    0  0.00000000000E+00  0.00000000000E+00  0.43251348152E+02  0.43251348152E+02  0.00000000000E+00 0. -1.
         -1   -1    0    0    0  501 -0.00000000000E+00 -0.00000000000E+00 -0.36255851566E+03  0.36255851566E+03  0.00000000000E+00 0.  1.
         25    2    1    2    0    0 -0.95996694163E+01 -0.14982165285E+01 -0.28005386887E+03  0.30687396039E+03  0.12508820805E+03 0.  0.
         23    2    1    2    0    0  0.95996694163E+01  0.14982165285E+01 -0.39253298637E+02  0.98935903414E+02  0.90294480589E+02 0.  0.
          5    1    3    3  502    0 -0.40564802664E+02 -0.49840477666E+02 -0.11147671519E+03  0.12874046318E+03  0.41800000000E+01 0.  1.
         -5    1    3    3    0  502  0.30965133248E+02  0.48342261138E+02 -0.16857715368E+03  0.17813349722E+03  0.41800000000E+01 0.  1.
        -11    1    4    4    0    0  0.29238124136E+02 -0.18598003922E+02 -0.56271851748E+02  0.66085361102E+02  0.00000000000E+00 0.  1.
         11    1    4    4    0    0 -0.19638454720E+02  0.20096220450E+02  0.17018553111E+02  0.32850542312E+02  0.00000000000E+00 0. -1.
</event>
<event>
 8    1  0.7224195E-009  0.1326926E+03  0.7561462E-02  0.1223514E+00
          1   -1    0    0  501    0  0.00000000000E+00  0.00000000000E+00  0.47947777170E+03  0.47947777170E+03  0.00000000000E+00 0. -1.
         -1   -1    0    0    0  501 -0.00000000000E+00 -0.00000000000E+00 -0.39786560846E+02  0.39786560846E+02  0.00000000000E+00 0.  1.
         25    2    1    2    0    0 -0.29847750010E+02  0.71739625124E+02  0.30522788239E+03  0.33889333912E+03  0.12508866102E+03 0.  0.
         23    2    1    2    0    0  0.29847750010E+02 -0.71739625124E+02  0.13446332846E+03  0.18037099342E+03  0.91737923318E+02 0.  0.
          5    1    3    3  502    0  0.26571073590E+02  0.83201641836E+02  0.21085529953E+03  0.22826731018E+03  0.41800000000E+01 0.  1.
         -5    1    3    3    0  502 -0.56418823600E+02 -0.11462016712E+02  0.94372582865E+02  0.11062602894E+03  0.41800000000E+01 0.  1.
        -11    1    4    4    0    0  0.63123047483E+02 -0.44753701406E+02  0.86892399632E+02  0.11635163096E+03  0.00000000000E+00 0.  1.
         11    1    4    4    0    0 -0.33275297473E+02 -0.26985923718E+02  0.47570928827E+02  0.64019362464E+02  0.00000000000E+00 0. -1.
</event>
<event>
 8    1  0.7224195E-009  0.1205465E+03  0.7561462E-02  0.1242198E+00
         -2   -1    0    0    0  501 -0.00000000000E+00  0.00000000000E+00  0.14552989081E+04  0.14552989081E+04  0.00000000000E+00 0. -1.
          2   -1    0    0  501    0  0.00000000000E+00 -0.00000000000E+00 -0.18014972595E+02  0.18014972595E+02  0.00000000000E+00 0.  1.
         25    2    1    2    0    0 -0.17088224433E+02 -0.83781866086E+02  0.11534364695E+04  0.11633458449E+04  0.12508579893E+03 0.  0.
         23    2    1    2    0    0  0.17088224433E+02  0.83781866086E+02  0.28384746599E+03  0.30996803581E+03  0.90550487457E+02 0.  0.
          5    1    3    3  502    0 -0.30372939461E+02 -0.94899057254E+02  0.50981694771E+03  0.51947968111E+03  0.41800000000E+01 0.  1.
         -5    1    3    3    0  502  0.13284715028E+02  0.11117191168E+02  0.64361952178E+03  0.64386616374E+03  0.41800000000E+01 0.  1.
        -11    1    4    4    0    0 -0.17337981450E+02 -0.12446781519E+02  0.35626740363E+02  0.41530622435E+02  0.00000000000E+00 0.  1.
         11    1    4    4    0    0  0.34426205883E+02  0.96228647605E+02  0.24822072562E+03  0.26843741338E+03  0.00000000000E+00 0. -1.
</event>
<event>
 8    1  0.7224195E-009  0.8343192E+02  0.7561462E-02  0.1319585E+00
          2   -1    0    0  501    0  0.00000000000E+00  0.00000000000E+00  0.85944850521E+02  0.85944850521E+02  0.00000000000E+00 0. -1.
         -2   -1    0    0    0  501 -0.00000000000E+00 -0.00000000000E+00 -0.19880514155E+03  0.19880514155E+03  0.00000000000E+00 0.  1.
         25    2    1    2    0    0 -0.64951228652E+02 -0.13699380255E+02 -0.10059599405E+03  0.17370817474E+03  0.12509452758E+03 0.  0.
         23    2    1    2    0    0  0.64951228652E+02  0.13699380255E+02 -0.12264296980E+02  0.11104181733E+03  0.88167664667E+02 0.  0.
          5    1    3    3  502    0 -0.59766791956E+02 -0.18286368395E+02  0.94634038616E+01  0.63352104167E+02  0.41800000000E+01 0.  1.
         -5    1    3    3    0  502 -0.51844366958E+01  0.45869881393E+01 -0.11005939791E+03  0.11035607057E+03  0.41800000000E+01 0.  1.
        -11    1    4    4    0    0  0.62523906494E+02  0.37038460963E+02 -0.32920782207E+02  0.79780100118E+02  0.00000000000E+00 0.  1.
         11    1    4    4    0    0  0.24273221579E+01 -0.23339080707E+02  0.20656485227E+02  0.31261717212E+02  0.00000000000E+00 0. -1.
</event>
<event>
 8    1  0.7224195E-009  0.1006654E+03  0.7561462E-02  0.1278903E+00
         -1   -1    0    0    0  501 -0.00000000000E+00  0.00000000000E+00  0.39307456491E+02  0.39307456491E+02  0.00000000000E+00 0.  1.
          1   -1    0    0  501    0  0.00000000000E+00 -0.00000000000E+00 -0.44838495206E+03  0.44838495206E+03  0.00000000000E+00 0. -1.
         25    2    1    2    0    0 -0.25085761976E+02 -0.36541485784E+02 -0.11120993256E+03  0.17314700052E+03  0.12509060336E+03 0.  0.
         23    2    1    2    0    0  0.25085761976E+02  0.36541485784E+02 -0.29786756301E+03  0.31454540803E+03  0.90824847853E+02 0.  0.
          5    1    3    3  502    0 -0.62222787937E+02 -0.35166459103E+02 -0.19647281715E+02  0.74241789198E+02  0.41800000000E+01 0. -1.
         -5    1    3    3    0  502  0.37137025961E+02 -0.13750266813E+01 -0.91562650848E+02  0.98905211319E+02  0.41800000000E+01 0. -1.
        -11    1    4    4    0    0  0.44251441167E+02 -0.69668906037E+01 -0.81338497558E+02  0.92858380317E+02  0.00000000000E+00 0. -1.
         11    1    4    4    0    0 -0.19165679191E+02  0.43508376388E+02 -0.21652906545E+03  0.22168702772E+03  0.00000000000E+00 0.  1.
</event>
<event>
 8    1  0.7224195E-009  0.1931063E+03  0.7561462E-02  0.1155689E+00
         -2   -1    0    0    0  501 -0.00000000000E+00  0.00000000000E+00  0.29970968887E+02  0.29970968887E+02  0.00000000000E+00 0. -1.
          2   -1    0    0  501    0  0.00000000000E+00 -0.00000000000E+00 -0.13977338598E+04  0.13977338598E+04  0.00000000000E+00 0.  1.
         25    2    1    2    0    0  0.15170912399E+03 -0.75752030650E+02 -0.58694919874E+03  0.62362775347E+03  0.12509270385E+03 0.  0.
         23    2    1    2    0    0 -0.15170912399E+03  0.75752030650E+02 -0.78081369222E+03  0.80407707526E+03  0.90088248665E+02 0.  0.
          5    1    3    3  502    0 -0.19078039962E+02 -0.14164633599E+01 -0.26009297929E+02  0.32556626913E+02  0.41800000000E+01 0. -1.
         -5    1    3    3    0  502  0.17078716395E+03 -0.74335567290E+02 -0.56093990081E+03  0.59107112656E+03  0.41800000000E+01 0. -1.
        -11    1    4    4    0    0 -0.73956914323E+02  0.70844229323E+02 -0.57423411300E+03  0.58329524817E+03  0.00000000000E+00 0.  1.
         11    1    4    4    0    0 -0.77752209664E+02  0.49078013270E+01 -0.20657957922E+03  0.22078182709E+03  0.00000000000E+00 0. -1.
</event>
<event>
 8    1  0.7224195E-009  0.1146279E+03  0.7561462E-02  0.1252232E+00
          2   -1    0    0  501    0  0.00000000000E+00  0.00000000000E+00  0.62373852099E+03  0.62373852099E+03  0.00000000000E+00 0. -1.
         -2   -1    0    0    0  501 -0.00000000000E+00 -0.00000000000E+00 -0.25023816793E+02  0.25023816793E+02  0.00000000000E+00 0.  1.
         25    2    1    2    0    0  0.56652068287E+02 -0.31891567385E+01  0.26696868554E+03  0.30023490477E+03  0.12509632856E+03 0.  0.
         23    2    1    2    0    0 -0.56652068287E+02  0.31891567385E+01  0.33174601865E+03  0.34852743301E+03  0.90533546865E+02 0.  0.
          5    1    3    3  502    0  0.72975251311E+02 -0.41477945936E+02  0.22826194963E+03  0.24324226062E+03  0.41800000000E+01 0.  1.
         -5    1    3    3    0  502 -0.16323183025E+02  0.38288789198E+02  0.38706735918E+02  0.56992644154E+02  0.41800000000E+01 0.  1.
        -11    1    4    4    0    0  0.12817054799E+02 -0.25248710077E+02  0.56066761227E+02  0.62811272625E+02  0.00000000000E+00 0. -1.
         11    1    4    4    0    0 -0.69469123086E+02  0.28437866816E+02  0.27567925743E+03  0.28571616039E+03  0.00000000000E+00 0.  1.
</event>
<event>
 8    1  0.7224195E-009  0.1190781E+03  0.7561462E-02  0.1244626E+00
         -1   -1    0    0    0  501 -0.00000000000E+00  0.00000000000E+00  0.19590354356E+02  0.19590354356E+02  0.00000000000E+00 0.  1.
          1   -1    0    0  501    0  0.00000000000E+00 -0.00000000000E+00 -0.87819161246E+03  0.87819161246E+03  0.00000000000E+00 0. -1.
         25    2    1    2    0    0 -0.20027895276E+02  0.68550493033E+02 -0.41318855881E+03  0.43757628447E+03  0.12509169802E+03 0.  0.
         23    2    1    2    0    0  0.20027895276E+02 -0.68550493033E+02 -0.44541269930E+03  0.46020568235E+03  0.91085183691E+02 0.  0.
          5    1    3    3  502    0 -0.28771261708E+02 -0.19722574056E+02 -0.24382763217E+03  0.24634559472E+03  0.41800000000E+01 0.  1.
         -5    1    3    3    0  502  0.87433664320E+01  0.88273067089E+02 -0.16936092664E+03  0.19123068975E+03  0.41800000000E+01 0.  1.
        -11    1    4    4    0    0  0.48135580218E+02 -0.71247845216E+02 -0.30010797917E+03  0.31218278090E+03  0.00000000000E+00 0.  1.
         11    1    4    4    0    0 -0.28107684942E+02  0.26973521831E+01 -0.14530472013E+03  0.14802290145E+03  0.00000000000E+00 0. -1.
</event>
<event>
 8    1  0.7224195E-009  0.1033932E+03  0.7561462E-02  0.1273318E+00
         -2   -1    0    0    0  501 -0.00000000000E+00  0.00000000000E+00  0.61426835443E+02  0.61426835443E+02  0.00000000000E+00 0.  1.
          2   -1    0    0  501    0  0.00000000000E+00 -0.00000000000E+00 -0.48306654799E+03  0.48306654799E+03  0.00000000000E+00 0. -1.
         25    2    1    2    0    0 -0.84413272339E+02  0.22413163004E+02 -0.37988920638E+03  0.40937932203E+03  0.12509064617E+03 0.  0.
         23    2    1    2    0    0  0.84413272339E+02 -0.22413163004E+02 -0.41750506174E+02  0.13511406141E+03  0.94258975178E+02 0.  0.
          5    1    3    3  502    0 -0.44796712593E+02  0.57887967390E+01 -0.35821781584E+03  0.36107856709E+03  0.41800000000E+01 0. -1.
         -5    1    3    3    0  502 -0.39616559745E+02  0.16624366265E+02 -0.21671390537E+02  0.48300754938E+02  0.41800000000E+01 0. -1.
        -11    1    4    4    0    0  0.28945889797E+02 -0.48873769379E+02  0.62349815917E+01  0.57143546136E+02  0.00000000000E+00 0.  1.
         11    1    4    4    0    0  0.55467382542E+02  0.26460606375E+02 -0.47985487766E+02  0.77970515273E+02  0.00000000000E+00 0. -1.
</event>
<event>
 8    1  0.7224195E-009  0.1547963E+03  0.7561462E-02  0.1194700E+00
          2   -1    0    0  501    0  0.00000000000E+00  0.00000000000E+00  0.62977624256E+03  0.62977624256E+03  0.00000000000E+00 0. -1.
         -2   -1    0    0    0  501 -0.00000000000E+00 -0.00000000000E+00 -0.40829950941E+02  0.40829950941E+02  0.00000000000E+00 0.  1.
         25    2    1    2    0    0  0.10561916311E+03 -0.50902450185E+02  0.34333073817E+03  0.38375866070E+03  0.12509295281E+03 0.  0.
         23    2    1    2    0    0 -0.10561916311E+03  0.50902450185E+02  0.24561555345E+03  0.28684753280E+03  0.90598233570E+02 0.  0.
          5    1    3    3  502    0  0.77932294625E+02  0.24116317696E+02  0.10959884194E+03  0.13669095756E+03  0.41800000000E+01 0. -1.
         -5    1    3    3    0  502  0.27686868481E+02 -0.75018767880E+02  0.23373189623E+03  0.24706770314E+03  0.41800000000E+01 0. -1.
        -11    1    4    4    0    0  0.34110329149E+01  0.37873961274E+02  0.54988272261E+02  0.66856429567E+02  0.00000000000E+00 0.  1.
         11    1    4    4    0    0 -0.10903019602E+03  0.13028488910E+02  0.19062728119E+03  0.21999110324E+03  0.00000000000E+00 0. -1.
</event>
<event>
 8    1  0.7224195E-009  0.1006287E+03  0.7561462E-02  0.1278979E+00
          2   -1    0    0  501    0  0.00000000000E+00  0.00000000000E+00  0.26581569839E+03  0.26581569839E+03  0.00000000000E+00 0. -1.
         -2   -1    0    0    0  501 -0.00000000000E+00 -0.00000000000E+00 -0.49171845761E+02  0.49171845761E+02  0.00000000000E+00 0.  1.
         25    2    1    2    0    0  0.11590661476E+02 -0.25751245610E+02  0.96891783322E+02  0.16072430887E+03  0.12508723237E+03 0.  0.
         23    2    1    2    0    0 -0.11590661476E+02  0.25751245610E+02  0.11975206930E+03  0.15426323528E+03  0.93054379656E+02 0.  0.
          5    1    3    3  502    0  0.61198955936E+02 -0.15446283695E+02  0.16109027055E+02  0.65275363196E+02  0.41800000000E+01 0. -1.
         -5    1    3    3    0  502 -0.49608294460E+02 -0.10304961915E+02  0.80782756267E+02  0.95448945669E+02  0.41800000000E+01 0. -1.
        -11    1    4    4    0    0  0.33533727486E+02 -0.29814728107E+01  0.82416255473E+02  0.89027182509E+02  0.00000000000E+00 0. -1.
         11    1    4    4    0    0 -0.45124388962E+02  0.28732718421E+02  0.37335813830E+02  0.65236052773E+02  0.00000000000E+00 0.  1.
</event>
<event>
 8    1  0.7224195E-009  0.3053486E+03  0.7561462E-02  0.1082597E+00
          2   -1    0    0  501    0  0.00000000000E+00  0.00000000000E+00  0.95784840378E+03  0.95784840378E+03  0.00000000000E+00 0. -1.
         -2   -1    0    0    0  501 -0.00000000000E+00 -0.00000000000E+00 -0.10749929434E+03  0.10749929434E+03  0.00000000000E+00 0.  1.
         25    2    1    2    0    0  0.41216286987E+01  0.29844537888E+03  0.34583027895E+03  0.47363782920E+03  0.12509028504E+03 0.  0.
         23    2    1    2    0    0 -0.41216286987E+01 -0.29844537888E+03  0.50451883049E+03  0.59170986892E+03  0.80589618822E+02 0.  0.
          5    1    3    3  502    0  0.30193933329E+02  0.99449693723E+02  0.48206118369E+02  0.11464387223E+03  0.41800000000E+01 0. -1.
         -5    1    3    3    0  502 -0.26072304630E+02  0.19899568516E+03  0.29762416058E+03  0.35899395697E+03  0.41800000000E+01 0. -1.
        -11    1    4    4    0    0 -0.35377466681E+02 -0.13672330032E+03  0.19081915635E+03  0.23739582227E+03  0.00000000000E+00 0.  1.
         11    1    4    4    0    0  0.31255837982E+02 -0.16172207856E+03  0.31369967414E+03  0.35431404666E+03  0.00000000000E+00 0. -1.
</event>
<event>
 8    1  0.7224195E-009  0.1017356E+03  0.7561462E-02  0.1276688E+00
         -2   -1    0    0    0  501 -0.00000000000E+00  0.00000000000E+00  0.42259414150E+02  0.42259414150E+02  0.00000000000E+00 0.  1.
          2   -1    0    0  501    0  0.00000000000E+00 -0.00000000000E+00 -0.28754681320E+03  0.28754681320E+03  0.00000000000E+00 0. -1.
         25    2    1    2    0    0  0.19182055906E+02  0.24622572724E+01 -0.13634422493E+03  0.18603996483E+03  0.12508839619E+03 0.  0.
         23    2    1    2    0    0 -0.19182055906E+02 -0.24622572724E+01 -0.10894317412E+03  0.14376626252E+03  0.91793840059E+02 0.  0.
          5    1    3    3  502    0  0.70184926253E+02  0.46207727835E+01 -0.52815941036E+02  0.88058341126E+02  0.41800000000E+01 0. -1.
         -5    1    3    3    0  502 -0.51002870347E+02 -0.21585155111E+01 -0.83528283898E+02  0.97981623704E+02  0.41800000000E+01 0. -1.
        -11    1    4    4    0    0 -0.72984707961E+01 -0.40906203154E+02 -0.90334622145E+02  0.99433038225E+02  0.00000000000E+00 0.  1.
         11    1    4    4    0    0 -0.11883585110E+02  0.38443945882E+02 -0.18608551974E+02  0.44333224297E+02  0.00000000000E+00 0. -1.
</event>
<event>
 8    1  0.7224195E-009  0.1147306E+03  0.7561462E-02  0.1252052E+00
          2   -1    0    0  501    0  0.00000000000E+00  0.00000000000E+00  0.11027985201E+03  0.11027985201E+03  0.00000000000E+00 0. -1.
         -2   -1    0    0    0  501 -0.00000000000E+00 -0.00000000000E+00 -0.15227963826E+03  0.15227963826E+03  0.00000000000E+00 0.  1.
         25    2    1    2    0    0  0.60425021805E+02  0.99587309115E+01  0.17784954490E+02  0.14040980481E+03  0.12509296183E+03 0.  0.
         23    2    1    2    0    0 -0.60425021805E+02 -0.99587309115E+01 -0.59784740745E+02  0.12214968546E+03  0.87154867044E+02 0.  0.
          5    1    3    3  502    0 -0.67762861021E+01  0.45924284940E+02 -0.25012030361E+02  0.52896427699E+02  0.41800000000E+01 0.  1.
         -5    1    3    3    0  502  0.67201307907E+02 -0.35965554028E+02  0.42796984851E+02  0.87513377111E+02  0.41800000000E+01 0.  1.
        -11    1    4    4    0    0  0.56309889316E+01  0.29192261922E+02 -0.17028581531E+02  0.34261768510E+02  0.00000000000E+00 0. -1.
         11    1    4    4    0    0 -0.66056010737E+02 -0.39150992834E+02 -0.42756159214E+02  0.87887916945E+02  0.00000000000E+00 0.  1.
</event>
<event>
 8    1  0.7224195E-009  0.1065976E+03  0.7561462E-02  0.1267004E+00
         -1   -1    0    0    0  501 -0.00000000000E+00  0.00000000000E+00  0.16973540688E+02  0.16973540688E+02  0.00000000000E+00 0.  1.
          1   -1    0    0  501    0  0.00000000000E+00 -0.00000000000E+00 -0.10976984008E+04  0.10976984008E+04  0.00000000000E+00 0. -1.
         25    2    1    2    0    0  0.55243287555E+02  0.11286875214E+02 -0.84263829992E+03  0.85373624640E+03  0.12508820709E+03 0.  0.
         23    2    1    2    0    0 -0.55243287555E+02 -0.11286875214E+02 -0.23808656022E+03  0.26093569512E+03  0.90680827390E+02 0.  0.
          5    1    3    3  502    0  0.21762366666E+01  0.61305592758E+02 -0.47015248363E+03  0.47415603125E+03  0.41800000000E+01 0.  1.
         -5    1    3    3    0  502  0.53067050888E+02 -0.50018717544E+02 -0.37248581629E+03  0.37958021514E+03  0.41800000000E+01 0.  1.
        -11    1    4    4    0    0 -0.14261942827E+02  0.21761000403E+02 -0.11734625814E+02  0.28541997034E+02  0.00000000000E+00 0.  1.
         11    1    4    4    0    0 -0.40981344728E+02 -0.33047875617E+02 -0.22635193441E+03  0.23239369808E+03  0.00000000000E+00 0. -1.
</event>
<event>
 8    1  0.7224195E-009  0.1090723E+03  0.7561462E-02  0.1262298E+00
          1   -1    0    0  501    0  0.00000000000E+00  0.00000000000E+00  0.30510379795E+03  0.30510379795E+03  0.00000000000E+00 0. -1.
         -1   -1    0    0    0  501 -0.00000000000E+00 -0.00000000000E+00 -0.61051356814E+02  0.61051356814E+02  0.00000000000E+00 0.  1.
         25    2    1    2    0    0  0.60080266419E+02  0.47370230404E+02  0.91539024995E+02  0.17285840196E+03  0.12508819645E+03 0.  0.
         23    2    1    2    0    0 -0.60080266419E+02 -0.47370230404E+02  0.15251341614E+03  0.19329675280E+03  0.90827943929E+02 0.  0.
          5    1    3    3  502    0 -0.83214783708E+01 -0.12391784546E+02  0.79665083523E+02  0.81159110760E+02  0.41800000000E+01 0. -1.
         -5    1    3    3    0  502  0.68401744790E+02  0.59762014950E+02  0.11873941472E+02  0.91699291204E+02  0.41800000000E+01 0. -1.
        -11    1    4    4    0    0 -0.28558678507E+02  0.21650958220E+02  0.82934303270E+02  0.90346337883E+02  0.00000000000E+00 0. -1.
         11    1    4    4    0    0 -0.31521587912E+02 -0.69021188624E+02  0.69579112866E+02  0.10295041491E+03  0.00000000000E+00 0.  1.
</event>
<event>
 8    1  0.7224195E-009  0.7530804E+02  0.7561462E-02  0.1342920E+00
         -2   -1    0    0    0  501 -0.00000000000E+00  0.00000000000E+00  0.20220904289E+03  0.20220904289E+03  0.00000000000E+00 0. -1.
          2   -1    0    0  501    0  0.00000000000E+00 -0.00000000000E+00 -0.16617146325E+03  0.16617146325E+03  0.00000000000E+00 0.  1.
         25    2    1    2    0    0 -0.39848158580E+02 -0.28883760181E+02  0.15912636286E+03  0.20830611830E+03  0.12509233477E+03 0.  0.
         23    2    1    2    0    0  0.39848158580E+02  0.28883760181E+02 -0.12308878323E+03  0.16007438784E+03  0.89726326922E+02 0.  0.
          5    1    3    3  502    0 -0.55307997557E+02  0.41957675123E+01  0.16215408206E+03  0.17142927926E+03  0.41800000000E+01 0.  1.
         -5    1    3    3    0  502  0.15459838977E+02 -0.33079527693E+02 -0.30277192017E+01  0.36876839034E+02  0.41800000000E+01 0.  1.
        -11    1    4    4    0    0  0.31214902746E+02  0.35566716374E+02 -0.13551119123E+03  0.14353621290E+03  0.00000000000E+00 0.  1.
         11    1    4    4    0    0  0.86332558337E+01 -0.66829561935E+01  0.12422408001E+02  0.16538174939E+02  0.00000000000E+00 0. -1.
</event>
<event>
 8    1  0.7224195E-009  0.1471280E+03  0.7561462E-02  0.1204047E+00
         -1   -1    0    0    0  501 -0.00000000000E+00  0.00000000000E+00  0.41172098040E+02  0.41172098040E+02  0.00000000000E+00 0.  1.
          1   -1    0    0  501    0  0.00000000000E+00 -0.00000000000E+00 -0.69888355604E+03  0.69888355604E+03  0.00000000000E+00 0. -1.
         25    2    1    2    0    0  0.10145670303E+03  0.38887685317E+01 -0.51594690110E+03  0.54051716409E+03  0.12509602239E+03 0.  0.
         23    2    1    2    0    0 -0.10145670303E+03 -0.38887685317E+01 -0.14176455690E+03  0.19953848998E+03  0.97004300318E+02 0.  0.
          5    1    3    3  502    0  0.12666680749E+03 -0.12737394863E+02 -0.36680795355E+03  0.38829404905E+03  0.41800000000E+01 0.  1.
         -5    1    3    3    0  502 -0.25210104454E+02  0.16626163394E+02 -0.14913894755E+03  0.15222311504E+03  0.41800000000E+01 0.  1.
        -11    1    4    4    0    0 -0.17580398492E+02 -0.41049204282E+02 -0.25447257231E+02  0.51397183619E+02  0.00000000000E+00 0. -1.
         11    1    4    4    0    0 -0.83876304541E+02  0.37160435751E+02 -0.11631729967E+03  0.14814130636E+03  0.00000000000E+00 0.  1.
</event>
<event>
 8    1  0.7224195E-009  0.9466286E+02  0.7561462E-02  0.1291937E+00
          1   -1    0    0  501    0  0.00000000000E+00  0.00000000000E+00  0.10584800072E+04  0.10584800072E+04  0.00000000000E+00 0. -1.
         -1   -1    0    0    0  501 -0.00000000000E+00 -0.00000000000E+00 -0.13802982535E+02  0.13802982535E+02  0.00000000000E+00 0.  1.
         25    2    1    2    0    0  0.76207276611E+01 -0.53147496732E+02  0.55777575871E+03  0.57414646961E+03  0.12509052588E+03 0.  0.
         23    2    1    2    0    0 -0.76207276611E+01  0.53147496732E+02  0.48690126599E+03  0.49813652016E+03  0.90467773232E+02 0.  0.
          5    1    3    3  502    0  0.36160156785E+02 -0.20730857601E+02  0.50070116894E+03  0.50245045365E+03  0.41800000000E+01 0. -1.
         -5    1    3    3    0  502 -0.28539429124E+02 -0.32416639132E+02  0.57074589769E+02  0.71696015961E+02  0.41800000000E+01 0. -1.
        -11    1    4    4    0    0 -0.18325091136E+02  0.76335654381E+02  0.33285091766E+03  0.34198344183E+03  0.00000000000E+00 0. -1.
         11    1    4    4    0    0  0.10704363474E+02 -0.23188157648E+02  0.15405034833E+03  0.15615307833E+03  0.00000000000E+00 0.  1.
</event>
<event>
 8    1  0.7224195E-009  0.1359599E+03  0.7561462E-02  0.1218871E+00
          1   -1    0    0  501    0  0.00000000000E+00  0.00000000000E+00  0.51997464089E+03  0.51997464089E+03  0.00000000000E+00 0. -1.
         -1   -1    0    0    0  501 -0.00000000000E+00 -0.00000000000E+00 -0.38644039774E+02  0.38644039774E+02  0.00000000000E+00 0.  1.
         25    2    1    2    0    0  0.83659716135E+02  0.22907884955E+02  0.32904382271E+03  0.36254680842E+03  0.12508649702E+03 0.  0.
         23    2    1    2    0    0 -0.83659716135E+02 -0.22907884955E+02  0.15228677840E+03  0.19607187224E+03  0.87915851303E+02 0.  0.
          5    1    3    3  502    0  0.99556838510E+01 -0.46200342461E+02  0.14482439621E+03  0.15239804928E+03  0.41800000000E+01 0. -1.
         -5    1    3    3    0  502  0.73704032284E+02  0.69108227417E+02  0.18421942650E+03  0.21014875915E+03  0.41800000000E+01 0. -1.
        -11    1    4    4    0    0 -0.90901524758E+02  0.83333627429E+01  0.11685018170E+03  0.14827844450E+03  0.00000000000E+00 0.  1.
         11    1    4    4    0    0  0.72418086229E+01 -0.31241247698E+02  0.35436596700E+02  0.47793427744E+02  0.00000000000E+00 0. -1.
</event>
<event>
 8    1  0.7224195E-009  0.1050450E+03  0.7561462E-02  0.1270031E+00
          2   -1    0    0  501    0  0.00000000000E+00  0.00000000000E+00  0.52418943478E+03  0.52418943478E+03  0.00000000000E+00 0. -1.
         -2   -1    0    0    0  501 -0.00000000000E+00 -0.00000000000E+00 -0.23669528803E+02  0.23669528803E+02  0.00000000000E+00 0.  1.
         25    2    1    2    0    0  0.22540868179E+02 -0.17152490778E+02  0.28190535612E+03  0.30971349913E+03  0.12509805377E+03 0.  0.
         23    2    1    2    0    0 -0.22540868179E+02  0.17152490778E+02  0.21861454985E+03  0.23814546445E+03  0.90103507986E+02 0.  0.
          5    1    3    3  502    0 -0.39606806170E+02 -0.44649946256E+02  0.12056502899E+03  0.13459463367E+03  0.41800000000E+01 0. -1.
         -5    1    3    3    0  502  0.62147674348E+02  0.27497455478E+02  0.16134032712E+03  0.17511886546E+03  0.41800000000E+01 0. -1.
        -11    1    4    4    0    0 -0.47914790554E+02  0.26946997765E+02  0.81155228005E+02  0.98021114434E+02  0.00000000000E+00 0.  1.
         11    1    4    4    0    0  0.25373922375E+02 -0.97945069867E+01  0.13745932185E+03  0.14012435001E+03  0.00000000000E+00 0. -1.
</event>
<event>
 8    1  0.7224195E-009  0.9709140E+02  0.7561462E-02  0.1286534E+00
          2   -1    0    0  501    0  0.00000000000E+00  0.00000000000E+00  0.69204549638E+03  0.69204549638E+03  0.00000000000E+00 0.  1.
         -2   -1    0    0    0  501 -0.00000000000E+00 -0.00000000000E+00 -0.22204398659E+02  0.22204398659E+02  0.00000000000E+00 0. -1.
         25    2    1    2    0    0 -0.36916890595E+02  0.18640153738E+02  0.24848327850E+03  0.28124987253E+03  0.12508892421E+03 0.  0.
         23    2    1    2    0    0  0.36916890595E+02 -0.18640153738E+02  0.42135781922E+03  0.43300002251E+03  0.90754038668E+02 0.  0.
          5    1    3    3  502    0 -0.61056242080E+02  0.40742111598E+02  0.23388751181E+03  0.24517060374E+03  0.41800000000E+01 0.  1.
         -5    1    3    3    0  502  0.24139351485E+02 -0.22101957860E+02  0.14595766690E+02  0.36079268793E+02  0.41800000000E+01 0.  1.
        -11    1    4    4    0    0 -0.22163327278E+02  0.70294849072E+01  0.40221257273E+02  0.46458328325E+02  0.00000000000E+00 0. -1.
         11    1    4    4    0    0  0.59080217873E+02 -0.25669638645E+02  0.38113656194E+03  0.38654169418E+03  0.00000000000E+00 0.  1.
</event>
<event>
 8    1  0.7224195E-009  0.8752468E+02  0.7561462E-02  0.1308959E+00
          2   -1    0    0  501    0  0.00000000000E+00  0.00000000000E+00  0.47115369482E+03  0.47115369482E+03  0.00000000000E+00 0. -1.
         -2   -1    0    0    0  501 -0.00000000000E+00 -0.00000000000E+00 -0.26828850396E+02  0.26828850396E+02  0.00000000000E+00 0.  1.
         25    2    1    2    0    0  0.82090303325E+01  0.27189036362E+02  0.23518185171E+03  0.26788848566E+03  0.12508839074E+03 0.  0.
         23    2    1    2    0    0 -0.82090303325E+01 -0.27189036362E+02  0.20914299271E+03  0.23009405955E+03  0.91628887176E+02 0.  0.
          5    1    3    3  502    0 -0.35144148930E+02  0.42969636101E+02  0.20541440163E+03  0.21282398744E+03  0.41800000000E+01 0. -1.
         -5    1    3    3    0  502  0.43353179262E+02 -0.15780599740E+02  0.29767450080E+02  0.55064498223E+02  0.41800000000E+01 0. -1.
        -11    1    4    4    0    0 -0.26844862946E+02  0.12195337037E+02  0.16663130854E+03  0.16921987441E+03  0.00000000000E+00 0. -1.
         11    1    4    4    0    0  0.18635832613E+02 -0.39384373399E+02  0.42511684172E+02  0.60874185139E+02  0.00000000000E+00 0.  1.
</event>
<event>
 8    1  0.7224195E-009  0.1621345E+03  0.7561462E-02  0.1186308E+00
          2   -1    0    0  501    0  0.00000000000E+00  0.00000000000E+00  0.22421054715E+04  0.22421054715E+04  0.00000000000E+00 0. -1.
         -2   -1    0    0    0  501 -0.00000000000E+00 -0.00000000000E+00 -0.17163925070E+02  0.17163925070E+02  0.00000000000E+00 0.  1.
         25    2    1    2    0    0  0.13341801753E+03 -0.11815342621E+02  0.17046698349E+04  0.17144932533E+04  0.12509156610E+03 0.  0.
         23    2    1    2    0    0 -0.13341801753E+03  0.11815342621E+02  0.52027171149E+03  0.54477614322E+03  0.90323987528E+02 0.  0.
          5    1    3    3  502    0  0.10635041516E+03 -0.64101078097E+02  0.11548082947E+04  0.11614727844E+04  0.41800000000E+01 0. -1.
         -5    1    3    3    0  502  0.27067602371E+02  0.52285735476E+02  0.54986154025E+03  0.55302046895E+03  0.41800000000E+01 0. -1.
        -11    1    4    4    0    0 -0.10216358478E+03 -0.10344521843E+02  0.47254681399E+03  0.48357512198E+03  0.00000000000E+00 0. -1.
         11    1    4    4    0    0 -0.31254432743E+02  0.22159864465E+02  0.47724897499E+02  0.61201021237E+02  0.00000000000E+00 0.  1.
</event>
<event>
 8    1  0.7224195E-009  0.9291079E+02  0.7561462E-02  0.1295952E+00
          1   -1    0    0  501    0  0.00000000000E+00  0.00000000000E+00  0.42097637639E+03  0.42097637639E+03  0.00000000000E+00 0. -1.
         -1   -1    0    0    0  501 -0.00000000000E+00 -0.00000000000E+00 -0.49954431693E+02  0.49954431693E+02  0.00000000000E+00 0.  1.
         25    2    1    2    0    0  0.31273667709E+02  0.15859357430E+02  0.34731929455E+03  0.37081815510E+03  0.12508337329E+03 0.  0.
         23    2    1    2    0    0 -0.31273667709E+02 -0.15859357430E+02  0.23702650148E+02  0.10011265299E+03  0.90725774474E+02 0.  0.
          5    1    3    3  502    0 -0.29374776053E+02 -0.22946935604E+02  0.23047660763E+03  0.23350884006E+03  0.41800000000E+01 0. -1.
         -5    1    3    3    0  502  0.60648443762E+02  0.38806293033E+02  0.11684268693E+03  0.13730931504E+03  0.41800000000E+01 0. -1.
        -11    1    4    4    0    0 -0.47165670651E+02  0.76818686866E+01 -0.16790555747E+02  0.50651104201E+02  0.00000000000E+00 0.  1.
         11    1    4    4    0    0  0.15892002943E+02 -0.23541226116E+02  0.40493205895E+02  0.49461548785E+02  0.00000000000E+00 0. -1.
</event>
<event>
 8    1  0.7224195E-009  0.1066781E+03  0.7561462E-02  0.1266848E+00
         -1   -1    0    0    0  501 -0.00000000000E+00  0.00000000000E+00  0.36785437964E+03  0.36785437964E+03  0.00000000000E+00 0.  1.
          1   -1    0    0  501    0  0.00000000000E+00 -0.00000000000E+00 -0.41243498155E+02  0.41243498155E+02  0.00000000000E+00 0. -1.
         25    2    1    2    0    0 -0.26669606086E+02 -0.32714246277E+02  0.10967828886E+03  0.17163440323E+03  0.12509017358E+03 0.  0.
         23    2    1    2    0    0  0.26669606086E+02  0.32714246277E+02  0.21693259262E+03  0.23746347456E+03  0.86877282471E+02 0.  0.
          5    1    3    3  502    0  0.96653917699E+01  0.38262763186E+02  0.50291629152E+01  0.40002796456E+02  0.41800000000E+01 0. -1.
         -5    1    3    3    0  502 -0.36334997856E+02 -0.70977009463E+02  0.10464912594E+03  0.13163160677E+03  0.41800000000E+01 0. -1.
        -11    1    4    4    0    0 -0.16305440091E+02 -0.20005162697E+02  0.87784838130E+02  0.91500009380E+02  0.00000000000E+00 0.  1.
         11    1    4    4    0    0  0.42975046177E+02  0.52719408975E+02  0.12914775449E+03  0.14596346518E+03  0.00000000000E+00 0. -1.
</event>
<event>
 8    1  0.7224195E-009  0.9538072E+02  0.7561462E-02  0.1290321E+00
         -1   -1    0    0    0  501 -0.00000000000E+00  0.00000000000E+00  0.60019310586E+02  0.60019310586E+02  0.00000000000E+00 0.  1.
          1   -1    0    0  501    0  0.00000000000E+00 -0.00000000000E+00 -0.40507943379E+03  0.40507943379E+03  0.00000000000E+00 0. -1.
         25    2    1    2    0    0  0.17632924276E+02 -0.69037014747E+02 -0.56911403744E+02  0.15480103791E+03  0.12508966400E+03 0.  0.
         23    2    1    2    0    0 -0.17632924276E+02  0.69037014747E+02 -0.28814871946E+03  0.31029770647E+03  0.90432033520E+02 0.  0.
          5    1    3    3  502    0  0.37699419753E+02 -0.25438291616E+02  0.30551497338E+02  0.54947423230E+02  0.41800000000E+01 0.  1.
         -5    1    3    3    0  502 -0.20066495477E+02 -0.43598723131E+02 -0.87462901082E+02  0.99853614682E+02  0.41800000000E+01 0.  1.
        -11    1    4    4    0    0  0.21514981485E+02  0.47702976850E+02 -0.68671276685E+02  0.86337782403E+02  0.00000000000E+00 0.  1.
         11    1    4    4    0    0 -0.39147905761E+02  0.21334037897E+02 -0.21947744278E+03  0.22395992406E+03  0.00000000000E+00 0. -1.
</event>
<event>
 8    1  0.7224195E-009  0.1271165E+03  0.7561462E-02  0.1231798E+00
         -2   -1    0    0    0  501 -0.00000000000E+00  0.00000000000E+00  0.16410691126E+03  0.16410691126E+03  0.00000000000E+00 0.  1.
          2   -1    0    0  501    0  0.00000000000E+00 -0.00000000000E+00 -0.15436055792E+03  0.15436055792E+03  0.00000000000E+00 0. -1.
         25    2    1    2    0    0 -0.70173100772E+02  0.57153720283E+02  0.77887988399E+02  0.17293308930E+03  0.12509397597E+03 0.  0.
         23    2    1    2    0    0  0.70173100772E+02 -0.57153720283E+02 -0.68141635058E+02  0.14553437987E+03  0.91357328567E+02 0.  0.
          5    1    3    3  502    0 -0.92031409479E+02  0.73958811872E+02  0.83262677235E+02  0.14453315192E+03  0.41800000000E+01 0.  1.
         -5    1    3    3    0  502  0.21858308707E+02 -0.16805091589E+02 -0.53746888366E+01  0.28399937376E+02  0.41800000000E+01 0.  1.
        -11    1    4    4    0    0  0.69089574148E+02 -0.68215381340E+02 -0.23998060629E+02  0.10001307125E+03  0.00000000000E+00 0.  1.
         11    1    4    4    0    0  0.10835266240E+01  0.11061661057E+02 -0.44143574430E+02  0.45521308623E+02  0.00000000000E+00 0. -1.
</event>
<event>
 8    1  0.7224195E-009  0.1997262E+03  0.7561462E-02  0.1149970E+00
          2   -1    0    0  501    0  0.00000000000E+00  0.00000000000E+00  0.38386877910E+03  0.38386877910E+03  0.00000000000E+00 0. -1.
         -2   -1    0    0    0  501 -0.00000000000E+00 -0.00000000000E+00 -0.12259793681E+03  0.12259793681E+03  0.00000000000E+00 0.  1.
         25    2    1    2    0    0  0.12321829432E+02  0.16986849273E+03  0.44660030843E+02  0.21598416704E+03  0.12509000661E+03 0.  0.
         23    2    1    2    0    0 -0.12321829432E+02 -0.16986849273E+03  0.21661081145E+03  0.29048254886E+03  0.91938758182E+02 0.  0.
          5    1    3    3  502    0 -0.10973473998E+02 -0.17904036523E+02 -0.48217971716E+00  0.21416735341E+02  0.41800000000E+01 0.  1.
         -5    1    3    3    0  502  0.23295303429E+02  0.18777252925E+03  0.45142210560E+02  0.19456743170E+03  0.41800000000E+01 0.  1.
        -11    1    4    4    0    0 -0.43217243008E+02 -0.55654132898E+02  0.51157029823E+02  0.87075566620E+02  0.00000000000E+00 0.  1.
         11    1    4    4    0    0  0.30895413577E+02 -0.11421435983E+03  0.16545378163E+03  0.20340698225E+03  0.00000000000E+00 0. -1.
</event>
<event>
 8    1  0.7224195E-009  0.6667956E+02  0.7561462E-02  0.1371763E+00
          2   -1    0    0  501    0  0.00000000000E+00  0.00000000000E+00  0.11622438556E+03  0.11622438556E+03  0.00000000000E+00 0. -1.
         -2   -1    0    0    0  501 -0.00000000000E+00 -0.00000000000E+00 -0.10690797929E+03  0.10690797929E+03  0.00000000000E+00 0.  1.
         25    2    1    2    0    0 -0.24417633745E+02 -0.35343321588E+01  0.13828871670E+02  0.12824989515E+03  0.12509230821E+03 0.  0.
         23    2    1    2    0    0  0.24417633745E+02  0.35343321588E+01 -0.45124654036E+01  0.94882469699E+02  0.91507422489E+02 0.  0.
          5    1    3    3  502    0  0.28799562711E+02  0.24742609882E+02 -0.34048078774E+02  0.51169870279E+02  0.41800000000E+01 0. -1.
         -5    1    3    3    0  502 -0.53217196456E+02 -0.28276942041E+02  0.47876950445E+02  0.77080024869E+02  0.41800000000E+01 0. -1.
        -11    1    4    4    0    0  0.99413751737E+01 -0.10591985222E+02  0.41850244977E+02  0.44299707628E+02  0.00000000000E+00 0. -1.
         11    1    4    4    0    0  0.14476258571E+02  0.14126317381E+02 -0.46362710380E+02  0.50582762071E+02  0.00000000000E+00 0.  1.
</event>
<event>
 8    1  0.7224195E-009  0.8314121E+02  0.7561462E-02  0.1320366E+00
         -2   -1    0    0    0  501 -0.00000000000E+00  0.00000000000E+00  0.13999113199E+03  0.13999113199E+03  0.00000000000E+00 0.  1.
          2   -1    0    0  501    0  0.00000000000E+00 -0.00000000000E+00 -0.94013474334E+02  0.94013474334E+02  0.00000000000E+00 0. -1.
         25    2    1    2    0    0  0.32718304234E+02  0.20086559865E+02  0.27434385580E+02  0.13368571407E+03  0.12508104299E+03 0.  0.
         23    2    1    2    0    0 -0.32718304234E+02 -0.20086559865E+02  0.18543272076E+02  0.10031889225E+03  0.90807873469E+02 0.  0.
          5    1    3    3  502    0 -0.18380663494E+02  0.14367565656E+02  0.65446538866E+02  0.69606016858E+02  0.41800000000E+01 0.  1.
         -5    1    3    3    0  502  0.51098967728E+02  0.57189942094E+01 -0.38012153286E+02  0.64079697214E+02  0.41800000000E+01 0.  1.
        -11    1    4    4    0    0  0.37820515708E+01 -0.46047414491E+02  0.28699844278E+02  0.54390710209E+02  0.00000000000E+00 0.  1.
         11    1    4    4    0    0 -0.36500355805E+02  0.25960854626E+02 -0.10156572203E+02  0.45928182042E+02  0.00000000000E+00 0. -1.
</event>
<event>
 8    1  0.7224195E-009  0.1103225E+03  0.7561462E-02  0.1259974E+00
         -2   -1    0    0    0  501 -0.00000000000E+00  0.00000000000E+00  0.15813741305E+02  0.15813741305E+02  0.00000000000E+00 0. -1.
          2   -1    0    0  501    0  0.00000000000E+00 -0.00000000000E+00 -0.13554991361E+04  0.13554991361E+04  0.00000000000E+00 0.  1.
         25    2    1    2    0    0  0.56752243764E+02  0.40073271595E+02 -0.10375223918E+04  0.10473427451E+04  0.12508968010E+03 0.  0.
         23    2    1    2    0    0 -0.56752243764E+02 -0.40073271595E+02 -0.30216300303E+03  0.32397013229E+03  0.93954680278E+02 0.  0.
          5    1    3    3  502    0  0.71398891411E+02  0.68690671671E+02 -0.55931814455E+03  0.56804090459E+03  0.41800000000E+01 0. -1.
         -5    1    3    3    0  502 -0.14646647646E+02 -0.28617400076E+02 -0.47820424725E+03  0.47930184056E+03  0.41800000000E+01 0. -1.
        -11    1    4    4    0    0 -0.29655572272E+02 -0.51679669235E+02 -0.28207280126E+03  0.28829725353E+03  0.00000000000E+00 0.  1.
         11    1    4    4    0    0 -0.27096671492E+02  0.11606397640E+02 -0.20090201770E+02  0.35672878764E+02  0.00000000000E+00 0. -1.
</event>
<event>
 8    1  0.7224195E-009  0.1546038E+03  0.7561462E-02  0.1194927E+00
         -2   -1    0    0    0  501 -0.00000000000E+00  0.00000000000E+00  0.33655241701E+02  0.33655241701E+02  0.00000000000E+00 0.  1.
          2   -1    0    0  501    0  0.00000000000E+00 -0.00000000000E+00 -0.10581627625E+04  0.10581627625E+04  0.00000000000E+00 0. -1.
         25    2    1    2    0    0  0.76967289344E+02  0.91547193662E+02 -0.25599059453E+03  0.30900475894E+03  0.12509158350E+03 0.  0.
         23    2    1    2    0    0 -0.76967289344E+02 -0.91547193662E+02 -0.76851692629E+03  0.78281324529E+03  0.88732512076E+02 0.  0.
          5    1    3    3  502    0  0.79635331303E+02  0.11744913715E+02 -0.18610751672E+03  0.20281323717E+03  0.41800000000E+01 0. -1.
         -5    1    3    3    0  502 -0.26680419589E+01  0.79802279947E+02 -0.69883077810E+02  0.10619152177E+03  0.41800000000E+01 0. -1.
        -11    1    4    4    0    0 -0.18494109716E+02 -0.88155635272E+02 -0.44204133661E+03  0.45112525023E+03  0.00000000000E+00 0.  1.
         11    1    4    4    0    0 -0.58473179628E+02 -0.33915583897E+01 -0.32647558968E+03  0.33168799505E+03  0.00000000000E+00 0. -1.
</event>
<event>
 8    1  0.7224195E-009  0.4008906E+03  0.7561462E-02  0.1043472E+00
         -2   -1    0    0    0  501 -0.00000000000E+00  0.00000000000E+00  0.10223333296E+03  0.10223333296E+03  0.00000000000E+00 0.  1.
          2   -1    0    0  501    0  0.00000000000E+00 -0.00000000000E+00 -0.18493290230E+04  0.18493290230E+04  0.00000000000E+00 0. -1.
         25    2    1    2    0    0 -0.25878408451E+03 -0.28594593392E+03 -0.12579937469E+04  0.13217148840E+04  0.12509071862E+03 0.  0.
         23    2    1    2    0    0  0.25878408451E+03  0.28594593392E+03 -0.48910194319E+03  0.62984747199E+03  0.93556654607E+02 0.  0.
          5    1    3    3  502    0 -0.23294578545E+03 -0.17615837260E+03 -0.93589572628E+03  0.98041511314E+03  0.41800000000E+01 0. -1.
         -5    1    3    3    0  502 -0.25838299054E+02 -0.10978756132E+03 -0.32209802059E+03  0.34129977086E+03  0.41800000000E+01 0. -1.
        -11    1    4    4    0    0  0.18423340883E+03  0.13473971946E+03 -0.27872633155E+03  0.36025700386E+03  0.00000000000E+00 0.  1.
         11    1    4    4    0    0  0.74550675675E+02  0.15120621446E+03 -0.21037561164E+03  0.26959046813E+03  0.00000000000E+00 0. -1.
</event>
<event>
 8    1  0.7224195E-009  0.3980599E+03  0.7561462E-02  0.1044454E+00
         -2   -1    0    0    0  501 -0.00000000000E+00  0.00000000000E+00  0.38498815633E+03  0.38498815633E+03  0.00000000000E+00 0.  1.
          2   -1    0    0  501    0  0.00000000000E+00 -0.00000000000E+00 -0.41953599701E+03  0.41953599701E+03  0.00000000000E+00 0. -1.
         25    2    1    2    0    0  0.71951954565E+02 -0.37921512439E+03  0.57526528675E+01  0.40578489097E+03  0.12508833037E+03 0.  0.
         23    2    1    2    0    0 -0.71951954565E+02  0.37921512439E+03 -0.40300493552E+02  0.39873926237E+03  0.91584252160E+02 0.  0.
          5    1    3    3  502    0 -0.12945315438E+02 -0.22796902205E+03 -0.24454712568E+02  0.22968012882E+03  0.41800000000E+01 0.  1.
         -5    1    3    3    0  502  0.84897270003E+02 -0.15124610233E+03  0.30207365435E+02  0.17610476215E+03  0.41800000000E+01 0.  1.
        -11    1    4    4    0    0  0.85720775983E+01  0.16781280576E+03  0.46572170981E+01  0.16809612715E+03  0.00000000000E+00 0.  1.
         11    1    4    4    0    0 -0.80524032163E+02  0.21140231862E+03 -0.44957710650E+02  0.23064313522E+03  0.00000000000E+00 0. -1.
</event>
<event>
 8    1  0.7224195E-009  0.1079048E+03  0.7561462E-02  0.1264500E+00
          2   -1    0    0  501    0  0.00000000000E+00  0.00000000000E+00  0.11223549266E+04  0.11223549266E+04  0.00000000000E+00 0.  1.
         -2   -1    0    0    0  501 -0.00000000000E+00 -0.00000000000E+00 -0.10960505168E+02  0.10960505168E+02  0.00000000000E+00 0. -1.
         25    2    1    2    0    0  0.43059347481E+01  0.25661519545E+02  0.67661775823E+03  0.68857527039E+03  0.12508899865E+03 0.  0.
         23    2    1    2    0    0 -0.43059347481E+01 -0.25661519545E+02  0.43477666322E+03  0.44474016140E+03  0.89922242064E+02 0.  0.
          5    1    3    3  502    0  0.30475324779E+02  0.67301662594E+02  0.48929576024E+03  0.49485964939E+03  0.41800000000E+01 0.  1.
         -5    1    3    3    0  502 -0.26169390030E+02 -0.41640143049E+02  0.18732199799E+03  0.19371562100E+03  0.41800000000E+01 0.  1.
        -11    1    4    4    0    0  0.34639289214E+02  0.13543216930E+02  0.21015967684E+03  0.21342537069E+03  0.00000000000E+00 0.  1.
         11    1    4    4    0    0 -0.38945223962E+02 -0.39204736475E+02  0.22461698638E+03  0.23131479071E+03  0.00000000000E+00 0. -1.
</event>
<event>
 8    1  0.7224195E-009  0.1076579E+03  0.7561462E-02  0.1264970E+00
         -2   -1    0    0    0  501 -0.00000000000E+00  0.00000000000E+00  0.17708603976E+03  0.17708603976E+03  0.00000000000E+00 0.  1.
          2   -1    0    0  501    0  0.00000000000E+00 -0.00000000000E+00 -0.74742837093E+02  0.74742837093E+02  0.00000000000E+00 0. -1.
         25    2    1    2    0    0 -0.27127687518E+02  0.17147483220E+02  0.35248636080E+02  0.13386724009E+03  0.12509206215E+03 0.  0.
         23    2    1    2    0    0  0.27127687518E+02 -0.17147483220E+02  0.67094566588E+02  0.11796163676E+03  0.91560467841E+02 0.  0.
          5    1    3    3  502    0  0.13005046820E+02 -0.44398486655E+02  0.38307063076E+02  0.60210134874E+02  0.41800000000E+01 0. -1.
         -5    1    3    3    0  502 -0.40132734338E+02  0.61545969875E+02 -0.30584269965E+01  0.73657105217E+02  0.41800000000E+01 0. -1.
        -11    1    4    4    0    0  0.25624534663E+02 -0.53271785949E+02  0.52183915701E+02  0.78852146533E+02  0.00000000000E+00 0.  1.
         11    1    4    4    0    0  0.15031528544E+01  0.36124302729E+02  0.14910650887E+02  0.39109490230E+02  0.00000000000E+00 0. -1.
</event>
<event>
 8    1  0.7224195E-009  0.1933495E+03  0.7561462E-02  0.1155475E+00
         -1   -1    0    0    0  501 -0.00000000000E+00  0.00000000000E+00  0.80663383966E+02  0.80663383966E+02  0.00000000000E+00 0.  1.
          1   -1    0    0  501    0  0.00000000000E+00 -0.00000000000E+00 -0.60994758581E+03  0.60994758581E+03  0.00000000000E+00 0. -1.
         25    2    1    2    0    0  0.16484395869E+03  0.65673171956E+02 -0.39338386028E+03  0.44931790228E+03  0.12509684068E+03 0.  0.
         23    2    1    2    0    0 -0.16484395869E+03 -0.65673171956E+02 -0.13590034157E+03  0.24129306750E+03  0.90922743868E+02 0.  0.
          5    1    3    3  502    0  0.61238050296E+02  0.57193657628E+02 -0.29289923181E+03  0.30467793762E+03  0.41800000000E+01 0.  1.
         -5    1    3    3    0  502  0.10360590840E+03  0.84795143283E+01 -0.10048462847E+03  0.14463996466E+03  0.41800000000E+01 0.  1.
        -11    1    4    4    0    0 -0.12179645748E+03 -0.18848803841E+01 -0.73950181115E+02  0.14250108461E+03  0.00000000000E+00 0. -1.
         11    1    4    4    0    0 -0.43047501211E+02 -0.63788291572E+02 -0.61950160451E+02  0.98791982884E+02  0.00000000000E+00 0.  1.
</event>
<event>
 8    1  0.7224195E-009  0.6453610E+02  0.7561462E-02  0.1379725E+00
          4   -1    0    0  501    0  0.00000000000E+00  0.00000000000E+00  0.70838163483E+02  0.70838163483E+02  0.00000000000E+00 0. -1.
         -4   -1    0    0    0  501 -0.00000000000E+00 -0.00000000000E+00 -0.18584095981E+03  0.18584095981E+03  0.00000000000E+00 0.  1.
         25    2    1    2    0    0 -0.34908319393E+02  0.81464533154E+01 -0.50182598493E+02  0.13946463247E+03  0.12508850888E+03 0.  0.
         23    2    1    2    0    0  0.34908319393E+02 -0.81464533154E+01 -0.64820197829E+02  0.11721449082E+03  0.90843950527E+02 0.  0.
          5    1    3    3  502    0 -0.43815905047E+01  0.66468153932E+01 -0.89241391267E+02  0.89693237234E+02  0.41800000000E+01 0. -1.
         -5    1    3    3    0  502 -0.30526728888E+02  0.14996379222E+01  0.39058792774E+02  0.49771395233E+02  0.41800000000E+01 0. -1.
        -11    1    4    4    0    0 -0.54693210807E+01 -0.38394112017E+02 -0.52250398874E+01  0.39132114082E+02  0.00000000000E+00 0. -1.
         11    1    4    4    0    0  0.40377640474E+02  0.30247658702E+02 -0.59595157942E+02  0.78082376739E+02  0.00000000000E+00 0.  1.
</event>
<event>
 8    1  0.7224195E-009  0.1208008E+03  0.7561462E-02  0.1241782E+00
         -1   -1    0    0    0  501 -0.00000000000E+00  0.00000000000E+00  0.18552743851E+02  0.18552743851E+02  0.00000000000E+00 0.  1.
          1   -1    0    0  501    0  0.00000000000E+00 -0.00000000000E+00 -0.10271957089E+04  0.10271957089E+04  0.00000000000E+00 0. -1.
         25    2    1    2    0    0  0.33175225199E+02  0.54819246202E+02 -0.76593908852E+03  0.77872741991E+03  0.12509181378E+03 0.  0.
         23    2    1    2    0    0 -0.33175225199E+02 -0.54819246202E+02 -0.24270387653E+03  0.26702103284E+03  0.91045675217E+02 0.  0.
          5    1    3    3  502    0  0.79410026023E+02  0.23407926958E+02 -0.39772535023E+03  0.40627184236E+03  0.41800000000E+01 0.  1.
         -5    1    3    3    0  502 -0.46234800824E+02  0.31411319244E+02 -0.36821373829E+03  0.37245557755E+03  0.41800000000E+01 0.  1.
        -11    1    4    4    0    0 -0.17257718559E+02 -0.74996370811E+02 -0.12699527764E+03  0.14849271035E+03  0.00000000000E+00 0.  1.
         11    1    4    4    0    0 -0.15917506641E+02  0.20177124609E+02 -0.11570859889E+03  0.11852832249E+03  0.00000000000E+00 0. -1.
</event>
<event>
 8    1  0.7224195E-009  0.1639498E+03  0.7561462E-02  0.1184308E+00
         -1   -1    0    0    0  501 -0.00000000000E+00  0.00000000000E+00  0.13086351825E+03  0.13086351825E+03  0.00000000000E+00 0.  1.
          1   -1    0    0  501    0  0.00000000000E+00 -0.00000000000E+00 -0.27903035095E+03  0.27903035095E+03  0.00000000000E+00 0. -1.
         25    2    1    2    0    0 -0.33654144070E+02 -0.14982128889E+03 -0.10015602039E+03  0.22194094191E+03  0.12509010056E+03 0.  0.
         23    2    1    2    0    0  0.33654144070E+02  0.14982128889E+03 -0.48010812308E+02  0.18795292729E+03  0.97171213629E+02 0.  0.
          5    1    3    3  502    0  0.26827211722E+02 -0.39088435010E+02 -0.81428192475E+02  0.94316636762E+02  0.41800000000E+01 0.  1.
         -5    1    3    3    0  502 -0.60481355792E+02 -0.11073285388E+03 -0.18727827918E+02  0.12762430515E+03  0.41800000000E+01 0.  1.
        -11    1    4    4    0    0  0.27447670306E+02  0.94790952740E+02 -0.77253801601E+02  0.12532696912E+03  0.00000000000E+00 0. -1.
         11    1    4    4    0    0  0.62064737635E+01  0.55030336152E+02  0.29242989292E+02  0.62625958167E+02  0.00000000000E+00 0.  1.
</event>
<event>
 8    1  0.7224195E-009  0.5627162E+02  0.7561462E-02  0.1414179E+00
          1   -1    0    0  501    0  0.00000000000E+00  0.00000000000E+00  0.10942324729E+03  0.10942324729E+03  0.00000000000E+00 0. -1.
         -1   -1    0    0    0  501 -0.00000000000E+00 -0.00000000000E+00 -0.10887907679E+03  0.10887907679E+03  0.00000000000E+00 0.  1.
         25    2    1    2    0    0  0.73807088448E+01 -0.13475528725E+02 -0.18471150180E+01  0.12604501297E+03  0.12509144145E+03 0.  0.
         23    2    1    2    0    0 -0.73807088448E+01  0.13475528725E+02  0.23912855252E+01  0.92257311109E+02  0.90937497597E+02 0.  0.
          5    1    3    3  502    0  0.33036037463E+01  0.52670006672E+00  0.61080392113E+02  0.61314581556E+02  0.41800000000E+01 0.  1.
         -5    1    3    3    0  502  0.40771050985E+01 -0.14002228792E+02 -0.62927507131E+02  0.64730431413E+02  0.41800000000E+01 0.  1.
        -11    1    4    4    0    0  0.28289801820E+02  0.38982999549E+02 -0.18404360856E+01  0.48201393609E+02  0.00000000000E+00 0.  1.
         11    1    4    4    0    0 -0.35670510665E+02 -0.25507470825E+02  0.42317216107E+01  0.44055917500E+02  0.00000000000E+00 0. -1.
</event>
<event>
 8    1  0.7224195E-009  0.1592803E+03  0.7561462E-02  0.1189512E+00
         -3   -1    0    0    0  501 -0.00000000000E+00  0.00000000000E+00  0.11630635360E+04  0.11630635360E+04  0.00000000000E+00 0.  1.
          3   -1    0    0  501    0  0.00000000000E+00 -0.00000000000E+00 -0.27451573160E+02  0.27451573160E+02  0.00000000000E+00 0. -1.
         25    2    1    2    0    0  0.29747927878E+02  0.13391897794E+03  0.49247557611E+03  0.52630843199E+03  0.12509652535E+03 0.  0.
         23    2    1    2    0    0 -0.29747927878E+02 -0.13391897794E+03  0.64313638668E+03  0.66420667712E+03  0.93417697416E+02 0.  0.
          5    1    3    3  502    0 -0.36701414950E+02  0.88804092409E+02  0.34698206296E+03  0.36006552890E+03  0.41800000000E+01 0.  1.
         -5    1    3    3    0  502  0.66449342828E+02  0.45114885532E+02  0.14549351315E+03  0.16624290309E+03  0.41800000000E+01 0.  1.
        -11    1    4    4    0    0 -0.13713070575E+02 -0.11982118430E+03  0.62395880195E+03  0.63550747521E+03  0.00000000000E+00 0.  1.
         11    1    4    4    0    0 -0.16034857303E+02 -0.14097793644E+02  0.19177584730E+02  0.28699201913E+02  0.00000000000E+00 0. -1.
</event>
<event>
 8    1  0.7224195E-009  0.1752283E+03  0.7561462E-02  0.1172503E+00
         -1   -1    0    0    0  501 -0.00000000000E+00  0.00000000000E+00  0.14804127832E+03  0.14804127832E+03  0.00000000000E+00 0.  1.
          1   -1    0    0  501    0  0.00000000000E+00 -0.00000000000E+00 -0.24583734363E+03  0.24583734363E+03  0.00000000000E+00 0. -1.
         25    2    1    2    0    0 -0.14356487026E+03 -0.14147918566E+02 -0.11415371773E+03  0.22246341809E+03  0.12509142874E+03 0.  0.
         23    2    1    2    0    0  0.14356487026E+03  0.14147918566E+02  0.16357652412E+02  0.17141520386E+03  0.91129379178E+02 0.  0.
          5    1    3    3  502    0  0.15763766741E+02 -0.25981750641E+02 -0.12978479103E+02  0.33308572891E+02  0.41800000000E+01 0. -1.
         -5    1    3    3    0  502 -0.15932863700E+03  0.11833832074E+02 -0.10117523863E+03  0.18915484520E+03  0.41800000000E+01 0. -1.
        -11    1    4    4    0    0  0.97055978344E+02 -0.23801013309E+02 -0.19039150230E+02  0.10172925050E+03  0.00000000000E+00 0. -1.
         11    1    4    4    0    0  0.46508891917E+02  0.37948931875E+02  0.35396802642E+02  0.69685953355E+02  0.00000000000E+00 0.  1.
</event>
<event>
 8    1  0.7224195E-009  0.1365026E+03  0.7561462E-02  0.1218114E+00
          2   -1    0    0  501    0  0.00000000000E+00  0.00000000000E+00  0.15738794049E+03  0.15738794049E+03  0.00000000000E+00 0. -1.
         -2   -1    0    0    0  501 -0.00000000000E+00 -0.00000000000E+00 -0.12663384592E+03  0.12663384592E+03  0.00000000000E+00 0.  1.
         25    2    1    2    0    0  0.21451035846E+01 -0.88629492850E+02  0.31715369937E+02  0.15656336685E+03  0.12508570932E+03 0.  0.
         23    2    1    2    0    0 -0.21451035846E+01  0.88629492850E+02 -0.96127537373E+00  0.12745841956E+03  0.91569297222E+02 0.  0.
          5    1    3    3  502    0  0.55436381479E+02 -0.13345147508E+02 -0.45748190788E+01  0.57355790667E+02  0.41800000000E+01 0. -1.
         -5    1    3    3    0  502 -0.53291277894E+02 -0.75284345342E+02  0.36290189016E+02  0.99207576183E+02  0.41800000000E+01 0. -1.
        -11    1    4    4    0    0 -0.19415876524E+02 -0.11047034725E+02  0.12185527103E+02  0.25446027356E+02  0.00000000000E+00 0. -1.
         11    1    4    4    0    0  0.17270772940E+02  0.99676527576E+02 -0.13146802477E+02  0.10201239220E+03  0.00000000000E+00 0.  1.
</event>
<event>
 8    1  0.7224195E-009  0.2209088E+03  0.7561462E-02  0.1133207E+00
          2   -1    0    0  501    0  0.00000000000E+00  0.00000000000E+00  0.11473732127E+03  0.11473732127E+03  0.00000000000E+00 0. -1.
         -2   -1    0    0    0  501 -0.00000000000E+00 -0.00000000000E+00 -0.71823361816E+03  0.71823361816E+03  0.00000000000E+00 0.  1.
         25    2    1    2    0    0  0.15667611165E+03  0.11377127448E+03 -0.57209348231E+03  0.61679004413E+03  0.12509076375E+03 0.  0.
         23    2    1    2    0    0 -0.15667611165E+03 -0.11377127448E+03 -0.31402814575E+02  0.21618089530E+03  0.90866582808E+02 0.  0.
          5    1    3    3  502    0 -0.13424916930E+02 -0.12044162092E+02 -0.37052343915E+02  0.41420270698E+02  0.41800000000E+01 0.  1.
         -5    1    3    3    0  502  0.17010102858E+03  0.12581543657E+03 -0.53504113840E+03  0.57536977343E+03  0.41800000000E+01 0.  1.
        -11    1    4    4    0    0 -0.68080292101E+02 -0.10154097470E+03 -0.33366278295E+02  0.12672333741E+03  0.00000000000E+00 0. -1.
         11    1    4    4    0    0 -0.88595819550E+02 -0.12230299773E+02  0.19634637197E+01  0.89457557892E+02  0.00000000000E+00 0.  1.
</event>
<event>
 8    1  0.7224195E-009  0.1053223E+03  0.7561462E-02  0.1269486E+00
          2   -1    0    0  501    0  0.00000000000E+00  0.00000000000E+00  0.51452714486E+03  0.51452714486E+03  0.00000000000E+00 0.  1.
         -2   -1    0    0    0  501 -0.00000000000E+00 -0.00000000000E+00 -0.32828356616E+02  0.32828356616E+02  0.00000000000E+00 0. -1.
         25    2    1    2    0    0  0.63509333943E+02 -0.55786529391E+01  0.31302891943E+03  0.34307294340E+03  0.12508950088E+03 0.  0.
         23    2    1    2    0    0 -0.63509333943E+02  0.55786529391E+01  0.16866986881E+03  0.20428255807E+03  0.96006676951E+02 0.  0.
          5    1    3    3  502    0  0.10287027474E+02  0.50017395313E+02  0.19862310795E+03  0.20512477710E+03  0.41800000000E+01 0.  1.
         -5    1    3    3    0  502  0.53222306469E+02 -0.55596048252E+02  0.11440581148E+03  0.13794816630E+03  0.41800000000E+01 0.  1.
        -11    1    4    4    0    0 -0.68557485138E+02 -0.68675475790E+01  0.17598257251E+03  0.18898983519E+03  0.00000000000E+00 0.  1.
         11    1    4    4    0    0  0.50481511950E+01  0.12446200518E+02 -0.73127036932E+01  0.15292722881E+02  0.00000000000E+00 0. -1.
</event>
<event>
 8    1  0.7224195E-009  0.1992591E+03  0.7561462E-02  0.1150366E+00
         -2   -1    0    0    0  501 -0.00000000000E+00  0.00000000000E+00  0.67467715126E+02  0.67467715126E+02  0.00000000000E+00 0. -1.
          2   -1    0    0  501    0  0.00000000000E+00 -0.00000000000E+00 -0.65617734280E+03  0.65617734280E+03  0.00000000000E+00 0.  1.
         25    2    1    2    0    0  0.46704856364E+02  0.17328015721E+03 -0.33476061152E+03  0.39989855760E+03  0.12508730092E+03 0.  0.
         23    2    1    2    0    0 -0.46704856364E+02 -0.17328015721E+03 -0.25394901616E+03  0.32374650033E+03  0.90079615771E+02 0.  0.
          5    1    3    3  502    0 -0.42875000971E+02  0.61049037188E+02 -0.12589583287E+03  0.14639837357E+03  0.41800000000E+01 0.  1.
         -5    1    3    3    0  502  0.89579857335E+02  0.11223112002E+03 -0.20886477865E+03  0.25350018403E+03  0.41800000000E+01 0.  1.
        -11    1    4    4    0    0 -0.34777068681E+02 -0.15006094189E+03 -0.25467144630E+03  0.29763278775E+03  0.00000000000E+00 0.  1.
         11    1    4    4    0    0 -0.11927787683E+02 -0.23219215322E+02  0.72243014108E+00  0.26113712575E+02  0.00000000000E+00 0. -1.
</event>
<event>
 8    1  0.7224195E-009  0.1142513E+03  0.7561462E-02  0.1252894E+00
         -1   -1    0    0    0  501 -0.00000000000E+00  0.00000000000E+00  0.11330419954E+03  0.11330419954E+03  0.00000000000E+00 0.  1.
          1   -1    0    0  501    0  0.00000000000E+00 -0.00000000000E+00 -0.16770344650E+03  0.16770344650E+03  0.00000000000E+00 0. -1.
         25    2    1    2    0    0  0.66890661822E+02  0.52329273379E+02 -0.41522148125E+02  0.15679375122E+03  0.12508988027E+03 0.  0.
         23    2    1    2    0    0 -0.66890661822E+02 -0.52329273379E+02 -0.12877098832E+02  0.12421389482E+03  0.89724904577E+02 0.  0.
          5    1    3    3  502    0 -0.79634952441E+01  0.58861152385E+02  0.16477285560E+02  0.61782083617E+02  0.41800000000E+01 0. -1.
         -5    1    3    3    0  502  0.74854157066E+02 -0.65318790058E+01 -0.57999433685E+02  0.95011667606E+02  0.41800000000E+01 0. -1.
        -11    1    4    4    0    0 -0.34297979230E+02 -0.27994414063E+01  0.34191986030E+02  0.48510619045E+02  0.00000000000E+00 0.  1.
         11    1    4    4    0    0 -0.32592682592E+02 -0.49529831973E+02 -0.47069084862E+02  0.75703275778E+02  0.00000000000E+00 0. -1.
</event>
<event>
 8    1  0.7224195E-009  0.1411015E+03  0.7561462E-02  0.1211855E+00
          1   -1    0    0  501    0  0.00000000000E+00  0.00000000000E+00  0.82697273541E+02  0.82697273541E+02  0.00000000000E+00 0. -1.
         -1   -1    0    0    0  501 -0.00000000000E+00 -0.00000000000E+00 -0.33685501716E+03  0.33685501716E+03  0.00000000000E+00 0.  1.
         25    2    1    2    0    0 -0.22383526903E+01  0.10551536061E+03 -0.22515797295E+03  0.27835178308E+03  0.12508037742E+03 0.  0.
         23    2    1    2    0    0  0.22383526903E+01 -0.10551536061E+03 -0.28999770661E+02  0.14120050761E+03  0.89208156047E+02 0.  0.
          5    1    3    3  502    0 -0.47273606603E+02  0.11074894910E+02 -0.12194728366E+03  0.13132425355E+03  0.41800000000E+01 0. -1.
         -5    1    3    3    0  502  0.45035253913E+02  0.94440465697E+02 -0.10321068929E+03  0.14702752953E+03  0.41800000000E+01 0. -1.
        -11    1    4    4    0    0 -0.58140096397E+01 -0.11565973769E+03 -0.74337109089E+01  0.11604411958E+03  0.00000000000E+00 0. -1.
         11    1    4    4    0    0  0.80523623300E+01  0.10144377088E+02 -0.21566059752E+02  0.25156388032E+02  0.00000000000E+00 0.  1.
</event>
<event>
 8    1  0.7224195E-009  0.1193946E+03  0.7561462E-02  0.1244099E+00
         -2   -1    0    0    0  501 -0.00000000000E+00  0.00000000000E+00  0.96462482974E+01  0.96462482974E+01  0.00000000000E+00 0.  1.
          2   -1    0    0  501    0  0.00000000000E+00 -0.00000000000E+00 -0.18046700728E+04  0.18046700728E+04  0.00000000000E+00 0. -1.
         25    2    1    2    0    0 -0.49581265000E+02 -0.31241566607E+02 -0.13049526680E+04  0.13122433898E+04  0.12508761309E+03 0.  0.
         23    2    1    2    0    0  0.49581265000E+02  0.31241566607E+02 -0.49007115649E+03  0.50207293131E+03  0.92049729027E+02 0.  0.
          5    1    3    3  502    0  0.29524197489E+02 -0.40465413029E+02 -0.30487382608E+03  0.30898972493E+03  0.41800000000E+01 0. -1.
         -5    1    3    3    0  502 -0.79105462489E+02  0.92238464222E+01 -0.10000788419E+04  0.10032536648E+04  0.41800000000E+01 0. -1.
        -11    1    4    4    0    0 -0.24799656165E+02 -0.61087352498E+01 -0.98885887510E+02  0.10213108411E+03  0.00000000000E+00 0.  1.
         11    1    4    4    0    0  0.74380921165E+02  0.37350301857E+02 -0.39118526898E+03  0.39994184721E+03  0.00000000000E+00 0. -1.
</event>
<event>
 8    1  0.7224195E-009  0.1460292E+03  0.7561462E-02  0.1205439E+00
         -1   -1    0    0    0  501 -0.00000000000E+00  0.00000000000E+00  0.56395799432E+02  0.56395799432E+02  0.00000000000E+00 0.  1.
          1   -1    0    0  501    0  0.00000000000E+00 -0.00000000000E+00 -0.49560174052E+03  0.49560174052E+03  0.00000000000E+00 0. -1.
         25    2    1    2    0    0 -0.67765834198E+02 -0.10504918313E+03 -0.27439311264E+03  0.32645006161E+03  0.12510205154E+03 0.  0.
         23    2    1    2    0    0  0.67765834198E+02  0.10504918313E+03 -0.16481282844E+03  0.22554747834E+03  0.89893589335E+02 0.  0.
          5    1    3    3  502    0  0.28838483979E+02 -0.16814979710E+02 -0.17025858378E+02  0.37706152739E+02  0.41800000000E+01 0.  1.
         -5    1    3    3    0  502 -0.96604318177E+02 -0.88234203423E+02 -0.25736725426E+03  0.28874390887E+03  0.41800000000E+01 0.  1.
        -11    1    4    4    0    0  0.63482453444E+02  0.80131085275E+02 -0.61758043964E+02  0.11943646310E+03  0.00000000000E+00 0.  1.
         11    1    4    4    0    0  0.42833807541E+01  0.24918097858E+02 -0.10305478448E+03  0.10611101524E+03  0.00000000000E+00 0. -1.
</event>
<event>
 8    1  0.7224195E-009  0.1083979E+03  0.7561462E-02  0.1263566E+00
         -2   -1    0    0    0  501 -0.00000000000E+00  0.00000000000E+00  0.66239916509E+02  0.66239916509E+02  0.00000000000E+00 0.  1.
          2   -1    0    0  501    0  0.00000000000E+00 -0.00000000000E+00 -0.23278707148E+03  0.23278707148E+03  0.00000000000E+00 0. -1.
         25    2    1    2    0    0  0.38116814986E+01 -0.58590282790E+02 -0.68182081224E+02  0.15409203191E+03  0.12509279734E+03 0.  0.
         23    2    1    2    0    0 -0.38116814986E+01  0.58590282790E+02 -0.98365073747E+02  0.14493495608E+03  0.88786843658E+02 0.  0.
          5    1    3    3  502    0 -0.50399073943E+02 -0.50905213913E+02 -0.73337528716E+01  0.72129493198E+02  0.41800000000E+01 0. -1.
         -5    1    3    3    0  502  0.54210755441E+02 -0.76850688769E+01 -0.60848328352E+02  0.81962538714E+02  0.41800000000E+01 0. -1.
        -11    1    4    4    0    0  0.16970924355E+02  0.65936311438E+02 -0.10195819645E+03  0.12260131836E+03  0.00000000000E+00 0.  1.
         11    1    4    4    0    0 -0.20782605854E+02 -0.73460286477E+01  0.35931227060E+01  0.22333637718E+02  0.00000000000E+00 0. -1.
</event>
<event>
 8    1  0.7224195E-009  0.1568198E+03  0.7561462E-02  0.1192335E+00
         -1   -1    0    0    0  501 -0.00000000000E+00  0.00000000000E+00  0.67919622628E+02  0.67919622628E+02  0.00000000000E+00 0.  1.
          1   -1    0    0  501    0  0.00000000000E+00 -0.00000000000E+00 -0.55558182419E+03  0.55558182419E+03  0.00000000000E+00 0. -1.
         25    2    1    2    0    0  0.94665620513E+02 -0.10856924475E+03 -0.14082835269E+03  0.23712429793E+03  0.12508575913E+03 0.  0.
         23    2    1    2    0    0 -0.94665620513E+02  0.10856924475E+03 -0.34683384886E+03  0.38637714888E+03  0.90800450702E+02 0.  0.
          5    1    3    3  502    0  0.34425426126E+02 -0.35391483023E+02 -0.13299584198E+03  0.14192615481E+03  0.41800000000E+01 0.  1.
         -5    1    3    3    0  502  0.60240194387E+02 -0.73177761723E+02 -0.78325107142E+01  0.95198143126E+02  0.41800000000E+01 0.  1.
        -11    1    4    4    0    0 -0.15913726037E+02  0.85763392671E+02 -0.15720669647E+03  0.17978473687E+03  0.00000000000E+00 0.  1.
         11    1    4    4    0    0 -0.78751894476E+02  0.22805852074E+02 -0.18962715240E+03  0.20659241201E+03  0.00000000000E+00 0. -1.
</event>
<event>
 8    1  0.7224195E-009  0.8725693E+02  0.7561462E-02  0.1309634E+00
         -2   -1    0    0    0  501 -0.00000000000E+00  0.00000000000E+00  0.29077543802E+02  0.29077543802E+02  0.00000000000E+00 0. -1.
          2   -1    0    0  501    0  0.00000000000E+00 -0.00000000000E+00 -0.60969315790E+03  0.60969315790E+03  0.00000000000E+00 0.  1.
         25    2    1    2    0    0  0.59928561227E+02 -0.14107417696E+02 -0.43820780962E+03  0.45985352714E+03  0.12509488531E+03 0.  0.
         23    2    1    2    0    0 -0.59928561227E+02  0.14107417696E+02 -0.14240780447E+03  0.17891717456E+03  0.89111844841E+02 0.  0.
          5    1    3    3  502    0 -0.12437901073E+02 -0.23202188713E+02 -0.15407604285E+02  0.30788140801E+02  0.41800000000E+01 0.  1.
         -5    1    3    3    0  502  0.72366462300E+02  0.90947710171E+01 -0.42280020533E+03  0.42906538634E+03  0.41800000000E+01 0.  1.
        -11    1    4    4    0    0 -0.23794771025E+02 -0.15236517431E+02  0.86939965180E+00  0.28268329405E+02  0.00000000000E+00 0. -1.
         11    1    4    4    0    0 -0.36133790202E+02  0.29343935128E+02 -0.14327720413E+03  0.15064884515E+03  0.00000000000E+00 0.  1.
</event>
<event>
 8    1  0.7224195E-009  0.1140167E+03  0.7561462E-02  0.1253307E+00
          1   -1    0    0  501    0  0.00000000000E+00  0.00000000000E+00  0.13599221617E+03  0.13599221617E+03  0.00000000000E+00 0. -1.
         -1   -1    0    0    0  501 -0.00000000000E+00 -0.00000000000E+00 -0.18585911317E+03  0.18585911317E+03  0.00000000000E+00 0.  1.
         25    2    1    2    0    0 -0.64511671407E+02  0.47321277686E+02  0.56422668265E+02  0.15884905203E+03  0.12509374391E+03 0.  0.
         23    2    1    2    0    0  0.64511671407E+02 -0.47321277686E+02 -0.10628956526E+03  0.16300227732E+03  0.94187109827E+02 0.  0.
          5    1    3    3  502    0 -0.13073665813E+02  0.51026994753E+02  0.84741122291E+02  0.99865935826E+02  0.41800000000E+01 0. -1.
         -5    1    3    3    0  502 -0.51438005594E+02 -0.37057170669E+01 -0.28318454026E+02  0.58983116202E+02  0.41800000000E+01 0. -1.
        -11    1    4    4    0    0 -0.17978901774E+02  0.12201851350E+02 -0.15942571796E+02  0.26949799273E+02  0.00000000000E+00 0. -1.
         11    1    4    4    0    0  0.82490573181E+02 -0.59523129035E+02 -0.90346993468E+02  0.13605247805E+03  0.00000000000E+00 0.  1.
</event>
<event>
 8    1  0.7224195E-009  0.1166486E+03  0.7561462E-02  0.1248730E+00
          1   -1    0    0  501    0  0.00000000000E+00  0.00000000000E+00  0.28376929725E+03  0.28376929725E+03  0.00000000000E+00 0. -1.
         -1   -1    0    0    0  501 -0.00000000000E+00 -0.00000000000E+00 -0.58844944645E+02  0.58844944645E+02  0.00000000000E+00 0.  1.
         25    2    1    2    0    0 -0.69520520609E+02 -0.84861369397E+01  0.12465138282E+03  0.18997464438E+03  0.12508909210E+03 0.  0.
         23    2    1    2    0    0  0.69520520609E+02  0.84861369397E+01  0.10027296979E+03  0.15263959752E+03  0.91318459001E+02 0.  0.
          5    1    3    3  502    0  0.21535806008E+02  0.13007173201E+02 -0.87664292869E+01  0.26968503436E+02  0.41800000000E+01 0. -1.
         -5    1    3    3    0  502 -0.91056326618E+02 -0.21493310141E+02  0.13341781211E+03  0.16300614094E+03  0.41800000000E+01 0. -1.
        -11    1    4    4    0    0  0.42788613504E+02  0.49346035729E+02  0.47615519527E+02  0.80827807020E+02  0.00000000000E+00 0.  1.
         11    1    4    4    0    0  0.26731907105E+02 -0.40859898789E+02  0.52657450260E+02  0.71811790498E+02  0.00000000000E+00 0. -1.
</event>
<event>
 8    1  0.7224195E-009  0.1380038E+03  0.7561462E-02  0.1216041E+00
          2   -1    0    0  501    0  0.00000000000E+00  0.00000000000E+00  0.11467691789E+03  0.11467691789E+03  0.00000000000E+00 0. -1.
         -2   -1    0    0    0  501 -0.00000000000E+00 -0.00000000000E+00 -0.19269458680E+03  0.19269458680E+03  0.00000000000E+00 0.  1.
         25    2    1    2    0    0 -0.27185849687E+02  0.88097667143E+02 -0.89120718119E+02  0.17913709314E+03  0.12508927356E+03 0.  0.
         23    2    1    2    0    0  0.27185849687E+02 -0.88097667143E+02  0.11103049208E+02  0.12823441154E+03  0.88433688283E+02 0.  0.
          5    1    3    3  502    0 -0.45181823401E+02  0.11049113529E+03 -0.90827590815E+02  0.15005602885E+03  0.41800000000E+01 0.  1.
         -5    1    3    3    0  502  0.17995973714E+02 -0.22393468143E+02  0.17068726959E+01  0.29081064282E+02  0.41800000000E+01 0.  1.
        -11    1    4    4    0    0  0.59697175126E+02 -0.56504705627E+02  0.35375397934E+01  0.82274228431E+02  0.00000000000E+00 0. -1.
         11    1    4    4    0    0 -0.32511325439E+02 -0.31592961515E+02  0.75655094142E+01  0.45960183114E+02  0.00000000000E+00 0.  1.
</event>
<event>
 8    1  0.7224195E-009  0.1143268E+03  0.7561462E-02  0.1252761E+00
         -1   -1    0    0    0  501 -0.00000000000E+00  0.00000000000E+00  0.73912382228E+02  0.73912382228E+02  0.00000000000E+00 0.  1.
          1   -1    0    0  501    0  0.00000000000E+00 -0.00000000000E+00 -0.22603866827E+03  0.22603866827E+03  0.00000000000E+00 0. -1.
         25    2    1    2    0    0 -0.12831924243E+02  0.64350112724E+02 -0.12974799004E+03  0.19179758471E+03  0.12508468049E+03 0.  0.
         23    2    1    2    0    0  0.12831924243E+02 -0.64350112724E+02 -0.22378296008E+02  0.10815346579E+03  0.83010774863E+02 0.  0.
          5    1    3    3  502    0  0.41339028537E+02  0.57256270851E+02 -0.11506262476E+03  0.13507063282E+03  0.41800000000E+01 0. -1.
         -5    1    3    3    0  502 -0.54170952779E+02  0.70938418736E+01 -0.14685365272E+02  0.56726951890E+02  0.41800000000E+01 0. -1.
        -11    1    4    4    0    0 -0.27471038536E+02 -0.55392514270E+02 -0.14072910144E+01  0.61846334277E+02  0.00000000000E+00 0.  1.
         11    1    4    4    0    0  0.40302962779E+02 -0.89575984540E+01 -0.20971004993E+02  0.46307131516E+02  0.00000000000E+00 0. -1.
</event>
<event>
 8    1  0.7224195E-009  0.1183175E+03  0.7561462E-02  0.1245899E+00
         -1   -1    0    0    0  501 -0.00000000000E+00  0.00000000000E+00  0.25082570059E+02  0.25082570059E+02  0.00000000000E+00 0.  1.
          1   -1    0    0  501    0  0.00000000000E+00 -0.00000000000E+00 -0.78749220354E+03  0.78749220354E+03  0.00000000000E+00 0. -1.
         25    2    1    2    0    0 -0.82989146841E+02 -0.25260900868E+02 -0.47928239552E+03  0.50287535097E+03  0.12508673932E+03 0.  0.
         23    2    1    2    0    0  0.82989146841E+02  0.25260900868E+02 -0.28312723796E+03  0.30969942263E+03  0.90704949663E+02 0.  0.
          5    1    3    3  502    0 -0.43167131374E+02  0.23170181347E+02 -0.54228687336E+02  0.73201649332E+02  0.41800000000E+01 0. -1.
         -5    1    3    3    0  502 -0.39822015467E+02 -0.48431082215E+02 -0.42505370818E+03  0.42967370164E+03  0.41800000000E+01 0. -1.
        -11    1    4    4    0    0  0.31875226664E+02 -0.33838889167E+02 -0.12388031612E+03  0.13231565749E+03  0.00000000000E+00 0.  1.
         11    1    4    4    0    0  0.51113920176E+02  0.59099790035E+02 -0.15924692184E+03  0.17738376513E+03  0.00000000000E+00 0. -1.
</event>
<event>
 8    1  0.7224195E-009  0.1356619E+03  0.7561462E-02  0.1219288E+00
         -3   -1    0    0    0  501 -0.00000000000E+00  0.00000000000E+00  0.22489910260E+03  0.22489910260E+03  0.00000000000E+00 0.  1.
          3   -1    0    0  501    0  0.00000000000E+00 -0.00000000000E+00 -0.10355058446E+03  0.10355058446E+03  0.00000000000E+00 0. -1.
         25    2    1    2    0    0 -0.68562780438E+02 -0.59649544623E+02  0.40102462703E+01  0.15467170172E+03  0.12509328601E+03 0.  0.
         23    2    1    2    0    0  0.68562780438E+02  0.59649544623E+02  0.11733827187E+03  0.17377798534E+03  0.90396875542E+02 0.  0.
          5    1    3    3  502    0 -0.42494942934E+02  0.35484207469E+02 -0.36950061106E+01  0.55642381553E+02  0.41800000000E+01 0.  1.
         -5    1    3    3    0  502 -0.26067837503E+02 -0.95133752091E+02  0.77052523809E+01  0.99029320170E+02  0.41800000000E+01 0.  1.
        -11    1    4    4    0    0  0.73492593797E+02  0.18706028269E+02  0.39066672590E+02  0.85306985317E+02  0.00000000000E+00 0. -1.
         11    1    4    4    0    0 -0.49298133591E+01  0.40943516354E+02  0.78271599276E+02  0.88471000019E+02  0.00000000000E+00 0.  1.
</event>
<event>
 8    1  0.7224195E-009  0.2518574E+03  0.7561462E-02  0.1112137E+00
          1   -1    0    0  501    0  0.00000000000E+00  0.00000000000E+00  0.72996300527E+03  0.72996300527E+03  0.00000000000E+00 0. -1.
         -1   -1    0    0    0  501 -0.00000000000E+00 -0.00000000000E+00 -0.91256092354E+02  0.91256092354E+02  0.00000000000E+00 0.  1.
         25    2    1    2    0    0  0.14245478883E+03 -0.18409285038E+03  0.36561564957E+03  0.45111431664E+03  0.12508308856E+03 0.  0.
         23    2    1    2    0    0 -0.14245478883E+03  0.18409285038E+03  0.27309126334E+03  0.37010478098E+03  0.90637554957E+02 0.  0.
          5    1    3    3  502    0  0.13512030920E+03 -0.19727472367E+03  0.29999538264E+03  0.38365285945E+03  0.41800000000E+01 0.  1.
         -5    1    3    3    0  502  0.73344796325E+01  0.13181873281E+02  0.65620266931E+02  0.67461457195E+02  0.41800000000E+01 0.  1.
        -11    1    4    4    0    0 -0.99770540040E+02  0.57137210446E+02  0.11069566591E+03  0.15960060128E+03  0.00000000000E+00 0.  1.
         11    1    4    4    0    0 -0.42684248792E+02  0.12695563994E+03  0.16239559743E+03  0.21050417970E+03  0.00000000000E+00 0. -1.
</event>
<event>
 8    1  0.7224195E-009  0.8967824E+02  0.7561462E-02  0.1303633E+00
         -1   -1    0    0    0  501 -0.00000000000E+00  0.00000000000E+00  0.56077157400E+02  0.56077157400E+02  0.00000000000E+00 0.  1.
          1   -1    0    0  501    0  0.00000000000E+00 -0.00000000000E+00 -0.26452497855E+03  0.26452497855E+03  0.00000000000E+00 0. -1.
         25    2    1    2    0    0 -0.41140556243E+02 -0.11707883303E+02 -0.87647341725E+02  0.15861564037E+03  0.12508894819E+03 0.  0.
         23    2    1    2    0    0  0.41140556243E+02  0.11707883303E+02 -0.12080047943E+03  0.16198649558E+03  0.99082031776E+02 0.  0.
          5    1    3    3  502    0  0.17105304944E+02 -0.40371152448E+01 -0.97273531334E+02  0.98936858930E+02  0.41800000000E+01 0.  1.
         -5    1    3    3    0  502 -0.58245861187E+02 -0.76707680584E+01  0.96261896095E+01  0.59678781442E+02  0.41800000000E+01 0.  1.
        -11    1    4    4    0    0  0.68176056115E+01  0.50292355062E+02 -0.85514526492E+02  0.99441113052E+02  0.00000000000E+00 0.  1.
         11    1    4    4    0    0  0.34322950632E+02 -0.38584471759E+02 -0.35285952936E+02  0.62545382528E+02  0.00000000000E+00 0. -1.
</event>
<event>
 8    1  0.7224195E-009  0.1365150E+03  0.7561462E-02  0.1218097E+00
         -1   -1    0    0    0  501 -0.00000000000E+00  0.00000000000E+00  0.22859811708E+03  0.22859811708E+03  0.00000000000E+00 0.  1.
          1   -1    0    0  501    0  0.00000000000E+00 -0.00000000000E+00 -0.10297586148E+03  0.10297586148E+03  0.00000000000E+00 0. -1.
         25    2    1    2    0    0  0.49180147829E+02  0.73137744337E+02  0.14724220136E+01  0.15302640207E+03  0.12508834925E+03 0.  0.
         23    2    1    2    0    0 -0.49180147829E+02 -0.73137744337E+02  0.12414983359E+03  0.17854757650E+03  0.93264351739E+02 0.  0.
          5    1    3    3  502    0  0.87154605369E+02  0.57465131484E+02 -0.20166778162E+02  0.10640647497E+03  0.41800000000E+01 0. -1.
         -5    1    3    3    0  502 -0.37974457540E+02  0.15672612853E+02  0.21639200175E+02  0.46619927106E+02  0.41800000000E+01 0. -1.
        -11    1    4    4    0    0 -0.21124947656E+02  0.20543227659E+02  0.19595580754E+02  0.35387489332E+02  0.00000000000E+00 0. -1.
         11    1    4    4    0    0 -0.28055200173E+02 -0.93680971997E+02  0.10455425283E+03  0.14316008716E+03  0.00000000000E+00 0.  1.
</event>
<event>
 8    1  0.7224195E-009  0.1618670E+03  0.7561462E-02  0.1186605E+00
         -3   -1    0    0    0  501 -0.00000000000E+00  0.00000000000E+00  0.28181784519E+03  0.28181784519E+03  0.00000000000E+00 0.  1.
          3   -1    0    0  501    0  0.00000000000E+00 -0.00000000000E+00 -0.10636541191E+03  0.10636541191E+03  0.00000000000E+00 0. -1.
         25    2    1    2    0    0  0.10184447857E+03  0.86998960426E+02  0.79058960171E+02  0.19959772431E+03  0.12509122846E+03 0.  0.
         23    2    1    2    0    0 -0.10184447857E+03 -0.86998960426E+02  0.96393473112E+02  0.18858553279E+03  0.91278061923E+02 0.  0.
          5    1    3    3  502    0 -0.21407377704E+02 -0.98837890050E+01  0.22571542153E+02  0.32907628605E+02  0.41800000000E+01 0.  1.
         -5    1    3    3    0  502  0.12325185627E+03  0.96882749431E+02  0.56487418019E+02  0.16669009570E+03  0.41800000000E+01 0.  1.
        -11    1    4    4    0    0  0.51628101272E+01 -0.95833522691E+01  0.45923749823E+02  0.47196250348E+02  0.00000000000E+00 0.  1.
         11    1    4    4    0    0 -0.10700728869E+03 -0.77415608157E+02  0.50469723289E+02  0.14138928244E+03  0.00000000000E+00 0. -1.
</event>
<event>
 8    1  0.7224195E-009  0.1946388E+03  0.7561462E-02  0.1154343E+00
          4   -1    0    0  501    0  0.00000000000E+00  0.00000000000E+00  0.37164572089E+03  0.37164572089E+03  0.00000000000E+00 0. -1.
         -4   -1    0    0    0  501 -0.00000000000E+00 -0.00000000000E+00 -0.11191480818E+03  0.11191480818E+03  0.00000000000E+00 0.  1.
         25    2    1    2    0    0  0.15856227631E+03 -0.45796642264E+02  0.19382457063E+03  0.28364566646E+03  0.12509025546E+03 0.  0.
         23    2    1    2    0    0 -0.15856227631E+03  0.45796642264E+02  0.65906342087E+02  0.19991486260E+03  0.91558606642E+02 0.  0.
          5    1    3    3  502    0  0.13059628234E+03  0.20724466532E+02  0.14574007442E+03  0.19683123270E+03  0.41800000000E+01 0.  1.
         -5    1    3    3    0  502  0.27965993976E+02 -0.66521108796E+02  0.48084496207E+02  0.86814433765E+02  0.41800000000E+01 0.  1.
        -11    1    4    4    0    0 -0.74363235135E+02  0.64511146546E+02  0.55562122355E+02  0.11304303698E+03  0.00000000000E+00 0. -1.
         11    1    4    4    0    0 -0.84199041176E+02 -0.18714504282E+02  0.10344219731E+02  0.86871825625E+02  0.00000000000E+00 0.  1.
</event>
<event>
 8    1  0.7224195E-009  0.1133572E+03  0.7561462E-02  0.1254476E+00
         -2   -1    0    0    0  501 -0.00000000000E+00  0.00000000000E+00  0.93402501236E+02  0.93402501236E+02  0.00000000000E+00 0.  1.
          2   -1    0    0  501    0  0.00000000000E+00 -0.00000000000E+00 -0.21871352331E+03  0.21871352331E+03  0.00000000000E+00 0. -1.
         25    2    1    2    0    0  0.28895747639E+02  0.87418052500E+02 -0.59686136222E+02  0.16638299512E+03  0.12507592124E+03 0.  0.
         23    2    1    2    0    0 -0.28895747639E+02 -0.87418052500E+02 -0.65624885857E+02  0.14573302943E+03  0.91948953708E+02 0.  0.
          5    1    3    3  502    0 -0.10595115579E+02  0.58549730935E+02  0.27996677275E+02  0.65890923542E+02  0.41800000000E+01 0.  1.
         -5    1    3    3    0  502  0.39490863218E+02  0.28868321564E+02 -0.87682813498E+02  0.10049207158E+03  0.41800000000E+01 0.  1.
        -11    1    4    4    0    0 -0.32668592765E+02 -0.22779961610E+01  0.73182258750E+01  0.33555664943E+02  0.00000000000E+00 0.  1.
         11    1    4    4    0    0  0.37728451264E+01 -0.85140056339E+02 -0.72943111732E+02  0.11217736449E+03  0.00000000000E+00 0. -1.
</event>
<event>
 8    1  0.7224195E-009  0.1035260E+03  0.7561462E-02  0.1273051E+00
          2   -1    0    0  501    0  0.00000000000E+00  0.00000000000E+00  0.76490492132E+03  0.76490492132E+03  0.00000000000E+00 0. -1.
         -2   -1    0    0    0  501 -0.00000000000E+00 -0.00000000000E+00 -0.25704091428E+02  0.25704091428E+02  0.00000000000E+00 0.  1.
         25    2    1    2    0    0  0.22629142755E+02  0.84324707247E+02  0.35437846546E+03  0.38581535948E+03  0.12508661189E+03 0.  0.
         23    2    1    2    0    0 -0.22629142755E+02 -0.84324707247E+02  0.38482236443E+03  0.40479365327E+03  0.90260263707E+02 0.  0.
          5    1    3    3  502    0 -0.12435159567E+02  0.81999896183E+02  0.33566189543E+03  0.34578171816E+03  0.41800000000E+01 0. -1.
         -5    1    3    3    0  502  0.35064302322E+02  0.23248110646E+01  0.18716570027E+02  0.40033641321E+02  0.41800000000E+01 0. -1.
        -11    1    4    4    0    0  0.10776609237E+01 -0.20609502316E+02  0.84000453350E+01  0.22281689802E+02  0.00000000000E+00 0.  1.
         11    1    4    4    0    0 -0.23706803679E+02 -0.63715204931E+02  0.37642231910E+03  0.38251196347E+03  0.00000000000E+00 0. -1.
</event>
<event>
 8    1  0.7224195E-009  0.9635153E+02  0.7561462E-02  0.1288161E+00
          1   -1    0    0  501    0  0.00000000000E+00  0.00000000000E+00  0.32623197843E+03  0.32623197843E+03  0.00000000000E+00 0. -1.
         -1   -1    0    0    0  501 -0.00000000000E+00 -0.00000000000E+00 -0.54645005130E+02  0.54645005130E+02  0.00000000000E+00 0.  1.
         25    2    1    2    0    0 -0.41248844996E+02 -0.44961663292E+02  0.22503447666E+03  0.26459521840E+03  0.12508835092E+03 0.  0.
         23    2    1    2    0    0  0.41248844996E+02  0.44961663292E+02  0.46552496637E+02  0.11628176516E+03  0.87357286960E+02 0.  0.
          5    1    3    3  502    0  0.13947254116E+01  0.19683497995E+02 -0.58752851658E+01  0.21008967801E+02  0.41800000000E+01 0.  1.
         -5    1    3    3    0  502 -0.42643570408E+02 -0.64645161286E+02  0.23090976182E+03  0.24358625060E+03  0.41800000000E+01 0.  1.
        -11    1    4    4    0    0  0.22583668293E+02 -0.18269238297E+02  0.40825844780E+02  0.50105256646E+02  0.00000000000E+00 0. -1.
         11    1    4    4    0    0  0.18665176704E+02  0.63230901588E+02  0.57266518563E+01  0.66176508510E+02  0.00000000000E+00 0.  1.
</event>
<event>
 8    1  0.7224195E-009  0.9692385E+02  0.7561462E-02  0.1286901E+00
          2   -1    0    0  501    0  0.00000000000E+00  0.00000000000E+00  0.29939435388E+03  0.29939435388E+03  0.00000000000E+00 0. -1.
         -2   -1    0    0    0  501 -0.00000000000E+00 -0.00000000000E+00 -0.45771614052E+02  0.45771614052E+02  0.00000000000E+00 0.  1.
         25    2    1    2    0    0 -0.15663340358E+02 -0.39177087612E+02  0.13554057200E+03  0.18920407919E+03  0.12508697972E+03 0.  0.
         23    2    1    2    0    0  0.15663340358E+02  0.39177087612E+02  0.11808216782E+03  0.15596188874E+03  0.92739031473E+02 0.  0.
          5    1    3    3  502    0 -0.52548315637E+02 -0.66648509159E+02  0.77282104531E+02  0.11486228855E+03  0.41800000000E+01 0.  1.
         -5    1    3    3    0  502  0.36884975279E+02  0.27471421547E+02  0.58258467473E+02  0.74341790639E+02  0.41800000000E+01 0.  1.
        -11    1    4    4    0    0  0.19293422452E+02 -0.37136215212E+01  0.11052712004E+03  0.11225983876E+03  0.00000000000E+00 0. -1.
         11    1    4    4    0    0 -0.36300820941E+01  0.42890709133E+02  0.75550477851E+01  0.43702049986E+02  0.00000000000E+00 0.  1.
</event>
<event>
 8    1  0.7224195E-009  0.2116469E+03  0.7561462E-02  0.1140268E+00
          2   -1    0    0  501    0  0.00000000000E+00  0.00000000000E+00  0.32164057300E+03  0.32164057300E+03  0.00000000000E+00 0. -1.
         -2   -1    0    0    0  501 -0.00000000000E+00 -0.00000000000E+00 -0.14812392192E+03  0.14812392192E+03  0.00000000000E+00 0.  1.
         25    2    1    2    0    0 -0.18348386958E+03  0.35140422794E+02  0.86762131256E+02  0.24099036486E+03  0.12509000290E+03 0.  0.
         23    2    1    2    0    0  0.18348386958E+03 -0.35140422794E+02  0.86754519820E+02  0.22877413006E+03  0.99549365463E+02 0.  0.
          5    1    3    3  502    0 -0.10655059954E+03 -0.34268614557E+02  0.78876644027E+02  0.13699038499E+03  0.41800000000E+01 0.  1.
         -5    1    3    3    0  502 -0.76933270043E+02  0.69409037351E+02  0.78854872293E+01  0.10399997988E+03  0.41800000000E+01 0.  1.
        -11    1    4    4    0    0  0.14607401491E+03  0.12966807446E+02  0.81078666766E+02  0.16756940691E+03  0.00000000000E+00 0.  1.
         11    1    4    4    0    0  0.37409854671E+02 -0.48107230240E+02  0.56758530545E+01  0.61204723150E+02  0.00000000000E+00 0. -1.
</event>
<event>
 8    1  0.7224195E-009  0.1065799E+03  0.7561462E-02  0.1267038E+00
          3   -1    0    0  501    0  0.00000000000E+00  0.00000000000E+00  0.47174646856E+03  0.47174646856E+03  0.00000000000E+00 0. -1.
         -3   -1    0    0    0  501 -0.00000000000E+00 -0.00000000000E+00 -0.27729599560E+02  0.27729599560E+02  0.00000000000E+00 0.  1.
         25    2    1    2    0    0  0.22264738178E+02 -0.27478830304E+02  0.22810643325E+03  0.26254605417E+03  0.12508829277E+03 0.  0.
         23    2    1    2    0    0 -0.22264738178E+02  0.27478830304E+02  0.21591043575E+03  0.23693001395E+03  0.90926951803E+02 0.  0.
          5    1    3    3  502    0 -0.31747455660E+02  0.27985116526E+02  0.37216324665E+02  0.56511900600E+02  0.41800000000E+01 0.  1.
         -5    1    3    3    0  502  0.54012193838E+02 -0.55463946830E+02  0.19089010858E+03  0.20603415357E+03  0.41800000000E+01 0.  1.
        -11    1    4    4    0    0 -0.55540424955E+02  0.14660673933E+02  0.96438885053E+02  0.11225031276E+03  0.00000000000E+00 0.  1.
         11    1    4    4    0    0  0.33275686778E+02  0.12818156371E+02  0.11947155070E+03  0.12467970119E+03  0.00000000000E+00 0. -1.
</event>
<event>
 8    1  0.7224195E-009  0.8708442E+02  0.7561462E-02  0.1310070E+00
         -1   -1    0    0    0  501 -0.00000000000E+00  0.00000000000E+00  0.22653788174E+03  0.22653788174E+03  0.00000000000E+00 0.  1.
          1   -1    0    0  501    0  0.00000000000E+00 -0.00000000000E+00 -0.66152546500E+02  0.66152546500E+02  0.00000000000E+00 0. -1.
         25    2    1    2    0    0 -0.34823986695E+02 -0.20302119522E+02  0.12344519156E+03  0.18030804117E+03  0.12508952109E+03 0.  0.
         23    2    1    2    0    0  0.34823986695E+02  0.20302119522E+02  0.36940143682E+02  0.11238238707E+03  0.98185236167E+02 0.  0.
          5    1    3    3  502    0  0.39245605565E+02  0.32812295735E+01  0.84376401218E+02  0.93208548461E+02  0.41800000000E+01 0. -1.
         -5    1    3    3    0  502 -0.74069592260E+02 -0.23583349095E+02  0.39068790341E+02  0.87099492713E+02  0.41800000000E+01 0. -1.
        -11    1    4    4    0    0  0.20508743973E+02 -0.10288668389E+02 -0.29783942180E+02  0.37597187240E+02  0.00000000000E+00 0. -1.
         11    1    4    4    0    0  0.14315242722E+02  0.30590787910E+02  0.66724085861E+02  0.74785199827E+02  0.00000000000E+00 0.  1.
</event>
<event>
 8    1  0.7224195E-009  0.1120170E+03  0.7561462E-02  0.1256880E+00
         -1   -1    0    0    0  501 -0.00000000000E+00  0.00000000000E+00  0.30027241447E+02  0.30027241447E+02  0.00000000000E+00 0.  1.
          1   -1    0    0  501    0  0.00000000000E+00 -0.00000000000E+00 -0.52047385630E+03  0.52047385630E+03  0.00000000000E+00 0. -1.
         25    2    1    2    0    0 -0.38201306392E+02 -0.43850466146E+02 -0.29435881202E+03  0.32508027041E+03  0.12509144178E+03 0.  0.
         23    2    1    2    0    0  0.38201306392E+02  0.43850466146E+02 -0.19608780283E+03  0.22542082734E+03  0.94772990802E+02 0.  0.
          5    1    3    3  502    0 -0.66523316326E+02  0.14961823395E+02 -0.11026596670E+03  0.12971223376E+03  0.41800000000E+01 0.  1.
         -5    1    3    3    0  502  0.28322009934E+02 -0.58812289541E+02 -0.18409284531E+03  0.19536803665E+03  0.41800000000E+01 0.  1.
        -11    1    4    4    0    0  0.18632265446E+02  0.61313898589E+02 -0.63325706536E+02  0.90092733248E+02  0.00000000000E+00 0.  1.
         11    1    4    4    0    0  0.19569040947E+02 -0.17463432443E+02 -0.13276209630E+03  0.13532809409E+03  0.00000000000E+00 0. -1.
</event>
<event>
 8    1  0.7224195E-009  0.1877247E+03  0.7561462E-02  0.1160530E+00
          2   -1    0    0  501    0  0.00000000000E+00  0.00000000000E+00  0.15441485707E+04  0.15441485707E+04  0.00000000000E+00 0.  1.
         -2   -1    0    0    0  501 -0.00000000000E+00 -0.00000000000E+00 -0.24128526111E+02  0.24128526111E+02  0.00000000000E+00 0. -1.
         25    2    1    2    0    0  0.14433862807E+03 -0.49937143914E+02  0.97603027662E+03  0.99579624963E+03  0.12509081499E+03 0.  0.
         23    2    1    2    0    0 -0.14433862807E+03  0.49937143914E+02  0.54398976794E+03  0.57248084715E+03  0.92098289024E+02 0.  0.
          5    1    3    3  502    0  0.68165172652E+02 -0.88451233541E+02  0.52993777877E+03  0.54159175884E+03  0.41800000000E+01 0.  1.
         -5    1    3    3    0  502  0.76173455420E+02  0.38514089626E+02  0.44609249785E+03  0.45420449078E+03  0.41800000000E+01 0.  1.
        -11    1    4    4    0    0 -0.15376170163E+03  0.59448538484E+02  0.49755224213E+03  0.52415171779E+03  0.00000000000E+00 0. -1.
         11    1    4    4    0    0  0.94230735535E+01 -0.95113945692E+01  0.46437525809E+02  0.48329129365E+02  0.00000000000E+00 0.  1.
</event>
<event>
 8    1  0.7224195E-009  0.8471961E+02  0.7561462E-02  0.1316167E+00
          1   -1    0    0  501    0  0.00000000000E+00  0.00000000000E+00  0.81567557391E+02  0.81567557391E+02  0.00000000000E+00 0. -1.
         -1   -1    0    0    0  501 -0.00000000000E+00 -0.00000000000E+00 -0.19029767403E+03  0.19029767403E+03  0.00000000000E+00 0.  1.
         25    2    1    2    0    0  0.33112883822E+02  0.45366285989E+02 -0.88105289096E+02  0.16298677290E+03  0.12509030016E+03 0.  0.
         23    2    1    2    0    0 -0.33112883822E+02 -0.45366285989E+02 -0.20624827545E+02  0.10887845852E+03  0.90964675780E+02 0.  0.
          5    1    3    3  502    0  0.14216065749E+02 -0.31060258969E+02  0.11200679756E+02  0.36190659563E+02  0.41800000000E+01 0. -1.
         -5    1    3    3    0  502  0.18896818073E+02  0.76426544958E+02 -0.99305968852E+02  0.12679611334E+03  0.41800000000E+01 0. -1.
        -11    1    4    4    0    0 -0.17757405134E+02 -0.23026458090E+02  0.35894260810E+02  0.46194601074E+02  0.00000000000E+00 0. -1.
         11    1    4    4    0    0 -0.15355478688E+02 -0.22339827899E+02 -0.56519088355E+02  0.62683857450E+02  0.00000000000E+00 0.  1.
</event>
<event>
 8    1  0.7224195E-009  0.1178845E+03  0.7561462E-02  0.1246628E+00
         -2   -1    0    0    0  501 -0.00000000000E+00  0.00000000000E+00  0.14146591805E+03  0.14146591805E+03  0.00000000000E+00 0. -1.
          2   -1    0    0  501    0  0.00000000000E+00 -0.00000000000E+00 -0.10075482512E+03  0.10075482512E+03  0.00000000000E+00 0.  1.
         25    2    1    2    0    0 -0.12604887596E+02  0.46965739531E+02  0.33523039181E+02  0.13834110571E+03  0.12509917463E+03 0.  0.
         23    2    1    2    0    0  0.12604887596E+02 -0.46965739531E+02  0.71880537451E+01  0.10387963745E+03  0.91513097860E+02 0.  0.
          5    1    3    3  502    0  0.54303463676E+02  0.38378937031E+02  0.16137577763E+02  0.68554378350E+02  0.41800000000E+01 0.  1.
         -5    1    3    3    0  502 -0.66908351272E+02  0.85868024996E+01  0.17385461418E+02  0.69786727362E+02  0.41800000000E+01 0.  1.
        -11    1    4    4    0    0 -0.18267993755E+02 -0.63818416196E+02  0.14518702936E+02  0.67950736395E+02  0.00000000000E+00 0. -1.
         11    1    4    4    0    0  0.30872881352E+02  0.16852676665E+02 -0.73306491907E+01  0.35928901059E+02  0.00000000000E+00 0.  1.
</event>
<event>
 8    1  0.7224195E-009  0.1214543E+03  0.7561462E-02  0.1240717E+00
          2   -1    0    0  501    0  0.00000000000E+00  0.00000000000E+00  0.99821310285E+02  0.99821310285E+02  0.00000000000E+00 0. -1.
         -2   -1    0    0    0  501 -0.00000000000E+00 -0.00000000000E+00 -0.17924749624E+03  0.17924749624E+03  0.00000000000E+00 0.  1.
         25    2    1    2    0    0 -0.74069950237E+00  0.74924100676E+02 -0.65418592560E+02  0.15981602238E+03  0.12508956495E+03 0.  0.
         23    2    1    2    0    0  0.74069950237E+00 -0.74924100676E+02 -0.14007593397E+02  0.11925278415E+03  0.91710655632E+02 0.  0.
          5    1    3    3  502    0 -0.28711152562E+02  0.99306018064E+02 -0.65549699389E+02  0.12247551182E+03  0.41800000000E+01 0.  1.
         -5    1    3    3    0  502  0.27970453060E+02 -0.24381917388E+02  0.13110682941E+00  0.37340510560E+02  0.41800000000E+01 0.  1.
        -11    1    4    4    0    0  0.35037792550E+02 -0.36113384085E+02  0.23271633564E+02  0.55438184905E+02  0.00000000000E+00 0. -1.
         11    1    4    4    0    0 -0.34297093047E+02 -0.38810716591E+02 -0.37279226961E+02  0.63814599243E+02  0.00000000000E+00 0.  1.
</event>
<event>
 8    1  0.7224195E-009  0.1001181E+03  0.7561462E-02  0.1280048E+00
         -2   -1    0    0    0  501 -0.00000000000E+00  0.00000000000E+00  0.21960350866E+02  0.21960350866E+02  0.00000000000E+00 0.  1.
          2   -1    0    0  501    0  0.00000000000E+00 -0.00000000000E+00 -0.57397186947E+03  0.57397186947E+03  0.00000000000E+00 0. -1.
         25    2    1    2    0    0 -0.14306087179E+01 -0.19215371120E+02 -0.38497732652E+03  0.40524869677E+03  0.12509071577E+03 0.  0.
         23    2    1    2    0    0  0.14306087179E+01  0.19215371120E+02 -0.16703419208E+03  0.19068352356E+03  0.89936131253E+02 0.  0.
          5    1    3    3  502    0 -0.28541653657E+02 -0.55904440093E+02 -0.11203138501E+03  0.12848515884E+03  0.41800000000E+01 0. -1.
         -5    1    3    3    0  502  0.27111044939E+02  0.36689068973E+02 -0.27294594151E+03  0.27676353793E+03  0.41800000000E+01 0. -1.
        -11    1    4    4    0    0 -0.21133615777E+02 -0.30393507952E+02 -0.58385512696E+02  0.69132214880E+02  0.00000000000E+00 0. -1.
         11    1    4    4    0    0  0.22564224495E+02  0.49608879072E+02 -0.10864867938E+03  0.12155130868E+03  0.00000000000E+00 0.  1.
</event>
<event>
 8    1  0.7224195E-009  0.1074552E+03  0.7561462E-02  0.1265356E+00
         -1   -1    0    0    0  501 -0.00000000000E+00  0.00000000000E+00  0.14620641737E+03  0.14620641737E+03  0.00000000000E+00 0.  1.
          1   -1    0    0  501    0  0.00000000000E+00 -0.00000000000E+00 -0.15943367825E+03  0.15943367825E+03  0.00000000000E+00 0. -1.
         25    2    1    2    0    0 -0.78794168179E+02  0.24533407616E+02 -0.76606622187E+02  0.16830531794E+03  0.12509075288E+03 0.  0.
         23    2    1    2    0    0  0.78794168179E+02 -0.24533407616E+02  0.63379361310E+02  0.13733477768E+03  0.89629731072E+02 0.  0.
          5    1    3    3  502    0 -0.41011159379E+02  0.35081300970E+02  0.24766242206E+02  0.59526901686E+02  0.41800000000E+01 0. -1.
         -5    1    3    3    0  502 -0.37783008800E+02 -0.10547893354E+02 -0.10137286439E+03  0.10877841626E+03  0.41800000000E+01 0. -1.
        -11    1    4    4    0    0 -0.16537770538E+02 -0.19915180844E+02  0.85436404334E+01  0.27259972015E+02  0.00000000000E+00 0. -1.
         11    1    4    4    0    0  0.95331938717E+02 -0.46182267721E+01  0.54835720876E+02  0.11007480566E+03  0.00000000000E+00 0.  1.
</event>
<event>
 8    1  0.7224195E-009  0.1155637E+03  0.7561462E-02  0.1250600E+00
         -1   -1    0    0    0  501 -0.00000000000E+00  0.00000000000E+00  0.47583382771E+03  0.47583382771E+03  0.00000000000E+00 0.  1.
          1   -1    0    0  501    0  0.00000000000E+00 -0.00000000000E+00 -0.32301902806E+02  0.32301902806E+02  0.00000000000E+00 0. -1.
         25    2    1    2    0    0 -0.29712241955E+02  0.45279418447E+02  0.22006464265E+03  0.25885586840E+03  0.12507945716E+03 0.  0.
         23    2    1    2    0    0  0.29712241955E+02 -0.45279418447E+02  0.22346728225E+03  0.24927986212E+03  0.96279698602E+02 0.  0.
          5    1    3    3  502    0 -0.54046464829E+02 -0.26517599517E+02  0.10018509644E+03  0.11695610029E+03  0.41800000000E+01 0.  1.
         -5    1    3    3    0  502  0.24334222874E+02  0.71797017964E+02  0.11987954621E+03  0.14189976811E+03  0.41800000000E+01 0.  1.
        -11    1    4    4    0    0 -0.65743743541E+01 -0.56495510013E+02  0.65211701982E+02  0.86530521350E+02  0.00000000000E+00 0. -1.
         11    1    4    4    0    0  0.36286616309E+02  0.11216091566E+02  0.15825558027E+03  0.16274934077E+03  0.00000000000E+00 0.  1.
</event>
<event>
 8    1  0.7224195E-009  0.1325173E+03  0.7561462E-02  0.1223768E+00
         -1   -1    0    0    0  501 -0.00000000000E+00  0.00000000000E+00  0.85868108484E+02  0.85868108484E+02  0.00000000000E+00 0.  1.
          1   -1    0    0  501    0  0.00000000000E+00 -0.00000000000E+00 -0.27752953351E+03  0.27752953351E+03  0.00000000000E+00 0. -1.
         25    2    1    2    0    0  0.89663893490E+02 -0.66116575840E+02 -0.12396915286E+03  0.20838961678E+03  0.12508743392E+03 0.  0.
         23    2    1    2    0    0 -0.89663893490E+02  0.66116575840E+02 -0.67692272165E+02  0.15500802521E+03  0.83870309244E+02 0.  0.
          5    1    3    3  502    0  0.98035806432E+02 -0.62100571056E+02 -0.14455589821E+03  0.18542216797E+03  0.41800000000E+01 0. -1.
         -5    1    3    3    0  502 -0.83719129421E+01 -0.40160047844E+01  0.20586745349E+02  0.22967448809E+02  0.41800000000E+01 0. -1.
        -11    1    4    4    0    0 -0.33633151700E+02 -0.17623365640E+02 -0.25705414329E+02  0.45853464815E+02  0.00000000000E+00 0. -1.
         11    1    4    4    0    0 -0.56030741790E+02  0.83739941480E+02 -0.41986857836E+02  0.10915456040E+03  0.00000000000E+00 0.  1.
</event>
<event>
 8    1  0.7224195E-009  0.1779760E+03  0.7561462E-02  0.1169776E+00
          3   -1    0    0  501    0  0.00000000000E+00  0.00000000000E+00  0.98269550374E+02  0.98269550374E+02  0.00000000000E+00 0. -1.
         -3   -1    0    0    0  501 -0.00000000000E+00 -0.00000000000E+00 -0.41836691489E+03  0.41836691489E+03  0.00000000000E+00 0.  1.
         25    2    1    2    0    0 -0.14121812274E+02 -0.15955114787E+03 -0.24304590738E+03  0.31682026339E+03  0.12509105416E+03 0.  0.
         23    2    1    2    0    0  0.14121812274E+02  0.15955114787E+03 -0.77051457130E+02  0.19981620187E+03  0.91288515782E+02 0.  0.
          5    1    3    3  502    0 -0.29657471354E+02  0.34760413959E+01 -0.96259740451E+01  0.31650912265E+02  0.41800000000E+01 0. -1.
         -5    1    3    3    0  502  0.15535659080E+02 -0.16302718927E+03 -0.23341993334E+03  0.28516935113E+03  0.41800000000E+01 0. -1.
        -11    1    4    4    0    0  0.13874196894E+01  0.12729153083E+03 -0.14275760851E+02  0.12809705736E+03  0.00000000000E+00 0. -1.
         11    1    4    4    0    0  0.12734392585E+02  0.32259617037E+02 -0.62775696280E+02  0.71719144510E+02  0.00000000000E+00 0.  1.
</event>
<event>
 8    1  0.7224195E-009  0.7460234E+02  0.7561462E-02  0.1345107E+00
         -2   -1    0    0    0  501 -0.00000000000E+00  0.00000000000E+00  0.46941017853E+02  0.46941017853E+02  0.00000000000E+00 0.  1.
          2   -1    0    0  501    0  0.00000000000E+00 -0.00000000000E+00 -0.30433889182E+03  0.30433889182E+03  0.00000000000E+00 0. -1.
         25    2    1    2    0    0 -0.40014057140E+01 -0.18402452363E+02 -0.21557024656E+03  0.24994507803E+03  0.12508936536E+03 0.  0.
         23    2    1    2    0    0  0.40014057140E+01  0.18402452363E+02 -0.41827627405E+02  0.10133483165E+03  0.90357823072E+02 0.  0.
          5    1    3    3  502    0 -0.33242741129E+02 -0.22561499666E+02 -0.21636640405E+03  0.22010450769E+03  0.41800000000E+01 0.  1.
         -5    1    3    3    0  502  0.29241335415E+02  0.41590473028E+01  0.79615748390E+00  0.29840570337E+02  0.41800000000E+01 0.  1.
        -11    1    4    4    0    0  0.35667838661E+02 -0.93526911441E+01  0.62767416960E+01  0.37404077755E+02  0.00000000000E+00 0.  1.
         11    1    4    4    0    0 -0.31666432947E+02  0.27755143508E+02 -0.48104369101E+02  0.63930753893E+02  0.00000000000E+00 0. -1.
</event>
<event>
 8    1  0.7224195E-009  0.1673237E+03  0.7561462E-02  0.1180668E+00
          1   -1    0    0  501    0  0.00000000000E+00  0.00000000000E+00  0.46700442168E+03  0.46700442168E+03  0.00000000000E+00 0. -1.
         -1   -1    0    0    0  501 -0.00000000000E+00 -0.00000000000E+00 -0.67500598270E+02  0.67500598270E+02  0.00000000000E+00 0.  1.
         25    2    1    2    0    0  0.72509074181E+02 -0.12068575186E+03  0.24355426738E+03  0.30787877500E+03  0.12509213563E+03 0.  0.
         23    2    1    2    0    0 -0.72509074181E+02  0.12068575186E+03  0.15594955602E+03  0.22662624494E+03  0.84950422795E+02 0.  0.
          5    1    3    3  502    0 -0.11942863842E+02  0.19748263717E+02  0.21084068039E+02  0.31537854106E+02  0.41800000000E+01 0.  1.
         -5    1    3    3    0  502  0.84451938022E+02 -0.14043401557E+03  0.22247019934E+03  0.27634092090E+03  0.41800000000E+01 0.  1.
        -11    1    4    4    0    0 -0.39382472647E+02  0.26607126414E+02  0.10360108118E+03  0.11398290376E+03  0.00000000000E+00 0. -1.
         11    1    4    4    0    0 -0.33126601533E+02  0.94078625444E+02  0.52348474843E+02  0.11264334118E+03  0.00000000000E+00 0.  1.
</event>
<event>
 8    1  0.7224195E-009  0.1589516E+03  0.7561462E-02  0.1189886E+00
          1   -1    0    0  501    0  0.00000000000E+00  0.00000000000E+00  0.11460941144E+04  0.11460941144E+04  0.00000000000E+00 0. -1.
         -1   -1    0    0    0  501 -0.00000000000E+00 -0.00000000000E+00 -0.30794489893E+02  0.30794489893E+02  0.00000000000E+00 0.  1.
         25    2    1    2    0    0 -0.12283534572E+03 -0.34146809068E+02  0.85321022252E+03  0.87170508343E+03  0.12509013524E+03 0.  0.
         23    2    1    2    0    0  0.12283534572E+03  0.34146809068E+02  0.26208940198E+03  0.30518352085E+03  0.90507458497E+02 0.  0.
          5    1    3    3  502    0  0.85971269699E+01  0.20584630107E+02  0.38941459228E+02  0.45072688356E+02  0.41800000000E+01 0. -1.
         -5    1    3    3    0  502 -0.13143247269E+03 -0.54731439175E+02  0.81426876329E+03  0.82663239507E+03  0.41800000000E+01 0. -1.
        -11    1    4    4    0    0  0.48879167683E+02 -0.27860490912E+02  0.66711891873E+02  0.87268874775E+02  0.00000000000E+00 0. -1.
         11    1    4    4    0    0  0.73956178039E+02  0.62007299980E+02  0.19537751010E+03  0.21791464608E+03  0.00000000000E+00 0.  1.
</event>
<event>
 8    1  0.7224195E-009  0.2215039E+03  0.7561462E-02  0.1132767E+00
          3   -1    0    0  501    0  0.00000000000E+00  0.00000000000E+00  0.53939585864E+03  0.53939585864E+03  0.00000000000E+00 0. -1.
         -3   -1    0    0    0  501 -0.00000000000E+00 -0.00000000000E+00 -0.10320334228E+03  0.10320334228E+03  0.00000000000E+00 0.  1.
         25    2    1    2    0    0  0.18485751258E+03 -0.69858798043E+02  0.13192242992E+03  0.26851525688E+03  0.12507743218E+03 0.  0.
         23    2    1    2    0    0 -0.18485751258E+03  0.69858798043E+02  0.30427008643E+03  0.37408394403E+03  0.91137040010E+02 0.  0.
          5    1    3    3  502    0  0.13625045149E+03  0.12590029293E+02  0.90738685910E+02  0.16423664600E+03  0.41800000000E+01 0. -1.
         -5    1    3    3    0  502  0.48607061093E+02 -0.82448827336E+02  0.41183744015E+02  0.10427861089E+03  0.41800000000E+01 0. -1.
        -11    1    4    4    0    0 -0.17347713483E+03  0.39538519086E+02  0.21472746798E+03  0.27886465589E+03  0.00000000000E+00 0.  1.
         11    1    4    4    0    0 -0.11380377746E+02  0.30320278957E+02  0.89542618456E+02  0.95219288139E+02  0.00000000000E+00 0. -1.
</event>
<event>
 8    1  0.7224195E-009  0.1090320E+03  0.7561462E-02  0.1262373E+00
          1   -1    0    0  501    0  0.00000000000E+00  0.00000000000E+00  0.94442889697E+02  0.94442889697E+02  0.00000000000E+00 0. -1.
         -1   -1    0    0    0  501 -0.00000000000E+00 -0.00000000000E+00 -0.13062808297E+03  0.13062808297E+03  0.00000000000E+00 0.  1.
         25    2    1    2    0    0  0.87084776430E+01 -0.21667002206E+02 -0.23962481583E+02  0.12948035821E+03  0.12508263697E+03 0.  0.
         23    2    1    2    0    0 -0.87084776430E+01  0.21667002206E+02 -0.12222711692E+02  0.95590614461E+02  0.91885114814E+02 0.  0.
          5    1    3    3  502    0  0.46182433434E+02  0.33280700679E+02  0.39838533166E+01  0.57216830415E+02  0.41800000000E+01 0.  1.
         -5    1    3    3    0  502 -0.37473955791E+02 -0.54947702884E+02 -0.27946334900E+02  0.72263527794E+02  0.41800000000E+01 0.  1.
        -11    1    4    4    0    0  0.14074972347E+02 -0.32589544945E+02 -0.51769425213E-01  0.35499098106E+02  0.00000000000E+00 0. -1.
         11    1    4    4    0    0 -0.22783449990E+02  0.54256547151E+02 -0.12170942267E+02  0.60091516355E+02  0.00000000000E+00 0.  1.
</event>
<event>
 8    1  0.7224195E-009  0.1506236E+03  0.7561462E-02  0.1199709E+00
         -2   -1    0    0    0  501 -0.00000000000E+00  0.00000000000E+00  0.81265600630E+03  0.81265600630E+03  0.00000000000E+00 0.  1.
          2   -1    0    0  501    0  0.00000000000E+00 -0.00000000000E+00 -0.41844307058E+02  0.41844307058E+02  0.00000000000E+00 0. -1.
         25    2    1    2    0    0  0.16713572483E-01  0.12894797530E+03  0.22799356781E+03  0.29026965998E+03  0.12509127837E+03 0.  0.
         23    2    1    2    0    0 -0.16713572483E-01 -0.12894797530E+03  0.54281813143E+03  0.56423065338E+03  0.84125654789E+02 0.  0.
          5    1    3    3  502    0  0.43580751384E+02  0.11269711326E+02  0.25202749972E+02  0.51758470715E+02  0.41800000000E+01 0. -1.
         -5    1    3    3    0  502 -0.43564037812E+02  0.11767826398E+03  0.20279081784E+03  0.23851118926E+03  0.41800000000E+01 0. -1.
        -11    1    4    4    0    0 -0.77642994052E+01 -0.10563434423E+03  0.52007842745E+03  0.53075462290E+03  0.00000000000E+00 0.  1.
         11    1    4    4    0    0  0.77475858327E+01 -0.23313631070E+02  0.22739703972E+02  0.33476030479E+02  0.00000000000E+00 0. -1.
</event>
<event>
 8    1  0.7224195E-009  0.1562118E+03  0.7561462E-02  0.1193041E+00
          1   -1    0    0  501    0  0.00000000000E+00  0.00000000000E+00  0.60049427115E+03  0.60049427115E+03  0.00000000000E+00 0. -1.
         -1   -1    0    0    0  501 -0.00000000000E+00 -0.00000000000E+00 -0.54112950162E+02  0.54112950162E+02  0.00000000000E+00 0.  1.
         25    2    1    2    0    0 -0.74566233139E+02  0.12655707690E+03  0.31339398862E+03  0.36802188049E+03  0.12508994995E+03 0.  0.
         23    2    1    2    0    0  0.74566233139E+02 -0.12655707690E+03  0.23298733237E+03  0.28658534082E+03  0.79191184418E+02 0.  0.
          5    1    3    3  502    0  0.40931459565E+01 -0.75677353554E+01  0.11748048197E+03  0.11786925174E+03  0.41800000000E+01 0. -1.
         -5    1    3    3    0  502 -0.78659379095E+02  0.13412481226E+03  0.19591350665E+03  0.25015262875E+03  0.41800000000E+01 0. -1.
        -11    1    4    4    0    0  0.54713564025E+02 -0.10187629871E+03  0.11005687122E+03  0.15963981092E+03  0.00000000000E+00 0.  1.
         11    1    4    4    0    0  0.19852669113E+02 -0.24680778191E+02  0.12293046115E+03  0.12694552990E+03  0.00000000000E+00 0. -1.
</event>
<event>
 8    1  0.7224195E-009  0.2539100E+03  0.7561462E-02  0.1110858E+00
          1   -1    0    0  501    0  0.00000000000E+00  0.00000000000E+00  0.68958555380E+02  0.68958555380E+02  0.00000000000E+00 0. -1.
         -1   -1    0    0    0  501 -0.00000000000E+00 -0.00000000000E+00 -0.10092930656E+04  0.10092930656E+04  0.00000000000E+00 0.  1.
         25    2    1    2    0    0 -0.23717664450E+03 -0.23295436933E+02 -0.54881672159E+03  0.61126328638E+03  0.12509026063E+03 0.  0.
         23    2    1    2    0    0  0.23717664450E+03  0.23295436933E+02 -0.39151778865E+03  0.46698833462E+03  0.89423082944E+02 0.  0.
          5    1    3    3  502    0 -0.21056956785E+03  0.17642647515E+02 -0.49633852919E+03  0.53946289388E+03  0.41800000000E+01 0.  1.
         -5    1    3    3    0  502 -0.26607076649E+02 -0.40938084447E+02 -0.52478192404E+02  0.71800392506E+02  0.41800000000E+01 0.  1.
        -11    1    4    4    0    0  0.16788784458E+03  0.46820540639E+02 -0.32153390575E+03  0.36573562026E+03  0.00000000000E+00 0.  1.
         11    1    4    4    0    0  0.69288799918E+02 -0.23525103706E+02 -0.69983882905E+02  0.10125271436E+03  0.00000000000E+00 0. -1.
</event>
<event>
 8    1  0.7224195E-009  0.1647538E+03  0.7561462E-02  0.1183432E+00
         -2   -1    0    0    0  501 -0.00000000000E+00  0.00000000000E+00  0.24268577483E+03  0.24268577483E+03  0.00000000000E+00 0.  1.
          2   -1    0    0  501    0  0.00000000000E+00 -0.00000000000E+00 -0.15274754723E+03  0.15274754723E+03  0.00000000000E+00 0. -1.
         25    2    1    2    0    0 -0.10703608634E+03 -0.11488953739E+03  0.70850955928E+02  0.21289381151E+03  0.12509031714E+03 0.  0.
         23    2    1    2    0    0  0.10703608634E+03  0.11488953739E+03  0.19087271675E+02  0.18253951056E+03  0.91104442226E+02 0.  0.
          5    1    3    3  502    0 -0.10727492483E+03 -0.10320390491E+03  0.83276270579E+01  0.14915018357E+03  0.41800000000E+01 0. -1.
         -5    1    3    3    0  502  0.23883848411E+00 -0.11685632476E+02  0.62523328870E+02  0.63743627942E+02  0.41800000000E+01 0. -1.
        -11    1    4    4    0    0  0.10028114480E+03  0.68842462706E+02 -0.18088082610E+02  0.12297467791E+03  0.00000000000E+00 0. -1.
         11    1    4    4    0    0  0.67549415393E+01  0.46047074683E+02  0.37175354285E+02  0.59564832647E+02  0.00000000000E+00 0.  1.
</event>
<event>
 8    1  0.7224195E-009  0.2184424E+03  0.7561462E-02  0.1135050E+00
          1   -1    0    0  501    0  0.00000000000E+00  0.00000000000E+00  0.43675263585E+03  0.43675263585E+03  0.00000000000E+00 0. -1.
         -1   -1    0    0    0  501 -0.00000000000E+00 -0.00000000000E+00 -0.14796163195E+03  0.14796163195E+03  0.00000000000E+00 0.  1.
         25    2    1    2    0    0  0.17787490677E+03  0.73258878542E+02  0.44495410258E+01  0.22950705201E+03  0.12508933913E+03 0.  0.
         23    2    1    2    0    0 -0.17787490677E+03 -0.73258878542E+02  0.28434146288E+03  0.35520721579E+03  0.91190750046E+02 0.  0.
          5    1    3    3  502    0  0.10896575503E+03  0.10258732502E+03 -0.19004437695E+02  0.15091830928E+03  0.41800000000E+01 0.  1.
         -5    1    3    3    0  502  0.68909151741E+02 -0.29328446476E+02  0.23453978721E+02  0.78588742732E+02  0.41800000000E+01 0.  1.
        -11    1    4    4    0    0 -0.14786137767E+03 -0.17574008878E+02  0.18572016601E+03  0.23804162001E+03  0.00000000000E+00 0.  1.
         11    1    4    4    0    0 -0.30013529102E+02 -0.55684869664E+02  0.98621296867E+02  0.11716559578E+03  0.00000000000E+00 0. -1.
</event>
<event>
 8    1  0.7224195E-009  0.1100741E+03  0.7561462E-02  0.1260433E+00
          1   -1    0    0  501    0  0.00000000000E+00  0.00000000000E+00  0.13682087966E+03  0.13682087966E+03  0.00000000000E+00 0. -1.
         -1   -1    0    0    0  501 -0.00000000000E+00 -0.00000000000E+00 -0.97115963295E+02  0.97115963295E+02  0.00000000000E+00 0.  1.
         25    2    1    2    0    0  0.40195933996E+02 -0.15430008331E+02  0.25023281797E+02  0.13463999252E+03  0.12509182502E+03 0.  0.
         23    2    1    2    0    0 -0.40195933996E+02  0.15430008331E+02  0.14681634568E+02  0.99296850435E+02  0.88263898882E+02 0.  0.
          5    1    3    3  502    0  0.65716856020E+02 -0.53372159973E+02  0.26161987662E+02  0.88708593855E+02  0.41800000000E+01 0.  1.
         -5    1    3    3    0  502 -0.25520922024E+02  0.37942151642E+02 -0.11387058647E+01  0.45931398664E+02  0.41800000000E+01 0.  1.
        -11    1    4    4    0    0  0.34014089455E+01 -0.27837675769E+02 -0.14185636194E+02  0.31428300133E+02  0.00000000000E+00 0.  1.
         11    1    4    4    0    0 -0.43597342941E+02  0.43267684100E+02  0.28867270762E+02  0.67868550302E+02  0.00000000000E+00 0. -1.
</event>
<event>
 8    1  0.7224195E-009  0.1235122E+03  0.7561462E-02  0.1237413E+00
          1   -1    0    0  501    0  0.00000000000E+00  0.00000000000E+00  0.59208968501E+03  0.59208968501E+03  0.00000000000E+00 0. -1.
         -1   -1    0    0    0  501 -0.00000000000E+00 -0.00000000000E+00 -0.40356843064E+02  0.40356843064E+02  0.00000000000E+00 0.  1.
         25    2    1    2    0    0 -0.64779755531E+00  0.11144753823E+03  0.31767814548E+03  0.35915259657E+03  0.12510079970E+03 0.  0.
         23    2    1    2    0    0  0.64779755531E+00 -0.11144753823E+03  0.23405469647E+03  0.27329393151E+03  0.86527444452E+02 0.  0.
          5    1    3    3  502    0 -0.33873404425E+02  0.71798805369E+02  0.28925510690E+03  0.29998077480E+03  0.41800000000E+01 0. -1.
         -5    1    3    3    0  502  0.33225606870E+02  0.39648732860E+02  0.28423038581E+02  0.59171821769E+02  0.41800000000E+01 0. -1.
        -11    1    4    4    0    0  0.15291687886E+02 -0.70537213620E+02  0.21322048910E+03  0.22510511143E+03  0.00000000000E+00 0.  1.
         11    1    4    4    0    0 -0.14643890330E+02 -0.40910324609E+02  0.20834207372E+02  0.48188820077E+02  0.00000000000E+00 0. -1.
</event>
<event>
 8    1  0.7224195E-009  0.1093391E+03  0.7561462E-02  0.1261799E+00
         -1   -1    0    0    0  501 -0.00000000000E+00  0.00000000000E+00  0.11888169762E+03  0.11888169762E+03  0.00000000000E+00 0.  1.
          1   -1    0    0  501    0  0.00000000000E+00 -0.00000000000E+00 -0.14948711411E+03  0.14948711411E+03  0.00000000000E+00 0. -1.
         25    2    1    2    0    0 -0.50190284869E+02  0.56372838579E+02 -0.30610540951E+02  0.14927024360E+03  0.12509052236E+03 0.  0.
         23    2    1    2    0    0  0.50190284869E+02 -0.56372838579E+02  0.51244643119E-02  0.11909856813E+03  0.92127668371E+02 0.  0.
          5    1    3    3  502    0 -0.54159328843E+02  0.92119002343E+02 -0.35618212063E+02  0.11271766909E+03  0.41800000000E+01 0. -1.
         -5    1    3    3    0  502  0.39690439743E+01 -0.35746163765E+02  0.50076711123E+01  0.36552574519E+02  0.41800000000E+01 0. -1.
        -11    1    4    4    0    0  0.37764852048E+02 -0.44154537736E+02 -0.43271794391E+02  0.72444844141E+02  0.00000000000E+00 0. -1.
         11    1    4    4    0    0  0.12425432821E+02 -0.12218300843E+02  0.43276918855E+02  0.46653723987E+02  0.00000000000E+00 0.  1.
</event>
<event>
 8    1  0.7224195E-009  0.8369769E+02  0.7561462E-02  0.1318874E+00
          2   -1    0    0  501    0  0.00000000000E+00  0.00000000000E+00  0.22954119090E+03  0.22954119090E+03  0.00000000000E+00 0.  1.
         -2   -1    0    0    0  501 -0.00000000000E+00 -0.00000000000E+00 -0.78280251018E+02  0.78280251018E+02  0.00000000000E+00 0. -1.
         25    2    1    2    0    0 -0.31313382357E+02  0.21359455517E+02  0.16133873621E+03  0.20763990858E+03  0.12508952626E+03 0.  0.
         23    2    1    2    0    0  0.31313382357E+02 -0.21359455517E+02 -0.10077796326E+02  0.10018153333E+03  0.92184724266E+02 0.  0.
          5    1    3    3  502    0  0.50173895069E+01  0.31933647059E+02 -0.84204494817E+01  0.33664645868E+02  0.41800000000E+01 0. -1.
         -5    1    3    3    0  502 -0.36330771864E+02 -0.10574191542E+02  0.16975918569E+03  0.17397526271E+03  0.41800000000E+01 0. -1.
        -11    1    4    4    0    0 -0.26124808565E+02  0.13639573701E+02 -0.14361322632E+02  0.32784008008E+02  0.00000000000E+00 0. -1.
         11    1    4    4    0    0  0.57438190922E+02 -0.34999029217E+02  0.42835263063E+01  0.67397525327E+02  0.00000000000E+00 0.  1.
</event>
<event>
 8    1  0.7224195E-009  0.1637212E+03  0.7561462E-02  0.1184559E+00
          1   -1    0    0  501    0  0.00000000000E+00  0.00000000000E+00  0.24401245293E+03  0.24401245293E+03  0.00000000000E+00 0. -1.
         -1   -1    0    0    0  501 -0.00000000000E+00 -0.00000000000E+00 -0.15513128565E+03  0.15513128565E+03  0.00000000000E+00 0.  1.
         25    2    1    2    0    0 -0.58796065790E+02  0.13790508301E+03  0.10687594571E+03  0.22258644585E+03  0.12508984303E+03 0.  0.
         23    2    1    2    0    0  0.58796065790E+02 -0.13790508301E+03 -0.17994778431E+02  0.17655729274E+03  0.91508886428E+02 0.  0.
          5    1    3    3  502    0 -0.84691211407E+02  0.10918783037E+03  0.11840355031E+03  0.18202048433E+03  0.41800000000E+01 0.  1.
         -5    1    3    3    0  502  0.25895145617E+02  0.28717252645E+02 -0.11527604600E+02  0.40565961517E+02  0.41800000000E+01 0.  1.
        -11    1    4    4    0    0  0.54569173122E+02 -0.11877301588E+03  0.21503832607E+02  0.13246599101E+03  0.00000000000E+00 0. -1.
         11    1    4    4    0    0  0.42268926680E+01 -0.19132067130E+02 -0.39498611038E+02  0.44091301730E+02  0.00000000000E+00 0.  1.
</event>
<event>
 8    1  0.7224195E-009  0.1241332E+03  0.7561462E-02  0.1236430E+00
          2   -1    0    0  501    0  0.00000000000E+00  0.00000000000E+00  0.10566193793E+03  0.10566193793E+03  0.00000000000E+00 0. -1.
         -2   -1    0    0    0  501 -0.00000000000E+00 -0.00000000000E+00 -0.20739943184E+03  0.20739943184E+03  0.00000000000E+00 0.  1.
         25    2    1    2    0    0  0.85783379617E+02 -0.18202981486E+02 -0.10684111127E+03  0.18642092539E+03  0.12509037378E+03 0.  0.
         23    2    1    2    0    0 -0.85783379617E+02  0.18202981486E+02  0.51036173553E+01  0.12664044438E+03  0.91222905510E+02 0.  0.
          5    1    3    3  502    0  0.63188201455E+02 -0.71028991548E+02 -0.66453866004E+02  0.11606659791E+03  0.41800000000E+01 0.  1.
         -5    1    3    3    0  502  0.22595178163E+02  0.52826010063E+02 -0.40387245263E+02  0.70354327481E+02  0.41800000000E+01 0.  1.
        -11    1    4    4    0    0 -0.55101318505E+02 -0.73254142253E+01 -0.38431294667E+02  0.67577965376E+02  0.00000000000E+00 0.  1.
         11    1    4    4    0    0 -0.30682061112E+02  0.25528395711E+02  0.43534912022E+02  0.59062479007E+02  0.00000000000E+00 0. -1.
</event>
<event>
 8    1  0.7224195E-009  0.1405914E+03  0.7561462E-02  0.1212535E+00
          2   -1    0    0  501    0  0.00000000000E+00  0.00000000000E+00  0.45030166072E+02  0.45030166072E+02  0.00000000000E+00 0. -1.
         -2   -1    0    0    0  501 -0.00000000000E+00 -0.00000000000E+00 -0.45813914095E+03  0.45813914095E+03  0.00000000000E+00 0.  1.
         25    2    1    2    0    0  0.22632912361E+02 -0.84057783651E+02 -0.23469445453E+03  0.27983750346E+03  0.12509828791E+03 0.  0.
         23    2    1    2    0    0 -0.22632912361E+02  0.84057783651E+02 -0.17841452034E+03  0.22333180356E+03  0.10231028150E+03 0.  0.
          5    1    3    3  502    0  0.13448847315E+02  0.32048311375E+02 -0.42408781949E+02  0.54990389546E+02  0.41800000000E+01 0.  1.
         -5    1    3    3    0  502  0.91840650457E+01 -0.11610609503E+03 -0.19228567259E+03  0.22484711391E+03  0.41800000000E+01 0.  1.
        -11    1    4    4    0    0 -0.74084793760E+01 -0.21625160091E+02 -0.58295094326E+02  0.62616700153E+02  0.00000000000E+00 0.  1.
         11    1    4    4    0    0 -0.15224432985E+02  0.10568294374E+03 -0.12011942601E+03  0.16071510341E+03  0.00000000000E+00 0. -1.
</event>
<event>
 8    1  0.7224195E-009  0.1205912E+03  0.7561462E-02  0.1242125E+00
         -1   -1    0    0    0  501 -0.00000000000E+00  0.00000000000E+00  0.11334522833E+03  0.11334522833E+03  0.00000000000E+00 0.  1.
          1   -1    0    0  501    0  0.00000000000E+00 -0.00000000000E+00 -0.23540894947E+03  0.23540894947E+03  0.00000000000E+00 0. -1.
         25    2    1    2    0    0 -0.66349297408E+02 -0.18223505350E+02 -0.16913820371E+03  0.22134309716E+03  0.12510279489E+03 0.  0.
         23    2    1    2    0    0  0.66349297408E+02  0.18223505350E+02  0.47074482583E+02  0.12741108064E+03  0.96349629718E+02 0.  0.
          5    1    3    3  502    0 -0.87504686026E+02  0.93037984854E+01 -0.16377499241E+03  0.18596599496E+03  0.41800000000E+01 0. -1.
         -5    1    3    3    0  502  0.21155388618E+02 -0.27527303835E+02 -0.53632113002E+01  0.35377102191E+02  0.41800000000E+01 0. -1.
        -11    1    4    4    0    0  0.64003420616E+02 -0.29402063595E+02  0.32336896075E+02  0.77502219594E+02  0.00000000000E+00 0.  1.
         11    1    4    4    0    0  0.23458767917E+01  0.47625568945E+02  0.14737586508E+02  0.49908861050E+02  0.00000000000E+00 0. -1.
</event>
<event>
 8    1  0.7224195E-009  0.9183221E+02  0.7561462E-02  0.1298474E+00
         -4   -1    0    0    0  501 -0.00000000000E+00  0.00000000000E+00  0.51469952062E+02  0.51469952062E+02  0.00000000000E+00 0.  1.
          4   -1    0    0  501    0  0.00000000000E+00 -0.00000000000E+00 -0.25242723827E+03  0.25242723827E+03  0.00000000000E+00 0. -1.
         25    2    1    2    0    0  0.32574003578E+02  0.17415115606E+02 -0.98926285051E+02  0.16370353991E+03  0.12509231449E+03 0.  0.
         23    2    1    2    0    0 -0.32574003578E+02 -0.17415115606E+02 -0.10203100116E+03  0.14019365043E+03  0.88767012236E+02 0.  0.
          5    1    3    3  502    0 -0.26063376388E+02  0.16667645360E+02  0.15652142835E+02  0.34922370566E+02  0.41800000000E+01 0. -1.
         -5    1    3    3    0  502  0.58637379966E+02  0.74747024622E+00 -0.11457842789E+03  0.12878116934E+03  0.41800000000E+01 0. -1.
        -11    1    4    4    0    0 -0.53497855944E+02 -0.36959446525E+02 -0.55153909687E+02  0.85264148572E+02  0.00000000000E+00 0.  1.
         11    1    4    4    0    0  0.20923852366E+02  0.19544330919E+02 -0.46877091473E+02  0.54929501853E+02  0.00000000000E+00 0. -1.
</event>
<event>
 8    1  0.7224195E-009  0.3591365E+03  0.7561462E-02  0.1058926E+00
          2   -1    0    0  501    0  0.00000000000E+00  0.00000000000E+00  0.16692722405E+04  0.16692722405E+04  0.00000000000E+00 0. -1.
         -2   -1    0    0    0  501 -0.00000000000E+00 -0.00000000000E+00 -0.87349047583E+02  0.87349047583E+02  0.00000000000E+00 0.  1.
         25    2    1    2    0    0 -0.19850059897E+03 -0.28559919118E+03  0.53921322808E+03  0.65373546901E+03  0.12509904997E+03 0.  0.
         23    2    1    2    0    0  0.19850059897E+03  0.28559919118E+03  0.10427099648E+04  0.11028858190E+04  0.90242303594E+02 0.  0.
          5    1    3    3  502    0 -0.56414115647E+02 -0.18962622666E+03  0.27751311238E+03  0.34083963711E+03  0.41800000000E+01 0.  1.
         -5    1    3    3    0  502 -0.14208648332E+03 -0.95972964525E+02  0.26170011570E+03  0.31289583190E+03  0.41800000000E+01 0.  1.
        -11    1    4    4    0    0  0.15122974097E+03  0.19589041551E+03  0.84774376700E+03  0.88312682211E+03  0.00000000000E+00 0. -1.
         11    1    4    4    0    0  0.47270857999E+02  0.89708775669E+02  0.19496619779E+03  0.21975899692E+03  0.00000000000E+00 0.  1.
</event>
<event>
 8    1  0.7224195E-009  0.1126331E+03  0.7561462E-02  0.1255770E+00
          2   -1    0    0  501    0  0.00000000000E+00  0.00000000000E+00  0.20337104668E+02  0.20337104668E+02  0.00000000000E+00 0. -1.
         -2   -1    0    0    0  501 -0.00000000000E+00 -0.00000000000E+00 -0.80910848101E+03  0.80910848101E+03  0.00000000000E+00 0.  1.
         25    2    1    2    0    0  0.50920908621E+02  0.12588891157E+02 -0.57789289904E+03  0.59359936794E+03  0.12509431541E+03 0.  0.
         23    2    1    2    0    0 -0.50920908621E+02 -0.12588891157E+02 -0.21087847730E+03  0.23584621773E+03  0.91663990284E+02 0.  0.
          5    1    3    3  502    0 -0.31731346092E+02  0.26520562728E+02 -0.98416976436E+02  0.10683441498E+03  0.41800000000E+01 0.  1.
         -5    1    3    3    0  502  0.82652254713E+02 -0.13931671571E+02 -0.47947592260E+03  0.48676495297E+03  0.41800000000E+01 0.  1.
        -11    1    4    4    0    0 -0.12885549877E+00 -0.41389048206E+02 -0.51261300030E+02  0.65884678006E+02  0.00000000000E+00 0. -1.
         11    1    4    4    0    0 -0.50792053122E+02  0.28800157050E+02 -0.15961717727E+03  0.16996153973E+03  0.00000000000E+00 0.  1.
</event>
<event>
 8    1  0.7224195E-009  0.1220401E+03  0.7561462E-02  0.1239769E+00
          1   -1    0    0  501    0  0.00000000000E+00  0.00000000000E+00  0.21305846157E+03  0.21305846157E+03  0.00000000000E+00 0. -1.
         -1   -1    0    0    0  501 -0.00000000000E+00 -0.00000000000E+00 -0.94500856827E+02  0.94500856827E+02  0.00000000000E+00 0.  1.
         25    2    1    2    0    0  0.59790652095E+02 -0.38220718909E+02  0.12665819468E+03  0.19163583516E+03  0.12508496954E+03 0.  0.
         23    2    1    2    0    0 -0.59790652095E+02  0.38220718909E+02 -0.81005899405E+01  0.11592348324E+03  0.91306565904E+02 0.  0.
          5    1    3    3  502    0  0.48932580260E+01  0.39809716532E+02  0.11303977802E+02  0.41880900404E+02  0.41800000000E+01 0.  1.
         -5    1    3    3    0  502  0.54897394069E+02 -0.78030435441E+02  0.11535421688E+03  0.14975493475E+03  0.41800000000E+01 0.  1.
        -11    1    4    4    0    0 -0.63561646196E+02 -0.60274115128E+01 -0.24778603330E+02  0.68486434713E+02  0.00000000000E+00 0.  1.
         11    1    4    4    0    0  0.37709941008E+01  0.44248130422E+02  0.16678013389E+02  0.47437048527E+02  0.00000000000E+00 0. -1.
</event>
<event>
 8    1  0.7224195E-009  0.1408614E+03  0.7561462E-02  0.1212175E+00
          1   -1    0    0  501    0  0.00000000000E+00  0.00000000000E+00  0.14072834183E+04  0.14072834183E+04  0.00000000000E+00 0. -1.
         -1   -1    0    0    0  501 -0.00000000000E+00 -0.00000000000E+00 -0.17571420317E+02  0.17571420317E+02  0.00000000000E+00 0.  1.
         25    2    1    2    0    0  0.11468787204E+03 -0.62071269468E+01  0.75954353325E+03  0.77829700825E+03  0.12509203706E+03 0.  0.
         23    2    1    2    0    0 -0.11468787204E+03  0.62071269468E+01  0.63016846471E+03  0.64655783034E+03  0.87936895807E+02 0.  0.
          5    1    3    3  502    0  0.37634841726E+01  0.35012664877E+02  0.35538629539E+03  0.35715114709E+03  0.41800000000E+01 0. -1.
         -5    1    3    3    0  502  0.11092438787E+03 -0.41219791824E+02  0.40415723786E+03  0.42114586116E+03  0.41800000000E+01 0. -1.
        -11    1    4    4    0    0 -0.72056045004E+01  0.18323003990E+02  0.25115883824E+02  0.31913333133E+02  0.00000000000E+00 0.  1.
         11    1    4    4    0    0 -0.10748226754E+03 -0.12115877044E+02  0.60505258089E+03  0.61464449721E+03  0.00000000000E+00 0. -1.
</event>
<event>
 8    1  0.7224195E-009  0.1174107E+03  0.7561462E-02  0.1247431E+00
          1   -1    0    0  501    0  0.00000000000E+00  0.00000000000E+00  0.64414695031E+03  0.64414695031E+03  0.00000000000E+00 0. -1.
         -1   -1    0    0    0  501 -0.00000000000E+00 -0.00000000000E+00 -0.35617773205E+02  0.35617773205E+02  0.00000000000E+00 0.  1.
         25    2    1    2    0    0 -0.45047542872E+01 -0.10020264460E+03  0.25702114365E+03  0.30293372010E+03  0.12509239662E+03 0.  0.
         23    2    1    2    0    0  0.45047542872E+01  0.10020264460E+03  0.35150803345E+03  0.37683100341E+03  0.91557876554E+02 0.  0.
          5    1    3    3  502    0  0.20666327672E+01 -0.37182382509E+02 -0.72510053397E+00  0.37480644482E+02  0.41800000000E+01 0.  1.
         -5    1    3    3    0  502 -0.65713870544E+01 -0.63020262087E+02  0.25774624419E+03  0.26545307561E+03  0.41800000000E+01 0.  1.
        -11    1    4    4    0    0 -0.42062949257E+02  0.50876442944E+02  0.20531728727E+03  0.21566847846E+03  0.00000000000E+00 0. -1.
         11    1    4    4    0    0  0.46567703544E+02  0.49326201652E+02  0.14619074618E+03  0.16116252496E+03  0.00000000000E+00 0.  1.
</event>
<event>
 8    1  0.7224195E-009  0.2369180E+03  0.7561462E-02  0.1121863E+00
         -2   -1    0    0    0  501 -0.00000000000E+00  0.00000000000E+00  0.56876482780E+02  0.56876482780E+02  0.00000000000E+00 0.  1.
          2   -1    0    0  501    0  0.00000000000E+00 -0.00000000000E+00 -0.12021751290E+04  0.12021751290E+04  0.00000000000E+00 0. -1.
         25    2    1    2    0    0 -0.13555702204E+02 -0.21807358760E+03 -0.36225941331E+03  0.44115675396E+03  0.12509017692E+03 0.  0.
         23    2    1    2    0    0  0.13555702204E+02  0.21807358760E+03 -0.78303923290E+03  0.81789485781E+03  0.89787034126E+02 0.  0.
          5    1    3    3  502    0  0.26955328728E+02 -0.20300232499E+03 -0.26742964086E+03  0.33685697099E+03  0.41800000000E+01 0.  1.
         -5    1    3    3    0  502 -0.40511030932E+02 -0.15071262614E+02 -0.94829772450E+02  0.10429978297E+03  0.41800000000E+01 0.  1.
        -11    1    4    4    0    0 -0.22074502409E+02  0.86239565656E+02 -0.43513501633E+03  0.44414753042E+03  0.00000000000E+00 0. -1.
         11    1    4    4    0    0  0.35630204613E+02  0.13183402195E+03 -0.34790421657E+03  0.37374732739E+03  0.00000000000E+00 0.  1.
</event>
<event>
 8    1  0.7224195E-009  0.8773729E+02  0.7561462E-02  0.1308426E+00
         -2   -1    0    0    0  501 -0.00000000000E+00  0.00000000000E+00  0.27642456815E+02  0.27642456815E+02  0.00000000000E+00 0.  1.
          2   -1    0    0  501    0  0.00000000000E+00 -0.00000000000E+00 -0.51211818312E+03  0.51211818312E+03  0.00000000000E+00 0. -1.
         25    2    1    2    0    0  0.31209659460E+02  0.38115143526E+02 -0.30928339033E+03  0.33723990960E+03  0.12509090327E+03 0.  0.
         23    2    1    2    0    0 -0.31209659460E+02 -0.38115143526E+02 -0.17519233597E+03  0.20252073033E+03  0.88856539562E+02 0.  0.
          5    1    3    3  502    0 -0.34863813037E+02  0.20092821980E+02 -0.31967483839E+02  0.51561607593E+02  0.41800000000E+01 0.  1.
         -5    1    3    3    0  502  0.66073472497E+02  0.18022321546E+02 -0.27731590649E+03  0.28567830201E+03  0.41800000000E+01 0.  1.
        -11    1    4    4    0    0 -0.38363645567E+02 -0.13340311364E+02 -0.17177086906E+03  0.17650769011E+03  0.00000000000E+00 0. -1.
         11    1    4    4    0    0  0.71539861067E+01 -0.24774832162E+02 -0.34214669030E+01  0.26013040223E+02  0.00000000000E+00 0.  1.
</event>
<event>
 8    1  0.7224195E-009  0.1088310E+03  0.7561462E-02  0.1262750E+00
          1   -1    0    0  501    0  0.00000000000E+00  0.00000000000E+00  0.88108331660E+03  0.88108331660E+03  0.00000000000E+00 0. -1.
         -1   -1    0    0    0  501 -0.00000000000E+00 -0.00000000000E+00 -0.16595928454E+02  0.16595928454E+02  0.00000000000E+00 0.  1.
         25    2    1    2    0    0  0.14524706318E+02 -0.21144567635E+02  0.65501178340E+03  0.66734262305E+03  0.12509068837E+03 0.  0.
         23    2    1    2    0    0 -0.14524706318E+02  0.21144567635E+02  0.20947560474E+03  0.23033662200E+03  0.92286892986E+02 0.  0.
          5    1    3    3  502    0  0.60709043329E+02  0.18506736465E+02  0.26121679608E+03  0.26884898027E+03  0.41800000000E+01 0. -1.
         -5    1    3    3    0  502 -0.46184337011E+02 -0.39651304101E+02  0.39379498732E+03  0.39849364279E+03  0.41800000000E+01 0. -1.
        -11    1    4    4    0    0  0.26538625534E+01  0.55007989335E+02  0.14982247894E+03  0.15962361063E+03  0.00000000000E+00 0. -1.
         11    1    4    4    0    0 -0.17178568871E+02 -0.33863421700E+02  0.59653125803E+02  0.70713011362E+02  0.00000000000E+00 0.  1.
</event>
<event>
 8    1  0.7224195E-009  0.1720153E+03  0.7561462E-02  0.1175762E+00
         -1   -1    0    0    0  501 -0.00000000000E+00  0.00000000000E+00  0.25906147819E+02  0.25906147819E+02  0.00000000000E+00 0.  1.
          1   -1    0    0  501    0  0.00000000000E+00 -0.00000000000E+00 -0.14233942273E+04  0.14233942273E+04  0.00000000000E+00 0. -1.
         25    2    1    2    0    0 -0.52158843727E+02  0.13951846130E+03 -0.93633291011E+03  0.95632301342E+03  0.12509373053E+03 0.  0.
         23    2    1    2    0    0  0.52158843727E+02 -0.13951846130E+03 -0.46115516933E+03  0.49297736166E+03  0.90424791323E+02 0.  0.
          5    1    3    3  502    0  0.32603267217E+01  0.11913791553E+03 -0.78174362623E+03  0.79078760878E+03  0.41800000000E+01 0. -1.
         -5    1    3    3    0  502 -0.55419170449E+02  0.20380545770E+02 -0.15458928388E+03  0.16553540464E+03  0.41800000000E+01 0. -1.
        -11    1    4    4    0    0  0.19743380994E+01 -0.10418526872E+03 -0.35885711709E+03  0.37368020916E+03  0.00000000000E+00 0. -1.
         11    1    4    4    0    0  0.50184505628E+02 -0.35333192583E+02 -0.10229805224E+03  0.11929715250E+03  0.00000000000E+00 0.  1.
</event>
<event>
 8    1  0.7224195E-009  0.7596176E+02  0.7561462E-02  0.1340918E+00
          1   -1    0    0  501    0  0.00000000000E+00  0.00000000000E+00  0.57450010767E+03  0.57450010767E+03  0.00000000000E+00 0. -1.
         -1   -1    0    0    0  501 -0.00000000000E+00 -0.00000000000E+00 -0.25901159950E+02  0.25901159950E+02  0.00000000000E+00 0.  1.
         25    2    1    2    0    0  0.19397394540E+02  0.14259752214E+02  0.43523950394E+03  0.45349754070E+03  0.12508794580E+03 0.  0.
         23    2    1    2    0    0 -0.19397394540E+02 -0.14259752214E+02  0.11335944378E+03  0.14690372692E+03  0.90281460117E+02 0.  0.
          5    1    3    3  502    0  0.24522859993E+02 -0.14709755160E+02  0.15666037013E+02  0.32873160401E+02  0.41800000000E+01 0.  1.
         -5    1    3    3    0  502 -0.51254654521E+01  0.28969507374E+02  0.41957346692E+03  0.42062438030E+03  0.41800000000E+01 0.  1.
        -11    1    4    4    0    0  0.25422123136E+02 -0.35537694287E+02  0.49260332179E+02  0.65846734059E+02  0.00000000000E+00 0.  1.
         11    1    4    4    0    0 -0.44819517676E+02  0.21277942073E+02  0.64099111606E+02  0.81056992865E+02  0.00000000000E+00 0. -1.
</event>
<event>
 8    1  0.7224195E-009  0.1139002E+03  0.7561462E-02  0.1253513E+00
         -2   -1    0    0    0  501 -0.00000000000E+00  0.00000000000E+00  0.48204090374E+02  0.48204090374E+02  0.00000000000E+00 0.  1.
          2   -1    0    0  501    0  0.00000000000E+00 -0.00000000000E+00 -0.50573378747E+03  0.50573378747E+03  0.00000000000E+00 0. -1.
         25    2    1    2    0    0 -0.10194777835E+03 -0.18165379053E+02 -0.18014951051E+03  0.24253828098E+03  0.12509053160E+03 0.  0.
         23    2    1    2    0    0  0.10194777835E+03  0.18165379053E+02 -0.27738018659E+03  0.31139959687E+03  0.96470775420E+02 0.  0.
          5    1    3    3  502    0 -0.43637347457E+02  0.11336822457E+02  0.55625593288E+01  0.45619689859E+02  0.41800000000E+01 0.  1.
         -5    1    3    3    0  502 -0.58310430894E+02 -0.29502201509E+02 -0.18571206984E+03  0.19691859112E+03  0.41800000000E+01 0.  1.
        -11    1    4    4    0    0  0.31772022211E+02  0.32460325605E+02 -0.20349088440E+03  0.20849861911E+03  0.00000000000E+00 0. -1.
         11    1    4    4    0    0  0.70175756141E+02 -0.14294946552E+02 -0.73889302186E+02  0.10290097776E+03  0.00000000000E+00 0.  1.
</event>
<event>
 8    1  0.7224195E-009  0.1103006E+03  0.7561462E-02  0.1260014E+00
          4   -1    0    0  501    0  0.00000000000E+00  0.00000000000E+00  0.70714348768E+02  0.70714348768E+02  0.00000000000E+00 0.  1.
         -4   -1    0    0    0  501 -0.00000000000E+00 -0.00000000000E+00 -0.18688666053E+03  0.18688666053E+03  0.00000000000E+00 0. -1.
         25    2    1    2    0    0  0.30284721099E+02  0.21446580763E+02 -0.75858452623E+02  0.15092148860E+03  0.12508265558E+03 0.  0.
         23    2    1    2    0    0 -0.30284721099E+02 -0.21446580763E+02 -0.40313859138E+02  0.10667952070E+03  0.91532468228E+02 0.  0.
          5    1    3    3  502    0 -0.43591448170E+02  0.29633722517E+02 -0.15555825928E+02  0.55116494664E+02  0.41800000000E+01 0. -1.
         -5    1    3    3    0  502  0.73876169268E+02 -0.81871417538E+01 -0.60302626695E+02  0.95804993932E+02  0.41800000000E+01 0. -1.
        -11    1    4    4    0    0  0.29775159018E+02 -0.13512518526E+02 -0.31604188577E+02  0.45474970996E+02  0.00000000000E+00 0. -1.
         11    1    4    4    0    0 -0.60059880117E+02 -0.79340622374E+01 -0.87096705610E+01  0.61204549705E+02  0.00000000000E+00 0.  1.
</event>
<event>
 8    1  0.7224195E-009  0.1001905E+03  0.7561462E-02  0.1279896E+00
          2   -1    0    0  501    0  0.00000000000E+00  0.00000000000E+00  0.55703209688E+03  0.55703209688E+03  0.00000000000E+00 0. -1.
         -2   -1    0    0    0  501 -0.00000000000E+00 -0.00000000000E+00 -0.26157446275E+02  0.26157446275E+02  0.00000000000E+00 0.  1.
         25    2    1    2    0    0  0.10846030122E+02  0.52083374371E+02  0.31666645473E+03  0.34460344573E+03  0.12507428595E+03 0.  0.
         23    2    1    2    0    0 -0.10846030122E+02 -0.52083374371E+02  0.21420819587E+03  0.23858609742E+03  0.90597243036E+02 0.  0.
          5    1    3    3  502    0 -0.17050488063E+02 -0.14907303863E+02  0.23146996641E+03  0.23261290721E+03  0.41800000000E+01 0.  1.
         -5    1    3    3    0  502  0.27896518184E+02  0.66990678234E+02  0.85196488321E+02  0.11199053853E+03  0.41800000000E+01 0.  1.
        -11    1    4    4    0    0  0.28979314713E+02 -0.57578855626E+02  0.14185433781E+03  0.15581328073E+03  0.00000000000E+00 0. -1.
         11    1    4    4    0    0 -0.39825344835E+02  0.54954812551E+01  0.72353858063E+02  0.82772816686E+02  0.00000000000E+00 0.  1.
</event>
<event>
 8    1  0.7224195E-009  0.8539050E+02  0.7561462E-02  0.1314414E+00
         -2   -1    0    0    0  501 -0.00000000000E+00  0.00000000000E+00  0.21535088397E+03  0.21535088397E+03  0.00000000000E+00 0.  1.
          2   -1    0    0  501    0  0.00000000000E+00 -0.00000000000E+00 -0.58521169220E+02  0.58521169220E+02  0.00000000000E+00 0. -1.
         25    2    1    2    0    0  0.33967303030E+01  0.11364389785E+02  0.12268588620E+03  0.17561314630E+03  0.12508982112E+03 0.  0.
         23    2    1    2    0    0 -0.33967303030E+01 -0.11364389785E+02  0.34143828549E+02  0.98258906889E+02  0.91369166698E+02 0.  0.
          5    1    3    3  502    0  0.45054882181E+02  0.66607406436E+01  0.12531520287E+03  0.13340045107E+03  0.41800000000E+01 0.  1.
         -5    1    3    3    0  502 -0.41658151878E+02  0.47036491411E+01 -0.26293166650E+01  0.42212695238E+02  0.41800000000E+01 0.  1.
        -11    1    4    4    0    0 -0.41872972283E+02  0.26709478112E+01  0.38661494950E+02  0.57054280837E+02  0.00000000000E+00 0.  1.
         11    1    4    4    0    0  0.38476241980E+02 -0.14035337596E+02 -0.45176664009E+01  0.41204626052E+02  0.00000000000E+00 0. -1.
</event>
<event>
 8    1  0.7224195E-009  0.1160883E+03  0.7561462E-02  0.1249693E+00
         -2   -1    0    0    0  501 -0.00000000000E+00  0.00000000000E+00  0.15766311236E+02  0.15766311236E+02  0.00000000000E+00 0.  1.
          2   -1    0    0  501    0  0.00000000000E+00 -0.00000000000E+00 -0.93592992541E+03  0.93592992541E+03  0.00000000000E+00 0. -1.
         25    2    1    2    0    0  0.33981388794E+02 -0.39083996380E+02 -0.44937815563E+03  0.46932913476E+03  0.12508723523E+03 0.  0.
         23    2    1    2    0    0 -0.33981388794E+02  0.39083996380E+02 -0.47078545854E+03  0.48236710188E+03  0.91415422383E+02 0.  0.
          5    1    3    3  502    0  0.60554426699E+02  0.18581245374E+02 -0.30523715039E+03  0.31176800935E+03  0.41800000000E+01 0. -1.
         -5    1    3    3    0  502 -0.26573037905E+02 -0.57665241754E+02 -0.14414100524E+03  0.15756112542E+03  0.41800000000E+01 0. -1.
        -11    1    4    4    0    0 -0.65257871274E+02  0.19274470878E+02 -0.30458670395E+03  0.31209478562E+03  0.00000000000E+00 0.  1.
         11    1    4    4    0    0  0.31276482480E+02  0.19809525502E+02 -0.16619875459E+03  0.17027231626E+03  0.00000000000E+00 0. -1.
</event>
<event>
 8    1  0.7224195E-009  0.1214303E+03  0.7561462E-02  0.1240756E+00
          2   -1    0    0  501    0  0.00000000000E+00  0.00000000000E+00  0.63268264032E+02  0.63268264032E+02  0.00000000000E+00 0. -1.
         -2   -1    0    0    0  501 -0.00000000000E+00 -0.00000000000E+00 -0.27270325939E+03  0.27270325939E+03  0.00000000000E+00 0.  1.
         25    2    1    2    0    0 -0.63575515741E+02 -0.31457360239E+02 -0.83335308279E+02  0.16620482758E+03  0.12509140414E+03 0.  0.
         23    2    1    2    0    0  0.63575515741E+02  0.31457360239E+02 -0.12609968708E+03  0.16976669585E+03  0.88815472873E+02 0.  0.
          5    1    3    3  502    0 -0.54229318502E+02 -0.70442475782E+02 -0.20136416485E+02  0.91246419373E+02  0.41800000000E+01 0. -1.
         -5    1    3    3    0  502 -0.93461972387E+01  0.38985115543E+02 -0.63198891794E+02  0.74958408206E+02  0.41800000000E+01 0. -1.
        -11    1    4    4    0    0  0.19225707687E+02 -0.31286199071E+02 -0.37360867295E+02  0.52385957025E+02  0.00000000000E+00 0. -1.
         11    1    4    4    0    0  0.44349808054E+02  0.62743559310E+02 -0.88738819788E+02  0.11738073882E+03  0.00000000000E+00 0.  1.
</event>
<event>
 8    1  0.7224195E-009  0.1343435E+03  0.7561462E-02  0.1221149E+00
          2   -1    0    0  501    0  0.00000000000E+00  0.00000000000E+00  0.22316864091E+03  0.22316864091E+03  0.00000000000E+00 0. -1.
         -2   -1    0    0    0  501 -0.00000000000E+00 -0.00000000000E+00 -0.13371488330E+03  0.13371488330E+03  0.00000000000E+00 0.  1.
         25    2    1    2    0    0  0.11088771488E+03  0.43950368622E+02  0.11206519234E+03  0.20599490424E+03  0.12509025952E+03 0.  0.
         23    2    1    2    0    0 -0.11088771488E+03 -0.43950368622E+02 -0.22611434728E+02  0.15088861996E+03  0.89601218963E+02 0.  0.
          5    1    3    3  502    0  0.29443729187E+02  0.75221681724E+01 -0.26901190736E+02  0.40800277762E+02  0.41800000000E+01 0.  1.
         -5    1    3    3    0  502  0.81443985692E+02  0.36428200450E+02  0.13896638308E+03  0.16519462648E+03  0.41800000000E+01 0.  1.
        -11    1    4    4    0    0 -0.10173345785E+03  0.20874924955E+01 -0.21132802691E+02  0.10392617293E+03  0.00000000000E+00 0. -1.
         11    1    4    4    0    0 -0.91542570306E+01 -0.46037861118E+02 -0.14786320372E+01  0.46962447027E+02  0.00000000000E+00 0.  1.
</event>
<event>
 8    1  0.7224195E-009  0.1201310E+03  0.7561462E-02  0.1242881E+00
          1   -1    0    0  501    0  0.00000000000E+00  0.00000000000E+00  0.10019914174E+03  0.10019914174E+03  0.00000000000E+00 0. -1.
         -1   -1    0    0    0  501 -0.00000000000E+00 -0.00000000000E+00 -0.28919306395E+03  0.28919306395E+03  0.00000000000E+00 0.  1.
         25    2    1    2    0    0 -0.10158392706E+03 -0.22755364671E+02 -0.19106858678E+03  0.25098172039E+03  0.12509004060E+03 0.  0.
         23    2    1    2    0    0  0.10158392706E+03  0.22755364671E+02  0.20746645695E+01  0.13841048530E+03  0.91192419368E+02 0.  0.
          5    1    3    3  502    0 -0.10705429095E+03 -0.72062795447E+00 -0.70569752155E+02  0.12829147608E+03  0.41800000000E+01 0.  1.
         -5    1    3    3    0  502  0.54703638845E+01 -0.22034736716E+02 -0.12049883462E+03  0.12269024431E+03  0.41800000000E+01 0.  1.
        -11    1    4    4    0    0  0.57305194032E+02 -0.54114923154E+01 -0.40875111253E+02  0.70597055406E+02  0.00000000000E+00 0.  1.
         11    1    4    4    0    0  0.44278733032E+02  0.28166856986E+02  0.42949775822E+02  0.67813429899E+02  0.00000000000E+00 0. -1.
</event>
<event>
 8    1  0.7224195E-009  0.1509957E+03  0.7561462E-02  0.1199255E+00
          1   -1    0    0  501    0  0.00000000000E+00  0.00000000000E+00  0.70597631216E+03  0.70597631216E+03  0.00000000000E+00 0. -1.
         -1   -1    0    0    0  501 -0.00000000000E+00 -0.00000000000E+00 -0.36637066362E+02  0.36637066362E+02  0.00000000000E+00 0.  1.
         25    2    1    2    0    0 -0.34185450102E+01  0.11108259692E+03  0.26467065520E+03  0.31312667690E+03  0.12508689090E+03 0.  0.
         23    2    1    2    0    0  0.34185450102E+01 -0.11108259692E+03  0.40466859060E+03  0.42948670162E+03  0.91384511076E+02 0.  0.
          5    1    3    3  502    0  0.99689352309E+01 -0.23555551250E+02  0.17364617775E+02  0.31196891108E+02  0.41800000000E+01 0.  1.
         -5    1    3    3    0  502 -0.13387480241E+02  0.13463814817E+03  0.24730603743E+03  0.28192978579E+03  0.41800000000E+01 0.  1.
        -11    1    4    4    0    0 -0.41461616641E+02 -0.55031127702E+02  0.15348631422E+03  0.16824250154E+03  0.00000000000E+00 0. -1.
         11    1    4    4    0    0  0.44880161651E+02 -0.56051469218E+02  0.25118227638E+03  0.26124420008E+03  0.00000000000E+00 0.  1.
</event>
<event>
 8    1  0.7224195E-009  0.1012566E+03  0.7561462E-02  0.1277675E+00
          2   -1    0    0  501    0  0.00000000000E+00  0.00000000000E+00  0.81260361890E+02  0.81260361890E+02  0.00000000000E+00 0. -1.
         -2   -1    0    0    0  501 -0.00000000000E+00 -0.00000000000E+00 -0.27581045682E+03  0.27581045682E+03  0.00000000000E+00 0.  1.
         25    2    1    2    0    0  0.32080481806E+02 -0.51749282857E+02 -0.60703230260E+01  0.13925197172E+03  0.12508843758E+03 0.  0.
         23    2    1    2    0    0 -0.32080481806E+02  0.51749282857E+02 -0.18847977190E+03  0.21781884699E+03  0.90627148791E+02 0.  0.
          5    1    3    3  502    0 -0.42659273947E+02 -0.44859135330E+02 -0.14173035809E+02  0.63643562284E+02  0.41800000000E+01 0. -1.
         -5    1    3    3    0  502  0.74739755752E+02 -0.68901475270E+01  0.81027127828E+01  0.75608409435E+02  0.41800000000E+01 0. -1.
        -11    1    4    4    0    0 -0.28706234543E+02  0.24217530084E+02 -0.18624185535E+03  0.18999096123E+03  0.00000000000E+00 0.  1.
         11    1    4    4    0    0 -0.33742472625E+01  0.27531752772E+02 -0.22379165529E+01  0.27827885759E+02  0.00000000000E+00 0. -1.
</event>
<event>
 8    1  0.7224195E-009  0.1026866E+03  0.7561462E-02  0.1274746E+00
         -2   -1    0    0    0  501 -0.00000000000E+00  0.00000000000E+00  0.51311208395E+03  0.51311208395E+03  0.00000000000E+00 0.  1.
          2   -1    0    0  501    0  0.00000000000E+00 -0.00000000000E+00 -0.23677866825E+02  0.23677866825E+02  0.00000000000E+00 0. -1.
         25    2    1    2    0    0 -0.37665308118E+01  0.23600742200E+02  0.30657201252E+03  0.33197093356E+03  0.12508844905E+03 0.  0.
         23    2    1    2    0    0  0.37665308118E+01 -0.23600742200E+02  0.18286220461E+03  0.20481901721E+03  0.89112637437E+02 0.  0.
          5    1    3    3  502    0  0.43496651403E+01  0.67810963199E+02  0.25257638192E+03  0.26159041921E+03  0.41800000000E+01 0. -1.
         -5    1    3    3    0  502 -0.81161959521E+01 -0.44210220999E+02  0.53995630597E+02  0.70380514357E+02  0.41800000000E+01 0. -1.
        -11    1    4    4    0    0 -0.49238167992E+01  0.33769558645E+02  0.72614463263E+02  0.80233953773E+02  0.00000000000E+00 0.  1.
         11    1    4    4    0    0  0.86903476110E+01 -0.57370300845E+02  0.11024774134E+03  0.12458506344E+03  0.00000000000E+00 0. -1.
</event>
<event>
 8    1  0.7224195E-009  0.6604583E+02  0.7561462E-02  0.1374080E+00
          2   -1    0    0  501    0  0.00000000000E+00  0.00000000000E+00  0.33572759090E+03  0.33572759090E+03  0.00000000000E+00 0. -1.
         -2   -1    0    0    0  501 -0.00000000000E+00 -0.00000000000E+00 -0.60079664674E+02  0.60079664674E+02  0.00000000000E+00 0.  1.
         25    2    1    2    0    0 -0.41827155772E+02  0.11479042372E+00  0.37471599751E+02  0.13711923979E+03  0.12509213003E+03 0.  0.
         23    2    1    2    0    0  0.41827155772E+02 -0.11479042372E+00  0.23817632648E+03  0.25868801579E+03  0.91880372657E+02 0.  0.
          5    1    3    3  502    0 -0.27011792319E+02 -0.57623471034E+01  0.83596149770E+02  0.88139833361E+02  0.41800000000E+01 0.  1.
         -5    1    3    3    0  502 -0.14815363453E+02  0.58771375271E+01 -0.46124550020E+02  0.48979406430E+02  0.41800000000E+01 0.  1.
        -11    1    4    4    0    0  0.44442043597E+02  0.32438835648E+02  0.79483560162E+02  0.96669590013E+02  0.00000000000E+00 0.  1.
         11    1    4    4    0    0 -0.26148878248E+01 -0.32553626071E+02  0.15869276632E+03  0.16201842577E+03  0.00000000000E+00 0. -1.
</event>
<event>
 8    1  0.7224195E-009  0.5508661E+02  0.7561462E-02  0.1419690E+00
          1   -1    0    0  501    0  0.00000000000E+00  0.00000000000E+00  0.14056089743E+03  0.14056089743E+03  0.00000000000E+00 0. -1.
         -1   -1    0    0    0  501 -0.00000000000E+00 -0.00000000000E+00 -0.12008984260E+03  0.12008984260E+03  0.00000000000E+00 0.  1.
         25    2    1    2    0    0  0.46295145603E+02 -0.18001025502E+02  0.59722809028E+02  0.14724545535E+03  0.12508849978E+03 0.  0.
         23    2    1    2    0    0 -0.46295145603E+02  0.18001025502E+02 -0.39251754194E+02  0.11340528468E+03  0.94089218085E+02 0.  0.
          5    1    3    3  502    0  0.34257762057E+01  0.78493715830E+01  0.88728159224E+02  0.89238485062E+02  0.41800000000E+01 0. -1.
         -5    1    3    3    0  502  0.42869369397E+02 -0.25850397085E+02 -0.29005350197E+02  0.58006970288E+02  0.41800000000E+01 0. -1.
        -11    1    4    4    0    0 -0.30847470150E+02  0.16239575880E+02 -0.70418807231E+02  0.78575432874E+02  0.00000000000E+00 0.  1.
         11    1    4    4    0    0 -0.15447675452E+02  0.17614496222E+01  0.31167053037E+02  0.34829851804E+02  0.00000000000E+00 0. -1.
</event>
<event>
 8    1  0.7224195E-009  0.1294330E+03  0.7561462E-02  0.1228300E+00
         -1   -1    0    0    0  501 -0.00000000000E+00  0.00000000000E+00  0.20365871777E+02  0.20365871777E+02  0.00000000000E+00 0.  1.
          1   -1    0    0  501    0  0.00000000000E+00 -0.00000000000E+00 -0.93637661043E+03  0.93637661043E+03  0.00000000000E+00 0. -1.
         25    2    1    2    0    0 -0.81726946698E+02 -0.16480062564E+02 -0.55001470051E+03  0.57018991767E+03  0.12509790227E+03 0.  0.
         23    2    1    2    0    0  0.81726946698E+02  0.16480062564E+02 -0.36599603814E+03  0.38655256454E+03  0.92297881543E+02 0.  0.
          5    1    3    3  502    0 -0.27518913316E+02 -0.62878431826E+02 -0.16768809560E+03  0.18123950338E+03  0.41800000000E+01 0. -1.
         -5    1    3    3    0  502 -0.54208033382E+02  0.46398369262E+02 -0.38232660490E+03  0.38895041428E+03  0.41800000000E+01 0. -1.
        -11    1    4    4    0    0  0.32503537434E+02  0.49597501246E+02 -0.24105200073E+03  0.24823871400E+03  0.00000000000E+00 0. -1.
         11    1    4    4    0    0  0.49223409264E+02 -0.33117438682E+02 -0.12494403741E+03  0.13831385053E+03  0.00000000000E+00 0.  1.
</event>
<event>
 8    1  0.7224195E-009  0.1956996E+03  0.7561462E-02  0.1153419E+00
         -1   -1    0    0    0  501 -0.00000000000E+00  0.00000000000E+00  0.90585154997E+02  0.90585154997E+02  0.00000000000E+00 0.  1.
          1   -1    0    0  501    0  0.00000000000E+00 -0.00000000000E+00 -0.60022042821E+03  0.60022042821E+03  0.00000000000E+00 0. -1.
         25    2    1    2    0    0 -0.16469423989E+03  0.53458057187E+02 -0.97889549734E+02  0.23497051732E+03  0.12508726366E+03 0.  0.
         23    2    1    2    0    0  0.16469423989E+03 -0.53458057187E+02 -0.41174572348E+03  0.45583506590E+03  0.90934646659E+02 0.  0.
          5    1    3    3  502    0  0.13618982557E+02  0.27875171330E+02 -0.33378753311E+01  0.31481989681E+02  0.41800000000E+01 0.  1.
         -5    1    3    3    0  502 -0.17831322244E+03  0.25582885857E+02 -0.94551674403E+02  0.20348852764E+03  0.41800000000E+01 0.  1.
        -11    1    4    4    0    0  0.66722257464E+02  0.30771654197E+01 -0.24787256681E+03  0.25671411719E+03  0.00000000000E+00 0. -1.
         11    1    4    4    0    0  0.97971982421E+02 -0.56535222606E+02 -0.16387315667E+03  0.19912094870E+03  0.00000000000E+00 0.  1.
</event>
<event>
 8    1  0.7224195E-009  0.7924641E+02  0.7561462E-02  0.1331204E+00
          2   -1    0    0  501    0  0.00000000000E+00  0.00000000000E+00  0.21603107883E+03  0.21603107883E+03  0.00000000000E+00 0. -1.
         -2   -1    0    0    0  501 -0.00000000000E+00 -0.00000000000E+00 -0.61207743197E+02  0.61207743197E+02  0.00000000000E+00 0.  1.
         25    2    1    2    0    0 -0.40504474736E+01  0.16979307742E+02  0.75888666092E+02  0.14734874320E+03  0.12509140444E+03 0.  0.
         23    2    1    2    0    0  0.40504474736E+01 -0.16979307742E+02  0.78934669538E+02  0.12989007883E+03  0.10166635386E+03 0.  0.
          5    1    3    3  502    0 -0.25564631498E+02 -0.41472462767E+02  0.68964429502E+02  0.84540407428E+02  0.41800000000E+01 0.  1.
         -5    1    3    3    0  502  0.21514184024E+02  0.58451770510E+02  0.69242365909E+01  0.62808335771E+02  0.41800000000E+01 0.  1.
        -11    1    4    4    0    0  0.23812235150E+02 -0.12552019296E+02 -0.17002947904E+02  0.31838278356E+02  0.00000000000E+00 0.  1.
         11    1    4    4    0    0 -0.19761787676E+02 -0.44272884469E+01  0.95937617442E+02  0.98051800471E+02  0.00000000000E+00 0. -1.
</event>
<event>
 8    1  0.7224195E-009  0.1477033E+03  0.7561462E-02  0.1203324E+00
          2   -1    0    0  501    0  0.00000000000E+00  0.00000000000E+00  0.53892669964E+03  0.53892669964E+03  0.00000000000E+00 0. -1.
         -2   -1    0    0    0  501 -0.00000000000E+00 -0.00000000000E+00 -0.47201066453E+02  0.47201066453E+02  0.00000000000E+00 0.  1.
         25    2    1    2    0    0 -0.61028915152E+02  0.10416118852E+03  0.27420742917E+03  0.32467195086E+03  0.12509228507E+03 0.  0.
         23    2    1    2    0    0  0.61028915152E+02 -0.10416118852E+03  0.21751820401E+03  0.26145581523E+03  0.80441858271E+02 0.  0.
          5    1    3    3  502    0  0.12614985023E+02  0.71968488808E+02  0.20786253086E+03  0.22036992845E+03  0.41800000000E+01 0. -1.
         -5    1    3    3    0  502 -0.73643900175E+02  0.32192699711E+02  0.66344898315E+02  0.10430202242E+03  0.41800000000E+01 0. -1.
        -11    1    4    4    0    0 -0.16150524035E+02 -0.33094422894E+02  0.34296080499E+02  0.50321977216E+02  0.00000000000E+00 0.  1.
         11    1    4    4    0    0  0.77179439188E+02 -0.71066765625E+02  0.18322212351E+03  0.21113383801E+03  0.00000000000E+00 0. -1.
</event>
<event>
 8    1  0.7224195E-009  0.8256888E+02  0.7561462E-02  0.1321915E+00
          2   -1    0    0  501    0  0.00000000000E+00  0.00000000000E+00  0.22820997678E+03  0.22820997678E+03  0.00000000000E+00 0. -1.
         -2   -1    0    0    0  501 -0.00000000000E+00 -0.00000000000E+00 -0.57969029379E+02  0.57969029379E+02  0.00000000000E+00 0.  1.
         25    2    1    2    0    0  0.50722799588E+01 -0.25820618651E+02  0.62681560309E+02  0.14236650797E+03  0.12508721845E+03 0.  0.
         23    2    1    2    0    0 -0.50722799588E+01  0.25820618651E+02  0.10755938709E+03  0.14381249818E+03  0.91763721105E+02 0.  0.
          5    1    3    3  502    0 -0.24497852328E+02 -0.34666306524E+02  0.90854316533E+02  0.10036870433E+03  0.41800000000E+01 0. -1.
         -5    1    3    3    0  502  0.29570132287E+02  0.88456878732E+01 -0.28172756225E+02  0.41997803641E+02  0.41800000000E+01 0. -1.
        -11    1    4    4    0    0 -0.39034659333E+02 -0.11678589616E+02  0.69268716578E+02  0.80363232769E+02  0.00000000000E+00 0. -1.
         11    1    4    4    0    0  0.33962379375E+02  0.37499208266E+02  0.38290670514E+02  0.63449265416E+02  0.00000000000E+00 0.  1.
</event>
<event>
 8    1  0.7224195E-009  0.7100292E+02  0.7561462E-02  0.1356715E+00
         -2   -1    0    0    0  501 -0.00000000000E+00  0.00000000000E+00  0.10659733068E+04  0.10659733068E+04  0.00000000000E+00 0.  1.
          2   -1    0    0  501    0  0.00000000000E+00 -0.00000000000E+00 -0.16231368919E+02  0.16231368919E+02  0.00000000000E+00 0. -1.
         25    2    1    2    0    0  0.44737713415E+02  0.13630462140E+02  0.82284764240E+03  0.83361384115E+03  0.12508613450E+03 0.  0.
         23    2    1    2    0    0 -0.44737713415E+02 -0.13630462140E+02  0.22689429544E+03  0.24859083453E+03  0.90161683717E+02 0.  0.
          5    1    3    3  502    0  0.14242764688E+02  0.18560102003E+02  0.22718150022E+02  0.32877355015E+02  0.41800000000E+01 0. -1.
         -5    1    3    3    0  502  0.30494948727E+02 -0.49296398634E+01  0.80012949238E+03  0.80073648613E+03  0.41800000000E+01 0. -1.
        -11    1    4    4    0    0 -0.52817009274E+02  0.16924804848E+02  0.19850413577E+03  0.20610671364E+03  0.00000000000E+00 0.  1.
         11    1    4    4    0    0  0.80792958588E+01 -0.30555266988E+02  0.28390159667E+02  0.42484120895E+02  0.00000000000E+00 0. -1.
</event>
<event>
 8    1  0.7224195E-009  0.1451822E+03  0.7561462E-02  0.1206521E+00
          2   -1    0    0  501    0  0.00000000000E+00  0.00000000000E+00  0.65859346802E+03  0.65859346802E+03  0.00000000000E+00 0. -1.
         -2   -1    0    0    0  501 -0.00000000000E+00 -0.00000000000E+00 -0.38477055407E+02  0.38477055407E+02  0.00000000000E+00 0.  1.
         25    2    1    2    0    0  0.51136384096E+02  0.90666270410E+02  0.20644564047E+03  0.26287409177E+03  0.12509070025E+03 0.  0.
         23    2    1    2    0    0 -0.51136384096E+02 -0.90666270410E+02  0.41367077215E+03  0.43419643166E+03  0.81041539758E+02 0.  0.
          5    1    3    3  502    0 -0.16721892086E+02  0.93069483725E+02  0.11674939844E+03  0.15029785398E+03  0.41800000000E+01 0. -1.
         -5    1    3    3    0  502  0.67858276183E+02 -0.24032133155E+01  0.89696242027E+02  0.11257623779E+03  0.41800000000E+01 0. -1.
        -11    1    4    4    0    0 -0.31791471562E+02 -0.10090561615E+03  0.29204714410E+03  0.31061901971E+03  0.00000000000E+00 0.  1.
         11    1    4    4    0    0 -0.19344912535E+02  0.10239345735E+02  0.12162362805E+03  0.12357741194E+03  0.00000000000E+00 0. -1.
</event>
<event>
 8    1  0.7224195E-009  0.1090544E+03  0.7561462E-02  0.1262331E+00
          1   -1    0    0  501    0  0.00000000000E+00  0.00000000000E+00  0.14299347386E+03  0.14299347386E+03  0.00000000000E+00 0. -1.
         -1   -1    0    0    0  501 -0.00000000000E+00 -0.00000000000E+00 -0.10158487686E+03  0.10158487686E+03  0.00000000000E+00 0.  1.
         25    2    1    2    0    0  0.48359898724E+02 -0.17539600685E+02  0.34371884440E+02  0.13956008895E+03  0.12509706068E+03 0.  0.
         23    2    1    2    0    0 -0.48359898724E+02  0.17539600685E+02  0.70367125674E+01  0.10501826177E+03  0.91285281315E+02 0.  0.
          5    1    3    3  502    0  0.85520904218E+02 -0.14592250630E+02 -0.25927365742E+01  0.86896222701E+02  0.41800000000E+01 0. -1.
         -5    1    3    3    0  502 -0.37161005494E+02 -0.29473500544E+01  0.36964621014E+02  0.52663866250E+02  0.41800000000E+01 0. -1.
        -11    1    4    4    0    0 -0.63104450429E+02  0.33967416317E+02 -0.15660752393E+02  0.73356773380E+02  0.00000000000E+00 0.  1.
         11    1    4    4    0    0  0.14744551706E+02 -0.16427815632E+02  0.22697464960E+02  0.31661488390E+02  0.00000000000E+00 0. -1.
</event>
<event>
 8    1  0.7224195E-009  0.9368963E+02  0.7561462E-02  0.1294155E+00
         -1   -1    0    0    0  501 -0.00000000000E+00  0.00000000000E+00  0.11740920677E+03  0.11740920677E+03  0.00000000000E+00 0.  1.
          1   -1    0    0  501    0  0.00000000000E+00 -0.00000000000E+00 -0.10663605216E+03  0.10663605216E+03  0.00000000000E+00 0. -1.
         25    2    1    2    0    0  0.18683934071E+01  0.40041293979E+01  0.29711967009E+02  0.12864664544E+03  0.12509050505E+03 0.  0.
         23    2    1    2    0    0 -0.18683934071E+01 -0.40041293979E+01 -0.18938812395E+02  0.95398613498E+02  0.93395358002E+02 0.  0.
          5    1    3    3  502    0 -0.82756888074E+00 -0.59204686346E+02  0.26930850931E+02  0.65181461225E+02  0.41800000000E+01 0. -1.
         -5    1    3    3    0  502  0.26959622878E+01  0.63208815744E+02  0.27811160781E+01  0.63465184212E+02  0.41800000000E+01 0. -1.
        -11    1    4    4    0    0 -0.16357330680E+02 -0.30391405634E+02 -0.44215081516E+02  0.56090758925E+02  0.00000000000E+00 0. -1.
         11    1    4    4    0    0  0.14488937272E+02  0.26387276236E+02  0.25276269121E+02  0.39307854573E+02  0.00000000000E+00 0.  1.
</event>
<event>
 8    1  0.7224195E-009  0.7348078E+02  0.7561462E-02  0.1348641E+00
          1   -1    0    0  501    0  0.00000000000E+00  0.00000000000E+00  0.33613107951E+03  0.33613107951E+03  0.00000000000E+00 0. -1.
         -1   -1    0    0    0  501 -0.00000000000E+00 -0.00000000000E+00 -0.40550696256E+02  0.40550696256E+02  0.00000000000E+00 0.  1.
         25    2    1    2    0    0  0.33703929218E+02  0.26561522887E+02  0.18352228915E+03  0.22620373761E+03  0.12508489498E+03 0.  0.
         23    2    1    2    0    0 -0.33703929218E+02 -0.26561522887E+02  0.11205809410E+03  0.15047803815E+03  0.90802831288E+02 0.  0.
          5    1    3    3  502    0  0.66597125828E+01  0.32751062271E+02  0.19351229599E+03  0.19642165092E+03  0.41800000000E+01 0. -1.
         -5    1    3    3    0  502  0.27044216635E+02 -0.61895393839E+01 -0.99900068355E+01  0.29782086693E+02  0.41800000000E+01 0. -1.
        -11    1    4    4    0    0 -0.57257503204E+02 -0.21285900012E+02  0.36504227856E+02  0.71162278377E+02  0.00000000000E+00 0.  1.
         11    1    4    4    0    0  0.23553573986E+02 -0.52756228750E+01  0.75553866245E+02  0.79315759776E+02  0.00000000000E+00 0. -1.
</event>
<event>
 8    1  0.7224195E-009  0.1169676E+03  0.7561462E-02  0.1248185E+00
          1   -1    0    0  501    0  0.00000000000E+00  0.00000000000E+00  0.66686657065E+02  0.66686657065E+02  0.00000000000E+00 0. -1.
         -1   -1    0    0    0  501 -0.00000000000E+00 -0.00000000000E+00 -0.27533145707E+03  0.27533145707E+03  0.00000000000E+00 0.  1.
         25    2    1    2    0    0 -0.13246542199E+02 -0.83582053471E+02 -0.11756116463E+03  0.19138864438E+03  0.12509018837E+03 0.  0.
         23    2    1    2    0    0  0.13246542199E+02  0.83582053471E+02 -0.91083635376E+02  0.15062946976E+03  0.85038685216E+02 0.  0.
          5    1    3    3  502    0  0.18307415142E+02 -0.87528138143E+02 -0.24289658266E+02  0.92756651054E+02  0.41800000000E+01 0. -1.
         -5    1    3    3    0  502 -0.31553957341E+02  0.39460846724E+01 -0.93271506362E+02  0.98631993325E+02  0.41800000000E+01 0. -1.
        -11    1    4    4    0    0  0.43819823942E+02  0.41718513770E+02 -0.22262175520E+02  0.64468719705E+02  0.00000000000E+00 0.  1.
         11    1    4    4    0    0 -0.30573281743E+02  0.41863539701E+02 -0.68821459856E+02  0.86160750052E+02  0.00000000000E+00 0. -1.
</event>
<event>
 8    1  0.7224195E-009  0.1001512E+03  0.7561462E-02  0.1279978E+00
         -1   -1    0    0    0  501 -0.00000000000E+00  0.00000000000E+00  0.27964594032E+03  0.27964594032E+03  0.00000000000E+00 0.  1.
          1   -1    0    0  501    0  0.00000000000E+00 -0.00000000000E+00 -0.54379645737E+02  0.54379645737E+02  0.00000000000E+00 0. -1.
         25    2    1    2    0    0 -0.25105346632E+02 -0.28765089568E+02  0.64595548119E+02  0.14586999953E+03  0.12509101934E+03 0.  0.
         23    2    1    2    0    0  0.25105346632E+02  0.28765089568E+02  0.16067074647E+03  0.18815558653E+03  0.90164999664E+02 0.  0.
          5    1    3    3  502    0  0.38013484930E+02 -0.27482268502E+02 -0.99098647734E+01  0.48124608449E+02  0.41800000000E+01 0.  1.
         -5    1    3    3    0  502 -0.63118831561E+02 -0.12828210655E+01  0.74505412892E+02  0.97745391082E+02  0.41800000000E+01 0.  1.
        -11    1    4    4    0    0  0.40474140539E+02  0.49619595055E+02  0.74812493455E+02  0.98474206992E+02  0.00000000000E+00 0.  1.
         11    1    4    4    0    0 -0.15368793907E+02 -0.20854505488E+02  0.85858253011E+02  0.89681379536E+02  0.00000000000E+00 0. -1.
</event>
<event>
 8    1  0.7224195E-009  0.1990287E+03  0.7561462E-02  0.1150561E+00
         -2   -1    0    0    0  501 -0.00000000000E+00  0.00000000000E+00  0.76021103711E+02  0.76021103711E+02  0.00000000000E+00 0.  1.
          2   -1    0    0  501    0  0.00000000000E+00 -0.00000000000E+00 -0.54342825815E+03  0.54342825815E+03  0.00000000000E+00 0. -1.
         25    2    1    2    0    0 -0.84178411389E+02  0.14895877635E+03 -0.21529932808E+03  0.30211779080E+03  0.12508651746E+03 0.  0.
         23    2    1    2    0    0  0.84178411389E+02 -0.14895877635E+03 -0.25210782636E+03  0.31733157106E+03  0.88691870447E+02 0.  0.
          5    1    3    3  502    0  0.27231265271E+02  0.68243763189E+02 -0.87028274879E+02  0.11397432189E+03  0.41800000000E+01 0.  1.
         -5    1    3    3    0  502 -0.11140967666E+03  0.80715013166E+02 -0.12827105320E+03  0.18814346891E+03  0.41800000000E+01 0.  1.
        -11    1    4    4    0    0  0.75535941354E+02 -0.57433422570E+02 -0.88986137420E+02  0.13008769779E+03  0.00000000000E+00 0.  1.
         11    1    4    4    0    0  0.86424700357E+01 -0.91525353785E+02 -0.16312168894E+03  0.18724387327E+03  0.00000000000E+00 0. -1.
</event>
<event>
 8    1  0.7224195E-009  0.1030463E+03  0.7561462E-02  0.1274017E+00
         -1   -1    0    0    0  501 -0.00000000000E+00  0.00000000000E+00  0.59810181503E+02  0.59810181503E+02  0.00000000000E+00 0.  1.
          1   -1    0    0  501    0  0.00000000000E+00 -0.00000000000E+00 -0.20996364571E+03  0.20996364571E+03  0.00000000000E+00 0. -1.
         25    2    1    2    0    0 -0.30332334753E+01 -0.29070264041E+02 -0.93954393081E+02  0.15914517855E+03  0.12508188965E+03 0.  0.
         23    2    1    2    0    0  0.30332334753E+01  0.29070264041E+02 -0.56199071130E+02  0.11062864867E+03  0.90697748342E+02 0.  0.
          5    1    3    3  502    0 -0.52129143580E+02 -0.50222270929E+02 -0.38857328991E+02  0.82262315333E+02  0.41800000000E+01 0.  1.
         -5    1    3    3    0  502  0.49095910105E+02  0.21152006888E+02 -0.55097064090E+02  0.76882863212E+02  0.41800000000E+01 0.  1.
        -11    1    4    4    0    0 -0.19879999301E+02 -0.18504519203E+02 -0.50727930861E+02  0.57540894784E+02  0.00000000000E+00 0. -1.
         11    1    4    4    0    0  0.22913232777E+02  0.47574783244E+02 -0.54711402691E+01  0.53087753888E+02  0.00000000000E+00 0.  1.
</event>
<event>
 8    1  0.7224195E-009  0.8897642E+02  0.7561462E-02  0.1305350E+00
         -2   -1    0    0    0  501 -0.00000000000E+00  0.00000000000E+00  0.26738466669E+03  0.26738466669E+03  0.00000000000E+00 0.  1.
          2   -1    0    0  501    0  0.00000000000E+00 -0.00000000000E+00 -0.66347791376E+02  0.66347791376E+02  0.00000000000E+00 0. -1.
         25    2    1    2    0    0  0.50553511678E+02  0.35367256451E+02  0.57703797328E+02  0.15093972854E+03  0.12508626246E+03 0.  0.
         23    2    1    2    0    0 -0.50553511678E+02 -0.35367256451E+02  0.14333307799E+03  0.18279272952E+03  0.95196167723E+02 0.  0.
          5    1    3    3  502    0 -0.25735582736E+01  0.41494684427E+02 -0.27667861651E+02  0.50114020056E+02  0.41800000000E+01 0. -1.
         -5    1    3    3    0  502  0.53127069952E+02 -0.61274279760E+01  0.85371658979E+02  0.10082570849E+03  0.41800000000E+01 0. -1.
        -11    1    4    4    0    0 -0.43800542303E+02  0.26820088267E+01  0.13671650652E+03  0.14358650296E+03  0.00000000000E+00 0. -1.
         11    1    4    4    0    0 -0.67529693756E+01 -0.38049265278E+02  0.66165714727E+01  0.39206226567E+02  0.00000000000E+00 0.  1.
</event>
<event>
 8    1  0.7224195E-009  0.1054203E+03  0.7561462E-02  0.1269294E+00
         -2   -1    0    0    0  501 -0.00000000000E+00  0.00000000000E+00  0.24617217095E+03  0.24617217095E+03  0.00000000000E+00 0.  1.
          2   -1    0    0  501    0  0.00000000000E+00 -0.00000000000E+00 -0.73235009255E+02  0.73235009255E+02  0.00000000000E+00 0. -1.
         25    2    1    2    0    0 -0.43270642253E+02  0.10339479261E+02  0.17295313187E+03  0.21803595806E+03  0.12509052671E+03 0.  0.
         23    2    1    2    0    0  0.43270642253E+02 -0.10339479261E+02 -0.15970180179E-01  0.10137122214E+03  0.91087162161E+02 0.  0.
          5    1    3    3  502    0  0.32201848224E+02  0.37516687523E+02  0.45145238891E+02  0.67082232120E+02  0.41800000000E+01 0.  1.
         -5    1    3    3    0  502 -0.75472490477E+02 -0.27177208262E+02  0.12780789298E+03  0.15095372594E+03  0.41800000000E+01 0.  1.
        -11    1    4    4    0    0  0.55209142632E+02  0.11141056663E+02 -0.29017543956E+02  0.63357639089E+02  0.00000000000E+00 0. -1.
         11    1    4    4    0    0 -0.11938500378E+02 -0.21480535924E+02  0.29001573776E+02  0.38013583050E+02  0.00000000000E+00 0.  1.
</event>
<event>
 8    1  0.7224195E-009  0.1674231E+03  0.7561462E-02  0.1180562E+00
         -1   -1    0    0    0  501 -0.00000000000E+00  0.00000000000E+00  0.16703045555E+03  0.16703045555E+03  0.00000000000E+00 0.  1.
          1   -1    0    0  501    0  0.00000000000E+00 -0.00000000000E+00 -0.22997632957E+03  0.22997632957E+03  0.00000000000E+00 0. -1.
         25    2    1    2    0    0  0.87926202469E+02 -0.11803681400E+03 -0.10312650676E+03  0.21896597835E+03  0.12508923510E+03 0.  0.
         23    2    1    2    0    0 -0.87926202469E+02  0.11803681400E+03  0.40180632738E+02  0.17804080678E+03  0.91762405654E+02 0.  0.
          5    1    3    3  502    0  0.10576642717E+03 -0.12695745477E+03 -0.10870626065E+03  0.19783643735E+03  0.41800000000E+01 0. -1.
         -5    1    3    3    0  502 -0.17840224705E+02  0.89206407744E+01  0.55797538883E+01  0.21129540998E+02  0.41800000000E+01 0. -1.
        -11    1    4    4    0    0 -0.19987749514E+02  0.45987317651E+02 -0.28358360262E+02  0.57606771409E+02  0.00000000000E+00 0.  1.
         11    1    4    4    0    0 -0.67938452955E+02  0.72049496346E+02  0.68538993000E+02  0.12043403537E+03  0.00000000000E+00 0. -1.
</event>
<event>
 8    1  0.7224195E-009  0.1335589E+03  0.7561462E-02  0.1222269E+00
         -1   -1    0    0    0  501 -0.00000000000E+00  0.00000000000E+00  0.11884283786E+03  0.11884283786E+03  0.00000000000E+00 0.  1.
          1   -1    0    0  501    0  0.00000000000E+00 -0.00000000000E+00 -0.20705119459E+03  0.20705119459E+03  0.00000000000E+00 0. -1.
         25    2    1    2    0    0  0.97113773157E+02  0.34038301392E+02 -0.96089582186E+02  0.18833709615E+03  0.12509181861E+03 0.  0.
         23    2    1    2    0    0 -0.97113773157E+02 -0.34038301392E+02  0.78812254612E+01  0.13755693630E+03  0.90940123766E+02 0.  0.
          5    1    3    3  502    0  0.79187892465E+02  0.60693419406E+02 -0.14952304916E+02  0.10097255714E+03  0.41800000000E+01 0. -1.
         -5    1    3    3    0  502  0.17925880692E+02 -0.26655118013E+02 -0.81137277269E+02  0.87364539016E+02  0.41800000000E+01 0. -1.
        -11    1    4    4    0    0 -0.99336121382E+02 -0.55162478718E+02 -0.30558307878E+01  0.11366574757E+03  0.00000000000E+00 0. -1.
         11    1    4    4    0    0  0.22223482255E+01  0.21124177325E+02  0.10937056249E+02  0.23891188725E+02  0.00000000000E+00 0.  1.
</event>
<event>
 8    1  0.7224195E-009  0.1482557E+03  0.7561462E-02  0.1202633E+00
         -1   -1    0    0    0  501 -0.00000000000E+00  0.00000000000E+00  0.11040975398E+03  0.11040975398E+03  0.00000000000E+00 0.  1.
          1   -1    0    0  501    0  0.00000000000E+00 -0.00000000000E+00 -0.35637123195E+03  0.35637123195E+03  0.00000000000E+00 0. -1.
         25    2    1    2    0    0  0.12321776868E+03  0.97709043925E+01  0.11384265774E+01  0.17585930270E+03  0.12508840569E+03 0.  0.
         23    2    1    2    0    0 -0.12321776868E+03 -0.97709043925E+01 -0.24709990455E+03  0.29092168323E+03  0.91098703918E+02 0.  0.
          5    1    3    3  502    0  0.33081820767E+02  0.57139968250E+02 -0.24877058064E+02  0.70680430494E+02  0.41800000000E+01 0. -1.
         -5    1    3    3    0  502  0.90135947915E+02 -0.47369063858E+02  0.26015484641E+02  0.10517887221E+03  0.41800000000E+01 0. -1.
        -11    1    4    4    0    0 -0.56432122103E+02 -0.21959355271E+02 -0.38996049208E+02  0.72024228859E+02  0.00000000000E+00 0.  1.
         11    1    4    4    0    0 -0.66785646579E+02  0.12188450878E+02 -0.20810385534E+03  0.21889745437E+03  0.00000000000E+00 0. -1.
</event>
<event>
 8    1  0.7224195E-009  0.8906426E+02  0.7561462E-02  0.1305134E+00
          4   -1    0    0  501    0  0.00000000000E+00  0.00000000000E+00  0.52285586259E+02  0.52285586259E+02  0.00000000000E+00 0. -1.
         -4   -1    0    0    0  501 -0.00000000000E+00 -0.00000000000E+00 -0.25266745882E+03  0.25266745882E+03  0.00000000000E+00 0.  1.
         25    2    1    2    0    0 -0.28289644431E+01 -0.36211603896E+02 -0.11378640846E+03  0.17295721577E+03  0.12509024119E+03 0.  0.
         23    2    1    2    0    0  0.28289644431E+01  0.36211603896E+02 -0.86595464101E+02  0.13199582931E+03  0.92762283584E+02 0.  0.
          5    1    3    3  502    0 -0.39822417907E+01  0.21097121435E+02 -0.11339303790E+03  0.11548333311E+03  0.41800000000E+01 0.  1.
         -5    1    3    3    0  502  0.11532773476E+01 -0.57308725330E+02 -0.39337056291E+00  0.57473882660E+02  0.41800000000E+01 0.  1.
        -11    1    4    4    0    0 -0.42593807155E+02  0.33610880199E+01 -0.46011519740E+02  0.62790041164E+02  0.00000000000E+00 0.  1.
         11    1    4    4    0    0  0.45422771598E+02  0.32850515876E+02 -0.40583944361E+02  0.69205788145E+02  0.00000000000E+00 0. -1.
</event>
<event>
 8    1  0.7224195E-009  0.2615182E+03  0.7561462E-02  0.1106235E+00
          4   -1    0    0  501    0  0.00000000000E+00  0.00000000000E+00  0.19971052972E+03  0.19971052972E+03  0.00000000000E+00 0. -1.
         -4   -1    0    0    0  501 -0.00000000000E+00 -0.00000000000E+00 -0.50934583142E+03  0.50934583142E+03  0.00000000000E+00 0.  1.
         25    2    1    2    0    0  0.17086931094E+03 -0.18044438691E+03 -0.34474940814E+03  0.44300869608E+03  0.12509217482E+03 0.  0.
         23    2    1    2    0    0 -0.17086931094E+03  0.18044438691E+03  0.35114106449E+02  0.26604766506E+03  0.88271521042E+02 0.  0.
          5    1    3    3  502    0  0.12757417289E+03 -0.59429566623E+02 -0.12441040751E+03  0.18788950176E+03  0.41800000000E+01 0.  1.
         -5    1    3    3    0  502  0.43295138051E+02 -0.12101482028E+03 -0.22033900063E+03  0.25511919432E+03  0.41800000000E+01 0.  1.
        -11    1    4    4    0    0 -0.29339900302E+02  0.77187304283E+01  0.30027559322E+02  0.42685628354E+02  0.00000000000E+00 0. -1.
         11    1    4    4    0    0 -0.14152941064E+03  0.17272565648E+03  0.50865471271E+01  0.22336203671E+03  0.00000000000E+00 0.  1.
</event>
<event>
 8    1  0.7224195E-009  0.1617756E+03  0.7561462E-02  0.1186707E+00
         -2   -1    0    0    0  501 -0.00000000000E+00  0.00000000000E+00  0.37963227242E+02  0.37963227242E+02  0.00000000000E+00 0.  1.
          2   -1    0    0  501    0  0.00000000000E+00 -0.00000000000E+00 -0.71385564053E+03  0.71385564053E+03  0.00000000000E+00 0. -1.
         25    2    1    2    0    0 -0.11162536104E+03  0.51708866283E+02 -0.33400136148E+03  0.37727729003E+03  0.12508883253E+03 0.  0.
         23    2    1    2    0    0  0.11162536104E+03 -0.51708866283E+02 -0.34189105180E+03  0.37454157774E+03  0.90872845621E+02 0.  0.
          5    1    3    3  502    0 -0.73349603711E+02 -0.31293594731E+02 -0.11576253519E+03  0.14063388777E+03  0.41800000000E+01 0.  1.
         -5    1    3    3    0  502 -0.38275757325E+02  0.83002461015E+02 -0.21823882629E+03  0.23664340226E+03  0.41800000000E+01 0.  1.
        -11    1    4    4    0    0 -0.19234927885E+00  0.19584515923E+02 -0.57683682934E+02  0.60917957442E+02  0.00000000000E+00 0. -1.
         11    1    4    4    0    0  0.11181771031E+03 -0.71293382206E+02 -0.28420736887E+03  0.31362362029E+03  0.00000000000E+00 0.  1.
</event>
<event>
 8    1  0.7224195E-009  0.1046865E+03  0.7561462E-02  0.1270738E+00
         -3   -1    0    0    0  501 -0.00000000000E+00  0.00000000000E+00  0.65968579089E+02  0.65968579089E+02  0.00000000000E+00 0.  1.
          3   -1    0    0  501    0  0.00000000000E+00 -0.00000000000E+00 -0.19384331073E+03  0.19384331073E+03  0.00000000000E+00 0. -1.
         25    2    1    2    0    0 -0.52805613588E+00 -0.24689696797E+02 -0.51964826501E+02  0.13768614942E+03  0.12508905859E+03 0.  0.
         23    2    1    2    0    0  0.52805613588E+00  0.24689696797E+02 -0.75909905140E+02  0.12212574040E+03  0.92425769121E+02 0.  0.
          5    1    3    3  502    0 -0.12561948441E+01 -0.69067016897E+02  0.19275001965E-01  0.69204794777E+02  0.41800000000E+01 0. -1.
         -5    1    3    3    0  502  0.72813870826E+00  0.44377320100E+02 -0.51984101503E+02  0.68481354647E+02  0.41800000000E+01 0. -1.
        -11    1    4    4    0    0 -0.36173098834E+01  0.59963276453E+02 -0.50094181036E+02  0.78218325394E+02  0.00000000000E+00 0. -1.
         11    1    4    4    0    0  0.41453660193E+01 -0.35273579655E+02 -0.25815724104E+02  0.43907415002E+02  0.00000000000E+00 0.  1.
</event>
<event>
 8    1  0.7224195E-009  0.9997356E+02  0.7561462E-02  0.1280352E+00
          1   -1    0    0  501    0  0.00000000000E+00  0.00000000000E+00  0.35214190536E+02  0.35214190536E+02  0.00000000000E+00 0. -1.
         -1   -1    0    0    0  501 -0.00000000000E+00 -0.00000000000E+00 -0.52121605800E+03  0.52121605800E+03  0.00000000000E+00 0.  1.
         25    2    1    2    0    0 -0.20192031510E+02 -0.66735901374E+02 -0.17867197778E+03  0.22897202581E+03  0.12507243617E+03 0.  0.
         23    2    1    2    0    0  0.20192031510E+02  0.66735901374E+02 -0.30732988969E+03  0.32745822273E+03  0.88970938339E+02 0.  0.
          5    1    3    3  502    0  0.57353560457E+01  0.12405891129E+02 -0.13325700632E+03  0.13402127658E+03  0.41800000000E+01 0.  1.
         -5    1    3    3    0  502 -0.25927387556E+02 -0.79141792502E+02 -0.45414971459E+02  0.94950749226E+02  0.41800000000E+01 0.  1.
        -11    1    4    4    0    0  0.43291838147E+02  0.15354445825E+02 -0.71427701592E+02  0.84922663709E+02  0.00000000000E+00 0. -1.
         11    1    4    4    0    0 -0.23099806636E+02  0.51381455549E+02 -0.23590218809E+03  0.24253555902E+03  0.00000000000E+00 0.  1.
</event>
<event>
 8    1  0.7224195E-009  0.1472656E+03  0.7561462E-02  0.1203874E+00
          2   -1    0    0  501    0  0.00000000000E+00  0.00000000000E+00  0.16477603496E+04  0.16477603496E+04  0.00000000000E+00 0. -1.
         -2   -1    0    0    0  501 -0.00000000000E+00 -0.00000000000E+00 -0.17236339447E+02  0.17236339447E+02  0.00000000000E+00 0.  1.
         25    2    1    2    0    0  0.10078060304E+03 -0.30986740645E+02  0.12326796970E+04  0.12434884459E+04  0.12508945471E+03 0.  0.
         23    2    1    2    0    0 -0.10078060304E+03  0.30986740645E+02  0.39784431312E+03  0.42150824311E+03  0.90951599629E+02 0.  0.
          5    1    3    3  502    0 -0.15684268558E+01  0.34084680095E+02  0.46574033447E+03  0.46700723435E+03  0.41800000000E+01 0. -1.
         -5    1    3    3    0  502  0.10234902990E+03 -0.65071420740E+02  0.76693936251E+03  0.77648121155E+03  0.41800000000E+01 0. -1.
        -11    1    4    4    0    0 -0.13787392048E+02  0.48188892811E+02  0.16018910762E+03  0.16784758494E+03  0.00000000000E+00 0.  1.
         11    1    4    4    0    0 -0.86993210992E+02 -0.17202152166E+02  0.23765520551E+03  0.25366065817E+03  0.00000000000E+00 0. -1.
</event>
<event>
 8    1  0.7224195E-009  0.1295721E+03  0.7561462E-02  0.1228092E+00
          2   -1    0    0  501    0  0.00000000000E+00  0.00000000000E+00  0.61848174565E+03  0.61848174565E+03  0.00000000000E+00 0. -1.
         -2   -1    0    0    0  501 -0.00000000000E+00 -0.00000000000E+00 -0.29767869343E+02  0.29767869343E+02  0.00000000000E+00 0.  1.
         25    2    1    2    0    0  0.42214889603E+02 -0.60477867198E+02  0.41008596296E+03  0.43503757392E+03  0.12509006509E+03 0.  0.
         23    2    1    2    0    0 -0.42214889603E+02  0.60477867198E+02  0.17862791335E+03  0.21321204107E+03  0.90065385721E+02 0.  0.
          5    1    3    3  502    0 -0.20501165851E+02  0.28886448842E+02  0.11321015049E+03  0.11869597846E+03  0.41800000000E+01 0. -1.
         -5    1    3    3    0  502  0.62716055453E+02 -0.89364316040E+02  0.29687581247E+03  0.31634159546E+03  0.41800000000E+01 0. -1.
        -11    1    4    4    0    0 -0.58339851490E+02  0.73255001460E+02  0.16034418379E+03  0.18568815467E+03  0.00000000000E+00 0. -1.
         11    1    4    4    0    0  0.16124961887E+02 -0.12777134262E+02  0.18283729558E+02  0.27523886396E+02  0.00000000000E+00 0.  1.
</event>
<event>
 8    1  0.7224195E-009  0.3180330E+03  0.7561462E-02  0.1076558E+00
          2   -1    0    0  501    0  0.00000000000E+00  0.00000000000E+00  0.57194154865E+03  0.57194154865E+03  0.00000000000E+00 0.  1.
         -2   -1    0    0    0  501 -0.00000000000E+00 -0.00000000000E+00 -0.19870333864E+03  0.19870333864E+03  0.00000000000E+00 0. -1.
         25    2    1    2    0    0  0.30718638668E+03 -0.22268960737E+02  0.28484095463E+03  0.43776793067E+03  0.12508800468E+03 0.  0.
         23    2    1    2    0    0 -0.30718638668E+03  0.22268960737E+02  0.88397255378E+02  0.33287695662E+03  0.90186532890E+02 0.  0.
          5    1    3    3  502    0  0.27236298710E+01  0.15212957915E+02 -0.38918501175E+01  0.16476381446E+02  0.41800000000E+01 0.  1.
         -5    1    3    3    0  502  0.30446275681E+03 -0.37481918653E+02  0.28873280475E+03  0.42129154923E+03  0.41800000000E+01 0.  1.
        -11    1    4    4    0    0 -0.28451343108E+03  0.46485667631E+01  0.10041410916E+03  0.30174905958E+03  0.00000000000E+00 0.  1.
         11    1    4    4    0    0 -0.22672955598E+02  0.17620393974E+02 -0.12016853778E+02  0.31127897039E+02  0.00000000000E+00 0. -1.
</event>
<event>
 8    1  0.7224195E-009  0.7865123E+02  0.7561462E-02  0.1332923E+00
         -1   -1    0    0    0  501 -0.00000000000E+00  0.00000000000E+00  0.26313559151E+02  0.26313559151E+02  0.00000000000E+00 0.  1.
          1   -1    0    0  501    0  0.00000000000E+00 -0.00000000000E+00 -0.54480789607E+03  0.54480789607E+03  0.00000000000E+00 0. -1.
         25    2    1    2    0    0  0.46083314021E+02 -0.18142850261E+02 -0.31735166564E+03  0.34469564446E+03  0.12510065057E+03 0.  0.
         23    2    1    2    0    0 -0.46083314021E+02  0.18142850261E+02 -0.20114267128E+03  0.22642581077E+03  0.91419028250E+02 0.  0.
          5    1    3    3  502    0  0.46829601055E+02 -0.41951171299E+00 -0.27903263128E+02  0.54674052514E+02  0.41800000000E+01 0.  1.
         -5    1    3    3    0  502 -0.74628703429E+00 -0.17723338548E+02 -0.28944840252E+03  0.29002159194E+03  0.41800000000E+01 0.  1.
        -11    1    4    4    0    0 -0.67471570423E+02  0.67009791995E+01 -0.18564926665E+03  0.19764353302E+03  0.00000000000E+00 0. -1.
         11    1    4    4    0    0  0.21388256402E+02  0.11441871061E+02 -0.15493404628E+02  0.28782277747E+02  0.00000000000E+00 0.  1.
</event>
<event>
 8    1  0.7224195E-009  0.1160178E+03  0.7561462E-02  0.1249815E+00
          1   -1    0    0  501    0  0.00000000000E+00  0.00000000000E+00  0.54864400448E+02  0.54864400448E+02  0.00000000000E+00 0. -1.
         -1   -1    0    0    0  501 -0.00000000000E+00 -0.00000000000E+00 -0.31377310357E+03  0.31377310357E+03  0.00000000000E+00 0.  1.
         25    2    1    2    0    0  0.62798778919E+02  0.47077364969E+02 -0.12459162293E+03  0.19321184369E+03  0.12509108326E+03 0.  0.
         23    2    1    2    0    0 -0.62798778919E+02 -0.47077364969E+02 -0.13431708019E+03  0.17542566033E+03  0.81074776260E+02 0.  0.
          5    1    3    3  502    0  0.25713372831E+02  0.72296181939E+02 -0.12663028760E+03  0.14812365646E+03  0.41800000000E+01 0. -1.
         -5    1    3    3    0  502  0.37085406088E+02 -0.25218816969E+02  0.20386646667E+01  0.45088187230E+02  0.41800000000E+01 0. -1.
        -11    1    4    4    0    0 -0.64423261606E+02 -0.13976677623E+01 -0.59252260187E+02  0.87539365136E+02  0.00000000000E+00 0. -1.
         11    1    4    4    0    0  0.16244826878E+01 -0.45679697207E+02 -0.75064820006E+02  0.87886295197E+02  0.00000000000E+00 0.  1.
</event>
<event>
 8    1  0.7224195E-009  0.8585847E+02  0.7561462E-02  0.1313203E+00
         -1   -1    0    0    0  501 -0.00000000000E+00  0.00000000000E+00  0.16204467762E+03  0.16204467762E+03  0.00000000000E+00 0.  1.
          1   -1    0    0  501    0  0.00000000000E+00 -0.00000000000E+00 -0.82867924476E+02  0.82867924476E+02  0.00000000000E+00 0. -1.
         25    2    1    2    0    0 -0.24034761361E+02  0.29237019658E+02  0.28746471690E+02  0.13381403716E+03  0.12508942336E+03 0.  0.
         23    2    1    2    0    0  0.24034761361E+02 -0.29237019658E+02  0.50430281450E+02  0.11109856493E+03  0.91472426281E+02 0.  0.
          5    1    3    3  502    0 -0.69096628235E+02  0.15388382257E+02 -0.11312736255E+02  0.71809447453E+02  0.41800000000E+01 0. -1.
         -5    1    3    3    0  502  0.45061866875E+02  0.13848637401E+02  0.40059207945E+02  0.62004589711E+02  0.41800000000E+01 0. -1.
        -11    1    4    4    0    0  0.15147735134E+02  0.66231414101E+01 -0.23335376259E+02  0.28598245872E+02  0.00000000000E+00 0. -1.
         11    1    4    4    0    0  0.88870262266E+01 -0.35860161068E+02  0.73765657709E+02  0.82500319055E+02  0.00000000000E+00 0.  1.
</event>
<event>
 8    1  0.7224195E-009  0.1213191E+03  0.7561462E-02  0.1240937E+00
         -3   -1    0    0    0  501 -0.00000000000E+00  0.00000000000E+00  0.26440981412E+03  0.26440981412E+03  0.00000000000E+00 0. -1.
          3   -1    0    0  501    0  0.00000000000E+00 -0.00000000000E+00 -0.86393607442E+02  0.86393607442E+02  0.00000000000E+00 0.  1.
         25    2    1    2    0    0 -0.92413927651E+02  0.48247029253E+01  0.15476189001E+03  0.21945789138E+03  0.12508761613E+03 0.  0.
         23    2    1    2    0    0  0.92413927651E+02 -0.48247029253E+01  0.23254316668E+02  0.13134553018E+03  0.90262247213E+02 0.  0.
          5    1    3    3  502    0 -0.35785618097E+02  0.40981061505E+02  0.44346801590E+01  0.54746658827E+02  0.41800000000E+01 0. -1.
         -5    1    3    3    0  502 -0.56628309554E+02 -0.36156358579E+02  0.15032720985E+03  0.16471123256E+03  0.41800000000E+01 0. -1.
        -11    1    4    4    0    0  0.40438164878E+02  0.36405736801E+02 -0.12716919475E+02  0.55877928484E+02  0.00000000000E+00 0.  1.
         11    1    4    4    0    0  0.51975762773E+02 -0.41230439726E+02  0.35971236142E+02  0.75467601694E+02  0.00000000000E+00 0. -1.
</event>
<event>
 8    1  0.7224195E-009  0.1004050E+03  0.7561462E-02  0.1279447E+00
          1   -1    0    0  501    0  0.00000000000E+00  0.00000000000E+00  0.19823937388E+03  0.19823937388E+03  0.00000000000E+00 0. -1.
         -1   -1    0    0    0  501 -0.00000000000E+00 -0.00000000000E+00 -0.87112576733E+02  0.87112576733E+02  0.00000000000E+00 0.  1.
         25    2    1    2    0    0  0.40390643237E+02 -0.17245464386E+02 -0.29704903977E+01  0.13260876164E+03  0.12508976676E+03 0.  0.
         23    2    1    2    0    0 -0.40390643237E+02  0.17245464386E+02  0.11409728755E+03  0.15274318898E+03  0.91561349105E+02 0.  0.
          5    1    3    3  502    0  0.75653173961E+02 -0.28790512171E+02  0.26246157382E+02  0.85197590921E+02  0.41800000000E+01 0. -1.
         -5    1    3    3    0  502 -0.35262530724E+02  0.11545047784E+02 -0.29216647779E+02  0.47411170718E+02  0.41800000000E+01 0. -1.
        -11    1    4    4    0    0 -0.49889944124E+02 -0.12298333287E+02  0.11003997476E+03  0.12144567333E+03  0.00000000000E+00 0. -1.
         11    1    4    4    0    0  0.94993008864E+01  0.29543797673E+02  0.40573127855E+01  0.31297515641E+02  0.00000000000E+00 0.  1.
</event>
<event>
 8    1  0.7224195E-009  0.8735784E+02  0.7561462E-02  0.1309379E+00
          2   -1    0    0  501    0  0.00000000000E+00  0.00000000000E+00  0.81422616056E+02  0.81422616056E+02  0.00000000000E+00 0. -1.
         -2   -1    0    0    0  501 -0.00000000000E+00 -0.00000000000E+00 -0.16015211422E+03  0.16015211422E+03  0.00000000000E+00 0.  1.
         25    2    1    2    0    0  0.31166476748E+01  0.98440879203E+01 -0.81995389969E+02  0.14992281628E+03  0.12508791830E+03 0.  0.
         23    2    1    2    0    0 -0.31166476748E+01 -0.98440879203E+01  0.32658918088E+01  0.91651913995E+02  0.91009822162E+02 0.  0.
          5    1    3    3  502    0 -0.31091085832E+02  0.56391547200E+02 -0.26658342132E+02  0.69819781001E+02  0.41800000000E+01 0.  1.
         -5    1    3    3    0  502  0.34207733506E+02 -0.46547459279E+02 -0.55337047837E+02  0.80103035276E+02  0.41800000000E+01 0.  1.
        -11    1    4    4    0    0  0.23757628710E+02 -0.89264761018E+01  0.39243996129E+02  0.46735405526E+02  0.00000000000E+00 0. -1.
         11    1    4    4    0    0 -0.26874276384E+02 -0.91761181847E+00 -0.35978104320E+02  0.44916508470E+02  0.00000000000E+00 0.  1.
</event>
<event>
 8    1  0.7224195E-009  0.9981661E+02  0.7561462E-02  0.1280682E+00
         -4   -1    0    0    0  501 -0.00000000000E+00  0.00000000000E+00  0.38298086942E+03  0.38298086942E+03  0.00000000000E+00 0. -1.
          4   -1    0    0  501    0  0.00000000000E+00 -0.00000000000E+00 -0.69434267673E+02  0.69434267673E+02  0.00000000000E+00 0.  1.
         25    2    1    2    0    0  0.75756746835E+02  0.34483271092E+01  0.29895456933E+03  0.33282258706E+03  0.12508422875E+03 0.  0.
         23    2    1    2    0    0 -0.75756746835E+02 -0.34483271092E+01  0.14592032422E+02  0.11959255004E+03  0.91315250444E+02 0.  0.
          5    1    3    3  502    0  0.10397405547E+01 -0.25172382302E+02  0.24174434562E+01  0.25652413611E+02  0.41800000000E+01 0.  1.
         -5    1    3    3    0  502  0.74717006280E+02  0.28620709411E+02  0.29653712587E+03  0.30717017345E+03  0.41800000000E+01 0.  1.
        -11    1    4    4    0    0 -0.80108912497E+02 -0.15115304294E+02  0.40365498819E+02  0.90968586778E+02  0.00000000000E+00 0. -1.
         11    1    4    4    0    0  0.43521656628E+01  0.11666977185E+02 -0.25773466398E+02  0.28623963261E+02  0.00000000000E+00 0.  1.
</event>
<event>
 8    1  0.7224195E-009  0.1917369E+03  0.7561462E-02  0.1156904E+00
          2   -1    0    0  501    0  0.00000000000E+00  0.00000000000E+00  0.13935074053E+04  0.13935074053E+04  0.00000000000E+00 0. -1.
         -2   -1    0    0    0  501 -0.00000000000E+00 -0.00000000000E+00 -0.32996419540E+02  0.32996419540E+02  0.00000000000E+00 0.  1.
         25    2    1    2    0    0 -0.15526729118E+03 -0.66196093651E+02  0.95670284879E+03  0.97949870972E+03  0.12509007524E+03 0.  0.
         23    2    1    2    0    0  0.15526729118E+03  0.66196093651E+02  0.40380813701E+03  0.44700511517E+03  0.90899433140E+02 0.  0.
          5    1    3    3  502    0  0.16796738602E+02 -0.25727189828E+02  0.20169323945E+03  0.20406286768E+03  0.41800000000E+01 0.  1.
         -5    1    3    3    0  502 -0.17206402978E+03 -0.40468903823E+02  0.75500960934E+03  0.77543584204E+03  0.41800000000E+01 0.  1.
        -11    1    4    4    0    0  0.73863556801E+02  0.54079851407E+01  0.86733935449E+02  0.11405194819E+03  0.00000000000E+00 0.  1.
         11    1    4    4    0    0  0.81403734379E+02  0.60788108510E+02  0.31707420157E+03  0.33295316699E+03  0.00000000000E+00 0. -1.
</event>
<event>
 8    1  0.7224195E-009  0.6117403E+02  0.7561462E-02  0.1392970E+00
          2   -1    0    0  501    0  0.00000000000E+00  0.00000000000E+00  0.32547580707E+03  0.32547580707E+03  0.00000000000E+00 0. -1.
         -2   -1    0    0    0  501 -0.00000000000E+00 -0.00000000000E+00 -0.39412609752E+02  0.39412609752E+02  0.00000000000E+00 0.  1.
         25    2    1    2    0    0 -0.28411782361E+02 -0.13824244942E+02  0.15458074162E+03  0.20135173306E+03  0.12509586564E+03 0.  0.
         23    2    1    2    0    0  0.28411782361E+02  0.13824244942E+02  0.13148245570E+03  0.16353668376E+03  0.91968862421E+02 0.  0.
          5    1    3    3  502    0 -0.13141016510E+02 -0.20648530033E+02  0.17378158667E+03  0.17554646214E+03  0.41800000000E+01 0. -1.
         -5    1    3    3    0  502 -0.15270765851E+02  0.68242850906E+01 -0.19200845043E+02  0.25805270916E+02  0.41800000000E+01 0. -1.
        -11    1    4    4    0    0  0.82474781507E+01  0.43568725238E+02  0.11640847009E+03  0.12456800000E+03  0.00000000000E+00 0. -1.
         11    1    4    4    0    0  0.20164304210E+02 -0.29744480296E+02  0.15073985608E+02  0.38968683766E+02  0.00000000000E+00 0.  1.
</event>
<event>
 8    1  0.7224195E-009  0.1719075E+03  0.7561462E-02  0.1175873E+00
          2   -1    0    0  501    0  0.00000000000E+00  0.00000000000E+00  0.64808392453E+03  0.64808392453E+03  0.00000000000E+00 0. -1.
         -2   -1    0    0    0  501 -0.00000000000E+00 -0.00000000000E+00 -0.50926815209E+02  0.50926815209E+02  0.00000000000E+00 0.  1.
         25    2    1    2    0    0 -0.13520686091E+03 -0.51586251205E+02  0.34258388532E+03  0.39236769986E+03  0.12508659747E+03 0.  0.
         23    2    1    2    0    0  0.13520686091E+03  0.51586251205E+02  0.25457322400E+03  0.30664303987E+03  0.90996653634E+02 0.  0.
          5    1    3    3  502    0 -0.20807230453E+01 -0.52139585243E+02  0.57836572644E+02  0.78009020587E+02  0.41800000000E+01 0. -1.
         -5    1    3    3    0  502 -0.13312613787E+03  0.55333403815E+00  0.28474731267E+03  0.31435867928E+03  0.41800000000E+01 0. -1.
        -11    1    4    4    0    0  0.34356138657E+02 -0.14933184086E+02  0.12040096883E+03  0.12609416142E+03  0.00000000000E+00 0. -1.
         11    1    4    4    0    0  0.10085072226E+03  0.66519435291E+02  0.13417225518E+03  0.18054887845E+03  0.00000000000E+00 0.  1.
</event>
<event>
 8    1  0.7224195E-009  0.1195380E+03  0.7561462E-02  0.1243861E+00
         -1   -1    0    0    0  501 -0.00000000000E+00  0.00000000000E+00  0.18118638116E+02  0.18118638116E+02  0.00000000000E+00 0. -1.
          1   -1    0    0  501    0  0.00000000000E+00 -0.00000000000E+00 -0.89963031608E+03  0.89963031608E+03  0.00000000000E+00 0.  1.
         25    2    1    2    0    0 -0.45317456158E+02  0.45417273043E+02 -0.45601067237E+03  0.47718783405E+03  0.12508435203E+03 0.  0.
         23    2    1    2    0    0  0.45317456158E+02 -0.45417273043E+02 -0.42550100559E+03  0.44056112015E+03  0.94480655713E+02 0.  0.
          5    1    3    3  502    0  0.33605692863E+02  0.28530484610E+02 -0.70167415397E+02  0.82971499495E+02  0.41800000000E+01 0.  1.
         -5    1    3    3    0  502 -0.78923149021E+02  0.16886788433E+02 -0.38584325698E+03  0.39421633455E+03  0.41800000000E+01 0.  1.
        -11    1    4    4    0    0  0.54354062140E+02 -0.69514263099E+02 -0.34061567328E+03  0.35186024745E+03  0.00000000000E+00 0.  1.
         11    1    4    4    0    0 -0.90366059821E+01  0.24096990056E+02 -0.84885332306E+02  0.88700872702E+02  0.00000000000E+00 0. -1.
</event>
<event>
 8    1  0.7224195E-009  0.1127029E+03  0.7561462E-02  0.1255645E+00
         -1   -1    0    0    0  501 -0.00000000000E+00  0.00000000000E+00  0.49513615432E+02  0.49513615432E+02  0.00000000000E+00 0.  1.
          1   -1    0    0  501    0  0.00000000000E+00 -0.00000000000E+00 -0.27780448410E+03  0.27780448410E+03  0.00000000000E+00 0. -1.
         25    2    1    2    0    0 -0.38647316006E+02  0.18007045297E+02 -0.14795284865E+03  0.19838069166E+03  0.12508790783E+03 0.  0.
         23    2    1    2    0    0  0.38647316006E+02 -0.18007045297E+02 -0.80338020025E+02  0.12893740788E+03  0.91393593723E+02 0.  0.
          5    1    3    3  502    0 -0.52451397280E+02 -0.43923954995E+02 -0.74826204081E+02  0.10147362276E+03  0.41800000000E+01 0. -1.
         -5    1    3    3    0  502  0.13804081274E+02  0.61931000292E+02 -0.73126644564E+02  0.96907068897E+02  0.41800000000E+01 0. -1.
        -11    1    4    4    0    0  0.38831268561E+02  0.27617701130E+02 -0.16408728369E+02  0.50396936420E+02  0.00000000000E+00 0.  1.
         11    1    4    4    0    0 -0.18395255568E+00 -0.45624746427E+02 -0.63929291656E+02  0.78540471457E+02  0.00000000000E+00 0. -1.
</event>
<event>
 8    1  0.7224195E-009  0.9229395E+02  0.7561462E-02  0.1297390E+00
          1   -1    0    0  501    0  0.00000000000E+00  0.00000000000E+00  0.29462730113E+03  0.29462730113E+03  0.00000000000E+00 0. -1.
         -1   -1    0    0    0  501 -0.00000000000E+00 -0.00000000000E+00 -0.73896711509E+02  0.73896711509E+02  0.00000000000E+00 0.  1.
         25    2    1    2    0    0  0.21335027951E+02 -0.15591394716E+02  0.67225043578E+00  0.12786341741E+03  0.12510126532E+03 0.  0.
         23    2    1    2    0    0 -0.21335027951E+02  0.15591394716E+02  0.22005833919E+03  0.24066059523E+03  0.93774060602E+02 0.  0.
          5    1    3    3  502    0  0.15069767433E+02  0.37286418603E+02  0.43509087173E+02  0.59396026545E+02  0.41800000000E+01 0.  1.
         -5    1    3    3    0  502  0.62652605181E+01 -0.52877813319E+02 -0.42836836738E+02  0.68467390869E+02  0.41800000000E+01 0.  1.
        -11    1    4    4    0    0  0.17299462397E+02 -0.27738278178E+02  0.41063002687E+02  0.52486699889E+02  0.00000000000E+00 0.  1.
         11    1    4    4    0    0 -0.38634490348E+02  0.43329672894E+02  0.17899533650E+03  0.18817389534E+03  0.00000000000E+00 0. -1.
</event>
<event>
 8    1  0.7224195E-009  0.9480372E+02  0.7561462E-02  0.1291619E+00
         -3   -1    0    0    0  501 -0.00000000000E+00  0.00000000000E+00  0.21733924662E+03  0.21733924662E+03  0.00000000000E+00 0.  1.
          3   -1    0    0  501    0  0.00000000000E+00 -0.00000000000E+00 -0.67471097850E+02  0.67471097850E+02  0.00000000000E+00 0. -1.
         25    2    1    2    0    0  0.88942030503E+01  0.20185460471E+02  0.27009921948E+02  0.12986263226E+03  0.12509279640E+03 0.  0.
         23    2    1    2    0    0 -0.88942030503E+01 -0.20185460471E+02  0.12285822682E+03  0.15494771221E+03  0.91804629291E+02 0.  0.
          5    1    3    3  502    0 -0.40393385271E+02 -0.15223129602E+02 -0.24799166224E+02  0.49958385622E+02  0.41800000000E+01 0.  1.
         -5    1    3    3    0  502  0.49287588321E+02  0.35408590073E+02  0.51809088172E+02  0.79904246638E+02  0.41800000000E+01 0.  1.
        -11    1    4    4    0    0 -0.29030642877E+02  0.23470027404E+02  0.87920536715E+02  0.95517753263E+02  0.00000000000E+00 0.  1.
         11    1    4    4    0    0  0.20136439827E+02 -0.43655487876E+02  0.34937690109E+02  0.59429958949E+02  0.00000000000E+00 0. -1.
</event>
<event>
 8    1  0.7224195E-009  0.1472501E+03  0.7561462E-02  0.1203893E+00
         -1   -1    0    0    0  501 -0.00000000000E+00  0.00000000000E+00  0.34779781333E+03  0.34779781333E+03  0.00000000000E+00 0.  1.
          1   -1    0    0  501    0  0.00000000000E+00 -0.00000000000E+00 -0.10786608463E+03  0.10786608463E+03  0.00000000000E+00 0. -1.
         25    2    1    2    0    0 -0.14137263631E+03  0.19276150439E+02  0.40052046015E+02  0.19393097740E+03  0.12508902963E+03 0.  0.
         23    2    1    2    0    0  0.14137263631E+03 -0.19276150439E+02  0.19987968268E+03  0.26173292056E+03  0.90523156609E+02 0.  0.
          5    1    3    3  502    0 -0.75439411102E+02 -0.28178837019E+00  0.83395269212E+02  0.11253189538E+03  0.41800000000E+01 0.  1.
         -5    1    3    3    0  502 -0.65933225205E+02  0.19557938809E+02 -0.43343223197E+02  0.81399082018E+02  0.41800000000E+01 0.  1.
        -11    1    4    4    0    0  0.11963213272E+03 -0.33291907526E+02  0.20052151135E+03  0.23585816670E+03  0.00000000000E+00 0.  1.
         11    1    4    4    0    0  0.21740503587E+02  0.14015757088E+02 -0.64182866986E+00  0.25874753854E+02  0.00000000000E+00 0. -1.
</event>
<event>
 8    1  0.7224195E-009  0.1396985E+03  0.7561462E-02  0.1213735E+00
          3   -1    0    0  501    0  0.00000000000E+00  0.00000000000E+00  0.12523331847E+03  0.12523331847E+03  0.00000000000E+00 0. -1.
         -3   -1    0    0    0  501 -0.00000000000E+00 -0.00000000000E+00 -0.21318026232E+03  0.21318026232E+03  0.00000000000E+00 0.  1.
         25    2    1    2    0    0 -0.92170168938E+02  0.23443021355E+02 -0.12596164013E+03  0.20139062305E+03  0.12508770114E+03 0.  0.
         23    2    1    2    0    0  0.92170168938E+02 -0.23443021355E+02  0.38014696275E+02  0.13702295774E+03  0.91023395467E+02 0.  0.
          5    1    3    3  502    0 -0.44036187932E+02 -0.49378595391E+02 -0.75506256087E+02  0.10047934434E+03  0.41800000000E+01 0. -1.
         -5    1    3    3    0  502 -0.48133981006E+02  0.72821616745E+02 -0.50455384042E+02  0.10091127871E+03  0.41800000000E+01 0. -1.
        -11    1    4    4    0    0  0.85236912249E+02  0.15087304798E+02  0.44515895742E+02  0.97337674872E+02  0.00000000000E+00 0. -1.
         11    1    4    4    0    0  0.69332566889E+01 -0.38530326152E+02 -0.65011994665E+01  0.39685282867E+02  0.00000000000E+00 0.  1.
</event>
<event>
 8    1  0.7224195E-009  0.1627438E+03  0.7561462E-02  0.1185633E+00
          1   -1    0    0  501    0  0.00000000000E+00  0.00000000000E+00  0.12295866637E+04  0.12295866637E+04  0.00000000000E+00 0. -1.
         -1   -1    0    0    0  501 -0.00000000000E+00 -0.00000000000E+00 -0.31725619109E+02  0.31725619109E+02  0.00000000000E+00 0.  1.
         25    2    1    2    0    0 -0.19413985577E+02 -0.15976458283E+03  0.51892668094E+03  0.55752544448E+03  0.12509235104E+03 0.  0.
         23    2    1    2    0    0  0.19413985577E+02  0.15976458283E+03  0.67893436369E+03  0.70378683837E+03  0.91991406665E+02 0.  0.
          5    1    3    3  502    0 -0.85892253883E+01 -0.13179077860E+03  0.50866759732E+03  0.52554997962E+03  0.41800000000E+01 0.  1.
         -5    1    3    3    0  502 -0.10824760189E+02 -0.27973804230E+02  0.10259083621E+02  0.31975464860E+02  0.41800000000E+01 0.  1.
        -11    1    4    4    0    0 -0.25378615520E+01  0.87594402194E+02  0.52611724815E+03  0.53336533337E+03  0.00000000000E+00 0. -1.
         11    1    4    4    0    0  0.21951847129E+02  0.72170180633E+02  0.15281711554E+03  0.17042150500E+03  0.00000000000E+00 0.  1.
</event>
<event>
 8    1  0.7224195E-009  0.1004415E+03  0.7561462E-02  0.1279370E+00
          1   -1    0    0  501    0  0.00000000000E+00  0.00000000000E+00  0.13233347944E+04  0.13233347944E+04  0.00000000000E+00 0. -1.
         -1   -1    0    0    0  501 -0.00000000000E+00 -0.00000000000E+00 -0.93436114550E+01  0.93436114550E+01  0.00000000000E+00 0.  1.
         25    2    1    2    0    0  0.14393486004E+02 -0.15734690598E+02  0.84832238732E+03  0.85776039597E+03  0.12508905279E+03 0.  0.
         23    2    1    2    0    0 -0.14393486004E+02  0.15734690598E+02  0.46566879557E+03  0.47491800984E+03  0.90801629783E+02 0.  0.
          5    1    3    3  502    0  0.33852277453E+02  0.37693804703E+02  0.18089865846E+03  0.18790581852E+03  0.41800000000E+01 0.  1.
         -5    1    3    3    0  502 -0.19458791450E+02 -0.53428495302E+02  0.66742372887E+03  0.66985457745E+03  0.41800000000E+01 0.  1.
        -11    1    4    4    0    0  0.11129031467E+02 -0.34736014244E+02  0.16621353668E+03  0.17016869807E+03  0.00000000000E+00 0. -1.
         11    1    4    4    0    0 -0.25522517470E+02  0.50470704842E+02  0.29945525890E+03  0.30474931177E+03  0.00000000000E+00 0.  1.
</event>
<event>
 8    1  0.7224195E-009  0.1097749E+03  0.7561462E-02  0.1260987E+00
         -2   -1    0    0    0  501 -0.00000000000E+00  0.00000000000E+00  0.15582749031E+03  0.15582749031E+03  0.00000000000E+00 0.  1.
          2   -1    0    0  501    0  0.00000000000E+00 -0.00000000000E+00 -0.95276229757E+02  0.95276229757E+02  0.00000000000E+00 0. -1.
         25    2    1    2    0    0  0.52418163585E+02  0.51975399175E+01  0.12052127565E+02  0.13626348551E+03  0.12509118837E+03 0.  0.
         23    2    1    2    0    0 -0.52418163585E+02 -0.51975399175E+01  0.48499132992E+02  0.11484023456E+03  0.89785495927E+02 0.  0.
          5    1    3    3  502    0 -0.31426477761E+02  0.11907431550E+02 -0.27116316782E+02  0.43384069269E+02  0.41800000000E+01 0.  1.
         -5    1    3    3    0  502  0.83844641346E+02 -0.67098916329E+01  0.39168444347E+02  0.92879416238E+02  0.41800000000E+01 0.  1.
        -11    1    4    4    0    0 -0.35731891218E+02 -0.45496482246E+02  0.40184540886E+02  0.70437882372E+02  0.00000000000E+00 0.  1.
         11    1    4    4    0    0 -0.16686272368E+02  0.40298942328E+02  0.83145921060E+01  0.44402352192E+02  0.00000000000E+00 0. -1.
</event>
<event>
 8    1  0.7224195E-009  0.1726136E+03  0.7561462E-02  0.1175149E+00
         -1   -1    0    0    0  501 -0.00000000000E+00  0.00000000000E+00  0.62031716372E+02  0.62031716372E+02  0.00000000000E+00 0.  1.
          1   -1    0    0  501    0  0.00000000000E+00 -0.00000000000E+00 -0.64131913100E+03  0.64131913100E+03  0.00000000000E+00 0. -1.
         25    2    1    2    0    0  0.14407349109E+03  0.49421993894E+02 -0.18240288782E+03  0.26854615638E+03  0.12508605162E+03 0.  0.
         23    2    1    2    0    0 -0.14407349109E+03 -0.49421993894E+02 -0.39688452681E+03  0.43480469099E+03  0.91313128150E+02 0.  0.
          5    1    3    3  502    0  0.15927733109E+03  0.50144079626E+02 -0.18828703604E+03  0.25170057064E+03  0.41800000000E+01 0.  1.
         -5    1    3    3    0  502 -0.15203840007E+02 -0.72208573210E+00  0.58841482165E+01  0.16845585742E+02  0.41800000000E+01 0.  1.
        -11    1    4    4    0    0 -0.10248451879E+03 -0.60962934334E+02 -0.19672034678E+03  0.23004010692E+03  0.00000000000E+00 0.  1.
         11    1    4    4    0    0 -0.41588972296E+02  0.11540940440E+02 -0.20016418003E+03  0.20476458407E+03  0.00000000000E+00 0. -1.
</event>
<event>
 8    1  0.7224195E-009  0.3197558E+03  0.7561462E-02  0.1075762E+00
         -1   -1    0    0    0  501 -0.00000000000E+00  0.00000000000E+00  0.18274415763E+03  0.18274415763E+03  0.00000000000E+00 0.  1.
          1   -1    0    0  501    0  0.00000000000E+00 -0.00000000000E+00 -0.61775001585E+03  0.61775001585E+03  0.00000000000E+00 0. -1.
         25    2    1    2    0    0 -0.48632240614E+02  0.30694394715E+03 -0.29899964578E+03  0.44903499563E+03  0.12510778393E+03 0.  0.
         23    2    1    2    0    0  0.48632240614E+02 -0.30694394715E+03 -0.13600621243E+03  0.35145917785E+03  0.91903113967E+02 0.  0.
          5    1    3    3  502    0  0.30419889443E+02  0.11569022527E+03 -0.63491172140E+02  0.13549243239E+03  0.41800000000E+01 0. -1.
         -5    1    3    3    0  502 -0.79052130056E+02  0.19125372188E+03 -0.23550847364E+03  0.31354256323E+03  0.41800000000E+01 0. -1.
        -11    1    4    4    0    0  0.47722263677E+02 -0.19075746029E+03 -0.39833335392E+02  0.20063030109E+03  0.00000000000E+00 0.  1.
         11    1    4    4    0    0  0.90997693670E+00 -0.11618648686E+03 -0.96172877043E+02  0.15082887676E+03  0.00000000000E+00 0. -1.
</event>
<event>
 8    1  0.7224195E-009  0.1207218E+03  0.7561462E-02  0.1241911E+00
         -2   -1    0    0    0  501 -0.00000000000E+00  0.00000000000E+00  0.37719338851E+03  0.37719338851E+03  0.00000000000E+00 0.  1.
          2   -1    0    0  501    0  0.00000000000E+00 -0.00000000000E+00 -0.65460610097E+02  0.65460610097E+02  0.00000000000E+00 0. -1.
         25    2    1    2    0    0  0.80914722926E+02 -0.46749354478E+02  0.69083962348E+02  0.17074320660E+03  0.12509178317E+03 0.  0.
         23    2    1    2    0    0 -0.80914722926E+02  0.46749354478E+02  0.24264881607E+03  0.27191079201E+03  0.79525696110E+02 0.  0.
          5    1    3    3  502    0  0.78109530514E+02  0.64882056491E+01  0.84262524917E+02  0.11515572533E+03  0.41800000000E+01 0.  1.
         -5    1    3    3    0  502  0.28051924113E+01 -0.53237560127E+02 -0.15178562570E+02  0.55587481274E+02  0.41800000000E+01 0.  1.
        -11    1    4    4    0    0 -0.38336065458E+02 -0.89521173100E+01  0.34758319847E+02  0.52516046288E+02  0.00000000000E+00 0. -1.
         11    1    4    4    0    0 -0.42578657467E+02  0.55701471788E+02  0.20789049622E+03  0.21939474572E+03  0.00000000000E+00 0.  1.
</event>
<event>
 8    1  0.7224195E-009  0.1229494E+03  0.7561462E-02  0.1238309E+00
          2   -1    0    0  501    0  0.00000000000E+00  0.00000000000E+00  0.11418388663E+03  0.11418388663E+03  0.00000000000E+00 0. -1.
         -2   -1    0    0    0  501 -0.00000000000E+00 -0.00000000000E+00 -0.15300518207E+03  0.15300518207E+03  0.00000000000E+00 0.  1.
         25    2    1    2    0    0  0.56123518332E+02  0.50301110710E+02 -0.34785244254E+02  0.15012037916E+03  0.12508422751E+03 0.  0.
         23    2    1    2    0    0 -0.56123518332E+02 -0.50301110710E+02 -0.40360511826E+01  0.11706868954E+03  0.89491548840E+02 0.  0.
          5    1    3    3  502    0 -0.12801993332E+02 -0.24052035088E+02 -0.39926708177E+02  0.48518098180E+02  0.41800000000E+01 0. -1.
         -5    1    3    3    0  502  0.68925511664E+02  0.74353145798E+02  0.51414639233E+01  0.10160228098E+03  0.41800000000E+01 0. -1.
        -11    1    4    4    0    0 -0.65875487300E+02 -0.25726423828E+00 -0.50929478772E+01  0.66072567151E+02  0.00000000000E+00 0.  1.
         11    1    4    4    0    0  0.97519689685E+01 -0.50043846471E+02  0.10568966946E+01  0.50996122392E+02  0.00000000000E+00 0. -1.
</event>
<event>
 8    1  0.7224195E-009  0.2748400E+03  0.7561462E-02  0.1098541E+00
          4   -1    0    0  501    0  0.00000000000E+00  0.00000000000E+00  0.51977482700E+03  0.51977482700E+03  0.00000000000E+00 0. -1.
         -4   -1    0    0    0  501 -0.00000000000E+00 -0.00000000000E+00 -0.21766907145E+03  0.21766907145E+03  0.00000000000E+00 0.  1.
         25    2    1    2    0    0  0.26450479239E+03 -0.21432687799E+02  0.34576378006E+03  0.45345534141E+03  0.12508800803E+03 0.  0.
         23    2    1    2    0    0 -0.26450479239E+03  0.21432687799E+02 -0.43658024503E+02  0.28398855704E+03  0.91221335895E+02 0.  0.
          5    1    3    3  502    0  0.21983398724E+03 -0.64935325078E+00  0.33826318872E+03  0.40344375177E+03  0.41800000000E+01 0. -1.
         -5    1    3    3    0  502  0.44670805149E+02 -0.20783334548E+02  0.75005913399E+01  0.50011589637E+02  0.41800000000E+01 0. -1.
        -11    1    4    4    0    0 -0.14010201556E+03 -0.33994767749E+02 -0.28479225040E+02  0.14695334381E+03  0.00000000000E+00 0. -1.
         11    1    4    4    0    0 -0.12440277683E+03  0.55427455548E+02 -0.15178799463E+02  0.13703521323E+03  0.00000000000E+00 0.  1.
</event>
<event>
 8    1  0.7224195E-009  0.1101861E+03  0.7561462E-02  0.1260226E+00
         -2   -1    0    0    0  501 -0.00000000000E+00  0.00000000000E+00  0.19353264181E+02  0.19353264181E+02  0.00000000000E+00 0. -1.
          2   -1    0    0  501    0  0.00000000000E+00 -0.00000000000E+00 -0.75315505511E+03  0.75315505511E+03  0.00000000000E+00 0.  1.
         25    2    1    2    0    0  0.31039498217E+02 -0.40800032199E+02 -0.36323388869E+03  0.38757447595E+03  0.12508806273E+03 0.  0.
         23    2    1    2    0    0 -0.31039498217E+02  0.40800032199E+02 -0.37056790225E+03  0.38493384335E+03  0.90693993745E+02 0.  0.
          5    1    3    3  502    0 -0.35582170234E+02 -0.33874836855E+02 -0.63368112958E+02  0.80290631772E+02  0.41800000000E+01 0.  1.
         -5    1    3    3    0  502  0.66621668450E+02 -0.69251953441E+01 -0.29986577573E+03  0.30728384417E+03  0.41800000000E+01 0.  1.
        -11    1    4    4    0    0  0.22529575133E+02  0.44894028433E+02 -0.16645153200E+03  0.17386537335E+03  0.00000000000E+00 0.  1.
         11    1    4    4    0    0 -0.53569073350E+02 -0.40939962338E+01 -0.20411637024E+03  0.21106846999E+03  0.00000000000E+00 0. -1.
</event>
<event>
 8    1  0.7224195E-009  0.1156124E+03  0.7561462E-02  0.1250516E+00
         -1   -1    0    0    0  501 -0.00000000000E+00  0.00000000000E+00  0.12183226209E+03  0.12183226209E+03  0.00000000000E+00 0.  1.
          1   -1    0    0  501    0  0.00000000000E+00 -0.00000000000E+00 -0.12362167155E+03  0.12362167155E+03  0.00000000000E+00 0. -1.
         25    2    1    2    0    0 -0.37059182118E+02  0.23751792649E+02  0.38680758251E+02  0.13814531854E+03  0.12510154812E+03 0.  0.
         23    2    1    2    0    0  0.37059182118E+02 -0.23751792649E+02 -0.40470167707E+02  0.10730861510E+03  0.89105408178E+02 0.  0.
          5    1    3    3  502    0 -0.85932361740E+01  0.73700577665E+02  0.28585041146E+02  0.79625346677E+02  0.41800000000E+01 0.  1.
         -5    1    3    3    0  502 -0.28465945944E+02 -0.49948785016E+02  0.10095717105E+02  0.58519971864E+02  0.41800000000E+01 0.  1.
        -11    1    4    4    0    0  0.18087844261E+02  0.33980781932E+02 -0.13137590840E+02  0.40675053089E+02  0.00000000000E+00 0.  1.
         11    1    4    4    0    0  0.18971337857E+02 -0.57732574580E+02 -0.27332576867E+02  0.66633562008E+02  0.00000000000E+00 0. -1.
</event>
<event>
 8    1  0.7224195E-009  0.1544762E+03  0.7561462E-02  0.1195078E+00
          1   -1    0    0  501    0  0.00000000000E+00  0.00000000000E+00  0.15259675437E+04  0.15259675437E+04  0.00000000000E+00 0. -1.
         -1   -1    0    0    0  501 -0.00000000000E+00 -0.00000000000E+00 -0.40137574411E+02  0.40137574411E+02  0.00000000000E+00 0.  1.
         25    2    1    2    0    0 -0.10520566725E+02  0.12741034631E+03  0.13433622458E+04  0.13552183506E+04  0.12510226079E+03 0.  0.
         23    2    1    2    0    0  0.10520566725E+02 -0.12741034631E+03  0.14246772349E+03  0.21088676753E+03  0.88499140159E+02 0.  0.
          5    1    3    3  502    0 -0.16113483724E+01 -0.14302283019E+02  0.24448611675E+02  0.28676798217E+02  0.41800000000E+01 0.  1.
         -5    1    3    3    0  502 -0.89092183527E+01  0.14171262933E+03  0.13189136341E+04  0.13265415524E+04  0.41800000000E+01 0.  1.
        -11    1    4    4    0    0  0.43615381780E+02 -0.43013833668E+02  0.35998008774E+02  0.71051727990E+02  0.00000000000E+00 0.  1.
         11    1    4    4    0    0 -0.33094815055E+02 -0.84396512646E+02  0.10646971472E+03  0.13983503954E+03  0.00000000000E+00 0. -1.
</event>
<event>
 8    1  0.7224195E-009  0.1238126E+03  0.7561462E-02  0.1236937E+00
          1   -1    0    0  501    0  0.00000000000E+00  0.00000000000E+00  0.25242510249E+03  0.25242510249E+03  0.00000000000E+00 0. -1.
         -1   -1    0    0    0  501 -0.00000000000E+00 -0.00000000000E+00 -0.71502961832E+02  0.71502961832E+02  0.00000000000E+00 0.  1.
         25    2    1    2    0    0 -0.15848949679E+02  0.60837354664E+02  0.15572593003E+03  0.20940423367E+03  0.12508874796E+03 0.  0.
         23    2    1    2    0    0  0.15848949679E+02 -0.60837354664E+02  0.25196210628E+02  0.11452383065E+03  0.92349801455E+02 0.  0.
          5    1    3    3  502    0 -0.68945049976E+02  0.46539151725E+02  0.78046948141E+02  0.11414075115E+03  0.41800000000E+01 0.  1.
         -5    1    3    3    0  502  0.53096100297E+02  0.14298202939E+02  0.77678981885E+02  0.95263482514E+02  0.41800000000E+01 0.  1.
        -11    1    4    4    0    0 -0.21766635516E+02 -0.67560128762E+02  0.27785433868E+02  0.76224587603E+02  0.00000000000E+00 0. -1.
         11    1    4    4    0    0  0.37615585195E+02  0.67227740977E+01 -0.25892232403E+01  0.38299243049E+02  0.00000000000E+00 0.  1.
</event>
<event>
 8    1  0.7224195E-009  0.8227087E+02  0.7561462E-02  0.1322728E+00
          2   -1    0    0  501    0  0.00000000000E+00  0.00000000000E+00  0.39953982825E+03  0.39953982825E+03  0.00000000000E+00 0. -1.
         -2   -1    0    0    0  501 -0.00000000000E+00 -0.00000000000E+00 -0.44051510693E+02  0.44051510693E+02  0.00000000000E+00 0.  1.
         25    2    1    2    0    0  0.29155177534E+01 -0.65212928712E+02  0.26363051847E+03  0.29901403365E+03  0.12508843167E+03 0.  0.
         23    2    1    2    0    0 -0.29155177534E+01  0.65212928712E+02  0.91857799082E+02  0.14457730528E+03  0.90573261155E+02 0.  0.
          5    1    3    3  502    0 -0.99084821735E+00 -0.36535222443E+02  0.31768083344E+01  0.36923823886E+02  0.41800000000E+01 0.  1.
         -5    1    3    3    0  502  0.39063659707E+01 -0.28677706268E+02  0.26045371014E+03  0.26209020977E+03  0.41800000000E+01 0.  1.
        -11    1    4    4    0    0  0.31077917538E+02  0.82122971222E+01  0.65885711176E+02  0.73308974347E+02  0.00000000000E+00 0. -1.
         11    1    4    4    0    0 -0.33993435292E+02  0.57000631589E+02  0.25972087905E+02  0.71268330938E+02  0.00000000000E+00 0.  1.
</event>
<event>
 8    1  0.7224195E-009  0.1424304E+03  0.7561462E-02  0.1210096E+00
         -2   -1    0    0    0  501 -0.00000000000E+00  0.00000000000E+00  0.16456479057E+02  0.16456479057E+02  0.00000000000E+00 0.  1.
          2   -1    0    0  501    0  0.00000000000E+00 -0.00000000000E+00 -0.16121381035E+04  0.16121381035E+04  0.00000000000E+00 0. -1.
         25    2    1    2    0    0 -0.77564010027E+02  0.65411288559E+02 -0.11778758588E+04  0.11888372512E+04  0.12509060224E+03 0.  0.
         23    2    1    2    0    0  0.77564010027E+02 -0.65411288559E+02 -0.41780576560E+03  0.43975733132E+03  0.92358217591E+02 0.  0.
          5    1    3    3  502    0 -0.59770345222E+02  0.10285205830E+03 -0.83581397101E+03  0.84424730180E+03  0.41800000000E+01 0.  1.
         -5    1    3    3    0  502 -0.17793664805E+02 -0.37440769740E+02 -0.34206188781E+03  0.34458994942E+03  0.41800000000E+01 0.  1.
        -11    1    4    4    0    0 -0.13968453999E+02 -0.97998094958E+01 -0.14249376526E+02  0.22230580394E+02  0.00000000000E+00 0.  1.
         11    1    4    4    0    0  0.91532464026E+02 -0.55611479063E+02 -0.40355638908E+03  0.41752675093E+03  0.00000000000E+00 0. -1.
</event>
<event>
 8    1  0.7224195E-009  0.1051224E+03  0.7561462E-02  0.1269879E+00
          2   -1    0    0  501    0  0.00000000000E+00  0.00000000000E+00  0.10036894661E+03  0.10036894661E+03  0.00000000000E+00 0. -1.
         -2   -1    0    0    0  501 -0.00000000000E+00 -0.00000000000E+00 -0.14581982880E+03  0.14581982880E+03  0.00000000000E+00 0.  1.
         25    2    1    2    0    0  0.47169017035E+02 -0.32632987748E+01 -0.49071573117E+02  0.14243298907E+03  0.12507426513E+03 0.  0.
         23    2    1    2    0    0 -0.47169017035E+02  0.32632987748E+01  0.36206909279E+01  0.10375578634E+03  0.92285364544E+02 0.  0.
          5    1    3    3  502    0  0.29652145163E+02  0.46031394805E+02  0.17524604394E+02  0.57643067056E+02  0.41800000000E+01 0. -1.
         -5    1    3    3    0  502  0.17516871872E+02 -0.49294693579E+02 -0.66596177511E+02  0.84789922009E+02  0.41800000000E+01 0. -1.
        -11    1    4    4    0    0 -0.38848439178E+02  0.45483957328E+02 -0.44157193788E+01  0.59979081173E+02  0.00000000000E+00 0. -1.
         11    1    4    4    0    0 -0.83205778579E+01 -0.42220658553E+02  0.80364103067E+01  0.43776705166E+02  0.00000000000E+00 0.  1.
</event>
<event>
 8    1  0.7224195E-009  0.1680127E+03  0.7561462E-02  0.1179936E+00
          2   -1    0    0  501    0  0.00000000000E+00  0.00000000000E+00  0.36006910578E+03  0.36006910578E+03  0.00000000000E+00 0. -1.
         -2   -1    0    0    0  501 -0.00000000000E+00 -0.00000000000E+00 -0.14618755460E+03  0.14618755460E+03  0.00000000000E+00 0.  1.
         25    2    1    2    0    0  0.85325974049E+02  0.12793650608E+03 -0.34007119016E+02  0.20112777724E+03  0.12509047605E+03 0.  0.
         23    2    1    2    0    0 -0.85325974049E+02 -0.12793650608E+03  0.24788867020E+03  0.30512888314E+03  0.89479445000E+02 0.  0.
          5    1    3    3  502    0  0.65825477093E+02  0.12850357230E+03 -0.69590727101E+02  0.16033247714E+03  0.41800000000E+01 0. -1.
         -5    1    3    3    0  502  0.19500496955E+02 -0.56706622079E+00  0.35583608085E+02  0.40795300096E+02  0.41800000000E+01 0. -1.
        -11    1    4    4    0    0 -0.10687212295E+02 -0.84704697116E+02  0.83156483430E+02  0.11918096726E+03  0.00000000000E+00 0.  1.
         11    1    4    4    0    0 -0.74638761754E+02 -0.43231808959E+02  0.16473218677E+03  0.18594791588E+03  0.00000000000E+00 0. -1.
</event>
<event>
 8    1  0.7224195E-009  0.1265141E+03  0.7561462E-02  0.1232722E+00
         -2   -1    0    0    0  501 -0.00000000000E+00  0.00000000000E+00  0.25376340155E+02  0.25376340155E+02  0.00000000000E+00 0.  1.
          2   -1    0    0  501    0  0.00000000000E+00 -0.00000000000E+00 -0.94187177106E+03  0.94187177106E+03  0.00000000000E+00 0. -1.
         25    2    1    2    0    0  0.69935753977E+02  0.76959146604E+02 -0.60033186475E+03  0.62197971831E+03  0.12508677879E+03 0.  0.
         23    2    1    2    0    0 -0.69935753977E+02 -0.76959146604E+02 -0.31616356615E+03  0.34526839290E+03  0.91853920135E+02 0.  0.
          5    1    3    3  502    0 -0.18106381709E+02  0.13517949907E+02 -0.32784352227E+03  0.32864787162E+03  0.41800000000E+01 0.  1.
         -5    1    3    3    0  502  0.88042135686E+02  0.63441196697E+02 -0.27248834248E+03  0.29333184669E+03  0.41800000000E+01 0.  1.
        -11    1    4    4    0    0 -0.68826849804E+02 -0.31014214595E+02 -0.26909531065E+03  0.27948399413E+03  0.00000000000E+00 0. -1.
         11    1    4    4    0    0 -0.11089041731E+01 -0.45944932009E+02 -0.47068255505E+02  0.65784398774E+02  0.00000000000E+00 0.  1.
</event>
<event>
 8    1  0.7224195E-009  0.1928410E+03  0.7561462E-02  0.1155924E+00
         -1   -1    0    0    0  501 -0.00000000000E+00  0.00000000000E+00  0.26802029981E+02  0.26802029981E+02  0.00000000000E+00 0.  1.
          1   -1    0    0  501    0  0.00000000000E+00 -0.00000000000E+00 -0.16802469237E+04  0.16802469237E+04  0.00000000000E+00 0. -1.
         25    2    1    2    0    0 -0.77041283493E+01  0.16845374470E+03 -0.11312790553E+04  0.11505961942E+04  0.12507311167E+03 0.  0.
         23    2    1    2    0    0  0.77041283493E+01 -0.16845374470E+03 -0.52216583835E+03  0.55645275949E+03  0.92447245004E+02 0.  0.
          5    1    3    3  502    0 -0.66039788875E+02  0.78942415104E+02 -0.54744891231E+03  0.55705560100E+03  0.41800000000E+01 0. -1.
         -5    1    3    3    0  502  0.58335660526E+02  0.89511329599E+02 -0.58383014302E+03  0.59354059315E+03  0.41800000000E+01 0. -1.
        -11    1    4    4    0    0  0.22761875954E+02 -0.37031162706E+02 -0.25106666325E+03  0.25480164717E+03  0.00000000000E+00 0. -1.
         11    1    4    4    0    0 -0.15057747605E+02 -0.13142258200E+03 -0.27109917510E+03  0.30165111232E+03  0.00000000000E+00 0.  1.
</event>
<event>
 8    1  0.7224195E-009  0.2076520E+03  0.7561462E-02  0.1143439E+00
         -1   -1    0    0    0  501 -0.00000000000E+00  0.00000000000E+00  0.30952488218E+02  0.30952488218E+02  0.00000000000E+00 0.  1.
          1   -1    0    0  501    0  0.00000000000E+00 -0.00000000000E+00 -0.14525893299E+04  0.14525893299E+04  0.00000000000E+00 0. -1.
         25    2    1    2    0    0 -0.10486038825E+03 -0.14245532716E+03 -0.84279620807E+03  0.87019468316E+03  0.12507644465E+03 0.  0.
         23    2    1    2    0    0  0.10486038825E+03  0.14245532716E+03 -0.57884063356E+03  0.61334713491E+03  0.99242166312E+02 0.  0.
          5    1    3    3  502    0 -0.48140411654E+01  0.20837780848E+02 -0.49222676099E+02  0.53830589309E+02  0.41800000000E+01 0.  1.
         -5    1    3    3    0  502 -0.10004634709E+03 -0.16329310801E+03 -0.79357353197E+03  0.81636409385E+03  0.41800000000E+01 0.  1.
        -11    1    4    4    0    0  0.54380697861E+02  0.14137316106E+03 -0.45740570334E+03  0.48183358997E+03  0.00000000000E+00 0. -1.
         11    1    4    4    0    0  0.50479690393E+02  0.10821660990E+01 -0.12143493022E+03  0.13151354494E+03  0.00000000000E+00 0.  1.
</event>
<event>
 8    1  0.7224195E-009  0.7897577E+02  0.7561462E-02  0.1331983E+00
         -3   -1    0    0    0  501 -0.00000000000E+00  0.00000000000E+00  0.27514583352E+03  0.27514583352E+03  0.00000000000E+00 0.  1.
          3   -1    0    0  501    0  0.00000000000E+00 -0.00000000000E+00 -0.44024370616E+02  0.44024370616E+02  0.00000000000E+00 0. -1.
         25    2    1    2    0    0 -0.14626144817E+02  0.22733482117E+01  0.14401069670E+03  0.19132575730E+03  0.12508945766E+03 0.  0.
         23    2    1    2    0    0  0.14626144817E+02 -0.22733482117E+01  0.87110766205E+02  0.12784444684E+03  0.92394939114E+02 0.  0.
          5    1    3    3  502    0  0.20689107496E+02 -0.14500215826E+02 -0.13523039623E+02  0.28959289159E+02  0.41800000000E+01 0. -1.
         -5    1    3    3    0  502 -0.35315252314E+02  0.16773564037E+02  0.15753373632E+03  0.16236646814E+03  0.41800000000E+01 0. -1.
        -11    1    4    4    0    0  0.53268673970E+02  0.56842414732E+01  0.43255731396E+02  0.68854342827E+02  0.00000000000E+00 0.  1.
         11    1    4    4    0    0 -0.38642529152E+02 -0.79575896849E+01  0.43855034809E+02  0.58990104009E+02  0.00000000000E+00 0. -1.
</event>
<event>
 8    1  0.7224195E-009  0.1088874E+03  0.7561462E-02  0.1262644E+00
         -1   -1    0    0    0  501 -0.00000000000E+00  0.00000000000E+00  0.41422494982E+02  0.41422494982E+02  0.00000000000E+00 0.  1.
          1   -1    0    0  501    0  0.00000000000E+00 -0.00000000000E+00 -0.38053495834E+03  0.38053495834E+03  0.00000000000E+00 0. -1.
         25    2    1    2    0    0  0.11682911436E+02 -0.61778096011E+02 -0.18480300733E+03  0.23184684497E+03  0.12509110455E+03 0.  0.
         23    2    1    2    0    0 -0.11682911436E+02  0.61778096011E+02 -0.15430945602E+03  0.19011060835E+03  0.91529293795E+02 0.  0.
          5    1    3    3  502    0  0.34470019453E+02  0.59511514669E+01 -0.17235198494E+01  0.35270970579E+02  0.41800000000E+01 0.  1.
         -5    1    3    3    0  502 -0.22787108017E+02 -0.67729247478E+02 -0.18307948748E+03  0.19657587439E+03  0.41800000000E+01 0.  1.
        -11    1    4    4    0    0  0.30206190029E+02 -0.64648645862E+01 -0.46228427809E+02  0.55599243951E+02  0.00000000000E+00 0. -1.
         11    1    4    4    0    0 -0.41889101466E+02  0.68242960597E+02 -0.10808102822E+03  0.13451136440E+03  0.00000000000E+00 0.  1.
</event>
<event>
 8    1  0.7224195E-009  0.2167471E+03  0.7561462E-02  0.1136332E+00
          1   -1    0    0  501    0  0.00000000000E+00  0.00000000000E+00  0.61536618175E+03  0.61536618175E+03  0.00000000000E+00 0. -1.
         -1   -1    0    0    0  501 -0.00000000000E+00 -0.00000000000E+00 -0.78895927525E+02  0.78895927525E+02  0.00000000000E+00 0.  1.
         25    2    1    2    0    0  0.16474286562E+03 -0.99780794752E+02  0.30902125072E+03  0.38501539967E+03  0.12508519423E+03 0.  0.
         23    2    1    2    0    0 -0.16474286562E+03  0.99780794752E+02  0.22744900350E+03  0.30924670960E+03  0.82486722757E+02 0.  0.
          5    1    3    3  502    0 -0.65242733483E+01 -0.50443711182E+02  0.77767437429E+02  0.93018174916E+02  0.41800000000E+01 0. -1.
         -5    1    3    3    0  502  0.17126713896E+03 -0.49337083570E+02  0.23125381329E+03  0.29199722476E+03  0.41800000000E+01 0. -1.
        -11    1    4    4    0    0 -0.88168875691E+02  0.14139334856E+02  0.65744021593E+02  0.11088709486E+03  0.00000000000E+00 0. -1.
         11    1    4    4    0    0 -0.76573989925E+02  0.85641459896E+02  0.16170498191E+03  0.19835961474E+03  0.00000000000E+00 0.  1.
</event>
<event>
 8    1  0.7224195E-009  0.1049474E+03  0.7561462E-02  0.1270223E+00
         -2   -1    0    0    0  501 -0.00000000000E+00  0.00000000000E+00  0.53989289859E+02  0.53989289859E+02  0.00000000000E+00 0.  1.
          2   -1    0    0  501    0  0.00000000000E+00 -0.00000000000E+00 -0.27366314118E+03  0.27366314118E+03  0.00000000000E+00 0. -1.
         25    2    1    2    0    0 -0.34972678863E+02  0.15702985187E+02 -0.70981356711E+02  0.14884720539E+03  0.12508982989E+03 0.  0.
         23    2    1    2    0    0  0.34972678863E+02 -0.15702985187E+02 -0.14869249461E+03  0.17880522565E+03  0.91608835577E+02 0.  0.
          5    1    3    3  502    0 -0.11668335189E+02  0.62334192420E+02 -0.37426653523E+01  0.63664601897E+02  0.41800000000E+01 0. -1.
         -5    1    3    3    0  502 -0.23304343674E+02 -0.46631207234E+02 -0.67238691359E+02  0.85182603493E+02  0.41800000000E+01 0. -1.
        -11    1    4    4    0    0  0.60936156309E+02  0.45621531862E+01 -0.12186005738E+03  0.13632278596E+03  0.00000000000E+00 0. -1.
         11    1    4    4    0    0 -0.25963477446E+02 -0.20265138373E+02 -0.26832437234E+02  0.42482439693E+02  0.00000000000E+00 0.  1.
</event>
<event>
 8    1  0.7224195E-009  0.1343214E+03  0.7561462E-02  0.1221181E+00
         -1   -1    0    0    0  501 -0.00000000000E+00  0.00000000000E+00  0.22296698682E+03  0.22296698682E+03  0.00000000000E+00 0.  1.
          1   -1    0    0  501    0  0.00000000000E+00 -0.00000000000E+00 -0.96487632778E+02  0.96487632778E+02  0.00000000000E+00 0. -1.
         25    2    1    2    0    0  0.21139099234E+02  0.86757526650E+02  0.11171338066E+03  0.19000305661E+03  0.12509017610E+03 0.  0.
         23    2    1    2    0    0 -0.21139099234E+02 -0.86757526650E+02  0.14765973386E+02  0.12945156299E+03  0.92552381081E+02 0.  0.
          5    1    3    3  502    0  0.57276868184E+02  0.89783501327E+02  0.48698259643E+02  0.11717811072E+03  0.41800000000E+01 0.  1.
         -5    1    3    3    0  502 -0.36137768950E+02 -0.30259746774E+01  0.63015121013E+02  0.72824945889E+02  0.41800000000E+01 0.  1.
        -11    1    4    4    0    0  0.33528419696E+02 -0.47982976564E+02 -0.70696572323E+01  0.58961860729E+02  0.00000000000E+00 0.  1.
         11    1    4    4    0    0 -0.54667518930E+02 -0.38774550086E+02  0.21835630618E+02  0.70489702261E+02  0.00000000000E+00 0. -1.
</event>
<event>
 8    1  0.7224195E-009  0.9433564E+02  0.7561462E-02  0.1292679E+00
         -2   -1    0    0    0  501 -0.00000000000E+00  0.00000000000E+00  0.42326308126E+02  0.42326308126E+02  0.00000000000E+00 0.  1.
          2   -1    0    0  501    0  0.00000000000E+00 -0.00000000000E+00 -0.36037361766E+03  0.36037361766E+03  0.00000000000E+00 0. -1.
         25    2    1    2    0    0  0.34610974385E+02 -0.27453931757E+02 -0.24776076524E+03  0.28104153391E+03  0.12508920447E+03 0.  0.
         23    2    1    2    0    0 -0.34610974385E+02  0.27453931757E+02 -0.70286544293E+02  0.12165839187E+03  0.88932154408E+02 0.  0.
          5    1    3    3  502    0  0.78024527947E+02 -0.32876326229E+02 -0.19320968409E+03  0.21098846939E+03  0.41800000000E+01 0.  1.
         -5    1    3    3    0  502 -0.43413553562E+02  0.54223944726E+01 -0.54551081144E+02  0.70053064521E+02  0.41800000000E+01 0.  1.
        -11    1    4    4    0    0 -0.43673390349E+02  0.19256999884E+02 -0.88016501727E+02  0.10012542956E+03  0.00000000000E+00 0. -1.
         11    1    4    4    0    0  0.90624159638E+01  0.81969318724E+01  0.17729957434E+02  0.21532962309E+02  0.00000000000E+00 0.  1.
</event>
<event>
 8    1  0.7224195E-009  0.9193740E+02  0.7561462E-02  0.1298227E+00
         -1   -1    0    0    0  501 -0.00000000000E+00  0.00000000000E+00  0.66089843115E+02  0.66089843115E+02  0.00000000000E+00 0.  1.
          1   -1    0    0  501    0  0.00000000000E+00 -0.00000000000E+00 -0.23086794604E+03  0.23086794604E+03  0.00000000000E+00 0. -1.
         25    2    1    2    0    0  0.30033358205E+02  0.29383957525E+02 -0.14073246138E+03  0.19292232634E+03  0.12509188123E+03 0.  0.
         23    2    1    2    0    0 -0.30033358205E+02 -0.29383957525E+02 -0.24045641541E+02  0.10403546281E+03  0.92085639923E+02 0.  0.
          5    1    3    3  502    0 -0.13745904742E+02  0.63614006913E+02 -0.36522618270E+02  0.74746677638E+02  0.41800000000E+01 0.  1.
         -5    1    3    3    0  502  0.43779262947E+02 -0.34230049388E+02 -0.10420984311E+03  0.11817564871E+03  0.41800000000E+01 0.  1.
        -11    1    4    4    0    0 -0.97205156729E+01 -0.39186736050E+02  0.26767482599E+02  0.48441581641E+02  0.00000000000E+00 0.  1.
         11    1    4    4    0    0 -0.20312842532E+02  0.98027785256E+01 -0.50813124140E+02  0.55593881169E+02  0.00000000000E+00 0. -1.
</event>
<event>
 8    1  0.7224195E-009  0.1525790E+03  0.7561462E-02  0.1197339E+00
         -1   -1    0    0    0  501 -0.00000000000E+00  0.00000000000E+00  0.28832444822E+03  0.28832444822E+03  0.00000000000E+00 0.  1.
          1   -1    0    0  501    0  0.00000000000E+00 -0.00000000000E+00 -0.29389537802E+03  0.29389537802E+03  0.00000000000E+00 0. -1.
         25    2    1    2    0    0 -0.14002404342E+03 -0.52172855927E+02 -0.22681820515E+03  0.29903655272E+03  0.12509045545E+03 0.  0.
         23    2    1    2    0    0  0.14002404342E+03  0.52172855927E+02  0.22124727535E+03  0.28318327352E+03  0.94412233965E+02 0.  0.
          5    1    3    3  502    0 -0.63684872440E+02 -0.13105279922E+01 -0.11375840113E+02  0.64841056435E+02  0.41800000000E+01 0.  1.
         -5    1    3    3    0  502 -0.76339170983E+02 -0.50862327935E+02 -0.21544236504E+03  0.23419549629E+03  0.41800000000E+01 0.  1.
        -11    1    4    4    0    0  0.72298675144E+02  0.29342973836E+02  0.18958582963E+03  0.20501437837E+03  0.00000000000E+00 0.  1.
         11    1    4    4    0    0  0.67725368278E+02  0.22829882091E+02  0.31661445717E+02  0.78168895154E+02  0.00000000000E+00 0. -1.
</event>
<event>
 8    1  0.7224195E-009  0.7745957E+02  0.7561462E-02  0.1336419E+00
          1   -1    0    0  501    0  0.00000000000E+00  0.00000000000E+00  0.13814594867E+03  0.13814594867E+03  0.00000000000E+00 0. -1.
         -1   -1    0    0    0  501 -0.00000000000E+00 -0.00000000000E+00 -0.92251912792E+02  0.92251912792E+02  0.00000000000E+00 0.  1.
         25    2    1    2    0    0 -0.11519705208E+02  0.46377857837E+01  0.54812372332E+02  0.13713654434E+03  0.12509125856E+03 0.  0.
         23    2    1    2    0    0  0.11519705208E+02 -0.46377857837E+01 -0.89183364496E+01  0.93261317126E+02  0.91999586314E+02 0.  0.
          5    1    3    3  502    0 -0.33356409692E+02  0.58478879368E+02  0.29007619226E+02  0.73425770496E+02  0.41800000000E+01 0.  1.
         -5    1    3    3    0  502  0.21836704484E+02 -0.53841093585E+02  0.25804753105E+02  0.63710773845E+02  0.41800000000E+01 0.  1.
        -11    1    4    4    0    0  0.17953795201E+02  0.40493934921E+01 -0.48686967177E+02  0.52049564097E+02  0.00000000000E+00 0.  1.
         11    1    4    4    0    0 -0.64340899926E+01 -0.86871792759E+01  0.39768630727E+02  0.41211753029E+02  0.00000000000E+00 0. -1.
</event>
<event>
 8    1  0.7224195E-009  0.1407468E+03  0.7561462E-02  0.1212328E+00
         -2   -1    0    0    0  501 -0.00000000000E+00  0.00000000000E+00  0.49388020684E+02  0.49388020684E+02  0.00000000000E+00 0.  1.
          2   -1    0    0  501    0  0.00000000000E+00 -0.00000000000E+00 -0.53250521000E+03  0.53250521000E+03  0.00000000000E+00 0. -1.
         25    2    1    2    0    0 -0.11193980989E+03  0.27422670220E+02 -0.21311132668E+03  0.27266565847E+03  0.12509036681E+03 0.  0.
         23    2    1    2    0    0  0.11193980989E+03 -0.27422670220E+02 -0.27000586264E+03  0.30922757222E+03  0.97139084219E+02 0.  0.
          5    1    3    3  502    0  0.13492564576E+02  0.36224406695E+02 -0.24539252929E+02  0.45977214722E+02  0.41800000000E+01 0.  1.
         -5    1    3    3    0  502 -0.12543237446E+03 -0.88017364753E+01 -0.18857207375E+03  0.22668844375E+03  0.41800000000E+01 0.  1.
        -11    1    4    4    0    0  0.82887949592E+02 -0.11525383793E+02 -0.26216141428E+03  0.27519421105E+03  0.00000000000E+00 0. -1.
         11    1    4    4    0    0  0.29051860296E+02 -0.15897286426E+02 -0.78444483575E+01  0.34033361169E+02  0.00000000000E+00 0.  1.
</event>
<event>
 8    1  0.7224195E-009  0.8238704E+02  0.7561462E-02  0.1322411E+00
         -2   -1    0    0    0  501 -0.00000000000E+00  0.00000000000E+00  0.95624954725E+02  0.95624954725E+02  0.00000000000E+00 0.  1.
          2   -1    0    0  501    0  0.00000000000E+00 -0.00000000000E+00 -0.16656249375E+03  0.16656249375E+03  0.00000000000E+00 0. -1.
         25    2    1    2    0    0 -0.88407586470E+01  0.65219134170E+02 -0.42083737635E+02  0.14747405589E+03  0.12508341902E+03 0.  0.
         23    2    1    2    0    0  0.88407586470E+01 -0.65219134170E+02 -0.28853801392E+02  0.11471339258E+03  0.89414350683E+02 0.  0.
          5    1    3    3  502    0  0.19693509438E+02 -0.28094613864E+01  0.35139670614E+02  0.40595519927E+02  0.41800000000E+01 0. -1.
         -5    1    3    3    0  502 -0.28534268085E+02  0.68028595556E+02 -0.77223408249E+02  0.10687853597E+03  0.41800000000E+01 0. -1.
        -11    1    4    4    0    0  0.11441009647E+02 -0.97617158179E+01 -0.52320562645E+02  0.54439223662E+02  0.00000000000E+00 0. -1.
         11    1    4    4    0    0 -0.26002510003E+01 -0.55457418352E+02  0.23466761253E+02  0.60274168922E+02  0.00000000000E+00 0.  1.
</event>
<event>
 8    1  0.7224195E-009  0.1056294E+03  0.7561462E-02  0.1268884E+00
         -2   -1    0    0    0  501 -0.00000000000E+00  0.00000000000E+00  0.19672796499E+02  0.19672796499E+02  0.00000000000E+00 0.  1.
          2   -1    0    0  501    0  0.00000000000E+00 -0.00000000000E+00 -0.67852745645E+03  0.67852745645E+03  0.00000000000E+00 0. -1.
         25    2    1    2    0    0  0.10533232732E+02 -0.87974759778E+01 -0.49419067024E+03  0.50996148180E+03  0.12509176549E+03 0.  0.
         23    2    1    2    0    0 -0.10533232732E+02  0.87974759778E+01 -0.16466398971E+03  0.18823877115E+03  0.90173504314E+02 0.  0.
          5    1    3    3  502    0  0.67225954655E+02  0.38804864453E+01 -0.25355795255E+03  0.26238043916E+03  0.41800000000E+01 0.  1.
         -5    1    3    3    0  502 -0.56692721923E+02 -0.12677962423E+02 -0.24063271769E+03  0.24758104264E+03  0.41800000000E+01 0.  1.
        -11    1    4    4    0    0  0.10425323339E+02 -0.35255000211E+02 -0.39791744731E+02  0.54175505123E+02  0.00000000000E+00 0.  1.
         11    1    4    4    0    0 -0.20958556070E+02  0.44052476189E+02 -0.12487224498E+03  0.13406326602E+03  0.00000000000E+00 0. -1.
</event>
<event>
 8    1  0.7224195E-009  0.6690818E+02  0.7561462E-02  0.1370934E+00
          1   -1    0    0  501    0  0.00000000000E+00  0.00000000000E+00  0.79040021545E+02  0.79040021545E+02  0.00000000000E+00 0.  1.
         -1   -1    0    0    0  501 -0.00000000000E+00 -0.00000000000E+00 -0.23733317293E+03  0.23733317293E+03  0.00000000000E+00 0. -1.
         25    2    1    2    0    0 -0.38874445385E+01 -0.19404306654E+02  0.68389747116E+01  0.12682970876E+03  0.12508942444E+03 0.  0.
         23    2    1    2    0    0  0.38874445385E+01  0.19404306654E+02 -0.16513212610E+03  0.18954348572E+03  0.90920154905E+02 0.  0.
          5    1    3    3  502    0 -0.30631379239E+02 -0.19839696905E+02  0.58169731058E+02  0.68797419855E+02  0.41800000000E+01 0. -1.
         -5    1    3    3    0  502  0.26743934700E+02  0.43539025145E+00 -0.51330756346E+02  0.58032288900E+02  0.41800000000E+01 0. -1.
        -11    1    4    4    0    0 -0.31497769702E+02  0.12876869447E+02 -0.18849044458E+02  0.38899996657E+02  0.00000000000E+00 0.  1.
         11    1    4    4    0    0  0.35385214240E+02  0.65274372062E+01 -0.14628308164E+03  0.15064348906E+03  0.00000000000E+00 0. -1.
</event>
<event>
 8    1  0.7224195E-009  0.1045324E+03  0.7561462E-02  0.1271044E+00
         -2   -1    0    0    0  501 -0.00000000000E+00  0.00000000000E+00  0.11740962611E+03  0.11740962611E+03  0.00000000000E+00 0.  1.
          2   -1    0    0  501    0  0.00000000000E+00 -0.00000000000E+00 -0.11549703063E+03  0.11549703063E+03  0.00000000000E+00 0. -1.
         25    2    1    2    0    0 -0.46362220129E+02  0.78605885464E+01 -0.96499417232E+01  0.13398492187E+03  0.12509034178E+03 0.  0.
         23    2    1    2    0    0  0.46362220129E+02 -0.78605885464E+01  0.11562537201E+02  0.98921734866E+02  0.86258756395E+02 0.  0.
          5    1    3    3  502    0 -0.22442215230E+02 -0.57750012493E+02 -0.14794030872E+02  0.63836139583E+02  0.41800000000E+01 0. -1.
         -5    1    3    3    0  502 -0.23920004899E+02  0.65610601039E+02  0.51440891492E+01  0.70148782287E+02  0.41800000000E+01 0. -1.
        -11    1    4    4    0    0  0.85478024105E+01 -0.31347404061E+02 -0.25256222534E+02  0.41153389218E+02  0.00000000000E+00 0. -1.
         11    1    4    4    0    0  0.37814417718E+02  0.23486815515E+02  0.36818759736E+02  0.57768345648E+02  0.00000000000E+00 0.  1.
</event>
<event>
 8    1  0.7224195E-009  0.8116699E+02  0.7561462E-02  0.1325772E+00
         -1   -1    0    0    0  501 -0.00000000000E+00  0.00000000000E+00  0.13352801630E+03  0.13352801630E+03  0.00000000000E+00 0.  1.
          1   -1    0    0  501    0  0.00000000000E+00 -0.00000000000E+00 -0.97192503624E+02  0.97192503624E+02  0.00000000000E+00 0. -1.
         25    2    1    2    0    0 -0.68489330377E+01  0.69881304979E+01 -0.25811358542E+02  0.12809855526E+03  0.12508905539E+03 0.  0.
         23    2    1    2    0    0  0.68489330377E+01 -0.69881304979E+01  0.62146871221E+02  0.10262196466E+03  0.81075842131E+02 0.  0.
          5    1    3    3  502    0 -0.34511440063E+02  0.44001930168E+02  0.23129639908E+02  0.60660217573E+02  0.41800000000E+01 0.  1.
         -5    1    3    3    0  502  0.27662507025E+02 -0.37013799670E+02 -0.48940998450E+02  0.67438337689E+02  0.41800000000E+01 0.  1.
        -11    1    4    4    0    0 -0.23628537036E+02  0.91915080491E+01 -0.61629641828E+01  0.26091640619E+02  0.00000000000E+00 0. -1.
         11    1    4    4    0    0  0.30477470073E+02 -0.16179638547E+02  0.68309835403E+02  0.76530324045E+02  0.00000000000E+00 0.  1.
</event>
<event>
 8    1  0.7224195E-009  0.1017460E+03  0.7561462E-02  0.1276667E+00
         -2   -1    0    0    0  501 -0.00000000000E+00  0.00000000000E+00  0.81035416386E+02  0.81035416386E+02  0.00000000000E+00 0.  1.
          2   -1    0    0  501    0  0.00000000000E+00 -0.00000000000E+00 -0.19257985344E+03  0.19257985344E+03  0.00000000000E+00 0. -1.
         25    2    1    2    0    0 -0.16657805027E+02 -0.59292468500E+02 -0.70135958526E+02  0.15607603679E+03  0.12509035651E+03 0.  0.
         23    2    1    2    0    0  0.16657805027E+02  0.59292468500E+02 -0.41408478533E+02  0.11753923304E+03  0.91146749370E+02 0.  0.
          5    1    3    3  502    0  0.28542542372E+02  0.16478498121E+02  0.12134822335E+02  0.35368685846E+02  0.41800000000E+01 0. -1.
         -5    1    3    3    0  502 -0.45200347399E+02 -0.75770966622E+02 -0.82270780861E+02  0.12070735094E+03  0.41800000000E+01 0. -1.
        -11    1    4    4    0    0  0.34440712448E+02  0.52742522591E+02 -0.62808637399E+02  0.88954265188E+02  0.00000000000E+00 0. -1.
         11    1    4    4    0    0 -0.17782907421E+02  0.65499459096E+01  0.21400158866E+02  0.28584967855E+02  0.00000000000E+00 0.  1.
</event>
<event>
 8    1  0.7224195E-009  0.1207964E+03  0.7561462E-02  0.1241789E+00
          2   -1    0    0  501    0  0.00000000000E+00  0.00000000000E+00  0.27456616453E+03  0.27456616453E+03  0.00000000000E+00 0. -1.
         -2   -1    0    0    0  501 -0.00000000000E+00 -0.00000000000E+00 -0.62772710591E+02  0.62772710591E+02  0.00000000000E+00 0.  1.
         25    2    1    2    0    0  0.60223584869E+02  0.44934392670E+02  0.14494800952E+03  0.20567973078E+03  0.12509295091E+03 0.  0.
         23    2    1    2    0    0 -0.60223584869E+02 -0.44934392670E+02  0.66845444420E+02  0.13165914435E+03  0.84969624173E+02 0.  0.
          5    1    3    3  502    0  0.95504283224E+02  0.53239567967E+02  0.11012878865E+03  0.15524606984E+03  0.41800000000E+01 0.  1.
         -5    1    3    3    0  502 -0.35280698355E+02 -0.83051752970E+01  0.34819220877E+02  0.50433660938E+02  0.41800000000E+01 0.  1.
        -11    1    4    4    0    0 -0.34653345132E+02  0.91680614721E+01 -0.70915049328E+01  0.36540349235E+02  0.00000000000E+00 0.  1.
         11    1    4    4    0    0 -0.25570239737E+02 -0.54102454142E+02  0.73936949353E+02  0.95118795115E+02  0.00000000000E+00 0. -1.
</event>
<event>
 8    1  0.7224195E-009  0.1434961E+03  0.7561462E-02  0.1208701E+00
         -2   -1    0    0    0  501 -0.00000000000E+00  0.00000000000E+00  0.87338393251E+02  0.87338393251E+02  0.00000000000E+00 0.  1.
          2   -1    0    0  501    0  0.00000000000E+00 -0.00000000000E+00 -0.40562658337E+03  0.40562658337E+03  0.00000000000E+00 0. -1.
         25    2    1    2    0    0  0.11640674146E+03 -0.62898721450E+02 -0.26629315467E+03  0.32258814999E+03  0.12507714289E+03 0.  0.
         23    2    1    2    0    0 -0.11640674146E+03  0.62898721450E+02 -0.51995035452E+02  0.17037682663E+03  0.93904210371E+02 0.  0.
          5    1    3    3  502    0  0.92569856673E+02 -0.65043358121E+02 -0.27451111161E+03  0.29694046474E+03  0.41800000000E+01 0. -1.
         -5    1    3    3    0  502  0.23836884782E+02  0.21446366701E+01  0.82179569424E+01  0.25647685253E+02  0.41800000000E+01 0. -1.
        -11    1    4    4    0    0 -0.10587289761E+03  0.77693456354E+02 -0.66439154041E+02  0.14717168477E+03  0.00000000000E+00 0. -1.
         11    1    4    4    0    0 -0.10533843843E+02 -0.14794734904E+02  0.14444118588E+02  0.23205141860E+02  0.00000000000E+00 0.  1.
</event>
<event>
 8    1  0.7224195E-009  0.1041362E+03  0.7561462E-02  0.1271831E+00
         -2   -1    0    0    0  501 -0.00000000000E+00  0.00000000000E+00  0.31621730267E+03  0.31621730267E+03  0.00000000000E+00 0.  1.
          2   -1    0    0  501    0  0.00000000000E+00 -0.00000000000E+00 -0.37120576873E+02  0.37120576873E+02  0.00000000000E+00 0. -1.
         25    2    1    2    0    0  0.14928916260E+02  0.41475319946E+01  0.21046262648E+03  0.24531979219E+03  0.12508880338E+03 0.  0.
         23    2    1    2    0    0 -0.14928916260E+02 -0.41475319946E+01  0.68634099315E+02  0.10801808735E+03  0.81958483664E+02 0.  0.
          5    1    3    3  502    0 -0.49299318942E+02  0.27246376437E+02  0.11205079068E+03  0.12548163200E+03  0.41800000000E+01 0.  1.
         -5    1    3    3    0  502  0.64228235202E+02 -0.23098844443E+02  0.98411835796E+02  0.11983816018E+03  0.41800000000E+01 0.  1.
        -11    1    4    4    0    0  0.15790841748E+02 -0.35904029291E+02  0.31769123216E+02  0.50475015526E+02  0.00000000000E+00 0.  1.
         11    1    4    4    0    0 -0.30719758008E+02  0.31756497296E+02  0.36864976099E+02  0.57543071828E+02  0.00000000000E+00 0. -1.
</event>
<event>
 8    1  0.7224195E-009  0.1444120E+03  0.7561462E-02  0.1207513E+00
          1   -1    0    0  501    0  0.00000000000E+00  0.00000000000E+00  0.15016029744E+03  0.15016029744E+03  0.00000000000E+00 0. -1.
         -1   -1    0    0    0  501 -0.00000000000E+00 -0.00000000000E+00 -0.17341627985E+03  0.17341627985E+03  0.00000000000E+00 0.  1.
         25    2    1    2    0    0  0.61796372267E+02 -0.10175647591E+03 -0.24010975531E+02  0.17434250277E+03  0.12508241008E+03 0.  0.
         23    2    1    2    0    0 -0.61796372267E+02  0.10175647591E+03  0.75499311878E+00  0.14923407452E+03  0.89983703904E+02 0.  0.
          5    1    3    3  502    0 -0.12812165550E+02  0.18831987788E+02 -0.22764206407E+02  0.32472709210E+02  0.41800000000E+01 0.  1.
         -5    1    3    3    0  502  0.74608537817E+02 -0.12058846370E+03 -0.12467691243E+01  0.14186979356E+03  0.41800000000E+01 0.  1.
        -11    1    4    4    0    0 -0.46929012164E+02  0.44592960104E+02 -0.41244164654E+02  0.76759008537E+02  0.00000000000E+00 0.  1.
         11    1    4    4    0    0 -0.14867360103E+02  0.57163515805E+02  0.41999157773E+02  0.72475065983E+02  0.00000000000E+00 0. -1.
</event>
<event>
 8    1  0.7224195E-009  0.1106955E+03  0.7561462E-02  0.1259287E+00
         -2   -1    0    0    0  501 -0.00000000000E+00  0.00000000000E+00  0.18324299601E+03  0.18324299601E+03  0.00000000000E+00 0.  1.
          2   -1    0    0  501    0  0.00000000000E+00 -0.00000000000E+00 -0.88752883879E+02  0.88752883879E+02  0.00000000000E+00 0. -1.
         25    2    1    2    0    0 -0.53597558288E+02 -0.22962138960E+02  0.91219871438E+02  0.16543131660E+03  0.12508596038E+03 0.  0.
         23    2    1    2    0    0  0.53597558288E+02  0.22962138960E+02  0.32702406942E+01  0.10656456330E+03  0.89136712953E+02 0.  0.
          5    1    3    3  502    0  0.65641728379E+00  0.48088121083E+02  0.27344476866E+02  0.55480546933E+02  0.41800000000E+01 0. -1.
         -5    1    3    3    0  502 -0.54253975572E+02 -0.71050260043E+02  0.63875394572E+02  0.10995076966E+03  0.41800000000E+01 0. -1.
        -11    1    4    4    0    0  0.17814657445E+02  0.40151404665E+02  0.34662063444E+02  0.55954945793E+02  0.00000000000E+00 0.  1.
         11    1    4    4    0    0  0.35782900843E+02 -0.17189265705E+02 -0.31391822750E+02  0.50609617503E+02  0.00000000000E+00 0. -1.
</event>
<event>
 8    1  0.7224195E-009  0.1503005E+03  0.7561462E-02  0.1200104E+00
         -1   -1    0    0    0  501 -0.00000000000E+00  0.00000000000E+00  0.32669930769E+02  0.32669930769E+02  0.00000000000E+00 0.  1.
          1   -1    0    0  501    0  0.00000000000E+00 -0.00000000000E+00 -0.89042156024E+03  0.89042156024E+03  0.00000000000E+00 0. -1.
         25    2    1    2    0    0  0.78542857330E+02  0.10499950748E+03 -0.47117627997E+03  0.50482527501E+03  0.12509034524E+03 0.  0.
         23    2    1    2    0    0 -0.78542857330E+02 -0.10499950748E+03 -0.38657534950E+03  0.41826621599E+03  0.91171539401E+02 0.  0.
          5    1    3    3  502    0  0.35860746431E+02 -0.17180466454E+02 -0.20452336445E+03  0.20839491493E+03  0.41800000000E+01 0.  1.
         -5    1    3    3    0  502  0.42682110899E+02  0.12217997393E+03 -0.26665291552E+03  0.29643036008E+03  0.41800000000E+01 0.  1.
        -11    1    4    4    0    0 -0.58753957970E+02 -0.79331578243E+02 -0.36778304564E+03  0.38080164855E+03  0.00000000000E+00 0. -1.
         11    1    4    4    0    0 -0.19788899359E+02 -0.25667929238E+02 -0.18792303858E+02  0.37464567440E+02  0.00000000000E+00 0.  1.
</event>
<event>
 8    1  0.7224195E-009  0.7760338E+02  0.7561462E-02  0.1335994E+00
          1   -1    0    0  501    0  0.00000000000E+00  0.00000000000E+00  0.22957416656E+03  0.22957416656E+03  0.00000000000E+00 0. -1.
         -1   -1    0    0    0  501 -0.00000000000E+00 -0.00000000000E+00 -0.61517148331E+02  0.61517148331E+02  0.00000000000E+00 0.  1.
         25    2    1    2    0    0 -0.69430830920E+01  0.32176870667E+02  0.14334552078E+03  0.19307713518E+03  0.12508910581E+03 0.  0.
         23    2    1    2    0    0  0.69430830920E+01 -0.32176870667E+02  0.24711497448E+02  0.98014179713E+02  0.88952593611E+02 0.  0.
          5    1    3    3  502    0 -0.48690098955E+02  0.33940459579E+02  0.13858218092E+03  0.15081503175E+03  0.41800000000E+01 0. -1.
         -5    1    3    3    0  502  0.41747015863E+02 -0.17635889125E+01  0.47633398572E+01  0.42262103425E+02  0.41800000000E+01 0. -1.
        -11    1    4    4    0    0  0.14724309969E+02 -0.40034446022E+02 -0.23396611089E+02  0.48651449956E+02  0.00000000000E+00 0.  1.
         11    1    4    4    0    0 -0.77812268772E+01  0.78575753553E+01  0.48108108536E+02  0.49362729758E+02  0.00000000000E+00 0. -1.
</event>
<event>
 8    1  0.7224195E-009  0.1118139E+03  0.7561462E-02  0.1257247E+00
          1   -1    0    0  501    0  0.00000000000E+00  0.00000000000E+00  0.40914388941E+03  0.40914388941E+03  0.00000000000E+00 0. -1.
         -1   -1    0    0    0  501 -0.00000000000E+00 -0.00000000000E+00 -0.40214046856E+02  0.40214046856E+02  0.00000000000E+00 0.  1.
         25    2    1    2    0    0 -0.20583937362E+02 -0.58162878891E+02  0.25264115272E+03  0.28858817488E+03  0.12509581798E+03 0.  0.
         23    2    1    2    0    0  0.20583937362E+02  0.58162878891E+02  0.11628868983E+03  0.16076976138E+03  0.92288882504E+02 0.  0.
          5    1    3    3  502    0 -0.25762716753E+02 -0.88887761433E+02  0.11639238775E+03  0.14875957796E+03  0.41800000000E+01 0. -1.
         -5    1    3    3    0  502  0.51787793910E+01  0.30724882542E+02  0.13624876496E+03  0.13982859692E+03  0.41800000000E+01 0. -1.
        -11    1    4    4    0    0 -0.25256972822E+02 -0.29931163410E+00  0.31984940826E+01  0.25460452234E+02  0.00000000000E+00 0.  1.
         11    1    4    4    0    0  0.45840910183E+02  0.58462190526E+02  0.11309019575E+03  0.13530930915E+03  0.00000000000E+00 0. -1.
</event>
<event>
 8    1  0.7224195E-009  0.1255820E+03  0.7561462E-02  0.1234162E+00
          2   -1    0    0  501    0  0.00000000000E+00  0.00000000000E+00  0.11419286651E+04  0.11419286651E+04  0.00000000000E+00 0.  1.
         -2   -1    0    0    0  501 -0.00000000000E+00 -0.00000000000E+00 -0.16576190393E+02  0.16576190393E+02  0.00000000000E+00 0. -1.
         25    2    1    2    0    0 -0.52125170641E+02  0.37436372072E+02  0.84730065841E+03  0.85888543715E+03  0.12508906042E+03 0.  0.
         23    2    1    2    0    0  0.52125170641E+02 -0.37436372072E+02  0.27805181634E+03  0.29961941839E+03  0.91326162386E+02 0.  0.
          5    1    3    3  502    0  0.23844210269E+02 -0.29600391508E+02  0.19011095380E+03  0.19391847951E+03  0.41800000000E+01 0.  1.
         -5    1    3    3    0  502 -0.75969380909E+02  0.67036763581E+02  0.65718970461E+03  0.66496695764E+03  0.41800000000E+01 0.  1.
        -11    1    4    4    0    0 -0.65703912850E+01  0.24987261196E+02  0.69857210374E+02  0.74481964964E+02  0.00000000000E+00 0. -1.
         11    1    4    4    0    0  0.58695561926E+02 -0.62423633268E+02  0.20819460597E+03  0.22513745342E+03  0.00000000000E+00 0.  1.
</event>
<event>
 8    1  0.7224195E-009  0.1740764E+03  0.7561462E-02  0.1173662E+00
          1   -1    0    0  501    0  0.00000000000E+00  0.00000000000E+00  0.15019706297E+03  0.15019706297E+03  0.00000000000E+00 0. -1.
         -1   -1    0    0    0  501 -0.00000000000E+00 -0.00000000000E+00 -0.35537185343E+03  0.35537185343E+03  0.00000000000E+00 0.  1.
         25    2    1    2    0    0  0.72159680095E+02 -0.13713787201E+03 -0.25034617209E+03  0.31989378584E+03  0.12508002625E+03 0.  0.
         23    2    1    2    0    0 -0.72159680095E+02  0.13713787201E+03  0.45171381626E+02  0.18567513056E+03  0.91765925167E+02 0.  0.
          5    1    3    3  502    0  0.66686432755E+02 -0.15024407059E+03 -0.16381798766E+03  0.23210809236E+03  0.41800000000E+01 0. -1.
         -5    1    3    3    0  502  0.54732473398E+01  0.13106198577E+02 -0.86528184433E+02  0.87785693475E+02  0.41800000000E+01 0. -1.
        -11    1    4    4    0    0  0.68991541607E-01  0.70940972062E+02 -0.12431056913E+02  0.72021923419E+02  0.00000000000E+00 0.  1.
         11    1    4    4    0    0 -0.72228671637E+02  0.66196899947E+02  0.57602438539E+02  0.11365320715E+03  0.00000000000E+00 0. -1.
</event>
<event>
 8    1  0.7224195E-009  0.8466447E+02  0.7561462E-02  0.1316312E+00
         -2   -1    0    0    0  501 -0.00000000000E+00  0.00000000000E+00  0.20825163194E+02  0.20825163194E+02  0.00000000000E+00 0.  1.
          2   -1    0    0  501    0  0.00000000000E+00 -0.00000000000E+00 -0.70318194698E+03  0.70318194698E+03  0.00000000000E+00 0. -1.
         25    2    1    2    0    0 -0.23437419663E+02 -0.20959984657E+02 -0.25670373484E+03  0.28728124444E+03  0.12508026355E+03 0.  0.
         23    2    1    2    0    0  0.23437419663E+02  0.20959984657E+02 -0.42565304895E+03  0.43672586573E+03  0.92522052101E+02 0.  0.
          5    1    3    3  502    0 -0.45372521525E+02 -0.33553171652E+01 -0.25471147323E+03  0.25877660416E+03  0.41800000000E+01 0.  1.
         -5    1    3    3    0  502  0.21935101862E+02 -0.17604667492E+02 -0.19922616027E+01  0.28504640280E+02  0.41800000000E+01 0.  1.
        -11    1    4    4    0    0  0.31831778252E+02 -0.29891367519E+02 -0.14707884645E+03  0.15342406275E+03  0.00000000000E+00 0. -1.
         11    1    4    4    0    0 -0.83943585891E+01  0.50851352176E+02 -0.27857420250E+03  0.28330180298E+03  0.00000000000E+00 0.  1.
</event>
<event>
 8    1  0.7224195E-009  0.1008771E+03  0.7561462E-02  0.1278462E+00
          1   -1    0    0  501    0  0.00000000000E+00  0.00000000000E+00  0.26854757965E+02  0.26854757965E+02  0.00000000000E+00 0. -1.
         -1   -1    0    0    0  501 -0.00000000000E+00 -0.00000000000E+00 -0.47086016730E+03  0.47086016730E+03  0.00000000000E+00 0.  1.
         25    2    1    2    0    0  0.28847884846E+02  0.11511067908E+01 -0.27068109261E+03  0.29958254605E+03  0.12509165638E+03 0.  0.
         23    2    1    2    0    0 -0.28847884846E+02 -0.11511067908E+01 -0.17332431672E+03  0.19813237921E+03  0.91551053609E+02 0.  0.
          5    1    3    3  502    0  0.46518773025E+02  0.53896766163E+02 -0.13062843303E+03  0.14882915562E+03  0.41800000000E+01 0. -1.
         -5    1    3    3    0  502 -0.17670888179E+02 -0.52745659372E+02 -0.14005265958E+03  0.15075339043E+03  0.41800000000E+01 0. -1.
        -11    1    4    4    0    0 -0.22750691365E+02  0.32932700286E+02 -0.15263740847E+03  0.15779840040E+03  0.00000000000E+00 0.  1.
         11    1    4    4    0    0 -0.60971934805E+01 -0.34083807077E+02 -0.20686908253E+02  0.40333978805E+02  0.00000000000E+00 0. -1.
</event>
<event>
 8    1  0.7224195E-009  0.1570397E+03  0.7561462E-02  0.1192080E+00
          2   -1    0    0  501    0  0.00000000000E+00  0.00000000000E+00  0.36678753277E+03  0.36678753277E+03  0.00000000000E+00 0. -1.
         -2   -1    0    0    0  501 -0.00000000000E+00 -0.00000000000E+00 -0.93862546104E+02  0.93862546104E+02  0.00000000000E+00 0.  1.
         25    2    1    2    0    0  0.14606062780E+03 -0.12896225208E+02  0.10555378159E+03  0.21974751303E+03  0.12508936428E+03 0.  0.
         23    2    1    2    0    0 -0.14606062780E+03  0.12896225208E+02  0.16737120507E+03  0.24090256585E+03  0.92308755400E+02 0.  0.
          5    1    3    3  502    0 -0.90532612027E+01 -0.55119134410E+01  0.55320736204E+02  0.56481846485E+02  0.41800000000E+01 0. -1.
         -5    1    3    3    0  502  0.15511388901E+03 -0.73843117666E+01  0.50233045390E+02  0.16326566655E+03  0.41800000000E+01 0. -1.
        -11    1    4    4    0    0 -0.90781499973E+02  0.15041598399E+02  0.36816885135E+02  0.99111116686E+02  0.00000000000E+00 0.  1.
         11    1    4    4    0    0 -0.55279127832E+02 -0.21453731913E+01  0.13055431994E+03  0.14179144916E+03  0.00000000000E+00 0. -1.
</event>
<event>
 8    1  0.7224195E-009  0.1143356E+03  0.7561462E-02  0.1252745E+00
         -1   -1    0    0    0  501 -0.00000000000E+00  0.00000000000E+00  0.38142290290E+03  0.38142290290E+03  0.00000000000E+00 0.  1.
          1   -1    0    0  501    0  0.00000000000E+00 -0.00000000000E+00 -0.51415986112E+02  0.51415986112E+02  0.00000000000E+00 0. -1.
         25    2    1    2    0    0 -0.58956511289E+02 -0.37778122335E+02  0.95768811027E+02  0.17240147894E+03  0.12509015958E+03 0.  0.
         23    2    1    2    0    0  0.58956511289E+02  0.37778122335E+02  0.23423810576E+03  0.26043741008E+03  0.89761337031E+02 0.  0.
          5    1    3    3  502    0 -0.20010465879E+02  0.30216562237E+02  0.85884060178E+02  0.93311326059E+02  0.41800000000E+01 0.  1.
         -5    1    3    3    0  502 -0.38946045410E+02 -0.67994684572E+02  0.98847508491E+01  0.79090152879E+02  0.41800000000E+01 0.  1.
        -11    1    4    4    0    0 -0.17098358075E+02  0.33419574349E+02  0.83111969794E+02  0.91196608060E+02  0.00000000000E+00 0.  1.
         11    1    4    4    0    0  0.76054869363E+02  0.43585479852E+01  0.15112613597E+03  0.16924080202E+03  0.00000000000E+00 0. -1.
</event>
<event>
 8    1  0.7224195E-009  0.1063527E+03  0.7561462E-02  0.1267477E+00
          2   -1    0    0  501    0  0.00000000000E+00  0.00000000000E+00  0.19774737536E+03  0.19774737536E+03  0.00000000000E+00 0. -1.
         -2   -1    0    0    0  501 -0.00000000000E+00 -0.00000000000E+00 -0.10889571093E+03  0.10889571093E+03  0.00000000000E+00 0.  1.
         25    2    1    2    0    0 -0.21276578102E+02 -0.89216039225E+02  0.77450521231E+01  0.15530868453E+03  0.12509439326E+03 0.  0.
         23    2    1    2    0    0  0.21276578102E+02  0.89216039225E+02  0.81106612310E+02  0.15133440176E+03  0.88947311171E+02 0.  0.
          5    1    3    3  502    0 -0.77085720809E+01 -0.70682337972E+02 -0.53945850980E+02  0.89347871953E+02  0.41800000000E+01 0.  1.
         -5    1    3    3    0  502 -0.13568006021E+02 -0.18533701253E+02  0.61690903103E+02  0.65960812572E+02  0.41800000000E+01 0.  1.
        -11    1    4    4    0    0  0.49313150887E+02  0.54176245050E+02  0.20783552217E+02  0.76149907557E+02  0.00000000000E+00 0.  1.
         11    1    4    4    0    0 -0.28036572786E+02  0.35039794175E+02  0.60323060093E+02  0.75184494202E+02  0.00000000000E+00 0. -1.
</event>
<event>
 8    1  0.7224195E-009  0.1221998E+03  0.7561462E-02  0.1239512E+00
          2   -1    0    0  501    0  0.00000000000E+00  0.00000000000E+00  0.17335980798E+03  0.17335980798E+03  0.00000000000E+00 0. -1.
         -2   -1    0    0    0  501 -0.00000000000E+00 -0.00000000000E+00 -0.10688522065E+03  0.10688522065E+03  0.00000000000E+00 0.  1.
         25    2    1    2    0    0 -0.65148130439E+02  0.48670451439E+02  0.33851935361E+02  0.15299299826E+03  0.12509121571E+03 0.  0.
         23    2    1    2    0    0  0.65148130439E+02 -0.48670451439E+02  0.32622651966E+02  0.12725203036E+03  0.92280821771E+02 0.  0.
          5    1    3    3  502    0 -0.91539809965E+02  0.63590495185E+02  0.45205787583E+02  0.12035083513E+03  0.41800000000E+01 0. -1.
         -5    1    3    3    0  502  0.26391679526E+02 -0.14920043746E+02 -0.11353852222E+02  0.32642163130E+02  0.41800000000E+01 0. -1.
        -11    1    4    4    0    0  0.57146459402E+01 -0.42072624807E+02 -0.20605799742E+02  0.47194935315E+02  0.00000000000E+00 0.  1.
         11    1    4    4    0    0  0.59433484499E+02 -0.65978266315E+01  0.53228451708E+02  0.80057095046E+02  0.00000000000E+00 0. -1.
</event>
<event>
 8    1  0.7224195E-009  0.1141706E+03  0.7561462E-02  0.1253036E+00
         -1   -1    0    0    0  501 -0.00000000000E+00  0.00000000000E+00  0.29452340095E+02  0.29452340095E+02  0.00000000000E+00 0.  1.
          1   -1    0    0  501    0  0.00000000000E+00 -0.00000000000E+00 -0.66034523254E+03  0.66034523254E+03  0.00000000000E+00 0. -1.
         25    2    1    2    0    0 -0.44886819697E+02 -0.68269203218E+02 -0.27089138954E+03  0.30936133373E+03  0.12508708642E+03 0.  0.
         23    2    1    2    0    0  0.44886819697E+02  0.68269203218E+02 -0.36000150291E+03  0.38043623890E+03  0.91951830256E+02 0.  0.
          5    1    3    3  502    0  0.17545477751E+02 -0.27487542956E+02 -0.50933604308E+01  0.33268957419E+02  0.41800000000E+01 0. -1.
         -5    1    3    3    0  502 -0.62432297448E+02 -0.40781660261E+02 -0.26579802911E+03  0.27609237631E+03  0.41800000000E+01 0. -1.
        -11    1    4    4    0    0 -0.19062689956E+02 -0.84903119377E+01 -0.94069561001E+02  0.96356389783E+02  0.00000000000E+00 0.  1.
         11    1    4    4    0    0  0.63949509653E+02  0.76759515155E+02 -0.26593194190E+03  0.28407984912E+03  0.00000000000E+00 0. -1.
</event>
<event>
 8    1  0.7224195E-009  0.1104915E+03  0.7561462E-02  0.1259662E+00
          3   -1    0    0  501    0  0.00000000000E+00  0.00000000000E+00  0.29753181855E+03  0.29753181855E+03  0.00000000000E+00 0. -1.
         -3   -1    0    0    0  501 -0.00000000000E+00 -0.00000000000E+00 -0.14114669175E+03  0.14114669175E+03  0.00000000000E+00 0.  1.
         25    2    1    2    0    0  0.77101387631E+02  0.51172199553E+02  0.23895359024E+03  0.28514665006E+03  0.12508627330E+03 0.  0.
         23    2    1    2    0    0 -0.77101387631E+02 -0.51172199553E+02 -0.82568463448E+02  0.15353186024E+03  0.90505596358E+02 0.  0.
          5    1    3    3  502    0  0.80294824692E+02  0.74613680486E+01  0.59318869019E+02  0.10019546650E+03  0.41800000000E+01 0.  1.
         -5    1    3    3    0  502 -0.31934370618E+01  0.43710831505E+02  0.17963472122E+03  0.18495118356E+03  0.41800000000E+01 0.  1.
        -11    1    4    4    0    0 -0.20445076287E+02 -0.90252817815E+00 -0.74617277940E+02  0.77372823838E+02  0.00000000000E+00 0.  1.
         11    1    4    4    0    0 -0.56656311344E+02 -0.50269671375E+02 -0.79511855074E+01  0.76159036406E+02  0.00000000000E+00 0. -1.
</event>
<event>
 8    1  0.7224195E-009  0.8514331E+02  0.7561462E-02  0.1315058E+00
          2   -1    0    0  501    0  0.00000000000E+00  0.00000000000E+00  0.28549791337E+02  0.28549791337E+02  0.00000000000E+00 0. -1.
         -2   -1    0    0    0  501 -0.00000000000E+00 -0.00000000000E+00 -0.51531286937E+03  0.51531286937E+03  0.00000000000E+00 0.  1.
         25    2    1    2    0    0  0.38335656803E+02  0.34513766833E+01 -0.35907531876E+03  0.38218794242E+03  0.12510397359E+03 0.  0.
         23    2    1    2    0    0 -0.38335656803E+02 -0.34513766833E+01 -0.12768775927E+03  0.16167471828E+03  0.91394836181E+02 0.  0.
          5    1    3    3  502    0 -0.29316535026E+02 -0.36181987134E+01 -0.26135002297E+03  0.26304725335E+03  0.41800000000E+01 0.  1.
         -5    1    3    3    0  502  0.67652191828E+02  0.70695753967E+01 -0.97725295785E+02  0.11914068907E+03  0.41800000000E+01 0.  1.
        -11    1    4    4    0    0  0.16339159176E+02 -0.64055565178E+01  0.49039658981E+01  0.18222188628E+02  0.00000000000E+00 0. -1.
         11    1    4    4    0    0 -0.54674815979E+02  0.29541798346E+01 -0.13259172517E+03  0.14345252965E+03  0.00000000000E+00 0.  1.
</event>
<event>
 8    1  0.7224195E-009  0.5876698E+02  0.7561462E-02  0.1403080E+00
         -4   -1    0    0    0  501 -0.00000000000E+00  0.00000000000E+00  0.46320369196E+02  0.46320369196E+02  0.00000000000E+00 0.  1.
          4   -1    0    0  501    0  0.00000000000E+00 -0.00000000000E+00 -0.28052872029E+03  0.28052872029E+03  0.00000000000E+00 0. -1.
         25    2    1    2    0    0 -0.27077468269E+02 -0.17643199434E+02 -0.13806949463E+03  0.18908917138E+03  0.12508819933E+03 0.  0.
         23    2    1    2    0    0  0.27077468269E+02  0.17643199434E+02 -0.96138856461E+02  0.13775991810E+03  0.93223621145E+02 0.  0.
          5    1    3    3  502    0  0.85507221361E+01  0.15922296524E+02 -0.13872284417E+03  0.13995761598E+03  0.41800000000E+01 0. -1.
         -5    1    3    3    0  502 -0.35628190405E+02 -0.33565495958E+02  0.65334954274E+00  0.49131555401E+02  0.41800000000E+01 0. -1.
        -11    1    4    4    0    0 -0.97681480089E+01  0.42440721735E+01  0.15855990325E+02  0.19100819179E+02  0.00000000000E+00 0.  1.
         11    1    4    4    0    0  0.36845616278E+02  0.13399127261E+02 -0.11199484679E+03  0.11865909892E+03  0.00000000000E+00 0. -1.
</event>
<event>
 8    1  0.7224195E-009  0.1292795E+03  0.7561462E-02  0.1228529E+00
          2   -1    0    0  501    0  0.00000000000E+00  0.00000000000E+00  0.43523306609E+03  0.43523306609E+03  0.00000000000E+00 0.  1.
         -2   -1    0    0    0  501 -0.00000000000E+00 -0.00000000000E+00 -0.61004409505E+02  0.61004409505E+02  0.00000000000E+00 0. -1.
         25    2    1    2    0    0 -0.89130998973E+02  0.70873455284E+02  0.14091447217E+03  0.22016258191E+03  0.12508913767E+03 0.  0.
         23    2    1    2    0    0  0.89130998973E+02 -0.70873455284E+02  0.23331418441E+03  0.27607489368E+03  0.93885337693E+02 0.  0.
          5    1    3    3  502    0 -0.48860189716E+02  0.76093552459E+02  0.20227761539E+02  0.92758727901E+02  0.41800000000E+01 0. -1.
         -5    1    3    3    0  502 -0.40270809257E+02 -0.52200971757E+01  0.12068671063E+03  0.12740385401E+03  0.41800000000E+01 0. -1.
        -11    1    4    4    0    0  0.42787704129E+02 -0.30932861062E+00  0.15543759282E+03  0.16121950431E+03  0.00000000000E+00 0.  1.
         11    1    4    4    0    0  0.46343294844E+02 -0.70564126673E+02  0.77876591590E+02  0.11485538937E+03  0.00000000000E+00 0. -1.
</event>
<event>
 8    1  0.7224195E-009  0.1098634E+03  0.7561462E-02  0.1260823E+00
         -3   -1    0    0    0  501 -0.00000000000E+00  0.00000000000E+00  0.41337364620E+03  0.41337364620E+03  0.00000000000E+00 0.  1.
          3   -1    0    0  501    0  0.00000000000E+00 -0.00000000000E+00 -0.44154866521E+02  0.44154866521E+02  0.00000000000E+00 0. -1.
         25    2    1    2    0    0 -0.46833988190E+02  0.36422340091E+02  0.28724634548E+03  0.31886891442E+03  0.12508761844E+03 0.  0.
         23    2    1    2    0    0  0.46833988190E+02 -0.36422340091E+02  0.81972434197E+02  0.13865959830E+03  0.94799762257E+02 0.  0.
          5    1    3    3  502    0 -0.88486377258E+02  0.38363756700E+02  0.19939247399E+03  0.22153204705E+03  0.41800000000E+01 0. -1.
         -5    1    3    3    0  502  0.41652389067E+02 -0.19414166087E+01  0.87853871491E+02  0.97336867370E+02  0.41800000000E+01 0. -1.
        -11    1    4    4    0    0  0.92902379398E+01 -0.42278289238E+02  0.89958872659E+02  0.99831663474E+02  0.00000000000E+00 0.  1.
         11    1    4    4    0    0  0.37543750250E+02  0.58559491469E+01 -0.79864384619E+01  0.38827934822E+02  0.00000000000E+00 0. -1.
</event>
<event>
 8    1  0.7224195E-009  0.1664146E+03  0.7561462E-02  0.1181639E+00
          2   -1    0    0  501    0  0.00000000000E+00  0.00000000000E+00  0.49106323309E+03  0.49106323309E+03  0.00000000000E+00 0.  1.
         -2   -1    0    0    0  501 -0.00000000000E+00 -0.00000000000E+00 -0.12121100668E+03  0.12121100668E+03  0.00000000000E+00 0. -1.
         25    2    1    2    0    0  0.65676822118E+02  0.11122791259E+03  0.41140320470E+03  0.44898072380E+03  0.12508397179E+03 0.  0.
         23    2    1    2    0    0 -0.65676822118E+02 -0.11122791259E+03 -0.41550978302E+02  0.16329351597E+03  0.90847097128E+02 0.  0.
          5    1    3    3  502    0  0.63387570621E+02  0.13588758005E+03  0.30820144712E+03  0.34276671794E+03  0.41800000000E+01 0. -1.
         -5    1    3    3    0  502  0.22892514967E+01 -0.24659667458E+02  0.10320175759E+03  0.10621400586E+03  0.41800000000E+01 0. -1.
        -11    1    4    4    0    0 -0.87585565760E+02 -0.74692930087E+02 -0.34026878296E+02  0.12003371852E+03  0.00000000000E+00 0. -1.
         11    1    4    4    0    0  0.21908743643E+02 -0.36534982506E+02 -0.75241000057E+01  0.43259797452E+02  0.00000000000E+00 0.  1.
</event>
<event>
 8    1  0.7224195E-009  0.2239592E+03  0.7561462E-02  0.1130965E+00
          2   -1    0    0  501    0  0.00000000000E+00  0.00000000000E+00  0.13071801669E+04  0.13071801669E+04  0.00000000000E+00 0. -1.
         -2   -1    0    0    0  501 -0.00000000000E+00 -0.00000000000E+00 -0.43107078104E+02  0.43107078104E+02  0.00000000000E+00 0.  1.
         25    2    1    2    0    0  0.20942965857E+03 -0.24205650280E+02  0.63826116910E+03  0.68371918443E+03  0.12509159757E+03 0.  0.
         23    2    1    2    0    0 -0.20942965857E+03  0.24205650280E+02  0.62581191966E+03  0.66656806053E+03  0.90695783501E+02 0.  0.
          5    1    3    3  502    0  0.18359958788E+03  0.16072090858E+02  0.57783437774E+03  0.60652878025E+03  0.41800000000E+01 0.  1.
         -5    1    3    3    0  502  0.25830070693E+02 -0.40277741138E+02  0.60426791352E+02  0.77190404173E+02  0.41800000000E+01 0.  1.
        -11    1    4    4    0    0 -0.57749983956E+02 -0.13362063955E+02  0.84957176156E+02  0.10359211930E+03  0.00000000000E+00 0.  1.
         11    1    4    4    0    0 -0.15167967462E+03  0.37567714235E+02  0.54085474350E+03  0.56297594124E+03  0.00000000000E+00 0. -1.
</event>
<event>
 8    1  0.7224195E-009  0.2973278E+03  0.7561462E-02  0.1086584E+00
         -2   -1    0    0    0  501 -0.00000000000E+00  0.00000000000E+00  0.67709787159E+02  0.67709787159E+02  0.00000000000E+00 0.  1.
          2   -1    0    0  501    0  0.00000000000E+00 -0.00000000000E+00 -0.15976355372E+04  0.15976355372E+04  0.00000000000E+00 0. -1.
         25    2    1    2    0    0  0.26323563081E+03  0.94503185650E+02 -0.43604533522E+03  0.53292239397E+03  0.12508754617E+03 0.  0.
         23    2    1    2    0    0 -0.26323563081E+03 -0.94503185650E+02 -0.10938804148E+04  0.11324229304E+04  0.87083189564E+02 0.  0.
          5    1    3    3  502    0  0.94893360473E+02  0.94224812521E+02 -0.15007003366E+03  0.20105111927E+03  0.41800000000E+01 0.  1.
         -5    1    3    3    0  502  0.16834227034E+03  0.27837312854E+00 -0.28597530155E+03  0.33187127470E+03  0.41800000000E+01 0.  1.
        -11    1    4    4    0    0 -0.15086864694E+03 -0.87577104286E+01 -0.59688490021E+03  0.61571879151E+03  0.00000000000E+00 0. -1.
         11    1    4    4    0    0 -0.11236698387E+03 -0.85745475221E+02 -0.49699551463E+03  0.51670413889E+03  0.00000000000E+00 0.  1.
</event>
<event>
 8    1  0.7224195E-009  0.2805931E+03  0.7561462E-02  0.1095365E+00
         -3   -1    0    0    0  501 -0.00000000000E+00  0.00000000000E+00  0.96600958571E+03  0.96600958571E+03  0.00000000000E+00 0.  1.
          3   -1    0    0  501    0  0.00000000000E+00 -0.00000000000E+00 -0.10060256858E+03  0.10060256858E+03  0.00000000000E+00 0. -1.
         25    2    1    2    0    0 -0.26525456156E+03  0.70886388201E+01  0.23244684012E+03  0.37428487935E+03  0.12508959269E+03 0.  0.
         23    2    1    2    0    0  0.26525456156E+03 -0.70886388201E+01  0.63296017701E+03  0.69232727494E+03  0.90929856040E+02 0.  0.
          5    1    3    3  502    0 -0.17747085019E+03  0.63053062624E+02  0.13642078019E+03  0.23259340713E+03  0.41800000000E+01 0.  1.
         -5    1    3    3    0  502 -0.87783711372E+02 -0.55964423804E+02  0.96026059931E+02  0.14169147222E+03  0.41800000000E+01 0.  1.
        -11    1    4    4    0    0  0.15489748168E+03 -0.24710527589E+02  0.26680845148E+03  0.30950054892E+03  0.00000000000E+00 0. -1.
         11    1    4    4    0    0  0.11035707988E+03  0.17621888769E+02  0.36615172554E+03  0.38282672602E+03  0.00000000000E+00 0.  1.
</event>
<event>
 8    1  0.7224195E-009  0.9441292E+02  0.7561462E-02  0.1292504E+00
         -1   -1    0    0    0  501 -0.00000000000E+00  0.00000000000E+00  0.40613935526E+02  0.40613935526E+02  0.00000000000E+00 0.  1.
          1   -1    0    0  501    0  0.00000000000E+00 -0.00000000000E+00 -0.84818463859E+03  0.84818463859E+03  0.00000000000E+00 0. -1.
         25    2    1    2    0    0  0.21013401299E+02  0.72420092863E+02 -0.73680056779E+03  0.75113738272E+03  0.12508420419E+03 0.  0.
         23    2    1    2    0    0 -0.21013401299E+02 -0.72420092863E+02 -0.70770135270E+02  0.13766119139E+03  0.90862306183E+02 0.  0.
          5    1    3    3  502    0 -0.17403937257E+01  0.41046810790E+02 -0.57895767524E+02  0.71114428519E+02  0.41800000000E+01 0. -1.
         -5    1    3    3    0  502  0.22753795025E+02  0.31373282073E+02 -0.67890480027E+03  0.68002295420E+03  0.41800000000E+01 0. -1.
        -11    1    4    4    0    0  0.12915078798E+02 -0.73478052018E+02 -0.21156013132E+02  0.77546117119E+02  0.00000000000E+00 0.  1.
         11    1    4    4    0    0 -0.33928480097E+02  0.10579591550E+01 -0.49614122138E+02  0.60115074273E+02  0.00000000000E+00 0. -1.
</event>
<event>
 8    1  0.7224195E-009  0.2480772E+03  0.7561462E-02  0.1114526E+00
         -3   -1    0    0    0  501 -0.00000000000E+00  0.00000000000E+00  0.61015907935E+03  0.61015907935E+03  0.00000000000E+00 0.  1.
          3   -1    0    0  501    0  0.00000000000E+00 -0.00000000000E+00 -0.12095555045E+03  0.12095555045E+03  0.00000000000E+00 0. -1.
         25    2    1    2    0    0 -0.23587468792E+03  0.76093707892E+02  0.28234329900E+03  0.39597004443E+03  0.12508963510E+03 0.  0.
         23    2    1    2    0    0  0.23587468792E+03 -0.76093707892E+02  0.20686022989E+03  0.33514458538E+03  0.90020095608E+02 0.  0.
          5    1    3    3  502    0 -0.55397070948E+02  0.13078342132E+02  0.26112410262E+01  0.57132910675E+02  0.41800000000E+01 0.  1.
         -5    1    3    3    0  502 -0.18047761697E+03  0.63015365760E+02  0.27973205798E+03  0.33883713376E+03  0.41800000000E+01 0.  1.
        -11    1    4    4    0    0  0.10032650342E+03 -0.30433156510E+02  0.32792199442E+02  0.10984949999E+03  0.00000000000E+00 0. -1.
         11    1    4    4    0    0  0.13554818450E+03 -0.45660551382E+02  0.17406803045E+03  0.22529508539E+03  0.00000000000E+00 0.  1.
</event>
<event>
 8    1  0.7224195E-009  0.1372436E+03  0.7561462E-02  0.1217087E+00
          2   -1    0    0  501    0  0.00000000000E+00  0.00000000000E+00  0.90325536789E+03  0.90325536789E+03  0.00000000000E+00 0. -1.
         -2   -1    0    0    0  501 -0.00000000000E+00 -0.00000000000E+00 -0.30327505161E+02  0.30327505161E+02  0.00000000000E+00 0.  1.
         25    2    1    2    0    0  0.92237999949E+02  0.37767364299E+02  0.25352425507E+03  0.29975753271E+03  0.12508320457E+03 0.  0.
         23    2    1    2    0    0 -0.92237999949E+02 -0.37767364299E+02  0.61940360766E+03  0.63382534034E+03  0.90219235406E+02 0.  0.
          5    1    3    3  502    0  0.31196791301E+02  0.66330476299E+02  0.20167684921E+03  0.21462524497E+03  0.41800000000E+01 0.  1.
         -5    1    3    3    0  502  0.61041208648E+02 -0.28563112000E+02  0.51847405861E+02  0.85132287734E+02  0.41800000000E+01 0.  1.
        -11    1    4    4    0    0  0.17225672913E+02  0.14050945607E+01  0.58511968558E+02  0.61011052790E+02  0.00000000000E+00 0.  1.
         11    1    4    4    0    0 -0.10946367286E+03 -0.39172458860E+02  0.56089163910E+03  0.57281428755E+03  0.00000000000E+00 0. -1.
</event>
<event>
 8    1  0.7224195E-009  0.9580905E+02  0.7561462E-02  0.1289364E+00
          2   -1    0    0  501    0  0.00000000000E+00  0.00000000000E+00  0.45514019209E+03  0.45514019209E+03  0.00000000000E+00 0. -1.
         -2   -1    0    0    0  501 -0.00000000000E+00 -0.00000000000E+00 -0.38488896524E+02  0.38488896524E+02  0.00000000000E+00 0.  1.
         25    2    1    2    0    0 -0.48256384649E+02  0.21188407972E+02  0.12349934709E+03  0.18351227212E+03  0.12508812092E+03 0.  0.
         23    2    1    2    0    0  0.48256384649E+02 -0.21188407972E+02  0.29315194847E+03  0.31011681649E+03  0.86352461962E+02 0.  0.
          5    1    3    3  502    0  0.18778905755E+02  0.24544230665E+02 -0.11056122949E+02  0.33087411729E+02  0.41800000000E+01 0.  1.
         -5    1    3    3    0  502 -0.67035290404E+02 -0.33558226924E+01  0.13455547004E+03  0.15042486039E+03  0.41800000000E+01 0.  1.
        -11    1    4    4    0    0  0.24564794233E+02 -0.50103780055E+02  0.23051729219E+03  0.23717512494E+03  0.00000000000E+00 0. -1.
         11    1    4    4    0    0  0.23691590416E+02  0.28915372083E+02  0.62634656282E+02  0.72941691554E+02  0.00000000000E+00 0.  1.
</event>
<event>
 8    1  0.7224195E-009  0.1060197E+03  0.7561462E-02  0.1268124E+00
         -2   -1    0    0    0  501 -0.00000000000E+00  0.00000000000E+00  0.36192419593E+02  0.36192419593E+02  0.00000000000E+00 0.  1.
          2   -1    0    0  501    0  0.00000000000E+00 -0.00000000000E+00 -0.50271398726E+03  0.50271398726E+03  0.00000000000E+00 0. -1.
         25    2    1    2    0    0 -0.73281125833E+02  0.14717750276E+02 -0.31425610783E+03  0.34639814130E+03  0.12509210772E+03 0.  0.
         23    2    1    2    0    0  0.73281125833E+02 -0.14717750276E+02 -0.15226545984E+03  0.19250826555E+03  0.91038049564E+02 0.  0.
          5    1    3    3  502    0  0.22250224147E+02  0.92426629289E+01 -0.83365887835E+01  0.25835448616E+02  0.41800000000E+01 0.  1.
         -5    1    3    3    0  502 -0.95531349981E+02  0.54750873470E+01 -0.30591951904E+03  0.32056269269E+03  0.41800000000E+01 0.  1.
        -11    1    4    4    0    0  0.29987771225E+02  0.20225286819E+02 -0.12580341132E+03  0.13090006475E+03  0.00000000000E+00 0. -1.
         11    1    4    4    0    0  0.43293354609E+02 -0.34943037095E+02 -0.26462048517E+02  0.61608200805E+02  0.00000000000E+00 0.  1.
</event>
<event>
 8    1  0.7224195E-009  0.1113345E+03  0.7561462E-02  0.1258118E+00
         -1   -1    0    0    0  501 -0.00000000000E+00  0.00000000000E+00  0.42412541425E+03  0.42412541425E+03  0.00000000000E+00 0.  1.
          1   -1    0    0  501    0  0.00000000000E+00 -0.00000000000E+00 -0.34638577923E+02  0.34638577923E+02  0.00000000000E+00 0. -1.
         25    2    1    2    0    0  0.52140551802E+02 -0.37835075199E+00  0.18884895960E+03  0.23244482343E+03  0.12509151092E+03 0.  0.
         23    2    1    2    0    0 -0.52140551802E+02  0.37835075199E+00  0.20063787672E+03  0.22631916874E+03  0.90807644348E+02 0.  0.
          5    1    3    3  502    0  0.52200770867E+02 -0.51389922452E+02  0.63444048090E+02  0.96997238346E+02  0.41800000000E+01 0. -1.
         -5    1    3    3    0  502 -0.60219064819E-01  0.51011571700E+02  0.12540491151E+03  0.13544758508E+03  0.41800000000E+01 0. -1.
        -11    1    4    4    0    0  0.18757360189E+02  0.16977945837E+02  0.92893861750E+02  0.96277509091E+02  0.00000000000E+00 0.  1.
         11    1    4    4    0    0 -0.70897911991E+02 -0.16599595085E+02  0.10774401497E+03  0.13004165965E+03  0.00000000000E+00 0. -1.
</event>
<event>
 8    1  0.7224195E-009  0.1134638E+03  0.7561462E-02  0.1254287E+00
          3   -1    0    0  501    0  0.00000000000E+00  0.00000000000E+00  0.14011285354E+03  0.14011285354E+03  0.00000000000E+00 0. -1.
         -3   -1    0    0    0  501 -0.00000000000E+00 -0.00000000000E+00 -0.10416566073E+03  0.10416566073E+03  0.00000000000E+00 0.  1.
         25    2    1    2    0    0 -0.44724960808E+02  0.27768032820E+02  0.22332395122E+02  0.13754186246E+03  0.12509053637E+03 0.  0.
         23    2    1    2    0    0  0.44724960808E+02 -0.27768032820E+02  0.13614797689E+02  0.10673665182E+03  0.91847506002E+02 0.  0.
          5    1    3    3  502    0  0.19176822665E+02 -0.36928423013E+02  0.20304696265E+02  0.46488837844E+02  0.41800000000E+01 0.  1.
         -5    1    3    3    0  502 -0.63901783473E+02  0.64696455833E+02  0.20276988571E+01  0.91053024612E+02  0.41800000000E+01 0.  1.
        -11    1    4    4    0    0  0.63000787943E+02 -0.27059138574E+01 -0.14687693804E+02  0.64746811509E+02  0.00000000000E+00 0. -1.
         11    1    4    4    0    0 -0.18275827135E+02 -0.25062118963E+02  0.28302491492E+02  0.41989840308E+02  0.00000000000E+00 0.  1.
</event>
<event>
 8    1  0.7224195E-009  0.9792275E+02  0.7561462E-02  0.1284726E+00
         -2   -1    0    0    0  501 -0.00000000000E+00  0.00000000000E+00  0.92596001712E+02  0.92596001712E+02  0.00000000000E+00 0.  1.
          2   -1    0    0  501    0  0.00000000000E+00 -0.00000000000E+00 -0.13208355747E+03  0.13208355747E+03  0.00000000000E+00 0. -1.
         25    2    1    2    0    0  0.54608353822E+01  0.21368959800E+02 -0.20842359360E+02  0.12872121675E+03  0.12509314342E+03 0.  0.
         23    2    1    2    0    0 -0.54608353822E+01 -0.21368959800E+02 -0.18645196401E+02  0.95958342436E+02  0.91509054023E+02 0.  0.
          5    1    3    3  502    0  0.63392018698E+02  0.51199984484E+01  0.31474405529E+01  0.63813330901E+02  0.41800000000E+01 0.  1.
         -5    1    3    3    0  502 -0.57931183316E+02  0.16248961351E+02 -0.23989799913E+02  0.64907885848E+02  0.41800000000E+01 0.  1.
        -11    1    4    4    0    0  0.99081226694E+01 -0.43633349421E+02  0.19815535634E+02  0.48935626378E+02  0.00000000000E+00 0.  1.
         11    1    4    4    0    0 -0.15368958052E+02  0.22264389621E+02 -0.38460732035E+02  0.47022716058E+02  0.00000000000E+00 0. -1.
</event>
<event>
 8    1  0.7224195E-009  0.1768905E+03  0.7561462E-02  0.1170847E+00
         -1   -1    0    0    0  501 -0.00000000000E+00  0.00000000000E+00  0.14730986825E+03  0.14730986825E+03  0.00000000000E+00 0.  1.
          1   -1    0    0  501    0  0.00000000000E+00 -0.00000000000E+00 -0.26012855302E+03  0.26012855302E+03  0.00000000000E+00 0. -1.
         25    2    1    2    0    0  0.14240339131E+02 -0.15781212543E+03 -0.21081622904E+02  0.20298326070E+03  0.12510121945E+03 0.  0.
         23    2    1    2    0    0 -0.14240339131E+02  0.15781212543E+03 -0.91737061865E+02  0.20445516057E+03  0.90987746286E+02 0.  0.
          5    1    3    3  502    0 -0.41072056974E+02 -0.43675561290E+02  0.28782599679E+02  0.66636168575E+02  0.41800000000E+01 0.  1.
         -5    1    3    3    0  502  0.55312396105E+02 -0.11413656414E+03 -0.49864222583E+02  0.13634709212E+03  0.41800000000E+01 0.  1.
        -11    1    4    4    0    0  0.18347074185E+02  0.85766497369E+02 -0.89558348718E+02  0.12535232358E+03  0.00000000000E+00 0.  1.
         11    1    4    4    0    0 -0.32587413316E+02  0.72045628058E+02 -0.21787131475E+01  0.79102836991E+02  0.00000000000E+00 0. -1.
</event>
<event>
 8    1  0.7224195E-009  0.2125979E+03  0.7561462E-02  0.1139525E+00
         -1   -1    0    0    0  501 -0.00000000000E+00  0.00000000000E+00  0.52487211517E+02  0.52487211517E+02  0.00000000000E+00 0.  1.
          1   -1    0    0  501    0  0.00000000000E+00 -0.00000000000E+00 -0.10859054239E+04  0.10859054239E+04  0.00000000000E+00 0. -1.
         25    2    1    2    0    0  0.26440466114E+02  0.20377931605E+03 -0.40759983820E+03  0.47329725188E+03  0.12509017801E+03 0.  0.
         23    2    1    2    0    0 -0.26440466114E+02 -0.20377931605E+03 -0.62581837416E+03  0.66509538352E+03  0.92076727995E+02 0.  0.
          5    1    3    3  502    0  0.89392074613E+01  0.19273872986E+03 -0.25789301269E+03  0.32210930724E+03  0.41800000000E+01 0. -1.
         -5    1    3    3    0  502  0.17501258653E+02  0.11040586189E+02 -0.14970682552E+03  0.15118794464E+03  0.41800000000E+01 0. -1.
        -11    1    4    4    0    0 -0.32932813498E+02 -0.72218174883E+02 -0.13213670235E+03  0.15414325511E+03  0.00000000000E+00 0.  1.
         11    1    4    4    0    0  0.64923473835E+01 -0.13156114117E+03 -0.49368167181E+03  0.51095212840E+03  0.00000000000E+00 0. -1.
</event>
<event>
 8    1  0.7224195E-009  0.6512700E+02  0.7561462E-02  0.1377494E+00
          1   -1    0    0  501    0  0.00000000000E+00  0.00000000000E+00  0.44636279091E+02  0.44636279091E+02  0.00000000000E+00 0.  1.
         -1   -1    0    0    0  501 -0.00000000000E+00 -0.00000000000E+00 -0.27132212453E+03  0.27132212453E+03  0.00000000000E+00 0. -1.
         25    2    1    2    0    0 -0.16398812480E+02 -0.14981887384E+02 -0.12205284197E+03  0.17617574631E+03  0.12509044469E+03 0.  0.
         23    2    1    2    0    0  0.16398812480E+02  0.14981887384E+02 -0.10463300347E+03  0.13978265731E+03  0.89987487298E+02 0.  0.
          5    1    3    3  502    0 -0.19838820943E+02  0.21071517777E+02  0.16039749361E+02  0.33351666186E+02  0.41800000000E+01 0.  1.
         -5    1    3    3    0  502  0.34400084623E+01 -0.36053405161E+02 -0.13809259133E+03  0.14282408012E+03  0.41800000000E+01 0.  1.
        -11    1    4    4    0    0 -0.82819654949E+01 -0.20055124031E+02  0.48299383795E+01  0.22228973370E+02  0.00000000000E+00 0.  1.
         11    1    4    4    0    0  0.24680777975E+02  0.35037011415E+02 -0.10946294185E+03  0.11755368394E+03  0.00000000000E+00 0. -1.
</event>
<event>
 8    1  0.7224195E-009  0.6779182E+02  0.7561462E-02  0.1367767E+00
         -2   -1    0    0    0  501 -0.00000000000E+00  0.00000000000E+00  0.11579802984E+03  0.11579802984E+03  0.00000000000E+00 0.  1.
          2   -1    0    0  501    0  0.00000000000E+00 -0.00000000000E+00 -0.10957358223E+03  0.10957358223E+03  0.00000000000E+00 0. -1.
         25    2    1    2    0    0  0.16135870263E+02 -0.40497001422E+02  0.55817150459E+01  0.13258699846E+03  0.12509109954E+03 0.  0.
         23    2    1    2    0    0 -0.16135870263E+02  0.40497001422E+02  0.64273256296E+00  0.92784613605E+02  0.81903589564E+02 0.  0.
          5    1    3    3  502    0 -0.32609506807E+02 -0.18331878082E+02 -0.45096259116E+02  0.58741660467E+02  0.41800000000E+01 0. -1.
         -5    1    3    3    0  502  0.48745377070E+02 -0.22165123341E+02  0.50677974161E+02  0.73845337994E+02  0.41800000000E+01 0. -1.
        -11    1    4    4    0    0 -0.96282303817E+01  0.32630540676E+02 -0.39054910003E+02  0.51795183178E+02  0.00000000000E+00 0. -1.
         11    1    4    4    0    0 -0.65076398810E+01  0.78664607463E+01  0.39697642566E+02  0.40989430428E+02  0.00000000000E+00 0.  1.
</event>
<event>
 8    1  0.7224195E-009  0.1200440E+03  0.7561462E-02  0.1243025E+00
         -2   -1    0    0    0  501 -0.00000000000E+00  0.00000000000E+00  0.13240928529E+03  0.13240928529E+03  0.00000000000E+00 0.  1.
          2   -1    0    0  501    0  0.00000000000E+00 -0.00000000000E+00 -0.14953881072E+03  0.14953881072E+03  0.00000000000E+00 0. -1.
         25    2    1    2    0    0  0.82737242021E+02  0.27738956949E+02  0.11407141405E+02  0.15294789880E+03  0.12509210975E+03 0.  0.
         23    2    1    2    0    0 -0.82737242021E+02 -0.27738956949E+02 -0.28536666831E+02  0.12900019721E+03  0.90619029887E+02 0.  0.
          5    1    3    3  502    0 -0.31969317313E+02  0.14659893931E+02 -0.65998602605E+01  0.36027493598E+02  0.41800000000E+01 0.  1.
         -5    1    3    3    0  502  0.11470655933E+03  0.13079063017E+02  0.18007001666E+02  0.11692040520E+03  0.41800000000E+01 0.  1.
        -11    1    4    4    0    0 -0.12343734638E+02 -0.11569251095E+02 -0.50701025033E+02  0.53449128105E+02  0.00000000000E+00 0. -1.
         11    1    4    4    0    0 -0.70393507384E+02 -0.16169705853E+02  0.22164358202E+02  0.75551069110E+02  0.00000000000E+00 0.  1.
</event>
<event>
 8    1  0.7224195E-009  0.1170616E+03  0.7561462E-02  0.1248025E+00
         -1   -1    0    0    0  501 -0.00000000000E+00  0.00000000000E+00  0.17817694786E+03  0.17817694786E+03  0.00000000000E+00 0.  1.
          1   -1    0    0  501    0  0.00000000000E+00 -0.00000000000E+00 -0.11203155740E+03  0.11203155740E+03  0.00000000000E+00 0. -1.
         25    2    1    2    0    0 -0.44802542975E+02  0.70007925482E+01  0.11578401386E+03  0.17637337479E+03  0.12508137558E+03 0.  0.
         23    2    1    2    0    0  0.44802542975E+02 -0.70007925482E+01 -0.49638623404E+02  0.11383513047E+03  0.91859485316E+02 0.  0.
          5    1    3    3  502    0 -0.66814021753E+02  0.50528263111E+02  0.77942497466E+02  0.11449770385E+03  0.41800000000E+01 0. -1.
         -5    1    3    3    0  502  0.22011478778E+02 -0.43527470563E+02  0.37841516394E+02  0.61875670942E+02  0.41800000000E+01 0. -1.
        -11    1    4    4    0    0  0.63858852762E+02  0.21176675063E+02 -0.24752743615E+02  0.71687536987E+02  0.00000000000E+00 0.  1.
         11    1    4    4    0    0 -0.19056309787E+02 -0.28177467611E+02 -0.24885879789E+02  0.42147593484E+02  0.00000000000E+00 0. -1.
</event>
<event>
 8    1  0.7224195E-009  0.1308443E+03  0.7561462E-02  0.1226208E+00
          3   -1    0    0  501    0  0.00000000000E+00  0.00000000000E+00  0.33875013550E+03  0.33875013550E+03  0.00000000000E+00 0. -1.
         -3   -1    0    0    0  501 -0.00000000000E+00 -0.00000000000E+00 -0.10464652933E+03  0.10464652933E+03  0.00000000000E+00 0.  1.
         25    2    1    2    0    0  0.59588567025E+02  0.82623294650E+02  0.25648445451E+03  0.30300119490E+03  0.12509213632E+03 0.  0.
         23    2    1    2    0    0 -0.59588567025E+02 -0.82623294650E+02 -0.22380848339E+02  0.14039546992E+03  0.93981803889E+02 0.  0.
          5    1    3    3  502    0 -0.13432814958E+02  0.58601303794E+02  0.19612387903E+03  0.20517456385E+03  0.41800000000E+01 0.  1.
         -5    1    3    3    0  502  0.73021381983E+02  0.24021990857E+02  0.60360575474E+02  0.97826631052E+02  0.41800000000E+01 0.  1.
        -11    1    4    4    0    0 -0.56309887688E+01 -0.68407368684E+02 -0.42901045998E+02  0.80943040915E+02  0.00000000000E+00 0.  1.
         11    1    4    4    0    0 -0.53957578257E+02 -0.14215925966E+02  0.20520197660E+02  0.59452429003E+02  0.00000000000E+00 0. -1.
</event>
<event>
 8    1  0.7224195E-009  0.2713921E+03  0.7561462E-02  0.1100486E+00
          1   -1    0    0  501    0  0.00000000000E+00  0.00000000000E+00  0.21393614198E+03  0.21393614198E+03  0.00000000000E+00 0. -1.
         -1   -1    0    0    0  501 -0.00000000000E+00 -0.00000000000E+00 -0.38086042869E+03  0.38086042869E+03  0.00000000000E+00 0.  1.
         25    2    1    2    0    0 -0.22901645465E+03 -0.12811540930E+03 -0.11503218893E+03  0.31264370979E+03  0.12510631550E+03 0.  0.
         23    2    1    2    0    0  0.22901645465E+03  0.12811540930E+03 -0.51892097778E+02  0.28215286089E+03  0.89751615543E+02 0.  0.
          5    1    3    3  502    0 -0.18916816714E+03 -0.14309247249E+03 -0.63321575232E+02  0.24553440783E+03  0.41800000000E+01 0. -1.
         -5    1    3    3    0  502 -0.39848287514E+02  0.14977063183E+02 -0.51710613701E+02  0.67109301954E+02  0.41800000000E+01 0. -1.
        -11    1    4    4    0    0  0.10869304218E+03  0.68732984052E+02 -0.70550919286E+02  0.14668276220E+03  0.00000000000E+00 0. -1.
         11    1    4    4    0    0  0.12032341247E+03  0.59382425253E+02  0.18658821508E+02  0.13547009869E+03  0.00000000000E+00 0.  1.
</event>
<event>
 8    1  0.7224195E-009  0.1132417E+03  0.7561462E-02  0.1254682E+00
          2   -1    0    0  501    0  0.00000000000E+00  0.00000000000E+00  0.48390209159E+03  0.48390209159E+03  0.00000000000E+00 0.  1.
         -2   -1    0    0    0  501 -0.00000000000E+00 -0.00000000000E+00 -0.42543082299E+02  0.42543082299E+02  0.00000000000E+00 0. -1.
         25    2    1    2    0    0  0.53559064118E+02 -0.43572927509E+02  0.35640815472E+03  0.38398507191E+03  0.12510231548E+03 0.  0.
         23    2    1    2    0    0 -0.53559064118E+02  0.43572927509E+02  0.84950854577E+02  0.14246010198E+03  0.91165013043E+02 0.  0.
          5    1    3    3  502    0  0.57168256553E+02 -0.68392830736E+02  0.34456931523E+03  0.35593717740E+03  0.41800000000E+01 0. -1.
         -5    1    3    3    0  502 -0.36091924357E+01  0.24819903226E+02  0.11838839486E+02  0.28047894512E+02  0.41800000000E+01 0. -1.
        -11    1    4    4    0    0 -0.25357688396E+02  0.69208464340E+02  0.69592248107E+02  0.10137013808E+03  0.00000000000E+00 0.  1.
         11    1    4    4    0    0 -0.28201375722E+02 -0.25635536831E+02  0.15358606469E+02  0.41089963907E+02  0.00000000000E+00 0. -1.
</event>
<event>
 8    1  0.7224195E-009  0.1772161E+03  0.7561462E-02  0.1170525E+00
         -1   -1    0    0    0  501 -0.00000000000E+00  0.00000000000E+00  0.60637107465E+03  0.60637107465E+03  0.00000000000E+00 0.  1.
          1   -1    0    0  501    0  0.00000000000E+00 -0.00000000000E+00 -0.60273155785E+02  0.60273155785E+02  0.00000000000E+00 0. -1.
         25    2    1    2    0    0  0.15016793817E+03 -0.35194580365E+02  0.33798809465E+03  0.39201048160E+03  0.12508875815E+03 0.  0.
         23    2    1    2    0    0 -0.15016793817E+03  0.35194580365E+02  0.20810982422E+03  0.27463374884E+03  0.91241048456E+02 0.  0.
          5    1    3    3  502    0  0.15222041480E+03 -0.66531614884E+02  0.27070213426E+03  0.31763914802E+03  0.41800000000E+01 0. -1.
         -5    1    3    3    0  502 -0.20524766265E+01  0.31337034519E+02  0.67285960386E+02  0.74371333576E+02  0.41800000000E+01 0. -1.
        -11    1    4    4    0    0 -0.28654923405E+02 -0.39165544126E+01  0.10970989778E+03  0.11345794686E+03  0.00000000000E+00 0.  1.
         11    1    4    4    0    0 -0.12151301477E+03  0.39111134778E+02  0.98399926434E+02  0.16117580198E+03  0.00000000000E+00 0. -1.
</event>
<event>
 8    1  0.7224195E-009  0.1008312E+03  0.7561462E-02  0.1278558E+00
         -1   -1    0    0    0  501 -0.00000000000E+00  0.00000000000E+00  0.50398876507E+02  0.50398876507E+02  0.00000000000E+00 0.  1.
          1   -1    0    0  501    0  0.00000000000E+00 -0.00000000000E+00 -0.47197034071E+03  0.47197034071E+03  0.00000000000E+00 0. -1.
         25    2    1    2    0    0  0.43142863708E+02 -0.10772639313E+02 -0.39255034416E+03  0.41439192621E+03  0.12509012496E+03 0.  0.
         23    2    1    2    0    0 -0.43142863708E+02  0.10772639313E+02 -0.29021120043E+02  0.10797729101E+03  0.94018687067E+02 0.  0.
          5    1    3    3  502    0  0.11064511316E+02  0.51553271305E+02 -0.24938584727E+03  0.25493319990E+03  0.41800000000E+01 0. -1.
         -5    1    3    3    0  502  0.32078352392E+02 -0.62325910618E+02 -0.14316449688E+03  0.15945872630E+03  0.41800000000E+01 0. -1.
        -11    1    4    4    0    0 -0.40145353363E+02 -0.21905754481E+02 -0.50984153610E+02  0.68490111661E+02  0.00000000000E+00 0. -1.
         11    1    4    4    0    0 -0.29975103451E+01  0.32678393793E+02  0.21963033567E+02  0.39487179345E+02  0.00000000000E+00 0.  1.
</event>
<event>
 8    1  0.7224195E-009  0.1865700E+03  0.7561462E-02  0.1161592E+00
         -1   -1    0    0    0  501 -0.00000000000E+00  0.00000000000E+00  0.11288810594E+03  0.11288810594E+03  0.00000000000E+00 0. -1.
          1   -1    0    0  501    0  0.00000000000E+00 -0.00000000000E+00 -0.36388146857E+03  0.36388146857E+03  0.00000000000E+00 0.  1.
         25    2    1    2    0    0  0.12922160121E+03 -0.10614825392E+03 -0.17184456241E+03  0.27044679824E+03  0.12508094586E+03 0.  0.
         23    2    1    2    0    0 -0.12922160121E+03  0.10614825392E+03 -0.79148800219E+02  0.20632277628E+03  0.91317475909E+02 0.  0.
          5    1    3    3  502    0  0.74554712208E+02 -0.11151989316E+03 -0.16827566351E+03  0.21524233555E+03  0.41800000000E+01 0. -1.
         -5    1    3    3    0  502  0.54666889001E+02  0.53716392359E+01 -0.35688988978E+01  0.55204462686E+02  0.41800000000E+01 0.  1.
        -11    1    4    4    0    0 -0.63824068851E+02  0.58325392416E+01 -0.24917278806E+01  0.64138436110E+02  0.00000000000E+00 0. -1.
         11    1    4    4    0    0 -0.65397532357E+02  0.10031571468E+03 -0.76657072338E+02  0.14218434017E+03  0.00000000000E+00 0.  1.
</event>
<event>
 8    1  0.7224195E-009  0.9976500E+02  0.7561462E-02  0.1280791E+00
          2   -1    0    0  501    0  0.00000000000E+00  0.00000000000E+00  0.88093730498E+03  0.88093730498E+03  0.00000000000E+00 0. -1.
         -2   -1    0    0    0  501 -0.00000000000E+00 -0.00000000000E+00 -0.17562618755E+02  0.17562618755E+02  0.00000000000E+00 0.  1.
         25    2    1    2    0    0 -0.41557425285E+02  0.20831459772E+02  0.61176779760E+03  0.62615374675E+03  0.12509079535E+03 0.  0.
         23    2    1    2    0    0  0.41557425285E+02 -0.20831459772E+02  0.25160688863E+03  0.27234617699E+03  0.93302971013E+02 0.  0.
          5    1    3    3  502    0 -0.54481519466E+02  0.66226477137E+02  0.37723962421E+03  0.38688679056E+03  0.41800000000E+01 0. -1.
         -5    1    3    3    0  502  0.12924094181E+02 -0.45395017365E+02  0.23452817339E+03  0.23926695620E+03  0.41800000000E+01 0. -1.
        -11    1    4    4    0    0  0.19956054596E+01  0.13658062417E+02 -0.14728518611E+01  0.13881440946E+02  0.00000000000E+00 0.  1.
         11    1    4    4    0    0  0.39561819826E+02 -0.34489522189E+02  0.25307974049E+03  0.25846473604E+03  0.00000000000E+00 0. -1.
</event>
<event>
 8    1  0.7224195E-009  0.1351042E+03  0.7561462E-02  0.1220073E+00
         -1   -1    0    0    0  501 -0.00000000000E+00  0.00000000000E+00  0.68176424763E+02  0.68176424763E+02  0.00000000000E+00 0.  1.
          1   -1    0    0  501    0  0.00000000000E+00 -0.00000000000E+00 -0.38511717951E+03  0.38511717951E+03  0.00000000000E+00 0. -1.
         25    2    1    2    0    0 -0.11912788136E+03  0.86557235918E+01 -0.19336661408E+03  0.25942940603E+03  0.12508635258E+03 0.  0.
         23    2    1    2    0    0  0.11912788136E+03 -0.86557235918E+01 -0.12357414066E+03  0.19386419824E+03  0.89701646860E+02 0.  0.
          5    1    3    3  502    0 -0.87484818658E+02 -0.26744731067E+02 -0.19086669068E+03  0.21169893752E+03  0.41800000000E+01 0. -1.
         -5    1    3    3    0  502 -0.31643062707E+02  0.35400454659E+02 -0.24999234053E+01  0.47730468514E+02  0.41800000000E+01 0. -1.
        -11    1    4    4    0    0  0.94155743465E+02 -0.29253555662E+02 -0.44019681959E+02  0.10797595541E+03  0.00000000000E+00 0.  1.
         11    1    4    4    0    0  0.24972137900E+02  0.20597832071E+02 -0.79554458703E+02  0.85888242832E+02  0.00000000000E+00 0. -1.
</event>
<event>
 8    1  0.7224195E-009  0.1173276E+03  0.7561462E-02  0.1247572E+00
         -4   -1    0    0    0  501 -0.00000000000E+00  0.00000000000E+00  0.26315026978E+02  0.26315026978E+02  0.00000000000E+00 0.  1.
          4   -1    0    0  501    0  0.00000000000E+00 -0.00000000000E+00 -0.72993178510E+03  0.72993178510E+03  0.00000000000E+00 0. -1.
         25    2    1    2    0    0  0.54245272048E+02 -0.57965933831E+02 -0.46868632420E+03  0.49154541480E+03  0.12508966900E+03 0.  0.
         23    2    1    2    0    0 -0.54245272048E+02  0.57965933831E+02 -0.23493043392E+03  0.26470139728E+03  0.92584674302E+02 0.  0.
          5    1    3    3  502    0  0.43874935704E+02  0.11562923618E+02 -0.52815840167E+02  0.69754545071E+02  0.41800000000E+01 0.  1.
         -5    1    3    3    0  502  0.10370336345E+02 -0.69528857449E+02 -0.41587048403E+03  0.42179086972E+03  0.41800000000E+01 0.  1.
        -11    1    4    4    0    0  0.20142551132E+02 -0.55056947589E+01 -0.69104849003E+02  0.72190824878E+02  0.00000000000E+00 0. -1.
         11    1    4    4    0    0 -0.74387823180E+02  0.63471628590E+02 -0.16582558492E+03  0.19251057240E+03  0.00000000000E+00 0.  1.
</event>
<event>
 8    1  0.7224195E-009  0.2727579E+03  0.7561462E-02  0.1099711E+00
          1   -1    0    0  501    0  0.00000000000E+00  0.00000000000E+00  0.86261912555E+03  0.86261912555E+03  0.00000000000E+00 0. -1.
         -1   -1    0    0    0  501 -0.00000000000E+00 -0.00000000000E+00 -0.88268722293E+02  0.88268722293E+02  0.00000000000E+00 0.  1.
         25    2    1    2    0    0 -0.21205073542E+03  0.13481014086E+03  0.44710127426E+03  0.52790808426E+03  0.12509239587E+03 0.  0.
         23    2    1    2    0    0  0.21205073542E+03 -0.13481014086E+03  0.32724912899E+03  0.42297976358E+03  0.93169734936E+02 0.  0.
          5    1    3    3  502    0 -0.11502862279E+03  0.82817166981E+00  0.17623158406E+03  0.21049302494E+03  0.41800000000E+01 0.  1.
         -5    1    3    3    0  502 -0.97022112626E+02  0.13398196919E+03  0.27086969021E+03  0.31741505931E+03  0.41800000000E+01 0.  1.
        -11    1    4    4    0    0  0.50935960618E+02 -0.79830384772E+02  0.87458340754E+02  0.12890432027E+03  0.00000000000E+00 0. -1.
         11    1    4    4    0    0  0.16111477480E+03 -0.54979756091E+02  0.23979078824E+03  0.29407544331E+03  0.00000000000E+00 0.  1.
</event>
<event>
 8    1  0.7224195E-009  0.1326872E+03  0.7561462E-02  0.1223522E+00
         -1   -1    0    0    0  501 -0.00000000000E+00  0.00000000000E+00  0.29852175459E+03  0.29852175459E+03  0.00000000000E+00 0.  1.
          1   -1    0    0  501    0  0.00000000000E+00 -0.00000000000E+00 -0.90495783557E+02  0.90495783557E+02  0.00000000000E+00 0. -1.
         25    2    1    2    0    0  0.54821961553E+02 -0.10136294491E+03  0.58964567791E+02  0.18001133319E+03  0.12508943102E+03 0.  0.
         23    2    1    2    0    0 -0.54821961553E+02  0.10136294491E+03  0.14906140324E+03  0.20900620495E+03  0.90467661085E+02 0.  0.
          5    1    3    3  502    0  0.64353178505E+02 -0.91323303722E+02  0.91460605849E+02  0.14444304140E+03  0.41800000000E+01 0.  1.
         -5    1    3    3    0  502 -0.95312169517E+01 -0.10039641191E+02 -0.32496038058E+02  0.35568291796E+02  0.41800000000E+01 0.  1.
        -11    1    4    4    0    0  0.18507616038E+02  0.74152487358E+01  0.50701798407E+02  0.54481098805E+02  0.00000000000E+00 0.  1.
         11    1    4    4    0    0 -0.73329577592E+02  0.93947696177E+02  0.98359604835E+02  0.15452510615E+03  0.00000000000E+00 0. -1.
</event>
<event>
 8    1  0.7224195E-009  0.1353468E+03  0.7561462E-02  0.1219731E+00
         -1   -1    0    0    0  501 -0.00000000000E+00  0.00000000000E+00  0.94781154301E+02  0.94781154301E+02  0.00000000000E+00 0.  1.
          1   -1    0    0  501    0  0.00000000000E+00 -0.00000000000E+00 -0.27317287139E+03  0.27317287139E+03  0.00000000000E+00 0. -1.
         25    2    1    2    0    0  0.10601992944E+03  0.97534446962E+01 -0.15438197436E+03  0.22542410524E+03  0.12508748176E+03 0.  0.
         23    2    1    2    0    0 -0.10601992944E+03 -0.97534446962E+01 -0.24009742731E+02  0.14252992045E+03  0.91667635266E+02 0.  0.
          5    1    3    3  502    0  0.18835131347E+02 -0.52962283028E+02 -0.60849591794E+02  0.82945227819E+02  0.41800000000E+01 0. -1.
         -5    1    3    3    0  502  0.87184798096E+02  0.62715727724E+02 -0.93532382562E+02  0.14247887742E+03  0.41800000000E+01 0. -1.
        -11    1    4    4    0    0 -0.56690345888E+02 -0.97172632856E+01 -0.58732302715E+02  0.82205254727E+02  0.00000000000E+00 0. -1.
         11    1    4    4    0    0 -0.49329583555E+02 -0.36181410618E-01  0.34722559984E+02  0.60324665724E+02  0.00000000000E+00 0.  1.
</event>
<event>
 8    1  0.7224195E-009  0.1266583E+03  0.7561462E-02  0.1232500E+00
         -1   -1    0    0    0  501 -0.00000000000E+00  0.00000000000E+00  0.11100756790E+03  0.11100756790E+03  0.00000000000E+00 0.  1.
          1   -1    0    0  501    0  0.00000000000E+00 -0.00000000000E+00 -0.19111002457E+03  0.19111002457E+03  0.00000000000E+00 0. -1.
         25    2    1    2    0    0  0.31482904033E+02 -0.80639437655E+02 -0.86880101600E+02  0.17518165505E+03  0.12508624250E+03 0.  0.
         23    2    1    2    0    0 -0.31482904033E+02  0.80639437655E+02  0.67776449249E+01  0.12693593741E+03  0.92589975613E+02 0.  0.
          5    1    3    3  502    0  0.74592737204E+02 -0.59671707549E+02 -0.29011161186E+02  0.99919512603E+02  0.41800000000E+01 0.  1.
         -5    1    3    3    0  502 -0.43109833171E+02 -0.20967730106E+02 -0.57868940414E+02  0.75262142452E+02  0.41800000000E+01 0.  1.
        -11    1    4    4    0    0 -0.38178439420E+02  0.11155010949E+02 -0.28296905887E+02  0.48813342322E+02  0.00000000000E+00 0.  1.
         11    1    4    4    0    0  0.66955353867E+01  0.69484426706E+02  0.35074550812E+02  0.78122595089E+02  0.00000000000E+00 0. -1.
</event>
<event>
 8    1  0.7224195E-009  0.1041215E+03  0.7561462E-02  0.1271860E+00
          1   -1    0    0  501    0  0.00000000000E+00  0.00000000000E+00  0.53503571290E+03  0.53503571290E+03  0.00000000000E+00 0. -1.
         -1   -1    0    0    0  501 -0.00000000000E+00 -0.00000000000E+00 -0.26377479710E+02  0.26377479710E+02  0.00000000000E+00 0.  1.
         25    2    1    2    0    0 -0.36485726487E+02 -0.31399970179E+01  0.22411683699E+03  0.25926214790E+03  0.12508971538E+03 0.  0.
         23    2    1    2    0    0  0.36485726487E+02  0.31399970179E+01  0.28454139620E+03  0.30215104471E+03  0.94817613597E+02 0.  0.
          5    1    3    3  502    0  0.24617400207E+02  0.31298717941E+02  0.22888621737E+02  0.46119275176E+02  0.41800000000E+01 0.  1.
         -5    1    3    3    0  502 -0.61103126693E+02 -0.34438714959E+02  0.20122821525E+03  0.21314287272E+03  0.41800000000E+01 0.  1.
        -11    1    4    4    0    0  0.44277110862E+02 -0.36598448210E+02  0.20497616554E+03  0.21287352441E+03  0.00000000000E+00 0.  1.
         11    1    4    4    0    0 -0.77913843753E+01  0.39738445228E+02  0.79565230663E+02  0.89277520296E+02  0.00000000000E+00 0. -1.
</event>
<event>
 8    1  0.7224195E-009  0.4340829E+03  0.7561462E-02  0.1032578E+00
          1   -1    0    0  501    0  0.00000000000E+00  0.00000000000E+00  0.10086697752E+04  0.10086697752E+04  0.00000000000E+00 0.  1.
         -1   -1    0    0    0  501 -0.00000000000E+00 -0.00000000000E+00 -0.21420212380E+03  0.21420212380E+03  0.00000000000E+00 0. -1.
         25    2    1    2    0    0  0.93821622140E+01 -0.42044249836E+03  0.61759134516E+03  0.75757955406E+03  0.12509113368E+03 0.  0.
         23    2    1    2    0    0 -0.93821622140E+01  0.42044249836E+03  0.17687630624E+03  0.46529234493E+03  0.91388287796E+02 0.  0.
          5    1    3    3  502    0 -0.45823694730E+02 -0.71429898589E+02  0.10707358542E+03  0.13669040386E+03  0.41800000000E+01 0. -1.
         -5    1    3    3    0  502  0.55205856944E+02 -0.34901259977E+03  0.51051775973E+03  0.62088915021E+03  0.41800000000E+01 0. -1.
        -11    1    4    4    0    0  0.37989310497E+02  0.25189278021E+03  0.93329709480E+02  0.27129982511E+03  0.00000000000E+00 0. -1.
         11    1    4    4    0    0 -0.47371472711E+02  0.16854971815E+03  0.83546596764E+02  0.19399251982E+03  0.00000000000E+00 0.  1.
</event>
<event>
 8    1  0.7224195E-009  0.1106889E+03  0.7561462E-02  0.1259300E+00
         -1   -1    0    0    0  501 -0.00000000000E+00  0.00000000000E+00  0.28883207226E+02  0.28883207226E+02  0.00000000000E+00 0.  1.
          1   -1    0    0  501    0  0.00000000000E+00 -0.00000000000E+00 -0.56813039474E+03  0.56813039474E+03  0.00000000000E+00 0. -1.
         25    2    1    2    0    0 -0.23436778833E+02 -0.50337072174E+02 -0.20839979568E+03  0.24932366138E+03  0.12509480345E+03 0.  0.
         23    2    1    2    0    0  0.23436778833E+02  0.50337072174E+02 -0.33084739184E+03  0.34768994058E+03  0.91352036980E+02 0.  0.
          5    1    3    3  502    0 -0.65350867207E+02 -0.20077114394E+02 -0.56421816830E+02  0.88739620134E+02  0.41800000000E+01 0.  1.
         -5    1    3    3    0  502  0.41914088375E+02 -0.30259957780E+02 -0.15197797885E+03  0.16058404125E+03  0.41800000000E+01 0.  1.
        -11    1    4    4    0    0  0.14246783296E+02  0.74144354226E+02 -0.28878555819E+03  0.29849196760E+03  0.00000000000E+00 0.  1.
         11    1    4    4    0    0  0.91899955365E+01 -0.23807282052E+02 -0.42061833642E+02  0.49197972987E+02  0.00000000000E+00 0. -1.
</event>
<event>
 8    1  0.7224195E-009  0.7883784E+02  0.7561462E-02  0.1332382E+00
         -1   -1    0    0    0  501 -0.00000000000E+00  0.00000000000E+00  0.18261847474E+03  0.18261847474E+03  0.00000000000E+00 0.  1.
          1   -1    0    0  501    0  0.00000000000E+00 -0.00000000000E+00 -0.10714435670E+03  0.10714435670E+03  0.00000000000E+00 0. -1.
         25    2    1    2    0    0 -0.70731884388E+00  0.39644676462E+02 -0.36601552042E+02  0.13623396646E+03  0.12509124404E+03 0.  0.
         23    2    1    2    0    0  0.70731884388E+00 -0.39644676462E+02  0.11207567008E+03  0.15352886497E+03  0.97149142468E+02 0.  0.
          5    1    3    3  502    0 -0.14949145182E+02  0.64049993590E+01 -0.78762060281E+02  0.80532201623E+02  0.41800000000E+01 0. -1.
         -5    1    3    3    0  502  0.14241826338E+02  0.33239677103E+02  0.42160508239E+02  0.55701764841E+02  0.41800000000E+01 0. -1.
        -11    1    4    4    0    0  0.44683058903E+02 -0.40773888082E+02  0.71815260685E+02  0.93896311799E+02  0.00000000000E+00 0.  1.
         11    1    4    4    0    0 -0.43975740059E+02  0.11292116200E+01  0.40260409399E+02  0.59632553170E+02  0.00000000000E+00 0. -1.
</event>
<event>
 8    1  0.7224195E-009  0.9396489E+02  0.7561462E-02  0.1293525E+00
          1   -1    0    0  501    0  0.00000000000E+00  0.00000000000E+00  0.10852952461E+03  0.10852952461E+03  0.00000000000E+00 0. -1.
         -1   -1    0    0    0  501 -0.00000000000E+00 -0.00000000000E+00 -0.14807706258E+03  0.14807706258E+03  0.00000000000E+00 0.  1.
         25    2    1    2    0    0  0.57302176763E+02  0.62033860673E+01 -0.83232128123E+01  0.13797980839E+03  0.12508848944E+03 0.  0.
         23    2    1    2    0    0 -0.57302176763E+02 -0.62033860673E+01 -0.31224325162E+02  0.11862677880E+03  0.98870282223E+02 0.  0.
          5    1    3    3  502    0 -0.79471929538E+01 -0.13335362571E+02  0.47290173486E+02  0.49948199958E+02  0.41800000000E+01 0.  1.
         -5    1    3    3    0  502  0.65249369717E+02  0.19538748639E+02 -0.55613386298E+02  0.88031608428E+02  0.41800000000E+01 0.  1.
        -11    1    4    4    0    0  0.22280310978E+02 -0.88817228512E+01 -0.30749513891E+02  0.38997818690E+02  0.00000000000E+00 0.  1.
         11    1    4    4    0    0 -0.79582487741E+02  0.26783367839E+01 -0.47481127115E+00  0.79628960113E+02  0.00000000000E+00 0. -1.
</event>
<event>
 8    1  0.7224195E-009  0.7036799E+02  0.7561462E-02  0.1358846E+00
          1   -1    0    0  501    0  0.00000000000E+00  0.00000000000E+00  0.20072554910E+03  0.20072554910E+03  0.00000000000E+00 0. -1.
         -1   -1    0    0    0  501 -0.00000000000E+00 -0.00000000000E+00 -0.73102064966E+02  0.73102064966E+02  0.00000000000E+00 0.  1.
         25    2    1    2    0    0 -0.97179642453E+00 -0.25353229172E+02  0.12639548298E+03  0.17963086343E+03  0.12509076050E+03 0.  0.
         23    2    1    2    0    0  0.97179642453E+00  0.25353229172E+02  0.12280011622E+01  0.94196750641E+02  0.90707161937E+02 0.  0.
          5    1    3    3  502    0  0.52757547693E+01  0.21445284767E+02 -0.17271969489E+02  0.28346554591E+02  0.41800000000E+01 0. -1.
         -5    1    3    3    0  502 -0.62475511939E+01 -0.46798513939E+02  0.14366745246E+03  0.15128430884E+03  0.41800000000E+01 0. -1.
        -11    1    4    4    0    0 -0.14029483097E+02 -0.19240068400E+02  0.30568857505E+02  0.38748699038E+02  0.00000000000E+00 0. -1.
         11    1    4    4    0    0  0.15001279521E+02  0.44593297572E+02 -0.29340856343E+02  0.55448051603E+02  0.00000000000E+00 0.  1.
</event>
<event>
 8    1  0.7224195E-009  0.1479826E+03  0.7561462E-02  0.1202974E+00
         -1   -1    0    0    0  501 -0.00000000000E+00  0.00000000000E+00  0.29164882208E+02  0.29164882208E+02  0.00000000000E+00 0.  1.
          1   -1    0    0  501    0  0.00000000000E+00 -0.00000000000E+00 -0.95844251461E+03  0.95844251461E+03  0.00000000000E+00 0. -1.
         25    2    1    2    0    0  0.10409646222E+03 -0.72091692080E+02 -0.47242352776E+03  0.50484183070E+03  0.12509196188E+03 0.  0.
         23    2    1    2    0    0 -0.10409646222E+03  0.72091692080E+02 -0.45685410464E+03  0.48276556612E+03  0.91179128036E+02 0.  0.
          5    1    3    3  502    0  0.12714089099E+03 -0.66951410225E+02 -0.44848303186E+03  0.47095838432E+03  0.41800000000E+01 0.  1.
         -5    1    3    3    0  502 -0.23044428766E+02 -0.51402818557E+01 -0.23940495902E+02  0.33883446382E+02  0.41800000000E+01 0.  1.
        -11    1    4    4    0    0 -0.90317681238E+02  0.53097946134E+02 -0.44362375367E+03  0.45582750054E+03  0.00000000000E+00 0. -1.
         11    1    4    4    0    0 -0.13778780982E+02  0.18993745946E+02 -0.13230350973E+02  0.26938065581E+02  0.00000000000E+00 0.  1.
</event>
<event>
 8    1  0.7224195E-009  0.1764017E+03  0.7561462E-02  0.1171332E+00
         -2   -1    0    0    0  501 -0.00000000000E+00  0.00000000000E+00  0.80212376684E+02  0.80212376684E+02  0.00000000000E+00 0.  1.
          2   -1    0    0  501    0  0.00000000000E+00 -0.00000000000E+00 -0.59251578696E+03  0.59251578696E+03  0.00000000000E+00 0. -1.
         25    2    1    2    0    0 -0.66464524543E+02  0.12750132290E+03 -0.45477914035E+03  0.49309815351E+03  0.12509037584E+03 0.  0.
         23    2    1    2    0    0  0.66464524543E+02 -0.12750132290E+03 -0.57524269926E+02  0.17963001014E+03  0.91015265474E+02 0.  0.
          5    1    3    3  502    0 -0.90912714896E+02  0.44093744600E+02 -0.28320696518E+03  0.30072086321E+03  0.41800000000E+01 0.  1.
         -5    1    3    3    0  502  0.24448190352E+02  0.83407578296E+02 -0.17157217517E+03  0.19237729030E+03  0.41800000000E+01 0.  1.
        -11    1    4    4    0    0 -0.60040502314E+01 -0.74829835259E+02 -0.37962688314E+01  0.75166245889E+02  0.00000000000E+00 0. -1.
         11    1    4    4    0    0  0.72468574775E+02 -0.52671487637E+02 -0.53728001095E+02  0.10446376425E+03  0.00000000000E+00 0.  1.
</event>
<event>
 8    1  0.7224195E-009  0.1028165E+03  0.7561462E-02  0.1274482E+00
          2   -1    0    0  501    0  0.00000000000E+00  0.00000000000E+00  0.13675029900E+04  0.13675029900E+04  0.00000000000E+00 0. -1.
         -2   -1    0    0    0  501 -0.00000000000E+00 -0.00000000000E+00 -0.99068355681E+01  0.99068355681E+01  0.00000000000E+00 0.  1.
         25    2    1    2    0    0 -0.29419915850E+01 -0.49637342233E+01  0.10994790247E+04  0.11065873935E+04  0.12509292434E+03 0.  0.
         23    2    1    2    0    0  0.29419915850E+01  0.49637342233E+01  0.25811712980E+03  0.27082243214E+03  0.81774342440E+02 0.  0.
          5    1    3    3  502    0 -0.51203932051E+01 -0.64703696554E+02  0.53655054486E+03  0.54047825707E+03  0.41800000000E+01 0. -1.
         -5    1    3    3    0  502  0.21784016202E+01  0.59739962331E+02  0.56292847980E+03  0.56610913639E+03  0.41800000000E+01 0. -1.
        -11    1    4    4    0    0  0.21985608557E+02 -0.32152289798E+02  0.14887842507E+03  0.15388931794E+03  0.00000000000E+00 0.  1.
         11    1    4    4    0    0 -0.19043616972E+02  0.37116024022E+02  0.10923870473E+03  0.11693311420E+03  0.00000000000E+00 0. -1.
</event>
<event>
 8    1  0.7224195E-009  0.1088290E+03  0.7561462E-02  0.1262754E+00
         -1   -1    0    0    0  501 -0.00000000000E+00  0.00000000000E+00  0.74761933918E+01  0.74761933918E+01  0.00000000000E+00 0.  1.
          1   -1    0    0  501    0  0.00000000000E+00 -0.00000000000E+00 -0.23434425690E+04  0.23434425690E+04  0.00000000000E+00 0. -1.
         25    2    1    2    0    0  0.27301959597E+02 -0.25353467670E+02 -0.17910535711E+04  0.17958032094E+04  0.12509227429E+03 0.  0.
         23    2    1    2    0    0 -0.27301959597E+02  0.25353467670E+02 -0.54491280448E+03  0.55511555294E+03  0.99172159978E+02 0.  0.
          5    1    3    3  502    0  0.58046955399E+01  0.41475456402E+02 -0.11741500033E+04  0.11749040857E+04  0.41800000000E+01 0.  1.
         -5    1    3    3    0  502  0.21497264057E+02 -0.66828924072E+02 -0.61690356780E+03  0.62089912370E+03  0.41800000000E+01 0.  1.
        -11    1    4    4    0    0 -0.42790016736E+02  0.56254505646E+02 -0.39457856114E+03  0.40085882284E+03  0.00000000000E+00 0.  1.
         11    1    4    4    0    0  0.15488057139E+02 -0.30901037977E+02 -0.15033424334E+03  0.15425673011E+03  0.00000000000E+00 0. -1.
</event>
<event>
 8    1  0.7224195E-009  0.1732610E+03  0.7561462E-02  0.1174489E+00
         -2   -1    0    0    0  501 -0.00000000000E+00  0.00000000000E+00  0.63143970800E+02  0.63143970800E+02  0.00000000000E+00 0.  1.
          2   -1    0    0  501    0  0.00000000000E+00 -0.00000000000E+00 -0.54381304693E+03  0.54381304693E+03  0.00000000000E+00 0. -1.
         25    2    1    2    0    0  0.12097431021E+03 -0.86582505742E+02 -0.28310405887E+03  0.34340368970E+03  0.12508745708E+03 0.  0.
         23    2    1    2    0    0 -0.12097431021E+03  0.86582505742E+02 -0.19756501726E+03  0.26355332803E+03  0.91088455025E+02 0.  0.
          5    1    3    3  502    0  0.13874322912E+03 -0.98898110544E+02 -0.26408617372E+03  0.31430796911E+03  0.41800000000E+01 0.  1.
         -5    1    3    3    0  502 -0.17768918913E+02  0.12315604802E+02 -0.19017885148E+02  0.29095720587E+02  0.41800000000E+01 0.  1.
        -11    1    4    4    0    0 -0.11050005186E+03  0.60540361815E+02 -0.19890245119E+03  0.23545186761E+03  0.00000000000E+00 0.  1.
         11    1    4    4    0    0 -0.10474258353E+02  0.26042143926E+02  0.13374339327E+01  0.28101460422E+02  0.00000000000E+00 0. -1.
</event>
<event>
 8    1  0.7224195E-009  0.1145501E+03  0.7561462E-02  0.1252368E+00
         -2   -1    0    0    0  501 -0.00000000000E+00  0.00000000000E+00  0.23531662748E+03  0.23531662748E+03  0.00000000000E+00 0.  1.
          2   -1    0    0  501    0  0.00000000000E+00 -0.00000000000E+00 -0.86627622040E+02  0.86627622040E+02  0.00000000000E+00 0. -1.
         25    2    1    2    0    0  0.61156051378E+01  0.92522845947E+02  0.86892470221E+02  0.17831338474E+03  0.12508990426E+03 0.  0.
         23    2    1    2    0    0 -0.61156051378E+01 -0.92522845947E+02  0.61796535221E+02  0.14363086479E+03  0.90626353262E+02 0.  0.
          5    1    3    3  502    0  0.45625653643E+02  0.48292471497E+02 -0.72570752798E+01  0.66962680766E+02  0.41800000000E+01 0. -1.
         -5    1    3    3    0  502 -0.39510048506E+02  0.44230374449E+02  0.94149545501E+02  0.11135070397E+03  0.41800000000E+01 0. -1.
        -11    1    4    4    0    0  0.12621931463E+02 -0.78919871110E+02  0.80819721401E+02  0.11366391942E+03  0.00000000000E+00 0.  1.
         11    1    4    4    0    0 -0.18737536601E+02 -0.13602974837E+02 -0.19023186180E+02  0.29966945369E+02  0.00000000000E+00 0. -1.
</event>
<event>
 8    1  0.7224195E-009  0.9468029E+02  0.7561462E-02  0.1291898E+00
          3   -1    0    0  501    0  0.00000000000E+00  0.00000000000E+00  0.25227420541E+03  0.25227420541E+03  0.00000000000E+00 0. -1.
         -3   -1    0    0    0  501 -0.00000000000E+00 -0.00000000000E+00 -0.47621984133E+02  0.47621984133E+02  0.00000000000E+00 0.  1.
         25    2    1    2    0    0 -0.33625146228E+01 -0.39287795977E+01  0.14619967544E+03  0.19248099058E+03  0.12509134591E+03 0.  0.
         23    2    1    2    0    0  0.33625146228E+01  0.39287795977E+01  0.58452545838E+02  0.10741519897E+03  0.89969900746E+02 0.  0.
          5    1    3    3  502    0  0.52371760172E+02  0.14811194931E+02  0.11132775098E+03  0.12398997257E+03  0.41800000000E+01 0.  1.
         -5    1    3    3    0  502 -0.55734274795E+02 -0.18739974529E+02  0.34871924452E+02  0.68491018004E+02  0.41800000000E+01 0.  1.
        -11    1    4    4    0    0  0.25111015983E+02  0.31770680082E+02  0.59612695573E+02  0.72066724014E+02  0.00000000000E+00 0. -1.
         11    1    4    4    0    0 -0.21748501360E+02 -0.27841900485E+02 -0.11601497350E+01  0.35348474952E+02  0.00000000000E+00 0.  1.
</event>
<event>
 8    1  0.7224195E-009  0.1133516E+03  0.7561462E-02  0.1254486E+00
         -2   -1    0    0    0  501 -0.00000000000E+00  0.00000000000E+00  0.19762482714E+02  0.19762482714E+02  0.00000000000E+00 0.  1.
          2   -1    0    0  501    0  0.00000000000E+00 -0.00000000000E+00 -0.85920767677E+03  0.85920767677E+03  0.00000000000E+00 0. -1.
         25    2    1    2    0    0 -0.36487829000E+02 -0.31915761573E+02 -0.58514329448E+03  0.60032880905E+03  0.12510805890E+03 0.  0.
         23    2    1    2    0    0  0.36487829000E+02  0.31915761573E+02 -0.25430189958E+03  0.27864135043E+03  0.10306099427E+03 0.  0.
          5    1    3    3  502    0  0.31919491184E+02 -0.49527166954E+02 -0.19246357320E+03  0.20132434923E+03  0.41800000000E+01 0.  1.
         -5    1    3    3    0  502 -0.68407320184E+02  0.17611405381E+02 -0.39267972128E+03  0.39900445982E+03  0.41800000000E+01 0.  1.
        -11    1    4    4    0    0 -0.89349601651E+01 -0.23545332294E+02 -0.16110513271E+02  0.29895899783E+02  0.00000000000E+00 0.  1.
         11    1    4    4    0    0  0.45422789165E+02  0.55461093867E+02 -0.23819138630E+03  0.24874545065E+03  0.00000000000E+00 0. -1.
</event>
<event>
 8    1  0.7224195E-009  0.3204018E+03  0.7561462E-02  0.1075465E+00
          2   -1    0    0  501    0  0.00000000000E+00  0.00000000000E+00  0.52331285054E+03  0.52331285054E+03  0.00000000000E+00 0. -1.
         -2   -1    0    0    0  501 -0.00000000000E+00 -0.00000000000E+00 -0.30316689292E+03  0.30316689292E+03  0.00000000000E+00 0.  1.
         25    2    1    2    0    0  0.38488223601E+02 -0.30703100875E+03  0.34607487424E+03  0.48079560386E+03  0.12508881014E+03 0.  0.
         23    2    1    2    0    0 -0.38488223601E+02  0.30703100875E+03 -0.12592891662E+03  0.34568413960E+03  0.88825945769E+02 0.  0.
          5    1    3    3  502    0 -0.24030483638E+02 -0.73111279203E+02  0.15212827175E+03  0.17053799212E+03  0.41800000000E+01 0. -1.
         -5    1    3    3    0  502  0.62518707239E+02 -0.23391972954E+03  0.19394660249E+03  0.31025761174E+03  0.41800000000E+01 0. -1.
        -11    1    4    4    0    0 -0.56922122405E+02  0.11171649038E+03 -0.41094257371E+02  0.13194483783E+03  0.00000000000E+00 0.  1.
         11    1    4    4    0    0  0.18433898804E+02  0.19531451837E+03 -0.84834659248E+02  0.21373930177E+03  0.00000000000E+00 0. -1.
</event>
<event>
 8    1  0.7224195E-009  0.2255911E+03  0.7561462E-02  0.1129782E+00
         -2   -1    0    0    0  501 -0.00000000000E+00  0.00000000000E+00  0.29676362804E+03  0.29676362804E+03  0.00000000000E+00 0.  1.
          2   -1    0    0  501    0  0.00000000000E+00 -0.00000000000E+00 -0.22916320130E+03  0.22916320130E+03  0.00000000000E+00 0. -1.
         25    2    1    2    0    0 -0.21403442690E+03 -0.37485308743E+02  0.13552850461E+03  0.28501146428E+03  0.12509066686E+03 0.  0.
         23    2    1    2    0    0  0.21403442690E+03  0.37485308743E+02 -0.67928077877E+02  0.24091536507E+03  0.78804220002E+02 0.  0.
          5    1    3    3  502    0 -0.44845010670E+02  0.25814782206E+02  0.81114924245E+02  0.96304627602E+02  0.41800000000E+01 0.  1.
         -5    1    3    3    0  502 -0.16918941623E+03 -0.63300090949E+02  0.54413580368E+02  0.18870683667E+03  0.41800000000E+01 0.  1.
        -11    1    4    4    0    0  0.10333485158E+02 -0.32725609040E+01 -0.27121020823E+02  0.29206854347E+02  0.00000000000E+00 0. -1.
         11    1    4    4    0    0  0.20370094174E+03  0.40757869647E+02 -0.40807057054E+02  0.21170851072E+03  0.00000000000E+00 0.  1.
</event>
<event>
 8    1  0.7224195E-009  0.1002372E+03  0.7561462E-02  0.1279798E+00
          1   -1    0    0  501    0  0.00000000000E+00  0.00000000000E+00  0.10178487979E+04  0.10178487979E+04  0.00000000000E+00 0. -1.
         -1   -1    0    0    0  501 -0.00000000000E+00 -0.00000000000E+00 -0.17524977716E+02  0.17524977716E+02  0.00000000000E+00 0.  1.
         25    2    1    2    0    0  0.26660058109E+02  0.79998636190E+02  0.58739886699E+03  0.60646527873E+03  0.12510861232E+03 0.  0.
         23    2    1    2    0    0 -0.26660058109E+02 -0.79998636190E+02  0.41292495318E+03  0.42890849687E+03  0.79655139420E+02 0.  0.
          5    1    3    3  502    0  0.39353143648E+01  0.55141212128E+02  0.76690745266E+02  0.94630770807E+02  0.41800000000E+01 0. -1.
         -5    1    3    3    0  502  0.22724743744E+02  0.24857424062E+02  0.51070812172E+03  0.51183450792E+03  0.41800000000E+01 0. -1.
        -11    1    4    4    0    0 -0.15203174519E+02  0.11387966411E+02  0.33954043067E+02  0.38906289145E+02  0.00000000000E+00 0.  1.
         11    1    4    4    0    0 -0.11456883590E+02 -0.91386602602E+02  0.37897091012E+03  0.39000220773E+03  0.00000000000E+00 0. -1.
</event>
<event>
 8    1  0.7224195E-009  0.1064750E+03  0.7561462E-02  0.1267241E+00
          3   -1    0    0  501    0  0.00000000000E+00  0.00000000000E+00  0.68084395563E+02  0.68084395563E+02  0.00000000000E+00 0. -1.
         -3   -1    0    0    0  501 -0.00000000000E+00 -0.00000000000E+00 -0.20883488803E+03  0.20883488803E+03  0.00000000000E+00 0.  1.
         25    2    1    2    0    0  0.20935379619E+02 -0.20672032383E+02 -0.12240663520E+03  0.17747162332E+03  0.12508864737E+03 0.  0.
         23    2    1    2    0    0 -0.20935379619E+02  0.20672032383E+02 -0.18343857272E+02  0.99447660272E+02  0.93207923436E+02 0.  0.
          5    1    3    3  502    0 -0.35062532539E+02 -0.42586212423E+02 -0.20354611653E+02  0.58947004099E+02  0.41800000000E+01 0. -1.
         -5    1    3    3    0  502  0.55997912159E+02  0.21914180040E+02 -0.10205202354E+03  0.11852461923E+03  0.41800000000E+01 0. -1.
        -11    1    4    4    0    0  0.25010836617E+02 -0.22986660758E+02 -0.21869523875E+01  0.34039848440E+02  0.00000000000E+00 0. -1.
         11    1    4    4    0    0 -0.45946216236E+02  0.43658693141E+02 -0.16156904884E+02  0.65407811832E+02  0.00000000000E+00 0.  1.
</event>
<event>
 8    1  0.7224195E-009  0.1082019E+03  0.7561462E-02  0.1263936E+00
          1   -1    0    0  501    0  0.00000000000E+00  0.00000000000E+00  0.69422178865E+03  0.69422178865E+03  0.00000000000E+00 0. -1.
         -1   -1    0    0    0  501 -0.00000000000E+00 -0.00000000000E+00 -0.22375932066E+02  0.22375932066E+02  0.00000000000E+00 0.  1.
         25    2    1    2    0    0  0.39291070843E+02  0.18893613744E+02  0.49626731338E+03  0.51364273528E+03  0.12508739460E+03 0.  0.
         23    2    1    2    0    0 -0.39291070843E+02 -0.18893613744E+02  0.17557854320E+03  0.20295498543E+03  0.91989914616E+02 0.  0.
          5    1    3    3  502    0  0.42409940310E+02  0.68143168522E+02  0.25582365880E+03  0.26815165720E+03  0.41800000000E+01 0.  1.
         -5    1    3    3    0  502 -0.31188694676E+01 -0.49249554778E+02  0.24044365458E+03  0.24549107809E+03  0.41800000000E+01 0.  1.
        -11    1    4    4    0    0 -0.12528147002E+02 -0.46440497297E+02  0.41645970023E+02  0.63624374854E+02  0.00000000000E+00 0.  1.
         11    1    4    4    0    0 -0.26762923840E+02  0.27546883553E+02  0.13393257318E+03  0.13933061058E+03  0.00000000000E+00 0. -1.
</event>
<event>
 8    1  0.7224195E-009  0.1092981E+03  0.7561462E-02  0.1261875E+00
         -2   -1    0    0    0  501 -0.00000000000E+00  0.00000000000E+00  0.11330065716E+03  0.11330065716E+03  0.00000000000E+00 0.  1.
          2   -1    0    0  501    0  0.00000000000E+00 -0.00000000000E+00 -0.19367334923E+03  0.19367334923E+03  0.00000000000E+00 0. -1.
         25    2    1    2    0    0  0.34112533174E+02  0.73606251362E+02  0.86283044176E+01  0.14934806571E+03  0.12509537136E+03 0.  0.
         23    2    1    2    0    0 -0.34112533174E+02 -0.73606251362E+02 -0.89000996495E+02  0.15762594068E+03  0.10170159605E+03 0.  0.
          5    1    3    3  502    0  0.25901715226E+02 -0.33836286577E+01  0.53555918355E+02  0.59733211745E+02  0.41800000000E+01 0.  1.
         -5    1    3    3    0  502  0.82108179478E+01  0.76989880020E+02 -0.44927613937E+02  0.89614853963E+02  0.41800000000E+01 0.  1.
        -11    1    4    4    0    0 -0.40166804711E+02  0.57899409301E+00  0.18066387929E+01  0.40211582642E+02  0.00000000000E+00 0.  1.
         11    1    4    4    0    0  0.60542715370E+01 -0.74185245455E+02 -0.90807635288E+02  0.11741435804E+03  0.00000000000E+00 0. -1.
</event>
<event>
 8    1  0.7224195E-009  0.1198462E+03  0.7561462E-02  0.1243351E+00
         -2   -1    0    0    0  501 -0.00000000000E+00  0.00000000000E+00  0.35225026434E+02  0.35225026434E+02  0.00000000000E+00 0.  1.
          2   -1    0    0  501    0  0.00000000000E+00 -0.00000000000E+00 -0.47990447544E+03  0.47990447544E+03  0.00000000000E+00 0. -1.
         25    2    1    2    0    0 -0.71026814701E+02  0.49899885577E+00 -0.28716425966E+03  0.32117878724E+03  0.12508974354E+03 0.  0.
         23    2    1    2    0    0  0.71026814701E+02 -0.49899885577E+00 -0.15751518934E+03  0.19395071463E+03  0.88095331469E+02 0.  0.
          5    1    3    3  502    0 -0.96092477319E+02  0.33483700419E+02 -0.19313267402E+03  0.21834061593E+03  0.41800000000E+01 0.  1.
         -5    1    3    3    0  502  0.25065662619E+02 -0.32984701563E+02 -0.94031585644E+02  0.10283817131E+03  0.41800000000E+01 0.  1.
        -11    1    4    4    0    0 -0.89286800775E+01  0.12337890883E+02  0.17006823815E+01  0.15324398844E+02  0.00000000000E+00 0.  1.
         11    1    4    4    0    0  0.79955494778E+02 -0.12836889739E+02 -0.15921587173E+03  0.17862631579E+03  0.00000000000E+00 0. -1.
</event>
<event>
 8    1  0.7224195E-009  0.9052724E+02  0.7561462E-02  0.1301580E+00
          1   -1    0    0  501    0  0.00000000000E+00  0.00000000000E+00  0.31551757409E+02  0.31551757409E+02  0.00000000000E+00 0. -1.
         -1   -1    0    0    0  501 -0.00000000000E+00 -0.00000000000E+00 -0.53258097900E+03  0.53258097900E+03  0.00000000000E+00 0.  1.
         25    2    1    2    0    0  0.24974345478E+01  0.22588492965E+02 -0.42118349072E+03  0.43995402488E+03  0.12509010338E+03 0.  0.
         23    2    1    2    0    0 -0.24974345478E+01 -0.22588492965E+02 -0.79845730872E+02  0.12417871152E+03  0.92350064774E+02 0.  0.
          5    1    3    3  502    0  0.16229323085E+02 -0.40473087753E+02 -0.29425982997E+03  0.29750257426E+03  0.41800000000E+01 0.  1.
         -5    1    3    3    0  502 -0.13731888537E+02  0.63061580718E+02 -0.12692366075E+03  0.14245145062E+03  0.41800000000E+01 0.  1.
        -11    1    4    4    0    0 -0.31326913089E+02  0.60860556850E+01  0.28371096478E+01  0.32038488551E+02  0.00000000000E+00 0. -1.
         11    1    4    4    0    0  0.28829478541E+02 -0.28674548650E+02 -0.82682840520E+02  0.92140222974E+02  0.00000000000E+00 0.  1.
</event>
<event>
 8    1  0.7224195E-009  0.1067548E+03  0.7561462E-02  0.1266700E+00
         -2   -1    0    0    0  501 -0.00000000000E+00  0.00000000000E+00  0.32543875819E+02  0.32543875819E+02  0.00000000000E+00 0.  1.
          2   -1    0    0  501    0  0.00000000000E+00 -0.00000000000E+00 -0.42313562061E+03  0.42313562061E+03  0.00000000000E+00 0. -1.
         25    2    1    2    0    0  0.20781088618E+02  0.33512968589E+02 -0.18736275434E+03  0.22870862487E+03  0.12509140924E+03 0.  0.
         23    2    1    2    0    0 -0.20781088618E+02 -0.33512968589E+02 -0.20322899045E+03  0.22697087157E+03  0.93052572620E+02 0.  0.
          5    1    3    3  502    0  0.44226550409E+02 -0.30914043759E+02 -0.12384226767E+03  0.13515193496E+03  0.41800000000E+01 0. -1.
         -5    1    3    3    0  502 -0.23445461791E+02  0.64427012348E+02 -0.63520486671E+02  0.93556689903E+02  0.41800000000E+01 0. -1.
        -11    1    4    4    0    0 -0.13214559178E+02  0.26817903150E+02 -0.12138470782E+03  0.12501228658E+03  0.00000000000E+00 0.  1.
         11    1    4    4    0    0 -0.75665294396E+01 -0.60330871739E+02 -0.81844282636E+02  0.10195858499E+03  0.00000000000E+00 0. -1.
</event>
<event>
 8    1  0.7224195E-009  0.1420867E+03  0.7561462E-02  0.1210548E+00
         -3   -1    0    0    0  501 -0.00000000000E+00  0.00000000000E+00  0.26196685733E+02  0.26196685733E+02  0.00000000000E+00 0.  1.
          3   -1    0    0  501    0  0.00000000000E+00 -0.00000000000E+00 -0.77523956584E+03  0.77523956584E+03  0.00000000000E+00 0. -1.
         25    2    1    2    0    0 -0.23330133909E+02 -0.89674308932E+02 -0.41338652931E+03  0.44172622208E+03  0.12509138991E+03 0.  0.
         23    2    1    2    0    0  0.23330133909E+02  0.89674308932E+02 -0.33565635080E+03  0.35971002949E+03  0.90223847479E+02 0.  0.
          5    1    3    3  502    0  0.50987772579E+02 -0.46406997572E+02 -0.16651968869E+03  0.18027656946E+03  0.41800000000E+01 0. -1.
         -5    1    3    3    0  502 -0.74317906488E+02 -0.43267311360E+02 -0.24686684062E+03  0.26144965262E+03  0.41800000000E+01 0. -1.
        -11    1    4    4    0    0 -0.10234696874E+02  0.94537436143E+02 -0.25822993083E+03  0.27518134571E+03  0.00000000000E+00 0.  1.
         11    1    4    4    0    0  0.33564830784E+02 -0.48631272108E+01 -0.77426419969E+02  0.84528683777E+02  0.00000000000E+00 0. -1.
</event>
<event>
 8    1  0.7224195E-009  0.1073607E+03  0.7561462E-02  0.1265537E+00
         -2   -1    0    0    0  501 -0.00000000000E+00  0.00000000000E+00  0.42960222984E+03  0.42960222984E+03  0.00000000000E+00 0.  1.
          2   -1    0    0  501    0  0.00000000000E+00 -0.00000000000E+00 -0.35927961170E+02  0.35927961170E+02  0.00000000000E+00 0. -1.
         25    2    1    2    0    0 -0.23256572828E+02  0.61994990528E+01  0.31797480263E+03  0.34254382685E+03  0.12509594812E+03 0.  0.
         23    2    1    2    0    0  0.23256572828E+02 -0.61994990528E+01  0.75699466042E+02  0.12298636416E+03  0.93893208716E+02 0.  0.
          5    1    3    3  502    0 -0.58794895318E+02 -0.32323874637E+02  0.11833842644E+03  0.13609969933E+03  0.41800000000E+01 0. -1.
         -5    1    3    3    0  502  0.35538322489E+02  0.38523373690E+02  0.19963637619E+03  0.20644412751E+03  0.41800000000E+01 0. -1.
        -11    1    4    4    0    0  0.53951650079E+02  0.16862162643E+02  0.57023316903E+02  0.80291791273E+02  0.00000000000E+00 0. -1.
         11    1    4    4    0    0 -0.30695077251E+02 -0.23061661696E+02  0.18676149139E+02  0.42694572891E+02  0.00000000000E+00 0.  1.
</event>
<event>
 8    1  0.7224195E-009  0.9856824E+02  0.7561462E-02  0.1283336E+00
          2   -1    0    0  501    0  0.00000000000E+00  0.00000000000E+00  0.54959643105E+02  0.54959643105E+02  0.00000000000E+00 0.  1.
         -2   -1    0    0    0  501 -0.00000000000E+00 -0.00000000000E+00 -0.20282952696E+03  0.20282952696E+03  0.00000000000E+00 0. -1.
         25    2    1    2    0    0 -0.86821949510E+01  0.10618167936E+02 -0.90923830938E+02  0.15525177849E+03  0.12509134939E+03 0.  0.
         23    2    1    2    0    0  0.86821949510E+01 -0.10618167936E+02 -0.56946052916E+02  0.10253739157E+03  0.84160190878E+02 0.  0.
          5    1    3    3  502    0  0.40550439014E+02 -0.32637064386E+02 -0.13909372790E+02  0.54041272444E+02  0.41800000000E+01 0. -1.
         -5    1    3    3    0  502 -0.49232633965E+02  0.43255232322E+02 -0.77014458149E+02  0.10121050605E+03  0.41800000000E+01 0. -1.
        -11    1    4    4    0    0 -0.14874099711E+01 -0.44166562335E+02 -0.12490638211E+02  0.45922909967E+02  0.00000000000E+00 0. -1.
         11    1    4    4    0    0  0.10169604922E+02  0.33548394399E+02 -0.44455414706E+02  0.56614481607E+02  0.00000000000E+00 0.  1.
</event>
<event>
 8    1  0.7224195E-009  0.8994149E+02  0.7561462E-02  0.1302993E+00
          2   -1    0    0  501    0  0.00000000000E+00  0.00000000000E+00  0.73263996905E+03  0.73263996905E+03  0.00000000000E+00 0. -1.
         -2   -1    0    0    0  501 -0.00000000000E+00 -0.00000000000E+00 -0.20224862369E+02  0.20224862369E+02  0.00000000000E+00 0.  1.
         25    2    1    2    0    0  0.29383284739E+02 -0.43029105995E+02  0.33513671459E+03  0.36149670317E+03  0.12509343531E+03 0.  0.
         23    2    1    2    0    0 -0.29383284739E+02  0.43029105995E+02  0.37727839209E+03  0.39136812824E+03  0.90084101146E+02 0.  0.
          5    1    3    3  502    0  0.35452408525E+02  0.21828575596E+01  0.30402619687E+03  0.30612258806E+03  0.41800000000E+01 0.  1.
         -5    1    3    3    0  502 -0.60691237862E+01 -0.45211963554E+02  0.31110517714E+02  0.55374115112E+02  0.41800000000E+01 0.  1.
        -11    1    4    4    0    0  0.26210576290E+02  0.32458411702E+02  0.99647842312E+02  0.10802886317E+03  0.00000000000E+00 0. -1.
         11    1    4    4    0    0 -0.55593861030E+02  0.10570694292E+02  0.27763054978E+03  0.28333926508E+03  0.00000000000E+00 0.  1.
</event>
<event>
 8    1  0.7224195E-009  0.1168963E+03  0.7561462E-02  0.1248307E+00
          1   -1    0    0  501    0  0.00000000000E+00  0.00000000000E+00  0.46591974149E+02  0.46591974149E+02  0.00000000000E+00 0. -1.
         -1   -1    0    0    0  501 -0.00000000000E+00 -0.00000000000E+00 -0.34851194572E+03  0.34851194572E+03  0.00000000000E+00 0.  1.
         25    2    1    2    0    0  0.64388786679E+02 -0.17176877295E+02 -0.16992929319E+03  0.22127949005E+03  0.12509071537E+03 0.  0.
         23    2    1    2    0    0 -0.64388786679E+02  0.17176877295E+02 -0.13199067838E+03  0.17382442982E+03  0.91391642162E+02 0.  0.
          5    1    3    3  502    0  0.70896468805E+02 -0.62553129879E+02 -0.10117451184E+03  0.13853865018E+03  0.41800000000E+01 0. -1.
         -5    1    3    3    0  502 -0.65076821266E+01  0.45376252584E+02 -0.68754781343E+02  0.82740839872E+02  0.41800000000E+01 0. -1.
        -11    1    4    4    0    0 -0.16449511249E+02 -0.24560244056E+02 -0.96710984774E+02  0.10112767467E+03  0.00000000000E+00 0.  1.
         11    1    4    4    0    0 -0.47939275430E+02  0.41737121351E+02 -0.35279693610E+02  0.72696755145E+02  0.00000000000E+00 0. -1.
</event>
<event>
 8    1  0.7224195E-009  0.1153079E+03  0.7561462E-02  0.1251045E+00
          1   -1    0    0  501    0  0.00000000000E+00  0.00000000000E+00  0.20720275496E+03  0.20720275496E+03  0.00000000000E+00 0. -1.
         -1   -1    0    0    0  501 -0.00000000000E+00 -0.00000000000E+00 -0.75054984384E+02  0.75054984384E+02  0.00000000000E+00 0.  1.
         25    2    1    2    0    0 -0.36269874059E+01  0.46735501693E+02  0.31326134608E+02  0.13720846222E+03  0.12508986065E+03 0.  0.
         23    2    1    2    0    0  0.36269874059E+01 -0.46735501693E+02  0.10082163597E+03  0.14504927713E+03  0.93150031455E+02 0.  0.
          5    1    3    3  502    0  0.53558064153E+02 -0.41165653702E+01 -0.13472953446E+01  0.53895268354E+02  0.41800000000E+01 0.  1.
         -5    1    3    3    0  502 -0.57185051559E+02  0.50852067064E+02  0.32673429952E+02  0.83313193861E+02  0.41800000000E+01 0.  1.
        -11    1    4    4    0    0  0.44363447521E+02 -0.38050862305E+02  0.38137909110E+02  0.69788850896E+02  0.00000000000E+00 0.  1.
         11    1    4    4    0    0 -0.40736460115E+02 -0.86846393882E+01  0.62683726856E+02  0.75260426232E+02  0.00000000000E+00 0. -1.
</event>
<event>
 8    1  0.7224195E-009  0.1016679E+03  0.7561462E-02  0.1276827E+00
         -1   -1    0    0    0  501 -0.00000000000E+00  0.00000000000E+00  0.46064366067E+03  0.46064366067E+03  0.00000000000E+00 0.  1.
          1   -1    0    0  501    0  0.00000000000E+00 -0.00000000000E+00 -0.30191807778E+02  0.30191807778E+02  0.00000000000E+00 0. -1.
         25    2    1    2    0    0 -0.42586049730E+02  0.17781669919E+02  0.26576377429E+03  0.29733392427E+03  0.12508924567E+03 0.  0.
         23    2    1    2    0    0  0.42586049730E+02 -0.17781669919E+02  0.16468807860E+03  0.19350154417E+03  0.90503728920E+02 0.  0.
          5    1    3    3  502    0 -0.58322707465E+02 -0.33160537318E+02  0.82459008609E+02  0.10638665303E+03  0.41800000000E+01 0. -1.
         -5    1    3    3    0  502  0.15736657735E+02  0.50942207237E+02  0.18330476568E+03  0.19094727125E+03  0.41800000000E+01 0. -1.
        -11    1    4    4    0    0  0.61448429529E+02 -0.16994886817E+02  0.61439630810E+02  0.88541311847E+02  0.00000000000E+00 0. -1.
         11    1    4    4    0    0 -0.18862379799E+02 -0.78678310239E+00  0.10324844779E+03  0.10496023233E+03  0.00000000000E+00 0.  1.
</event>
<event>
 8    1  0.7224195E-009  0.1160110E+03  0.7561462E-02  0.1249827E+00
          1   -1    0    0  501    0  0.00000000000E+00  0.00000000000E+00  0.82189102379E+02  0.82189102379E+02  0.00000000000E+00 0.  1.
         -1   -1    0    0    0  501 -0.00000000000E+00 -0.00000000000E+00 -0.31232926824E+03  0.31232926824E+03  0.00000000000E+00 0. -1.
         25    2    1    2    0    0  0.97624090223E+02  0.17683146811E+02 -0.45444491707E+02  0.16600184559E+03  0.12509298238E+03 0.  0.
         23    2    1    2    0    0 -0.97624090223E+02 -0.17683146811E+02 -0.18469567416E+03  0.22851652503E+03  0.90907389613E+02 0.  0.
          5    1    3    3  502    0  0.82274015575E+02  0.93193780713E+01  0.30212599487E+02  0.88239095724E+02  0.41800000000E+01 0.  1.
         -5    1    3    3    0  502  0.15350074648E+02  0.83637687397E+01 -0.75657091194E+02  0.77762749869E+02  0.41800000000E+01 0.  1.
        -11    1    4    4    0    0 -0.98292670075E+02  0.14147167389E+02 -0.15962087807E+03  0.18799046798E+03  0.00000000000E+00 0. -1.
         11    1    4    4    0    0  0.66857985245E+00 -0.31830314200E+02 -0.25074796084E+02  0.40526057046E+02  0.00000000000E+00 0.  1.
</event>
<event>
 8    1  0.7224195E-009  0.2354369E+03  0.7561462E-02  0.1122870E+00
         -1   -1    0    0    0  501 -0.00000000000E+00  0.00000000000E+00  0.32760783760E+03  0.32760783760E+03  0.00000000000E+00 0.  1.
          1   -1    0    0  501    0  0.00000000000E+00 -0.00000000000E+00 -0.18144971888E+03  0.18144971888E+03  0.00000000000E+00 0. -1.
         25    2    1    2    0    0 -0.19678251934E+03 -0.93434748044E+02  0.87542676180E+02  0.26601808363E+03  0.12509391914E+03 0.  0.
         23    2    1    2    0    0  0.19678251934E+03  0.93434748044E+02  0.58615442535E+02  0.24303947285E+03  0.90437841643E+02 0.  0.
          5    1    3    3  502    0 -0.15666423631E+02  0.28366725810E+02  0.76687845762E+01  0.33561743391E+02  0.41800000000E+01 0. -1.
         -5    1    3    3    0  502 -0.18111609571E+03 -0.12180147385E+03  0.79873891603E+02  0.23245634024E+03  0.41800000000E+01 0. -1.
        -11    1    4    4    0    0  0.50882030167E+02  0.10101090952E+02  0.54106470449E+02  0.74956808742E+02  0.00000000000E+00 0.  1.
         11    1    4    4    0    0  0.14590048917E+03  0.83333657092E+02  0.45089720862E+01  0.16808266411E+03  0.00000000000E+00 0. -1.
</event>
<event>
 8    1  0.7224195E-009  0.1827178E+03  0.7561462E-02  0.1165198E+00
          2   -1    0    0  501    0  0.00000000000E+00  0.00000000000E+00  0.13615634096E+04  0.13615634096E+04  0.00000000000E+00 0. -1.
         -2   -1    0    0    0  501 -0.00000000000E+00 -0.00000000000E+00 -0.47401176884E+02  0.47401176884E+02  0.00000000000E+00 0.  1.
         25    2    1    2    0    0 -0.15045888138E+02 -0.16049208247E+03  0.11288922788E+04  0.11471835669E+04  0.12509305231E+03 0.  0.
         23    2    1    2    0    0  0.15045888138E+02  0.16049208247E+03  0.18526995388E+03  0.26178101955E+03  0.90665644543E+02 0.  0.
          5    1    3    3  502    0 -0.42792971683E+02 -0.16921363229E+03  0.95584595658E+03  0.97166015504E+03  0.41800000000E+01 0. -1.
         -5    1    3    3    0  502  0.27747083545E+02  0.87215498154E+01  0.17304632222E+03  0.17552341186E+03  0.41800000000E+01 0. -1.
        -11    1    4    4    0    0  0.64468343679E+01  0.11383963541E+03  0.18130311196E+03  0.21417712920E+03  0.00000000000E+00 0. -1.
         11    1    4    4    0    0  0.85990537698E+01  0.46652447060E+02  0.39668419243E+01  0.47603890359E+02  0.00000000000E+00 0.  1.
</event>
<event>
 8    1  0.7224195E-009  0.1105297E+03  0.7561462E-02  0.1259592E+00
         -3   -1    0    0    0  501 -0.00000000000E+00  0.00000000000E+00  0.84337581263E+02  0.84337581263E+02  0.00000000000E+00 0.  1.
          3   -1    0    0  501    0  0.00000000000E+00 -0.00000000000E+00 -0.35027452465E+03  0.35027452465E+03  0.00000000000E+00 0. -1.
         25    2    1    2    0    0 -0.77936003185E+02 -0.26397902573E+02 -0.27637187539E+03  0.31432376244E+03  0.12508854574E+03 0.  0.
         23    2    1    2    0    0  0.77936003185E+02  0.26397902573E+02  0.10434932000E+02  0.12028834348E+03  0.87117896655E+02 0.  0.
          5    1    3    3  502    0 -0.86251550749E+02 -0.31083227301E+02 -0.93012795404E+02  0.13066885449E+03  0.41800000000E+01 0. -1.
         -5    1    3    3    0  502  0.83155475640E+01  0.46853247278E+01 -0.18335907998E+03  0.18365490794E+03  0.41800000000E+01 0. -1.
        -11    1    4    4    0    0  0.62750968979E+02 -0.23269062974E+02 -0.17204306477E+01  0.66948437481E+02  0.00000000000E+00 0.  1.
         11    1    4    4    0    0  0.15185034206E+02  0.49666965547E+02  0.12155362648E+02  0.53339905995E+02  0.00000000000E+00 0. -1.
</event>
<event>
 8    1  0.7224195E-009  0.1611863E+03  0.7561462E-02  0.1187364E+00
          2   -1    0    0  501    0  0.00000000000E+00  0.00000000000E+00  0.13095780049E+03  0.13095780049E+03  0.00000000000E+00 0. -1.
         -2   -1    0    0    0  501 -0.00000000000E+00 -0.00000000000E+00 -0.22556535932E+03  0.22556535932E+03  0.00000000000E+00 0.  1.
         25    2    1    2    0    0  0.13245626654E+03  0.73370445639E+00 -0.49575136986E+02  0.18880973534E+03  0.12508485553E+03 0.  0.
         23    2    1    2    0    0 -0.13245626654E+03 -0.73370445639E+00 -0.45032421845E+02  0.16771342447E+03  0.92491474530E+02 0.  0.
          5    1    3    3  502    0  0.14405181845E+03  0.12551386323E+02 -0.91745319539E+01  0.14494863964E+03  0.41800000000E+01 0.  1.
         -5    1    3    3    0  502 -0.11595551905E+02 -0.11817681867E+02 -0.40400605032E+02  0.43861095696E+02  0.41800000000E+01 0.  1.
        -11    1    4    4    0    0  0.34549151001E+01 -0.22702112066E+02 -0.34071439956E+00  0.22966027452E+02  0.00000000000E+00 0.  1.
         11    1    4    4    0    0 -0.13591118164E+03  0.21968407610E+02 -0.44691707446E+02  0.14474739702E+03  0.00000000000E+00 0. -1.
</event>
<event>
 8    1  0.7224195E-009  0.1369673E+03  0.7561462E-02  0.1217469E+00
         -2   -1    0    0    0  501 -0.00000000000E+00  0.00000000000E+00  0.21198502104E+02  0.21198502104E+02  0.00000000000E+00 0. -1.
          2   -1    0    0  501    0  0.00000000000E+00 -0.00000000000E+00 -0.10983881972E+04  0.10983881972E+04  0.00000000000E+00 0.  1.
         25    2    1    2    0    0 -0.75892680275E+02  0.73852788771E+02 -0.62893251544E+03  0.64993641127E+03  0.12508915372E+03 0.  0.
         23    2    1    2    0    0  0.75892680275E+02 -0.73852788771E+02 -0.44825717963E+03  0.46965028801E+03  0.91776688832E+02 0.  0.
          5    1    3    3  502    0 -0.61494773201E+02  0.26537971271E+01 -0.48244897694E+03  0.48637756683E+03  0.41800000000E+01 0.  1.
         -5    1    3    3    0  502 -0.14397907073E+02  0.71198991644E+02 -0.14648353850E+03  0.16355884443E+03  0.41800000000E+01 0.  1.
        -11    1    4    4    0    0  0.66699456263E+02 -0.16759522550E+01 -0.19192202398E+03  0.20318880276E+03  0.00000000000E+00 0. -1.
         11    1    4    4    0    0  0.91932240117E+01 -0.72176836516E+02 -0.25633515565E+03  0.26646148525E+03  0.00000000000E+00 0.  1.
</event>
<event>
 8    1  0.7224195E-009  0.1122168E+03  0.7561462E-02  0.1256519E+00
          2   -1    0    0  501    0  0.00000000000E+00  0.00000000000E+00  0.14147511092E+03  0.14147511092E+03  0.00000000000E+00 0. -1.
         -2   -1    0    0    0  501 -0.00000000000E+00 -0.00000000000E+00 -0.16443460408E+03  0.16443460408E+03  0.00000000000E+00 0.  1.
         25    2    1    2    0    0 -0.84670810124E+02  0.51332421969E+02  0.27166462317E+02  0.16183256942E+03  0.12509036820E+03 0.  0.
         23    2    1    2    0    0  0.84670810124E+02 -0.51332421969E+02 -0.50125955477E+02  0.14407714558E+03  0.91877357565E+02 0.  0.
          5    1    3    3  502    0 -0.30565880192E+02 -0.19073856813E+02 -0.37297893195E+02  0.52025861669E+02  0.41800000000E+01 0. -1.
         -5    1    3    3    0  502 -0.54104929932E+02  0.70406278782E+02  0.64464355512E+02  0.10980670775E+03  0.41800000000E+01 0. -1.
        -11    1    4    4    0    0  0.65134590726E+02 -0.35890008310E+02 -0.77267714447E+02  0.10724228318E+03  0.00000000000E+00 0.  1.
         11    1    4    4    0    0  0.19536219398E+02 -0.15442413659E+02  0.27141758970E+02  0.36834862399E+02  0.00000000000E+00 0. -1.
</event>
<event>
 8    1  0.7224195E-009  0.9454650E+02  0.7561462E-02  0.1292201E+00
          2   -1    0    0  501    0  0.00000000000E+00  0.00000000000E+00  0.75869373329E+03  0.75869373329E+03  0.00000000000E+00 0. -1.
         -2   -1    0    0    0  501 -0.00000000000E+00 -0.00000000000E+00 -0.23493476276E+02  0.23493476276E+02  0.00000000000E+00 0.  1.
         25    2    1    2    0    0 -0.87726988671E+01 -0.69661664130E+02  0.49399548949E+03  0.51439977692E+03  0.12508348877E+03 0.  0.
         23    2    1    2    0    0  0.87726988671E+01  0.69661664130E+02  0.24120476753E+03  0.26778743265E+03  0.92739751523E+02 0.  0.
          5    1    3    3  502    0  0.79271587697E+01 -0.14889159511E+02  0.30378833644E+00  0.17380782619E+02  0.41800000000E+01 0.  1.
         -5    1    3    3    0  502 -0.16699857637E+02 -0.54772504619E+02  0.49369170115E+03  0.49701899430E+03  0.41800000000E+01 0.  1.
        -11    1    4    4    0    0 -0.32045488025E+02 -0.16993527508E+01  0.91956239560E+02  0.97394820687E+02  0.00000000000E+00 0.  1.
         11    1    4    4    0    0  0.40818186892E+02  0.71361016880E+02  0.14924852797E+03  0.17039261196E+03  0.00000000000E+00 0. -1.
</event>
<event>
 8    1  0.7224195E-009  0.1090120E+03  0.7561462E-02  0.1262410E+00
          1   -1    0    0  501    0  0.00000000000E+00  0.00000000000E+00  0.11650941370E+04  0.11650941370E+04  0.00000000000E+00 0. -1.
         -1   -1    0    0    0  501 -0.00000000000E+00 -0.00000000000E+00 -0.16828665658E+02  0.16828665658E+02  0.00000000000E+00 0.  1.
         25    2    1    2    0    0  0.78274564058E+02  0.35422007542E+02  0.71381141255E+03  0.72976447611E+03  0.12509129432E+03 0.  0.
         23    2    1    2    0    0 -0.78274564058E+02 -0.35422007542E+02  0.43445405875E+03  0.45215832651E+03  0.91187702377E+02 0.  0.
          5    1    3    3  502    0  0.25719760743E+02 -0.10208525332E+02  0.25284218830E+02  0.37715834923E+02  0.41800000000E+01 0.  1.
         -5    1    3    3    0  502  0.52554803315E+02  0.45630532874E+02  0.68852719372E+03  0.69204864119E+03  0.41800000000E+01 0.  1.
        -11    1    4    4    0    0  0.18300369636E+02 -0.75504840569E+01  0.34594314284E+02  0.39858247818E+02  0.00000000000E+00 0.  1.
         11    1    4    4    0    0 -0.96574933694E+02 -0.27871523485E+02  0.39985974447E+03  0.41230007869E+03  0.00000000000E+00 0. -1.
</event>
<event>
 8    1  0.7224195E-009  0.8431489E+02  0.7561462E-02  0.1317234E+00
          4   -1    0    0  501    0  0.00000000000E+00  0.00000000000E+00  0.93712973763E+02  0.93712973763E+02  0.00000000000E+00 0. -1.
         -4   -1    0    0    0  501 -0.00000000000E+00 -0.00000000000E+00 -0.17659814478E+03  0.17659814478E+03  0.00000000000E+00 0.  1.
         25    2    1    2    0    0  0.45798658244E+02 -0.39558905108E+02 -0.80052119918E+02  0.16035913461E+03  0.12507712053E+03 0.  0.
         23    2    1    2    0    0 -0.45798658244E+02  0.39558905108E+02 -0.28330510965E+01  0.10995198393E+03  0.91755046296E+02 0.  0.
          5    1    3    3  502    0  0.24685370886E+02  0.14894765773E+02  0.26109803046E+02  0.39120529116E+02  0.41800000000E+01 0.  1.
         -5    1    3    3    0  502  0.21113287359E+02 -0.54453670881E+02 -0.10616192296E+03  0.12123860550E+03  0.41800000000E+01 0.  1.
        -11    1    4    4    0    0  0.91491279498E+00  0.33873912785E+02 -0.38215811780E+02  0.51075701686E+02  0.00000000000E+00 0.  1.
         11    1    4    4    0    0 -0.46713571039E+02  0.56849923234E+01  0.35382760684E+02  0.58876282241E+02  0.00000000000E+00 0. -1.
</event>
<event>
 8    1  0.7224195E-009  0.1322931E+03  0.7561462E-02  0.1224092E+00
         -2   -1    0    0    0  501 -0.00000000000E+00  0.00000000000E+00  0.18634678687E+02  0.18634678687E+02  0.00000000000E+00 0.  1.
          2   -1    0    0  501    0  0.00000000000E+00 -0.00000000000E+00 -0.93955390163E+03  0.93955390163E+03  0.00000000000E+00 0. -1.
         25    2    1    2    0    0  0.52798404809E+02 -0.54357975371E+02 -0.50621250776E+03  0.52691633347E+03  0.12508900203E+03 0.  0.
         23    2    1    2    0    0 -0.52798404809E+02  0.54357975371E+02 -0.41470671519E+03  0.43127224685E+03  0.90948503262E+02 0.  0.
          5    1    3    3  502    0  0.16485691510E+02  0.40859792911E+02 -0.15208482631E+03  0.15839371040E+03  0.41800000000E+01 0.  1.
         -5    1    3    3    0  502  0.36312713299E+02 -0.95217768283E+02 -0.35412768145E+03  0.36852262307E+03  0.41800000000E+01 0.  1.
        -11    1    4    4    0    0 -0.42081965190E+02  0.80083656057E+02 -0.32203692026E+03  0.33450270817E+03  0.00000000000E+00 0.  1.
         11    1    4    4    0    0 -0.10716439619E+02 -0.25725680686E+02 -0.92669794929E+02  0.96769538683E+02  0.00000000000E+00 0. -1.
</event>
<event>
 8    1  0.7224195E-009  0.6170152E+02  0.7561462E-02  0.1390827E+00
         -2   -1    0    0    0  501 -0.00000000000E+00  0.00000000000E+00  0.15475130370E+02  0.15475130370E+02  0.00000000000E+00 0. -1.
          2   -1    0    0  501    0  0.00000000000E+00 -0.00000000000E+00 -0.72912741598E+03  0.72912741598E+03  0.00000000000E+00 0.  1.
         25    2    1    2    0    0  0.92202810899E+01  0.24945636870E+02 -0.39968493848E+03  0.41964635628E+03  0.12509083063E+03 0.  0.
         23    2    1    2    0    0 -0.92202810899E+01 -0.24945636870E+02 -0.31396734713E+03  0.32495619007E+03  0.79458995843E+02 0.  0.
          5    1    3    3  502    0 -0.10165490976E+02  0.11353131964E+02  0.31346549821E+01  0.16109912291E+02  0.41800000000E+01 0. -1.
         -5    1    3    3    0  502  0.19385772066E+02  0.13592504906E+02 -0.40281959346E+03  0.40353644399E+03  0.41800000000E+01 0. -1.
        -11    1    4    4    0    0  0.22967283045E+02  0.18498052642E+02 -0.12263864588E+03  0.12613449768E+03  0.00000000000E+00 0. -1.
         11    1    4    4    0    0 -0.32187564135E+02 -0.43443689512E+02 -0.19132870125E+03  0.19882169239E+03  0.00000000000E+00 0.  1.
</event>
<event>
 8    1  0.7224195E-009  0.1202768E+03  0.7561462E-02  0.1242641E+00
         -2   -1    0    0    0  501 -0.00000000000E+00  0.00000000000E+00  0.15825158175E+03  0.15825158175E+03  0.00000000000E+00 0.  1.
          2   -1    0    0  501    0  0.00000000000E+00 -0.00000000000E+00 -0.10053197039E+03  0.10053197039E+03  0.00000000000E+00 0. -1.
         25    2    1    2    0    0 -0.21664146971E+02  0.56227264604E+02  0.26264117446E+02  0.14129645396E+03  0.12507615075E+03 0.  0.
         23    2    1    2    0    0  0.21664146971E+02 -0.56227264604E+02  0.31455493917E+02  0.11748709819E+03  0.95827603506E+02 0.  0.
          5    1    3    3  502    0  0.46953241377E+02  0.46013003428E+02  0.28469896478E+02  0.71762182002E+02  0.41800000000E+01 0.  1.
         -5    1    3    3    0  502 -0.68617388348E+02  0.10214261176E+02 -0.22057790317E+01  0.69534271954E+02  0.41800000000E+01 0.  1.
        -11    1    4    4    0    0  0.53229241675E+01 -0.77875803302E+02  0.29122231623E+01  0.78111812842E+02  0.00000000000E+00 0. -1.
         11    1    4    4    0    0  0.16341222804E+02  0.21648538699E+02  0.28543270755E+02  0.39375285344E+02  0.00000000000E+00 0.  1.
</event>
<event>
 8    1  0.7224195E-009  0.2089956E+03  0.7561462E-02  0.1142364E+00
         -4   -1    0    0    0  501 -0.00000000000E+00  0.00000000000E+00  0.20568935044E+03  0.20568935044E+03  0.00000000000E+00 0.  1.
          4   -1    0    0  501    0  0.00000000000E+00 -0.00000000000E+00 -0.23782807662E+03  0.23782807662E+03  0.00000000000E+00 0. -1.
         25    2    1    2    0    0 -0.17971301193E+03 -0.68464079397E+02 -0.73694533703E+01  0.22953820619E+03  0.12509749170E+03 0.  0.
         23    2    1    2    0    0  0.17971301193E+03  0.68464079397E+02 -0.24769272817E+02  0.21397922087E+03  0.90495819043E+02 0.  0.
          5    1    3    3  502    0 -0.72234967667E+02  0.94703137533E+01 -0.51787732007E+02  0.89481947804E+02  0.41800000000E+01 0. -1.
         -5    1    3    3    0  502 -0.10747804427E+03 -0.77934393151E+02  0.44418278637E+02  0.14005625838E+03  0.41800000000E+01 0. -1.
        -11    1    4    4    0    0  0.12947005965E+03  0.27859240528E+01 -0.21083498437E+02  0.13120507469E+03  0.00000000000E+00 0. -1.
         11    1    4    4    0    0  0.50242952286E+02  0.65678155345E+02 -0.36857743800E+01  0.82774146185E+02  0.00000000000E+00 0.  1.
</event>
<event>
 8    1  0.7224195E-009  0.9390388E+02  0.7561462E-02  0.1293664E+00
         -2   -1    0    0    0  501 -0.00000000000E+00  0.00000000000E+00  0.57787239068E+02  0.57787239068E+02  0.00000000000E+00 0.  1.
          2   -1    0    0  501    0  0.00000000000E+00 -0.00000000000E+00 -0.20918572600E+03  0.20918572600E+03  0.00000000000E+00 0. -1.
         25    2    1    2    0    0 -0.95715814953E+01 -0.16202229776E+02 -0.88719078604E+02  0.15450394851E+03  0.12508504217E+03 0.  0.
         23    2    1    2    0    0  0.95715814953E+01  0.16202229776E+02 -0.62679408328E+02  0.11246901656E+03  0.91468267915E+02 0.  0.
          5    1    3    3  502    0 -0.31762421313E+02 -0.62923436398E+02 -0.69757407408E+02  0.99256125977E+02  0.41800000000E+01 0.  1.
         -5    1    3    3    0  502  0.22190839818E+02  0.46721206622E+02 -0.18961671197E+02  0.55247822533E+02  0.41800000000E+01 0.  1.
        -11    1    4    4    0    0  0.32778638604E+02 -0.58456970285E+01  0.85511138314E+01  0.34376341722E+02  0.00000000000E+00 0.  1.
         11    1    4    4    0    0 -0.23207057108E+02  0.22047926804E+02 -0.71230522160E+02  0.78092674836E+02  0.00000000000E+00 0. -1.
</event>
<event>
 8    1  0.7224195E-009  0.1318246E+03  0.7561462E-02  0.1224773E+00
         -1   -1    0    0    0  501 -0.00000000000E+00  0.00000000000E+00  0.83934027938E+02  0.83934027938E+02  0.00000000000E+00 0.  1.
          1   -1    0    0  501    0  0.00000000000E+00 -0.00000000000E+00 -0.28867203610E+03  0.28867203610E+03  0.00000000000E+00 0. -1.
         25    2    1    2    0    0  0.10843555449E+03 -0.21439197656E+02 -0.12058192501E+03  0.20593272383E+03  0.12510146855E+03 0.  0.
         23    2    1    2    0    0 -0.10843555449E+03  0.21439197656E+02 -0.84156083149E+02  0.16667334020E+03  0.92086086515E+02 0.  0.
          5    1    3    3  502    0  0.84554294074E+02 -0.39646636559E+02 -0.13268477425E+02  0.94418267988E+02  0.41800000000E+01 0.  1.
         -5    1    3    3    0  502  0.23881260412E+02  0.18207438903E+02 -0.10731344758E+03  0.11151445585E+03  0.41800000000E+01 0.  1.
        -11    1    4    4    0    0 -0.45514775233E+00  0.31405357139E+02 -0.36571237206E+01  0.31620850248E+02  0.00000000000E+00 0.  1.
         11    1    4    4    0    0 -0.10798040673E+03 -0.99661594829E+01 -0.80498959428E+02  0.13505248995E+03  0.00000000000E+00 0. -1.
</event>
<event>
 8    1  0.7224195E-009  0.7304159E+02  0.7561462E-02  0.1350045E+00
         -2   -1    0    0    0  501 -0.00000000000E+00  0.00000000000E+00  0.51183427916E+02  0.51183427916E+02  0.00000000000E+00 0.  1.
          2   -1    0    0  501    0  0.00000000000E+00 -0.00000000000E+00 -0.24889220773E+03  0.24889220773E+03  0.00000000000E+00 0. -1.
         25    2    1    2    0    0 -0.11008947592E+02 -0.59808914603E+01 -0.15420208725E+03  0.19895457461E+03  0.12509065136E+03 0.  0.
         23    2    1    2    0    0  0.11008947592E+02  0.59808914603E+01 -0.43506692562E+02  0.10112106103E+03  0.90419404426E+02 0.  0.
          5    1    3    3  502    0 -0.18887965450E+02  0.33823186533E+02 -0.15327795035E+03  0.15815298179E+03  0.41800000000E+01 0. -1.
         -5    1    3    3    0  502  0.78790178574E+01 -0.39804077993E+02 -0.92413689553E+00  0.40801592815E+02  0.41800000000E+01 0. -1.
        -11    1    4    4    0    0 -0.13716248915E+02 -0.23892204036E+02  0.14664661466E+02  0.31209376699E+02  0.00000000000E+00 0.  1.
         11    1    4    4    0    0  0.24725196507E+02  0.29873095497E+02 -0.58171354028E+02  0.69911684333E+02  0.00000000000E+00 0. -1.
</event>
<event>
 8    1  0.7224195E-009  0.7672252E+02  0.7561462E-02  0.1338618E+00
         -3   -1    0    0    0  501 -0.00000000000E+00  0.00000000000E+00  0.32711048952E+02  0.32711048952E+02  0.00000000000E+00 0.  1.
          3   -1    0    0  501    0  0.00000000000E+00 -0.00000000000E+00 -0.37436668441E+03  0.37436668441E+03  0.00000000000E+00 0. -1.
         25    2    1    2    0    0  0.13114868768E+02 -0.18257697721E+02 -0.20497044610E+03  0.24117436018E+03  0.12508734917E+03 0.  0.
         23    2    1    2    0    0 -0.13114868768E+02  0.18257697721E+02 -0.13668518936E+03  0.16590337319E+03  0.91300300857E+02 0.  0.
          5    1    3    3  502    0 -0.16139445477E+02 -0.33050186983E+02 -0.20480859081E+03  0.20812695124E+03  0.41800000000E+01 0.  1.
         -5    1    3    3    0  502  0.29254314244E+02  0.14792489263E+02 -0.16185528934E+00  0.33047408940E+02  0.41800000000E+01 0.  1.
        -11    1    4    4    0    0  0.23866158240E+02  0.35340928415E+02 -0.31240367385E+02  0.52863364296E+02  0.00000000000E+00 0.  1.
         11    1    4    4    0    0 -0.36981027008E+02 -0.17083230694E+02 -0.10544482197E+03  0.11304000889E+03  0.00000000000E+00 0. -1.
</event>
<event>
 8    1  0.7224195E-009  0.1852942E+03  0.7561462E-02  0.1162775E+00
          2   -1    0    0  501    0  0.00000000000E+00  0.00000000000E+00  0.37303033713E+03  0.37303033713E+03  0.00000000000E+00 0. -1.
         -2   -1    0    0    0  501 -0.00000000000E+00 -0.00000000000E+00 -0.12087022897E+03  0.12087022897E+03  0.00000000000E+00 0.  1.
         25    2    1    2    0    0  0.16168815298E+03 -0.23556511268E+02  0.22472274717E+03  0.30470546980E+03  0.12508853742E+03 0.  0.
         23    2    1    2    0    0 -0.16168815298E+03  0.23556511268E+02  0.27437360991E+02  0.18919509629E+03  0.91345539834E+02 0.  0.
          5    1    3    3  502    0  0.17825344202E+03 -0.30137515895E+01  0.20353506655E+03  0.27060555797E+03  0.41800000000E+01 0. -1.
         -5    1    3    3    0  502 -0.16565289045E+02 -0.20542759678E+02  0.21187680622E+02  0.34099911825E+02  0.41800000000E+01 0. -1.
        -11    1    4    4    0    0 -0.72578134667E+02  0.23960476102E+02 -0.31165964259E+02  0.82540943628E+02  0.00000000000E+00 0.  1.
         11    1    4    4    0    0 -0.89110018309E+02 -0.40396483425E+00  0.58603325250E+02  0.10665415267E+03  0.00000000000E+00 0. -1.
</event>
<event>
 8    1  0.7224195E-009  0.1597275E+03  0.7561462E-02  0.1189005E+00
          1   -1    0    0  501    0  0.00000000000E+00  0.00000000000E+00  0.41739808572E+03  0.41739808572E+03  0.00000000000E+00 0. -1.
         -1   -1    0    0    0  501 -0.00000000000E+00 -0.00000000000E+00 -0.67833060077E+02  0.67833060077E+02  0.00000000000E+00 0.  1.
         25    2    1    2    0    0  0.11863509381E+03 -0.48800405529E+02  0.18022899199E+03  0.25413850603E+03  0.12509246831E+03 0.  0.
         23    2    1    2    0    0 -0.11863509381E+03  0.48800405529E+02  0.16933603365E+03  0.23109263977E+03  0.90957961722E+02 0.  0.
          5    1    3    3  502    0  0.37297191875E+02 -0.82455756364E+02  0.82301275304E+02  0.12239691416E+03  0.41800000000E+01 0.  1.
         -5    1    3    3    0  502  0.81337901937E+02  0.33655350835E+02  0.97927716690E+02  0.13174159187E+03  0.41800000000E+01 0.  1.
        -11    1    4    4    0    0 -0.14193425924E+02  0.31925787701E+02  0.96548939940E+02  0.10267622443E+03  0.00000000000E+00 0.  1.
         11    1    4    4    0    0 -0.10444166789E+03  0.16874617827E+02  0.72787093707E+02  0.12841641534E+03  0.00000000000E+00 0. -1.
</event>
<event>
 8    1  0.7224195E-009  0.1323841E+03  0.7561462E-02  0.1223960E+00
          1   -1    0    0  501    0  0.00000000000E+00  0.00000000000E+00  0.28702809885E+03  0.28702809885E+03  0.00000000000E+00 0. -1.
         -1   -1    0    0    0  501 -0.00000000000E+00 -0.00000000000E+00 -0.70117578343E+02  0.70117578343E+02  0.00000000000E+00 0.  1.
         25    2    1    2    0    0 -0.13327304189E+02 -0.79532727361E+02  0.17223083417E+03  0.22762703883E+03  0.12509011476E+03 0.  0.
         23    2    1    2    0    0  0.13327304189E+02  0.79532727361E+02  0.44679686335E+02  0.12951863836E+03  0.90971047879E+02 0.  0.
          5    1    3    3  502    0  0.18713928351E+02 -0.10545457015E+03  0.11853536617E+03  0.15980920784E+03  0.41800000000E+01 0.  1.
         -5    1    3    3    0  502 -0.32041232541E+02  0.25921842786E+02  0.53695468002E+02  0.67817830990E+02  0.41800000000E+01 0.  1.
        -11    1    4    4    0    0 -0.23765283505E+02  0.75138392432E+02  0.11661768657E+02  0.79665322227E+02  0.00000000000E+00 0. -1.
         11    1    4    4    0    0  0.37092587694E+02  0.43943349289E+01  0.33017917678E+02  0.49853316129E+02  0.00000000000E+00 0.  1.
</event>
<event>
 8    1  0.7224195E-009  0.1001422E+03  0.7561462E-02  0.1279997E+00
          2   -1    0    0  501    0  0.00000000000E+00  0.00000000000E+00  0.15431082052E+03  0.15431082052E+03  0.00000000000E+00 0. -1.
         -2   -1    0    0    0  501 -0.00000000000E+00 -0.00000000000E+00 -0.80272429069E+02  0.80272429069E+02  0.00000000000E+00 0.  1.
         25    2    1    2    0    0 -0.25152564453E+02  0.10460028046E+02  0.45532218335E+02  0.13587265029E+03  0.12508449346E+03 0.  0.
         23    2    1    2    0    0  0.25152564453E+02 -0.10460028046E+02  0.28506173112E+02  0.98710599299E+02  0.90493739138E+02 0.  0.
          5    1    3    3  502    0  0.40981973654E+02  0.21780967197E+02  0.50187643065E+02  0.68485068541E+02  0.41800000000E+01 0.  1.
         -5    1    3    3    0  502 -0.66134538107E+02 -0.11320939152E+02 -0.46554247300E+01  0.67387581744E+02  0.41800000000E+01 0.  1.
        -11    1    4    4    0    0 -0.17304870804E+02  0.25501834837E+02 -0.83994759885E+01  0.31942969970E+02  0.00000000000E+00 0.  1.
         11    1    4    4    0    0  0.42457435258E+02 -0.35961862883E+02  0.36905649101E+02  0.66767629329E+02  0.00000000000E+00 0. -1.
</event>
<event>
 8    1  0.7224195E-009  0.1259884E+03  0.7561462E-02  0.1233533E+00
         -4   -1    0    0    0  501 -0.00000000000E+00  0.00000000000E+00  0.11357574279E+03  0.11357574279E+03  0.00000000000E+00 0.  1.
          4   -1    0    0  501    0  0.00000000000E+00 -0.00000000000E+00 -0.15981923833E+03  0.15981923833E+03  0.00000000000E+00 0. -1.
         25    2    1    2    0    0  0.79107948348E+02 -0.95441331003E+01 -0.25794389591E+02  0.15053847818E+03  0.12508926777E+03 0.  0.
         23    2    1    2    0    0 -0.79107948348E+02  0.95441331003E+01 -0.20449105952E+02  0.12285650294E+03  0.91249089923E+02 0.  0.
          5    1    3    3  502    0  0.13888507592E+02 -0.53622183419E+02  0.20394604629E+02  0.59174669376E+02  0.41800000000E+01 0. -1.
         -5    1    3    3    0  502  0.65219440756E+02  0.44078050319E+02 -0.46188994220E+02  0.91363808806E+02  0.41800000000E+01 0. -1.
        -11    1    4    4    0    0 -0.84685487394E+02 -0.20426394273E+02 -0.18263044282E+01  0.87133258553E+02  0.00000000000E+00 0.  1.
         11    1    4    4    0    0  0.55775390469E+01  0.29970527373E+02 -0.18622801524E+02  0.35723244386E+02  0.00000000000E+00 0. -1.
</event>
<event>
 8    1  0.7224195E-009  0.1158120E+03  0.7561462E-02  0.1250170E+00
         -1   -1    0    0    0  501 -0.00000000000E+00  0.00000000000E+00  0.47275732453E+02  0.47275732453E+02  0.00000000000E+00 0.  1.
          1   -1    0    0  501    0  0.00000000000E+00 -0.00000000000E+00 -0.39739305355E+03  0.39739305355E+03  0.00000000000E+00 0. -1.
         25    2    1    2    0    0  0.48848462758E+02  0.60516405708E+01 -0.29549582021E+03  0.32463635503E+03  0.12509271994E+03 0.  0.
         23    2    1    2    0    0 -0.48848462758E+02 -0.60516405708E+01 -0.54621500889E+02  0.12003243097E+03  0.94876137450E+02 0.  0.
          5    1    3    3  502    0 -0.17411620449E+02  0.45101930594E+02 -0.61805446104E+02  0.78579477206E+02  0.41800000000E+01 0. -1.
         -5    1    3    3    0  502  0.66260083207E+02 -0.39050290023E+02 -0.23369037410E+03  0.24605687783E+03  0.41800000000E+01 0. -1.
        -11    1    4    4    0    0 -0.54860017735E+01  0.41417707801E+02 -0.28817833702E+02  0.50754214350E+02  0.00000000000E+00 0.  1.
         11    1    4    4    0    0 -0.43362460985E+02 -0.47469348372E+02 -0.25803667187E+02  0.69278216618E+02  0.00000000000E+00 0. -1.
</event>
<event>
 8    1  0.7224195E-009  0.1214437E+03  0.7561462E-02  0.1240734E+00
          2   -1    0    0  501    0  0.00000000000E+00  0.00000000000E+00  0.13056135062E+03  0.13056135062E+03  0.00000000000E+00 0. -1.
         -2   -1    0    0    0  501 -0.00000000000E+00 -0.00000000000E+00 -0.12409438936E+03  0.12409438936E+03  0.00000000000E+00 0.  1.
         25    2    1    2    0    0 -0.10475895913E+02 -0.64648768766E+02  0.20720721650E+02  0.14271044062E+03  0.12509082243E+03 0.  0.
         23    2    1    2    0    0  0.10475895913E+02  0.64648768766E+02 -0.14253760390E+02  0.11194529936E+03  0.89662548845E+02 0.  0.
          5    1    3    3  502    0 -0.46224760547E+02 -0.82530004290E+02 -0.52979231568E+01  0.94833909998E+02  0.41800000000E+01 0.  1.
         -5    1    3    3    0  502  0.35748864634E+02  0.17881235524E+02  0.26018644807E+02  0.47876530619E+02  0.41800000000E+01 0.  1.
        -11    1    4    4    0    0 -0.37192654038E+02  0.38958798250E+02 -0.20078767970E+02  0.57482505153E+02  0.00000000000E+00 0.  1.
         11    1    4    4    0    0  0.47668549951E+02  0.25689970516E+02  0.58250075805E+01  0.54462794207E+02  0.00000000000E+00 0. -1.
</event>
<event>
 8    1  0.7224195E-009  0.7856468E+02  0.7561462E-02  0.1333175E+00
         -1   -1    0    0    0  501 -0.00000000000E+00  0.00000000000E+00  0.21761815567E+02  0.21761815567E+02  0.00000000000E+00 0.  1.
          1   -1    0    0  501    0  0.00000000000E+00 -0.00000000000E+00 -0.13576655802E+04  0.13576655802E+04  0.00000000000E+00 0. -1.
         25    2    1    2    0    0  0.18883885484E+02  0.47184155209E+02 -0.12087218195E+04  0.12162397228E+04  0.12509068996E+03 0.  0.
         23    2    1    2    0    0 -0.18883885484E+02 -0.47184155209E+02 -0.12718194511E+03  0.16318767296E+03  0.88724426231E+02 0.  0.
          5    1    3    3  502    0 -0.56817636125E+01  0.53693483588E+02 -0.20037871625E+03  0.20756775989E+03  0.41800000000E+01 0. -1.
         -5    1    3    3    0  502  0.24565649097E+02 -0.65093283789E+01 -0.10083431033E+04  0.10086719629E+04  0.41800000000E+01 0. -1.
        -11    1    4    4    0    0 -0.55737663836E+01 -0.59095613913E+02 -0.34199599087E+02  0.68505262814E+02  0.00000000000E+00 0.  1.
         11    1    4    4    0    0 -0.13310119101E+02  0.11911458705E+02 -0.92982346023E+02  0.94682410145E+02  0.00000000000E+00 0. -1.
</event>
<event>
 8    1  0.7224195E-009  0.7354694E+02  0.7561462E-02  0.1348431E+00
         -2   -1    0    0    0  501 -0.00000000000E+00  0.00000000000E+00  0.13576806899E+03  0.13576806899E+03  0.00000000000E+00 0.  1.
          2   -1    0    0  501    0  0.00000000000E+00 -0.00000000000E+00 -0.10512437616E+03  0.10512437616E+03  0.00000000000E+00 0. -1.
         25    2    1    2    0    0 -0.40106726373E+02 -0.15812043753E+02  0.40114802118E+02  0.13825830339E+03  0.12509033088E+03 0.  0.
         23    2    1    2    0    0  0.40106726373E+02  0.15812043753E+02 -0.94711092894E+01  0.10263414176E+03  0.92657945781E+02 0.  0.
          5    1    3    3  502    0 -0.13585927379E+02 -0.10324754337E+02  0.84384273790E+02  0.86193712288E+02  0.41800000000E+01 0.  1.
         -5    1    3    3    0  502 -0.26520798994E+02 -0.54872894167E+01 -0.44269471672E+02  0.52064591101E+02  0.41800000000E+01 0.  1.
        -11    1    4    4    0    0  0.44770767413E+02  0.50289381912E+02 -0.43916449204E+01  0.67473921577E+02  0.00000000000E+00 0. -1.
         11    1    4    4    0    0 -0.46640410398E+01 -0.34477338159E+02 -0.50794643690E+01  0.35160220187E+02  0.00000000000E+00 0.  1.
</event>
<event>
 8    1  0.7224195E-009  0.1093310E+03  0.7561462E-02  0.1261814E+00
          2   -1    0    0  501    0  0.00000000000E+00  0.00000000000E+00  0.13866150361E+03  0.13866150361E+03  0.00000000000E+00 0.  1.
         -2   -1    0    0    0  501 -0.00000000000E+00 -0.00000000000E+00 -0.95825715468E+02  0.95825715468E+02  0.00000000000E+00 0. -1.
         25    2    1    2    0    0 -0.17499452310E+02  0.16477134347E+02  0.14975877337E+02  0.12825253653E+03  0.12508680760E+03 0.  0.
         23    2    1    2    0    0  0.17499452310E+02 -0.16477134347E+02  0.27859910803E+02  0.10623468255E+03  0.99658950222E+02 0.  0.
          5    1    3    3  502    0 -0.54502902232E+02 -0.25589087747E+02  0.33583619795E+02  0.69070251787E+02  0.41800000000E+01 0. -1.
         -5    1    3    3    0  502  0.37003449922E+02  0.42066222094E+02 -0.18607742458E+02  0.59182284738E+02  0.41800000000E+01 0. -1.
        -11    1    4    4    0    0  0.17988366985E+02 -0.57935549046E+02  0.21083734248E+02  0.64223306049E+02  0.00000000000E+00 0. -1.
         11    1    4    4    0    0 -0.48891467474E+00  0.41458414699E+02  0.67761765550E+01  0.42011376502E+02  0.00000000000E+00 0.  1.
</event>
<event>
 8    1  0.7224195E-009  0.2673591E+03  0.7561462E-02  0.1102801E+00
          2   -1    0    0  501    0  0.00000000000E+00  0.00000000000E+00  0.72858085813E+03  0.72858085813E+03  0.00000000000E+00 0. -1.
         -2   -1    0    0    0  501 -0.00000000000E+00 -0.00000000000E+00 -0.10697885406E+03  0.10697885406E+03  0.00000000000E+00 0.  1.
         25    2    1    2    0    0  0.22249320105E+03 -0.11540832926E+03  0.40376539363E+03  0.49142156259E+03  0.12508537928E+03 0.  0.
         23    2    1    2    0    0 -0.22249320105E+03  0.11540832926E+03  0.21783661044E+03  0.34413814960E+03  0.90310410195E+02 0.  0.
          5    1    3    3  502    0  0.10443740461E+02  0.22939152273E+02  0.24554925983E+02  0.35435761765E+02  0.41800000000E+01 0. -1.
         -5    1    3    3    0  502  0.21204946059E+03 -0.13834748153E+03  0.37921046765E+03  0.45598580083E+03  0.41800000000E+01 0. -1.
        -11    1    4    4    0    0 -0.14823216115E+03  0.10336782589E+03  0.10648215426E+03  0.20975254516E+03  0.00000000000E+00 0.  1.
         11    1    4    4    0    0 -0.74261039902E+02  0.12040503367E+02  0.11135445618E+03  0.13438560444E+03  0.00000000000E+00 0. -1.
</event>
<event>
 8    1  0.7224195E-009  0.8722856E+02  0.7561462E-02  0.1309705E+00
          2   -1    0    0  501    0  0.00000000000E+00  0.00000000000E+00  0.28485843209E+03  0.28485843209E+03  0.00000000000E+00 0. -1.
         -2   -1    0    0    0  501 -0.00000000000E+00 -0.00000000000E+00 -0.56694270788E+02  0.56694270788E+02  0.00000000000E+00 0.  1.
         25    2    1    2    0    0 -0.16492889791E+02  0.47674844600E+01  0.43733459857E+02  0.13362147232E+03  0.12508932022E+03 0.  0.
         23    2    1    2    0    0  0.16492889791E+02 -0.47674844600E+01  0.18443070144E+03  0.20793123055E+03  0.94477344815E+02 0.  0.
          5    1    3    3  502    0  0.33729627551E+02  0.36602926397E+02  0.53527539500E+02  0.73212921540E+02  0.41800000000E+01 0. -1.
         -5    1    3    3    0  502 -0.50222517342E+02 -0.31835441937E+02 -0.97940796435E+01  0.60408550781E+02  0.41800000000E+01 0. -1.
        -11    1    4    4    0    0  0.34478963930E+02  0.15498556280E+02  0.23015209479E+02  0.44257248760E+02  0.00000000000E+00 0.  1.
         11    1    4    4    0    0 -0.17986074140E+02 -0.20266040740E+02  0.16141549196E+03  0.16367398179E+03  0.00000000000E+00 0. -1.
</event>
<event>
 8    1  0.7224195E-009  0.9995263E+02  0.7561462E-02  0.1280396E+00
          2   -1    0    0  501    0  0.00000000000E+00  0.00000000000E+00  0.15248457864E+04  0.15248457864E+04  0.00000000000E+00 0. -1.
         -2   -1    0    0    0  501 -0.00000000000E+00 -0.00000000000E+00 -0.10960749278E+02  0.10960749278E+02  0.00000000000E+00 0.  1.
         25    2    1    2    0    0  0.71636616529E+01 -0.34676442188E+02  0.12063598263E+04  0.12133436736E+04  0.12508023885E+03 0.  0.
         23    2    1    2    0    0 -0.71636616529E+01  0.34676442188E+02  0.30752521083E+03  0.32246286205E+03  0.90314829427E+02 0.  0.
          5    1    3    3  502    0  0.12130751823E+01  0.37494025986E+02  0.15675635052E+03  0.16123678043E+03  0.41800000000E+01 0.  1.
         -5    1    3    3    0  502  0.59505864707E+01 -0.72170468174E+02  0.10496034758E+04  0.10521068932E+04  0.41800000000E+01 0.  1.
        -11    1    4    4    0    0  0.29208228739E+02 -0.11020994542E+02  0.54721766404E+02  0.63000433849E+02  0.00000000000E+00 0.  1.
         11    1    4    4    0    0 -0.36371890392E+02  0.45697436730E+02  0.25280344442E+03  0.25946242820E+03  0.00000000000E+00 0. -1.
</event>
<event>
 8    1  0.7224195E-009  0.1048000E+03  0.7561462E-02  0.1270514E+00
         -2   -1    0    0    0  501 -0.00000000000E+00  0.00000000000E+00  0.40559457978E+02  0.40559457978E+02  0.00000000000E+00 0.  1.
          2   -1    0    0  501    0  0.00000000000E+00 -0.00000000000E+00 -0.43840816870E+03  0.43840816870E+03  0.00000000000E+00 0. -1.
         25    2    1    2    0    0  0.62625347374E+01  0.61153050270E+02 -0.30297004129E+03  0.33349354434E+03  0.12509269882E+03 0.  0.
         23    2    1    2    0    0 -0.62625347374E+01 -0.61153050270E+02 -0.94878669438E+02  0.14547408234E+03  0.91552344706E+02 0.  0.
          5    1    3    3  502    0  0.18471229191E+02  0.82863186833E+02 -0.29501281778E+03  0.30701389072E+03  0.41800000000E+01 0.  1.
         -5    1    3    3    0  502 -0.12208694454E+02 -0.21710136563E+02 -0.79572235097E+01  0.26479653620E+02  0.41800000000E+01 0.  1.
        -11    1    4    4    0    0  0.27821571375E+02  0.16691183087E+01 -0.15406369991E+01  0.27914142510E+02  0.00000000000E+00 0.  1.
         11    1    4    4    0    0 -0.34084106113E+02 -0.62822168579E+02 -0.93338032439E+02  0.11755993983E+03  0.00000000000E+00 0. -1.
</event>
<event>
 8    1  0.7224195E-009  0.1311747E+03  0.7561462E-02  0.1225723E+00
         -1   -1    0    0    0  501 -0.00000000000E+00  0.00000000000E+00  0.45526633275E+02  0.45526633275E+02  0.00000000000E+00 0.  1.
          1   -1    0    0  501    0  0.00000000000E+00 -0.00000000000E+00 -0.44883725404E+03  0.44883725404E+03  0.00000000000E+00 0. -1.
         25    2    1    2    0    0  0.11602292098E+02 -0.80764069973E+02 -0.30826585012E+03  0.34253941033E+03  0.12509182667E+03 0.  0.
         23    2    1    2    0    0 -0.11602292098E+02  0.80764069973E+02 -0.95044770645E+02  0.15182447698E+03  0.85788782502E+02 0.  0.
          5    1    3    3  502    0  0.31848899151E+02  0.24680265177E+02 -0.64852288730E+02  0.76464106742E+02  0.41800000000E+01 0.  1.
         -5    1    3    3    0  502 -0.20246607053E+02 -0.10544433515E+03 -0.24341356139E+03  0.26607530359E+03  0.41800000000E+01 0.  1.
        -11    1    4    4    0    0 -0.45138688179E+02  0.59480907542E+02 -0.79781695324E+02  0.10927304536E+03  0.00000000000E+00 0. -1.
         11    1    4    4    0    0  0.33536396081E+02  0.21283162430E+02 -0.15263075321E+02  0.42551431625E+02  0.00000000000E+00 0.  1.
</event>
<event>
 8    1  0.7224195E-009  0.1364952E+03  0.7561462E-02  0.1218124E+00
         -3   -1    0    0    0  501 -0.00000000000E+00  0.00000000000E+00  0.68987180032E+02  0.68987180032E+02  0.00000000000E+00 0.  1.
          3   -1    0    0  501    0  0.00000000000E+00 -0.00000000000E+00 -0.34357921445E+03  0.34357921445E+03  0.00000000000E+00 0. -1.
         25    2    1    2    0    0  0.11718478011E+01 -0.10761284853E+03 -0.12189781162E+03  0.20515267552E+03  0.12508655164E+03 0.  0.
         23    2    1    2    0    0 -0.11718478011E+01  0.10761284853E+03 -0.15269422280E+03  0.20741371896E+03  0.90127835547E+02 0.  0.
          5    1    3    3  502    0  0.16443802260E+02 -0.12675644412E+03 -0.12650614752E+03  0.17988572072E+03  0.41800000000E+01 0.  1.
         -5    1    3    3    0  502 -0.15271954459E+02  0.19143595591E+02  0.46083359003E+01  0.25266954801E+02  0.41800000000E+01 0.  1.
        -11    1    4    4    0    0 -0.21960995331E+02  0.18379180951E+02 -0.94802811165E+02  0.99033593356E+02  0.00000000000E+00 0. -1.
         11    1    4    4    0    0  0.20789147530E+02  0.89233667581E+02 -0.57891411637E+02  0.10838012561E+03  0.00000000000E+00 0.  1.
</event>
<event>
 8    1  0.7224195E-009  0.1586396E+03  0.7561462E-02  0.1190241E+00
          2   -1    0    0  501    0  0.00000000000E+00  0.00000000000E+00  0.33219683441E+03  0.33219683441E+03  0.00000000000E+00 0. -1.
         -2   -1    0    0    0  501 -0.00000000000E+00 -0.00000000000E+00 -0.77097573237E+02  0.77097573237E+02  0.00000000000E+00 0.  1.
         25    2    1    2    0    0  0.88013799351E+02 -0.76369315879E+02  0.12850673778E+03  0.21386921471E+03  0.12508940027E+03 0.  0.
         23    2    1    2    0    0 -0.88013799351E+02  0.76369315879E+02  0.12659252339E+03  0.19542519294E+03  0.92664112651E+02 0.  0.
          5    1    3    3  502    0 -0.10574841386E+02  0.25565731861E+02  0.30767158783E+02  0.41587550728E+02  0.41800000000E+01 0. -1.
         -5    1    3    3    0  502  0.98588640737E+02 -0.10193504774E+03  0.97739579001E+02  0.17228166398E+03  0.41800000000E+01 0. -1.
        -11    1    4    4    0    0 -0.10506552785E+03  0.50825298950E+02  0.88379955169E+02  0.14640011145E+03  0.00000000000E+00 0.  1.
         11    1    4    4    0    0  0.17051728497E+02  0.25544016929E+02  0.38212568217E+02  0.49025081492E+02  0.00000000000E+00 0. -1.
</event>
<event>
 8    1  0.7224195E-009  0.1090832E+03  0.7561462E-02  0.1262277E+00
         -1   -1    0    0    0  501 -0.00000000000E+00  0.00000000000E+00  0.24589421221E+02  0.24589421221E+02  0.00000000000E+00 0.  1.
          1   -1    0    0  501    0  0.00000000000E+00 -0.00000000000E+00 -0.57910720874E+03  0.57910720874E+03  0.00000000000E+00 0. -1.
         25    2    1    2    0    0 -0.39053889336E+02 -0.24245114944E+02 -0.37445989835E+03  0.39746743991E+03  0.12508844250E+03 0.  0.
         23    2    1    2    0    0  0.39053889336E+02  0.24245114944E+02 -0.18005788917E+03  0.20622919005E+03  0.89423730100E+02 0.  0.
          5    1    3    3  502    0 -0.18648334412E+02 -0.75004302174E+02 -0.19470371931E+03  0.20952426216E+03  0.41800000000E+01 0.  1.
         -5    1    3    3    0  502 -0.20405554925E+02  0.50759187230E+02 -0.17975617904E+03  0.18794317775E+03  0.41800000000E+01 0.  1.
        -11    1    4    4    0    0 -0.11682902227E+02  0.32462723343E+02 -0.12993504028E+03  0.13443746987E+03  0.00000000000E+00 0. -1.
         11    1    4    4    0    0  0.50736791563E+02 -0.82176083987E+01 -0.50122848885E+02  0.71791720179E+02  0.00000000000E+00 0.  1.
</event>
<event>
 8    1  0.7224195E-009  0.1105734E+03  0.7561462E-02  0.1259512E+00
         -2   -1    0    0    0  501 -0.00000000000E+00  0.00000000000E+00  0.65112932704E+02  0.65112932704E+02  0.00000000000E+00 0.  1.
          2   -1    0    0  501    0  0.00000000000E+00 -0.00000000000E+00 -0.25675291114E+03  0.25675291114E+03  0.00000000000E+00 0. -1.
         25    2    1    2    0    0 -0.30958851637E+02 -0.57947701577E+02 -0.14050762521E+03  0.19926996828E+03  0.12509892447E+03 0.  0.
         23    2    1    2    0    0  0.30958851637E+02  0.57947701577E+02 -0.51132353228E+02  0.12259587556E+03  0.89993580578E+02 0.  0.
          5    1    3    3  502    0  0.37322503555E+02 -0.62304223821E+02 -0.71433229003E+02  0.10195569716E+03  0.41800000000E+01 0.  1.
         -5    1    3    3    0  502 -0.68281355192E+02  0.43565222433E+01 -0.69074396205E+02  0.97314271123E+02  0.41800000000E+01 0.  1.
        -11    1    4    4    0    0  0.77924702797E+01  0.56069928166E+02  0.97369004176E+01  0.57440113747E+02  0.00000000000E+00 0.  1.
         11    1    4    4    0    0  0.23166381357E+02  0.18777734115E+01 -0.60869253645E+02  0.65155761814E+02  0.00000000000E+00 0. -1.
</event>
<event>
 8    1  0.7224195E-009  0.1183414E+03  0.7561462E-02  0.1245859E+00
          1   -1    0    0  501    0  0.00000000000E+00  0.00000000000E+00  0.57172988731E+02  0.57172988731E+02  0.00000000000E+00 0. -1.
         -1   -1    0    0    0  501 -0.00000000000E+00 -0.00000000000E+00 -0.28475979645E+03  0.28475979645E+03  0.00000000000E+00 0.  1.
         25    2    1    2    0    0 -0.27255705523E+02 -0.54333950930E+02 -0.17460859286E+03  0.22322936740E+03  0.12509251801E+03 0.  0.
         23    2    1    2    0    0  0.27255705523E+02  0.54333950930E+02 -0.52978214865E+02  0.11870341778E+03  0.87113480222E+02 0.  0.
          5    1    3    3  502    0  0.45554467324E+02 -0.26627713567E+02 -0.10947064581E+03  0.12159580304E+03  0.41800000000E+01 0.  1.
         -5    1    3    3    0  502 -0.72810172846E+02 -0.27706237363E+02 -0.65137947048E+02  0.10163356436E+03  0.41800000000E+01 0.  1.
        -11    1    4    4    0    0  0.18071067137E+02 -0.22215619984E+02 -0.93964554232E+01  0.30139519128E+02  0.00000000000E+00 0.  1.
         11    1    4    4    0    0  0.91846383859E+01  0.76549570914E+02 -0.43581759442E+02  0.88563898657E+02  0.00000000000E+00 0. -1.
</event>
<event>
 8    1  0.7224195E-009  0.1571702E+03  0.7561462E-02  0.1191929E+00
          1   -1    0    0  501    0  0.00000000000E+00  0.00000000000E+00  0.32833468819E+03  0.32833468819E+03  0.00000000000E+00 0. -1.
         -1   -1    0    0    0  501 -0.00000000000E+00 -0.00000000000E+00 -0.93957533632E+02  0.93957533632E+02  0.00000000000E+00 0.  1.
         25    2    1    2    0    0 -0.16037114813E+02 -0.13581085281E+03  0.99258076039E+02  0.21023697347E+03  0.12508254299E+03 0.  0.
         23    2    1    2    0    0  0.16037114813E+02  0.13581085281E+03  0.13511907852E+03  0.21205524835E+03  0.89490145720E+02 0.  0.
          5    1    3    3  502    0 -0.56423400668E+02 -0.46564233095E+02  0.37674710410E+01  0.73372298483E+02  0.41800000000E+01 0.  1.
         -5    1    3    3    0  502  0.40386285855E+02 -0.89246619718E+02  0.95490604998E+02  0.13686467499E+03  0.41800000000E+01 0.  1.
        -11    1    4    4    0    0 -0.14383014630E+02  0.41601786444E+02 -0.65342257549E+00  0.44022797574E+02  0.00000000000E+00 0.  1.
         11    1    4    4    0    0  0.30420129443E+02  0.94209066369E+02  0.13577250109E+03  0.16803245078E+03  0.00000000000E+00 0. -1.
</event>
<event>
 8    1  0.7224195E-009  0.9240245E+02  0.7561462E-02  0.1297136E+00
          1   -1    0    0  501    0  0.00000000000E+00  0.00000000000E+00  0.25284303309E+03  0.25284303309E+03  0.00000000000E+00 0. -1.
         -1   -1    0    0    0  501 -0.00000000000E+00 -0.00000000000E+00 -0.80975426035E+02  0.80975426035E+02  0.00000000000E+00 0.  1.
         25    2    1    2    0    0 -0.57145394097E+02  0.36990379068E+02  0.16782701193E+03  0.22010621703E+03  0.12508779570E+03 0.  0.
         23    2    1    2    0    0  0.57145394097E+02 -0.36990379068E+02  0.40405951202E+01  0.11371224209E+03  0.90995952557E+02 0.  0.
          5    1    3    3  502    0 -0.27771779776E+02  0.41025497235E+02  0.90004801015E-01  0.49717639487E+02  0.41800000000E+01 0.  1.
         -5    1    3    3    0  502 -0.29373614321E+02 -0.40351181667E+01  0.16773700713E+03  0.17038857754E+03  0.41800000000E+01 0.  1.
        -11    1    4    4    0    0  0.71794546825E+02 -0.48392471282E+02  0.20418977464E+02  0.88956297536E+02  0.00000000000E+00 0. -1.
         11    1    4    4    0    0 -0.14649152728E+02  0.11402092214E+02 -0.16378382344E+02  0.24755944553E+02  0.00000000000E+00 0.  1.
</event>
<event>
 8    1  0.7224195E-009  0.1076434E+03  0.7561462E-02  0.1264997E+00
         -2   -1    0    0    0  501 -0.00000000000E+00  0.00000000000E+00  0.14760294861E+03  0.14760294861E+03  0.00000000000E+00 0.  1.
          2   -1    0    0  501    0  0.00000000000E+00 -0.00000000000E+00 -0.80345118775E+02  0.80345118775E+02  0.00000000000E+00 0. -1.
         25    2    1    2    0    0 -0.23608893009E+02 -0.24476672037E+01  0.30030485611E+02  0.13081444202E+03  0.12508883752E+03 0.  0.
         23    2    1    2    0    0  0.23608893009E+02  0.24476672037E+01  0.37227344221E+02  0.97133625357E+02  0.86519911659E+02 0.  0.
          5    1    3    3  502    0  0.92047747812E+01 -0.59105240890E+02  0.35618140460E+01  0.60069262512E+02  0.41800000000E+01 0.  1.
         -5    1    3    3    0  502 -0.32813667790E+02  0.56657573687E+02  0.26468671565E+02  0.70745179513E+02  0.41800000000E+01 0.  1.
        -11    1    4    4    0    0  0.85592556788E+01  0.44362870830E+02  0.18593487275E+02  0.48857373395E+02  0.00000000000E+00 0. -1.
         11    1    4    4    0    0  0.15049637330E+02 -0.41915203626E+02  0.18633856945E+02  0.48276251962E+02  0.00000000000E+00 0.  1.
</event>
<event>
 8    1  0.7224195E-009  0.9223021E+02  0.7561462E-02  0.1297539E+00
         -1   -1    0    0    0  501 -0.00000000000E+00  0.00000000000E+00  0.30497515933E+02  0.30497515933E+02  0.00000000000E+00 0.  1.
          1   -1    0    0  501    0  0.00000000000E+00 -0.00000000000E+00 -0.56093518212E+03  0.56093518212E+03  0.00000000000E+00 0. -1.
         25    2    1    2    0    0  0.19295895166E+02  0.43811920851E+02 -0.18277681286E+03  0.22659994237E+03  0.12509338346E+03 0.  0.
         23    2    1    2    0    0 -0.19295895166E+02 -0.43811920851E+02 -0.34766085333E+03  0.36483275568E+03  0.99714867009E+02 0.  0.
          5    1    3    3  502    0  0.48380357410E+02  0.48444900919E+02 -0.18446534328E+03  0.19680574859E+03  0.41800000000E+01 0. -1.
         -5    1    3    3    0  502 -0.29084462244E+02 -0.46329800674E+01  0.16885304142E+01  0.29794193785E+02  0.41800000000E+01 0. -1.
        -11    1    4    4    0    0 -0.12924661731E+02  0.19004026709E+02 -0.18033890400E+02  0.29213372194E+02  0.00000000000E+00 0.  1.
         11    1    4    4    0    0 -0.63712334342E+01 -0.62815947560E+02 -0.32962696293E+03  0.33561938349E+03  0.00000000000E+00 0. -1.
</event>
<event>
 8    1  0.7224195E-009  0.1116046E+03  0.7561462E-02  0.1257627E+00
         -4   -1    0    0    0  501 -0.00000000000E+00  0.00000000000E+00  0.36610842410E+03  0.36610842410E+03  0.00000000000E+00 0.  1.
          4   -1    0    0  501    0  0.00000000000E+00 -0.00000000000E+00 -0.42360697966E+02  0.42360697966E+02  0.00000000000E+00 0. -1.
         25    2    1    2    0    0  0.23200541333E+02 -0.46138131034E+02  0.11400239832E+03  0.17694954865E+03  0.12509038209E+03 0.  0.
         23    2    1    2    0    0 -0.23200541333E+02  0.46138131034E+02  0.20974532781E+03  0.23151957341E+03  0.83313972897E+02 0.  0.
          5    1    3    3  502    0 -0.49031800887E+02 -0.10847310213E+02  0.22823141498E+02  0.55318620961E+02  0.41800000000E+01 0.  1.
         -5    1    3    3    0  502  0.72232342221E+02 -0.35290820820E+02  0.91179256823E+02  0.12163092769E+03  0.41800000000E+01 0.  1.
        -11    1    4    4    0    0  0.14151390292E+02  0.52547067412E+02  0.15987754412E+03  0.16888542049E+03  0.00000000000E+00 0.  1.
         11    1    4    4    0    0 -0.37351931625E+02 -0.64089363782E+01  0.49867783695E+02  0.62634152922E+02  0.00000000000E+00 0. -1.
</event>
<event>
 8    1  0.7224195E-009  0.1945865E+03  0.7561462E-02  0.1154388E+00
         -2   -1    0    0    0  501 -0.00000000000E+00  0.00000000000E+00  0.18996362392E+03  0.18996362392E+03  0.00000000000E+00 0.  1.
          2   -1    0    0  501    0  0.00000000000E+00 -0.00000000000E+00 -0.21048449481E+03  0.21048449481E+03  0.00000000000E+00 0. -1.
         25    2    1    2    0    0  0.16079073948E+03 -0.37490170542E+02  0.18192053860E+02  0.20793802843E+03  0.12509235810E+03 0.  0.
         23    2    1    2    0    0 -0.16079073948E+03  0.37490170542E+02 -0.38712924748E+02  0.19251009031E+03  0.91116790648E+02 0.  0.
          5    1    3    3  502    0  0.17668831686E+03 -0.13133288381E+02  0.10360793455E+02  0.17752764016E+03  0.41800000000E+01 0. -1.
         -5    1    3    3    0  502 -0.15897577383E+02 -0.24356882161E+02  0.78312604045E+01  0.30410388271E+02  0.41800000000E+01 0. -1.
        -11    1    4    4    0    0 -0.11177821499E+03  0.61938082403E+02 -0.43784916440E+01  0.12786659684E+03  0.00000000000E+00 0.  1.
         11    1    4    4    0    0 -0.49012524489E+02 -0.24447911861E+02 -0.34334433104E+02  0.64643493468E+02  0.00000000000E+00 0. -1.
</event>
<event>
 8    1  0.7224195E-009  0.1821212E+03  0.7561462E-02  0.1165766E+00
         -2   -1    0    0    0  501 -0.00000000000E+00  0.00000000000E+00  0.15073037022E+03  0.15073037022E+03  0.00000000000E+00 0.  1.
          2   -1    0    0  501    0  0.00000000000E+00 -0.00000000000E+00 -0.25132108480E+03  0.25132108480E+03  0.00000000000E+00 0. -1.
         25    2    1    2    0    0 -0.92313482328E+02 -0.13152126277E+03 -0.65413489960E+02  0.21388272680E+03  0.12508906657E+03 0.  0.
         23    2    1    2    0    0  0.92313482328E+02  0.13152126277E+03 -0.35177224617E+02  0.18816872822E+03  0.91380586390E+02 0.  0.
          5    1    3    3  502    0 -0.37506840358E+02  0.13280987567E+02 -0.40643711462E+02  0.57030968656E+02  0.41800000000E+01 0. -1.
         -5    1    3    3    0  502 -0.54806641969E+02 -0.14480225034E+03 -0.24769778498E+02  0.15685175815E+03  0.41800000000E+01 0. -1.
        -11    1    4    4    0    0  0.27285507916E+02  0.85332154131E+02  0.19214644737E+02  0.91625749892E+02  0.00000000000E+00 0.  1.
         11    1    4    4    0    0  0.65027974412E+02  0.46189108638E+02 -0.54391869355E+02  0.96542978330E+02  0.00000000000E+00 0. -1.
</event>
<event>
 8    1  0.7224195E-009  0.1093448E+03  0.7561462E-02  0.1261788E+00
          2   -1    0    0  501    0  0.00000000000E+00  0.00000000000E+00  0.70936951364E+03  0.70936951364E+03  0.00000000000E+00 0. -1.
         -2   -1    0    0    0  501 -0.00000000000E+00 -0.00000000000E+00 -0.27931893047E+02  0.27931893047E+02  0.00000000000E+00 0.  1.
         25    2    1    2    0    0  0.88393084887E+02  0.35267484091E+01  0.34140182515E+03  0.37420412042E+03  0.12509093538E+03 0.  0.
         23    2    1    2    0    0 -0.88393084887E+02 -0.35267484091E+01  0.34003579545E+03  0.36309728627E+03  0.91594332261E+02 0.  0.
          5    1    3    3  502    0  0.84813843877E+01 -0.20552918130E+02 -0.10292240513E+00  0.22623866112E+02  0.41800000000E+01 0. -1.
         -5    1    3    3    0  502  0.79911700499E+02  0.24079666540E+02  0.34150474755E+03  0.35158025431E+03  0.41800000000E+01 0. -1.
        -11    1    4    4    0    0 -0.71609112594E+02  0.27916349294E+02  0.29910987393E+03  0.30882665728E+03  0.00000000000E+00 0. -1.
         11    1    4    4    0    0 -0.16783972293E+02 -0.31443097703E+02  0.40925921516E+02  0.54270628990E+02  0.00000000000E+00 0.  1.
</event>
<event>
 8    1  0.7224195E-009  0.2173110E+03  0.7561462E-02  0.1135904E+00
         -2   -1    0    0    0  501 -0.00000000000E+00  0.00000000000E+00  0.10810467382E+03  0.10810467382E+03  0.00000000000E+00 0. -1.
          2   -1    0    0  501    0  0.00000000000E+00 -0.00000000000E+00 -0.45739654201E+03  0.45739654201E+03  0.00000000000E+00 0.  1.
         25    2    1    2    0    0  0.12671068233E+03  0.14594263013E+03 -0.18263547749E+03  0.29386698840E+03  0.12508893207E+03 0.  0.
         23    2    1    2    0    0 -0.12671068233E+03 -0.14594263013E+03 -0.16665639071E+03  0.27163422744E+03  0.93037372302E+02 0.  0.
          5    1    3    3  502    0  0.13809737023E+03  0.83740644448E+02 -0.15769545535E+03  0.22576250405E+03  0.41800000000E+01 0.  1.
         -5    1    3    3    0  502 -0.11386687895E+02  0.62201985685E+02 -0.24940022137E+02  0.68104484350E+02  0.41800000000E+01 0.  1.
        -11    1    4    4    0    0  0.11581131669E+02 -0.17284715082E+02 -0.37268679328E+02  0.42682999485E+02  0.00000000000E+00 0.  1.
         11    1    4    4    0    0 -0.13829181400E+03 -0.12865791505E+03 -0.12938771138E+03  0.22895122795E+03  0.00000000000E+00 0. -1.
</event>
<event>
 8    1  0.7224195E-009  0.9113798E+02  0.7561462E-02  0.1300119E+00
         -2   -1    0    0    0  501 -0.00000000000E+00  0.00000000000E+00  0.87990709248E+02  0.87990709248E+02  0.00000000000E+00 0.  1.
          2   -1    0    0  501    0  0.00000000000E+00 -0.00000000000E+00 -0.21523866057E+03  0.21523866057E+03  0.00000000000E+00 0. -1.
         25    2    1    2    0    0  0.32159519647E+02 -0.25673006285E+02 -0.15116142921E+03  0.20047692342E+03  0.12509149126E+03 0.  0.
         23    2    1    2    0    0 -0.32159519647E+02  0.25673006285E+02  0.23913477890E+02  0.10275244640E+03  0.91065212136E+02 0.  0.
          5    1    3    3  502    0  0.57574084044E+02 -0.23486933136E+02 -0.16113816437E+03  0.17276976471E+03  0.41800000000E+01 0.  1.
         -5    1    3    3    0  502 -0.25414564397E+02 -0.21860731484E+01  0.99767351553E+01  0.27707158708E+02  0.41800000000E+01 0.  1.
        -11    1    4    4    0    0 -0.60508174348E+02  0.25745791097E+02  0.14496094601E+00  0.65757934395E+02  0.00000000000E+00 0. -1.
         11    1    4    4    0    0  0.28348654701E+02 -0.72784812186E-01  0.23768516944E+02  0.36994512008E+02  0.00000000000E+00 0.  1.
</event>
<event>
 8    1  0.7224195E-009  0.8733600E+02  0.7561462E-02  0.1309434E+00
          1   -1    0    0  501    0  0.00000000000E+00  0.00000000000E+00  0.40854627532E+03  0.40854627532E+03  0.00000000000E+00 0. -1.
         -1   -1    0    0    0  501 -0.00000000000E+00 -0.00000000000E+00 -0.42063800687E+02  0.42063800687E+02  0.00000000000E+00 0.  1.
         25    2    1    2    0    0 -0.30830991078E+02 -0.59072894592E+02  0.15996980452E+03  0.21371787213E+03  0.12507930933E+03 0.  0.
         23    2    1    2    0    0  0.30830991078E+02  0.59072894592E+02  0.20651267011E+03  0.23689220388E+03  0.95027766762E+02 0.  0.
          5    1    3    3  502    0 -0.19861916965E+02 -0.24597083912E+02  0.17233177429E+03  0.17525759645E+03  0.41800000000E+01 0.  1.
         -5    1    3    3    0  502 -0.10969074113E+02 -0.34475810680E+02 -0.12361969768E+02  0.38460275681E+02  0.41800000000E+01 0.  1.
        -11    1    4    4    0    0 -0.72508525438E+00 -0.20628541659E+02  0.10946741797E+02  0.23364366792E+02  0.00000000000E+00 0.  1.
         11    1    4    4    0    0  0.31556076332E+02  0.79701436250E+02  0.19556592832E+03  0.21352783709E+03  0.00000000000E+00 0. -1.
</event>
<event>
 8    1  0.7224195E-009  0.1057146E+03  0.7561462E-02  0.1268718E+00
          2   -1    0    0  501    0  0.00000000000E+00  0.00000000000E+00  0.17358258279E+03  0.17358258279E+03  0.00000000000E+00 0. -1.
         -2   -1    0    0    0  501 -0.00000000000E+00 -0.00000000000E+00 -0.95586514620E+02  0.95586514620E+02  0.00000000000E+00 0.  1.
         25    2    1    2    0    0  0.55602676754E+01  0.13362701091E+02  0.11428543457E+03  0.17005499945E+03  0.12509222168E+03 0.  0.
         23    2    1    2    0    0 -0.55602676754E+01 -0.13362701091E+02 -0.36289366401E+02  0.99114097963E+02  0.91089011106E+02 0.  0.
          5    1    3    3  502    0 -0.37663921993E+02 -0.36963369580E+02  0.78162787927E+02  0.94402094929E+02  0.41800000000E+01 0. -1.
         -5    1    3    3    0  502  0.43224189668E+02  0.50326070671E+02  0.36122646647E+02  0.75652904521E+02  0.41800000000E+01 0. -1.
        -11    1    4    4    0    0 -0.46690421258E+02  0.50383260154E+01 -0.15164578723E+02  0.49349210877E+02  0.00000000000E+00 0.  1.
         11    1    4    4    0    0  0.41130153583E+02 -0.18401027106E+02 -0.21124787677E+02  0.49764887087E+02  0.00000000000E+00 0. -1.
</event>
<event>
 8    1  0.7224195E-009  0.1378689E+03  0.7561462E-02  0.1216226E+00
         -2   -1    0    0    0  501 -0.00000000000E+00  0.00000000000E+00  0.33704238186E+02  0.33704238186E+02  0.00000000000E+00 0.  1.
          2   -1    0    0  501    0  0.00000000000E+00 -0.00000000000E+00 -0.84815708193E+03  0.84815708193E+03  0.00000000000E+00 0. -1.
         25    2    1    2    0    0 -0.64764010512E+02  0.97974580449E+02 -0.57802634756E+03  0.60295310670E+03  0.12507835518E+03 0.  0.
         23    2    1    2    0    0  0.64764010512E+02 -0.97974580449E+02 -0.23642649619E+03  0.27890821342E+03  0.89993932803E+02 0.  0.
          5    1    3    3  502    0 -0.47859819421E+02  0.10351825804E+03 -0.25456133882E+03  0.27897229197E+03  0.41800000000E+01 0.  1.
         -5    1    3    3    0  502 -0.16904191091E+02 -0.55436775900E+01 -0.32346500874E+03  0.32398081473E+03  0.41800000000E+01 0.  1.
        -11    1    4    4    0    0  0.55677779033E+02 -0.12088464594E+02 -0.61577310425E+02  0.83892259557E+02  0.00000000000E+00 0.  1.
         11    1    4    4    0    0  0.90862314788E+01 -0.85886115854E+02 -0.17484918576E+03  0.19501595386E+03  0.00000000000E+00 0. -1.
</event>
<event>
 8    1  0.7224195E-009  0.1331715E+03  0.7561462E-02  0.1222824E+00
          1   -1    0    0  501    0  0.00000000000E+00  0.00000000000E+00  0.45630116105E+03  0.45630116105E+03  0.00000000000E+00 0. -1.
         -1   -1    0    0    0  501 -0.00000000000E+00 -0.00000000000E+00 -0.47670817981E+02  0.47670817981E+02  0.00000000000E+00 0.  1.
         25    2    1    2    0    0  0.87679904105E+02  0.33693691684E+02  0.15147314224E+03  0.21774883140E+03  0.12508960913E+03 0.  0.
         23    2    1    2    0    0 -0.87679904105E+02 -0.33693691684E+02  0.25715720083E+03  0.28622314763E+03  0.83491519695E+02 0.  0.
          5    1    3    3  502    0  0.40232672422E+02  0.77614949697E+02  0.11100413461E+03  0.14135819271E+03  0.41800000000E+01 0.  1.
         -5    1    3    3    0  502  0.47447231682E+02 -0.43921258013E+02  0.40469007632E+02  0.76390638684E+02  0.41800000000E+01 0.  1.
        -11    1    4    4    0    0 -0.66746145423E+02  0.81500217880E+01  0.20692511170E+03  0.21757636047E+03  0.00000000000E+00 0. -1.
         11    1    4    4    0    0 -0.20933758682E+02 -0.41843713472E+02  0.50232089130E+02  0.68646787165E+02  0.00000000000E+00 0.  1.
</event>
<event>
 8    1  0.7224195E-009  0.1700687E+03  0.7561462E-02  0.1177776E+00
         -1   -1    0    0    0  501 -0.00000000000E+00  0.00000000000E+00  0.21156099506E+02  0.21156099506E+02  0.00000000000E+00 0.  1.
          1   -1    0    0  501    0  0.00000000000E+00 -0.00000000000E+00 -0.19852403957E+04  0.19852403957E+04  0.00000000000E+00 0. -1.
         25    2    1    2    0    0 -0.26380613065E+02  0.14525261147E+03 -0.14652287327E+04  0.14779503730E+04  0.12509119928E+03 0.  0.
         23    2    1    2    0    0  0.26380613065E+02 -0.14525261147E+03 -0.49885556352E+03  0.52844612220E+03  0.92758681136E+02 0.  0.
          5    1    3    3  502    0 -0.53156654532E+02  0.10040185260E+02 -0.49641473777E+03  0.49937110401E+03  0.41800000000E+01 0. -1.
         -5    1    3    3    0  502  0.26776041467E+02  0.13521242621E+03 -0.96881399489E+03  0.97857926899E+03  0.41800000000E+01 0. -1.
        -11    1    4    4    0    0  0.22610784912E+02 -0.97965122549E+02 -0.44699323739E+03  0.45816085287E+03  0.00000000000E+00 0. -1.
         11    1    4    4    0    0  0.37698281528E+01 -0.47287488920E+02 -0.51862326128E+02  0.70285269325E+02  0.00000000000E+00 0.  1.
</event>
<event>
 8    1  0.7224195E-009  0.7675078E+02  0.7561462E-02  0.1338534E+00
          2   -1    0    0  501    0  0.00000000000E+00  0.00000000000E+00  0.78398966126E+02  0.78398966126E+02  0.00000000000E+00 0. -1.
         -2   -1    0    0    0  501 -0.00000000000E+00 -0.00000000000E+00 -0.16889618916E+03  0.16889618916E+03  0.00000000000E+00 0.  1.
         25    2    1    2    0    0 -0.29875946946E+02  0.81471117753E+01 -0.20154988433E+02  0.13043129542E+03  0.12508857513E+03 0.  0.
         23    2    1    2    0    0  0.29875946946E+02 -0.81471117753E+01 -0.70342234605E+02  0.11686385987E+03  0.88035130142E+02 0.  0.
          5    1    3    3  502    0 -0.34559257146E+02 -0.44368163979E+02 -0.44855982943E+02  0.72058364088E+02  0.41800000000E+01 0.  1.
         -5    1    3    3    0  502  0.46833102000E+01  0.52515275754E+02  0.24700994510E+02  0.58372931327E+02  0.41800000000E+01 0.  1.
        -11    1    4    4    0    0  0.22527303271E+02  0.99941305896E+01  0.15303746387E+02  0.29009768913E+02  0.00000000000E+00 0. -1.
         11    1    4    4    0    0  0.73486436753E+01 -0.18141242365E+02 -0.85645980992E+02  0.87854090961E+02  0.00000000000E+00 0.  1.
</event>
<event>
 8    1  0.7224195E-009  0.1364256E+03  0.7561462E-02  0.1218221E+00
         -2   -1    0    0    0  501 -0.00000000000E+00  0.00000000000E+00  0.33419370971E+02  0.33419370971E+02  0.00000000000E+00 0.  1.
          2   -1    0    0  501    0  0.00000000000E+00 -0.00000000000E+00 -0.83755502743E+03  0.83755502743E+03  0.00000000000E+00 0. -1.
         25    2    1    2    0    0  0.10771107744E+03 -0.49099244459E+02 -0.31105985359E+03  0.35555241654E+03  0.12508747494E+03 0.  0.
         23    2    1    2    0    0 -0.10771107744E+03  0.49099244459E+02 -0.49307580287E+03  0.51542198186E+03  0.92323669744E+02 0.  0.
          5    1    3    3  502    0  0.33385967403E+02 -0.31885130685E+02 -0.13414728236E+02  0.48256727116E+02  0.41800000000E+01 0.  1.
         -5    1    3    3    0  502  0.74325110040E+02 -0.17214113773E+02 -0.29764512535E+03  0.30729568943E+03  0.41800000000E+01 0.  1.
        -11    1    4    4    0    0 -0.54503370750E+02  0.73541260959E+02 -0.29562554684E+03  0.30947277494E+03  0.00000000000E+00 0. -1.
         11    1    4    4    0    0 -0.53207706693E+02 -0.24442016500E+02 -0.19745025603E+03  0.20594920691E+03  0.00000000000E+00 0.  1.
</event>
<event>
 8    1  0.7224195E-009  0.2927769E+03  0.7561462E-02  0.1088908E+00
         -1   -1    0    0    0  501 -0.00000000000E+00  0.00000000000E+00  0.61618405572E+02  0.61618405572E+02  0.00000000000E+00 0.  1.
          1   -1    0    0  501    0  0.00000000000E+00 -0.00000000000E+00 -0.15231754311E+04  0.15231754311E+04  0.00000000000E+00 0. -1.
         25    2    1    2    0    0  0.95240349957E+02 -0.25899430496E+03 -0.54041631034E+03  0.61955720873E+03  0.12511023997E+03 0.  0.
         23    2    1    2    0    0 -0.95240349957E+02  0.25899430496E+03 -0.92114071523E+03  0.96523662799E+03  0.83861531651E+02 0.  0.
          5    1    3    3  502    0  0.42844906389E+02 -0.75068214529E+01 -0.10899961633E+03  0.11743264934E+03  0.41800000000E+01 0.  1.
         -5    1    3    3    0  502  0.52395443568E+02 -0.25148748350E+03 -0.43141669401E+03  0.50212455939E+03  0.41800000000E+01 0.  1.
        -11    1    4    4    0    0 -0.25706829866E+02  0.17031823738E+03 -0.48142493799E+03  0.51131117140E+03  0.00000000000E+00 0. -1.
         11    1    4    4    0    0 -0.69533520091E+02  0.88676067576E+02 -0.43971577724E+03  0.45392545658E+03  0.00000000000E+00 0.  1.
</event>
<event>
 8    1  0.7224195E-009  0.7324653E+02  0.7561462E-02  0.1349389E+00
          4   -1    0    0  501    0  0.00000000000E+00  0.00000000000E+00  0.64917437946E+02  0.64917437946E+02  0.00000000000E+00 0. -1.
         -4   -1    0    0    0  501 -0.00000000000E+00 -0.00000000000E+00 -0.27089117216E+03  0.27089117216E+03  0.00000000000E+00 0.  1.
         25    2    1    2    0    0 -0.66147833063E+02 -0.14136933033E+02 -0.66991109726E+02  0.15719795771E+03  0.12509196789E+03 0.  0.
         23    2    1    2    0    0  0.66147833063E+02  0.14136933033E+02 -0.13898262449E+03  0.17861065240E+03  0.89499757244E+02 0.  0.
          5    1    3    3  502    0 -0.28116851508E+02 -0.25875981943E+02 -0.98839779339E+02  0.10605139396E+03  0.41800000000E+01 0.  1.
         -5    1    3    3    0  502 -0.38030981556E+02  0.11739048910E+02  0.31848669612E+02  0.51146563750E+02  0.41800000000E+01 0.  1.
        -11    1    4    4    0    0  0.42502121688E+02  0.12632043766E+02 -0.14704370076E+03  0.15358336112E+03  0.00000000000E+00 0.  1.
         11    1    4    4    0    0  0.23645711375E+02  0.15048892665E+01  0.80610762777E+01  0.25027291282E+02  0.00000000000E+00 0. -1.
</event>
<event>
 8    1  0.7224195E-009  0.1447016E+03  0.7561462E-02  0.1207139E+00
          1   -1    0    0  501    0  0.00000000000E+00  0.00000000000E+00  0.98667178511E+02  0.98667178511E+02  0.00000000000E+00 0. -1.
         -1   -1    0    0    0  501 -0.00000000000E+00 -0.00000000000E+00 -0.24826971697E+03  0.24826971697E+03  0.00000000000E+00 0.  1.
         25    2    1    2    0    0  0.58923072259E+02 -0.78292241803E+02 -0.14161168898E+03  0.21284883479E+03  0.12509657248E+03 0.  0.
         23    2    1    2    0    0 -0.58923072259E+02  0.78292241803E+02 -0.79908494808E+01  0.13408806069E+03  0.91181965172E+02 0.  0.
          5    1    3    3  502    0 -0.42742218328E+01 -0.93289725848E+02 -0.90246530573E+02  0.12993517846E+03  0.41800000000E+01 0. -1.
         -5    1    3    3    0  502  0.63197294092E+02  0.14997484044E+02 -0.51365158403E+02  0.82913656329E+02  0.41800000000E+01 0. -1.
        -11    1    4    4    0    0  0.10470545821E+02  0.57425547191E+02 -0.17654072205E+02  0.60983539298E+02  0.00000000000E+00 0.  1.
         11    1    4    4    0    0 -0.69393618079E+02  0.20866694613E+02  0.96632227243E+01  0.73104521390E+02  0.00000000000E+00 0. -1.
</event>
<event>
 8    1  0.7224195E-009  0.4183524E+03  0.7561462E-02  0.1037604E+00
         -3   -1    0    0    0  501 -0.00000000000E+00  0.00000000000E+00  0.35440762154E+03  0.35440762154E+03  0.00000000000E+00 0.  1.
          3   -1    0    0  501    0  0.00000000000E+00 -0.00000000000E+00 -0.50233350534E+03  0.50233350534E+03  0.00000000000E+00 0. -1.
         25    2    1    2    0    0  0.34687030259E+03 -0.20956879023E+03 -0.11722686166E+03  0.44003102232E+03  0.12508828425E+03 0.  0.
         23    2    1    2    0    0 -0.34687030259E+03  0.20956879023E+03 -0.30699022142E+02  0.41671010455E+03  0.92015197774E+02 0.  0.
          5    1    3    3  502    0  0.67282568814E+02  0.70250604177E+01 -0.37509715293E+02  0.77464486583E+02  0.41800000000E+01 0.  1.
         -5    1    3    3    0  502  0.27958773377E+03 -0.21659385064E+03 -0.79717146369E+02  0.36256653574E+03  0.41800000000E+01 0.  1.
        -11    1    4    4    0    0 -0.24009448681E+03  0.93867342157E+02 -0.10821116609E+02  0.25801848206E+03  0.00000000000E+00 0.  1.
         11    1    4    4    0    0 -0.10677581577E+03  0.11570144807E+03 -0.19877905534E+02  0.15869162249E+03  0.00000000000E+00 0. -1.
</event>
<event>
 8    1  0.7224195E-009  0.1414589E+03  0.7561462E-02  0.1211379E+00
         -1   -1    0    0    0  501 -0.00000000000E+00  0.00000000000E+00  0.49835691749E+02  0.49835691749E+02  0.00000000000E+00 0.  1.
          1   -1    0    0  501    0  0.00000000000E+00 -0.00000000000E+00 -0.66947770370E+03  0.66947770370E+03  0.00000000000E+00 0. -1.
         25    2    1    2    0    0  0.10393855821E+03  0.69497347105E+02 -0.46877749723E+03  0.50103097948E+03  0.12508635155E+03 0.  0.
         23    2    1    2    0    0 -0.10393855821E+03 -0.69497347105E+02 -0.15086451472E+03  0.21828241597E+03  0.96197745214E+02 0.  0.
          5    1    3    3  502    0  0.80351245251E+02  0.52069340242E+02 -0.13291187315E+03  0.16386145743E+03  0.41800000000E+01 0. -1.
         -5    1    3    3    0  502  0.23587312962E+02  0.17428006863E+02 -0.33586562408E+03  0.33716952204E+03  0.41800000000E+01 0. -1.
        -11    1    4    4    0    0 -0.12241843961E+02 -0.64469156279E+02 -0.56278289743E+02  0.86448717465E+02  0.00000000000E+00 0. -1.
         11    1    4    4    0    0 -0.91696714251E+02 -0.50281908256E+01 -0.94586224975E+02  0.13183369851E+03  0.00000000000E+00 0.  1.
</event>
<event>
 8    1  0.7224195E-009  0.1988953E+03  0.7561462E-02  0.1150674E+00
          1   -1    0    0  501    0  0.00000000000E+00  0.00000000000E+00  0.13858074379E+04  0.13858074379E+04  0.00000000000E+00 0. -1.
         -1   -1    0    0    0  501 -0.00000000000E+00 -0.00000000000E+00 -0.33197040243E+02  0.33197040243E+02  0.00000000000E+00 0.  1.
         25    2    1    2    0    0 -0.11769422569E+03  0.14143491152E+03  0.75825656149E+03  0.79022425421E+03  0.12508234864E+03 0.  0.
         23    2    1    2    0    0  0.11769422569E+03 -0.14143491152E+03  0.59435383612E+03  0.62878022389E+03  0.90842294572E+02 0.  0.
          5    1    3    3  502    0  0.18585303295E+02  0.31988275345E+02  0.61719007478E+02  0.72078925784E+02  0.41800000000E+01 0. -1.
         -5    1    3    3    0  502 -0.13627952899E+03  0.10944663617E+03  0.69653755401E+03  0.71814532843E+03  0.41800000000E+01 0. -1.
        -11    1    4    4    0    0  0.86275411798E+02 -0.11956022752E+03  0.55346436700E+03  0.57276600827E+03  0.00000000000E+00 0. -1.
         11    1    4    4    0    0  0.31418813895E+02 -0.21874684002E+02  0.40889469115E+02  0.56014215618E+02  0.00000000000E+00 0.  1.
</event>
<event>
 8    1  0.7224195E-009  0.1078297E+03  0.7561462E-02  0.1264643E+00
          2   -1    0    0  501    0  0.00000000000E+00  0.00000000000E+00  0.37642560451E+03  0.37642560451E+03  0.00000000000E+00 0. -1.
         -2   -1    0    0    0  501 -0.00000000000E+00 -0.00000000000E+00 -0.45302738188E+02  0.45302738188E+02  0.00000000000E+00 0.  1.
         25    2    1    2    0    0  0.62667905616E+02  0.36634364808E+02  0.17261901498E+03  0.22519798035E+03  0.12508981950E+03 0.  0.
         23    2    1    2    0    0 -0.62667905616E+02 -0.36634364808E+02  0.15850385135E+03  0.19653036236E+03  0.90726894334E+02 0.  0.
          5    1    3    3  502    0 -0.18952786979E+02 -0.30596330515E+02  0.27001649619E+02  0.45187443581E+02  0.41800000000E+01 0. -1.
         -5    1    3    3    0  502  0.81620692595E+02  0.67230695323E+02  0.14561736536E+03  0.18001053677E+03  0.41800000000E+01 0. -1.
        -11    1    4    4    0    0 -0.40125957535E+02 -0.16539203245E+02  0.16050131661E+03  0.16626578225E+03  0.00000000000E+00 0. -1.
         11    1    4    4    0    0 -0.22541948081E+02 -0.20095161563E+02 -0.19974652631E+01  0.30264580107E+02  0.00000000000E+00 0.  1.
</event>
<event>
 8    1  0.7224195E-009  0.1146643E+03  0.7561462E-02  0.1252168E+00
          1   -1    0    0  501    0  0.00000000000E+00  0.00000000000E+00  0.16022738863E+02  0.16022738863E+02  0.00000000000E+00 0. -1.
         -1   -1    0    0    0  501 -0.00000000000E+00 -0.00000000000E+00 -0.10272301220E+04  0.10272301220E+04  0.00000000000E+00 0.  1.
         25    2    1    2    0    0  0.57466832102E+02 -0.29875181984E+02 -0.69051103714E+03  0.70473301133E+03  0.12509261196E+03 0.  0.
         23    2    1    2    0    0 -0.57466832102E+02  0.29875181984E+02 -0.32069634596E+03  0.33851984949E+03  0.86917080576E+02 0.  0.
          5    1    3    3  502    0 -0.14928460232E+02 -0.53087303140E+02 -0.42290585085E+03  0.42650668431E+03  0.41800000000E+01 0. -1.
         -5    1    3    3    0  502  0.72395292334E+02  0.23212121156E+02 -0.26760518629E+03  0.27822632702E+03  0.41800000000E+01 0. -1.
        -11    1    4    4    0    0 -0.52381659214E+02 -0.13595051755E+02 -0.24655413282E+03  0.25242346179E+03  0.00000000000E+00 0.  1.
         11    1    4    4    0    0 -0.50851728875E+01  0.43470233739E+02 -0.74142213141E+02  0.86096387695E+02  0.00000000000E+00 0. -1.
</event>
<event>
 8    1  0.7224195E-009  0.7609355E+02  0.7561462E-02  0.1340518E+00
         -1   -1    0    0    0  501 -0.00000000000E+00  0.00000000000E+00  0.95010099815E+02  0.95010099815E+02  0.00000000000E+00 0.  1.
          1   -1    0    0  501    0  0.00000000000E+00 -0.00000000000E+00 -0.12772241107E+03  0.12772241107E+03  0.00000000000E+00 0. -1.
         25    2    1    2    0    0  0.15982600294E+02  0.65894559477E+01 -0.66271972883E+01  0.12645153184E+03  0.12508879134E+03 0.  0.
         23    2    1    2    0    0 -0.15982600294E+02 -0.65894559477E+01 -0.26085113968E+02  0.96280979043E+02  0.91053442070E+02 0.  0.
          5    1    3    3  502    0  0.19190263597E+02  0.53823606857E+02 -0.38677101717E+02  0.69127689598E+02  0.41800000000E+01 0. -1.
         -5    1    3    3    0  502 -0.32076633037E+01 -0.47234150909E+02  0.32049904428E+02  0.57323842246E+02  0.41800000000E+01 0. -1.
        -11    1    4    4    0    0  0.10445061085E+02 -0.16173531298E+02  0.28784054413E+02  0.34629527923E+02  0.00000000000E+00 0.  1.
         11    1    4    4    0    0 -0.26427661379E+02  0.95840753499E+01 -0.54869168381E+02  0.61651451119E+02  0.00000000000E+00 0. -1.
</event>
<event>
 8    1  0.7224195E-009  0.1555684E+03  0.7561462E-02  0.1193793E+00
         -2   -1    0    0    0  501 -0.00000000000E+00  0.00000000000E+00  0.65770177588E+02  0.65770177588E+02  0.00000000000E+00 0.  1.
          2   -1    0    0  501    0  0.00000000000E+00 -0.00000000000E+00 -0.48850415610E+03  0.48850415610E+03  0.00000000000E+00 0. -1.
         25    2    1    2    0    0  0.10360503368E+03 -0.71684049770E+02 -0.12192955707E+03  0.21537591127E+03  0.12508940912E+03 0.  0.
         23    2    1    2    0    0 -0.10360503368E+03  0.71684049770E+02 -0.30080442144E+03  0.33889842242E+03  0.92175022447E+02 0.  0.
          5    1    3    3  502    0  0.12230831452E+03 -0.88239693596E+02 -0.11308547584E+03  0.18855069497E+03  0.41800000000E+01 0. -1.
         -5    1    3    3    0  502 -0.18703280844E+02  0.16555643826E+02 -0.88440812330E+01  0.26825216303E+02  0.41800000000E+01 0. -1.
        -11    1    4    4    0    0 -0.51969239249E+01  0.25870822186E+02 -0.15442046882E+03  0.15665882882E+03  0.00000000000E+00 0. -1.
         11    1    4    4    0    0 -0.98408109754E+02  0.45813227584E+02 -0.14638395262E+03  0.18223959359E+03  0.00000000000E+00 0.  1.
</event>
<event>
 8    1  0.7224195E-009  0.1293018E+03  0.7561462E-02  0.1228495E+00
         -4   -1    0    0    0  501 -0.00000000000E+00  0.00000000000E+00  0.11681969927E+03  0.11681969927E+03  0.00000000000E+00 0.  1.
          4   -1    0    0  501    0  0.00000000000E+00 -0.00000000000E+00 -0.24790872751E+03  0.24790872751E+03  0.00000000000E+00 0. -1.
         25    2    1    2    0    0 -0.15158169843E+02  0.97043867550E+02 -0.16126256992E+03  0.22649799132E+03  0.12509372994E+03 0.  0.
         23    2    1    2    0    0  0.15158169843E+02 -0.97043867550E+02  0.30173541675E+02  0.13823043546E+03  0.92465822492E+02 0.  0.
          5    1    3    3  502    0 -0.65694082105E+02  0.39513948608E+02 -0.50933320097E+02  0.92134358706E+02  0.41800000000E+01 0. -1.
         -5    1    3    3    0  502  0.50535912262E+02  0.57529918943E+02 -0.11032924982E+03  0.13436363261E+03  0.41800000000E+01 0. -1.
        -11    1    4    4    0    0  0.26647366634E+02 -0.49385965621E+02  0.58947102787E+02  0.81386833553E+02  0.00000000000E+00 0.  1.
         11    1    4    4    0    0 -0.11489196791E+02 -0.47657901929E+02 -0.28773561111E+02  0.56843601911E+02  0.00000000000E+00 0. -1.
</event>
<event>
 8    1  0.7224195E-009  0.1388283E+03  0.7561462E-02  0.1214914E+00
         -1   -1    0    0    0  501 -0.00000000000E+00  0.00000000000E+00  0.81106759896E+02  0.81106759896E+02  0.00000000000E+00 0.  1.
          1   -1    0    0  501    0  0.00000000000E+00 -0.00000000000E+00 -0.38569928077E+03  0.38569928077E+03  0.00000000000E+00 0. -1.
         25    2    1    2    0    0  0.49163831473E+02  0.12822207501E+03 -0.19799913934E+03  0.27149364233E+03  0.12508859182E+03 0.  0.
         23    2    1    2    0    0 -0.49163831473E+02 -0.12822207501E+03 -0.10659338154E+03  0.19531239833E+03  0.89032584536E+02 0.  0.
          5    1    3    3  502    0  0.24929553713E+01  0.40465523280E+02 -0.15982174136E+03  0.16493676004E+03  0.41800000000E+01 0.  1.
         -5    1    3    3    0  502  0.46670876101E+02  0.87756551732E+02 -0.38177397975E+02  0.10655688229E+03  0.41800000000E+01 0.  1.
        -11    1    4    4    0    0 -0.71697839111E+01 -0.24133777384E+02  0.15422175418E+02  0.29524371404E+02  0.00000000000E+00 0.  1.
         11    1    4    4    0    0 -0.41994047562E+02 -0.10408829763E+03 -0.12201555696E+03  0.16578802693E+03  0.00000000000E+00 0. -1.
</event>
<event>
 8    1  0.7224195E-009  0.6441480E+02  0.7561462E-02  0.1380186E+00
          1   -1    0    0  501    0  0.00000000000E+00  0.00000000000E+00  0.35847924477E+02  0.35847924477E+02  0.00000000000E+00 0. -1.
         -1   -1    0    0    0  501 -0.00000000000E+00 -0.00000000000E+00 -0.42576368212E+03  0.42576368212E+03  0.00000000000E+00 0.  1.
         25    2    1    2    0    0 -0.36767196412E-01  0.16908841502E+02 -0.31338868766E+03  0.33785478500E+03  0.12508987139E+03 0.  0.
         23    2    1    2    0    0  0.36767196412E-01 -0.16908841502E+02 -0.76527069981E+02  0.12375682159E+03  0.95778119515E+02 0.  0.
          5    1    3    3  502    0  0.13999744855E+02  0.48021385805E+02 -0.45436868007E+02  0.67705448267E+02  0.41800000000E+01 0.  1.
         -5    1    3    3    0  502 -0.14036512052E+02 -0.31112544303E+02 -0.26795181965E+03  0.27014933674E+03  0.41800000000E+01 0.  1.
        -11    1    4    4    0    0  0.13666344040E+02  0.80129134385E+01 -0.90657292524E+02  0.92031084037E+02  0.00000000000E+00 0.  1.
         11    1    4    4    0    0 -0.13629576844E+02 -0.24921754941E+02  0.14130222543E+02  0.31725737555E+02  0.00000000000E+00 0. -1.
</event>
<event>
 8    1  0.7224195E-009  0.1634670E+03  0.7561462E-02  0.1184837E+00
         -2   -1    0    0    0  501 -0.00000000000E+00  0.00000000000E+00  0.58806291098E+02  0.58806291098E+02  0.00000000000E+00 0.  1.
          2   -1    0    0  501    0  0.00000000000E+00 -0.00000000000E+00 -0.73598872586E+03  0.73598872586E+03  0.00000000000E+00 0. -1.
         25    2    1    2    0    0 -0.29095846705E+02 -0.13085495016E+03 -0.13186907309E+03  0.22584683977E+03  0.12509099216E+03 0.  0.
         23    2    1    2    0    0  0.29095846705E+02  0.13085495016E+03 -0.54531336168E+03  0.56894817720E+03  0.91464635985E+02 0.  0.
          5    1    3    3  502    0  0.24172707944E+02 -0.11364394786E+03 -0.12258376779E+03  0.16894827380E+03  0.41800000000E+01 0.  1.
         -5    1    3    3    0  502 -0.53268554649E+02 -0.17211002301E+02 -0.92853052972E+01  0.56898565966E+02  0.41800000000E+01 0.  1.
        -11    1    4    4    0    0 -0.14247189245E+02  0.10077834343E+03 -0.43387049326E+03  0.44564880997E+03  0.00000000000E+00 0.  1.
         11    1    4    4    0    0  0.43343035950E+02  0.30076606721E+02 -0.11144286842E+03  0.12329936723E+03  0.00000000000E+00 0. -1.
</event>
<event>
 8    1  0.7224195E-009  0.7025482E+02  0.7561462E-02  0.1359229E+00
         -3   -1    0    0    0  501 -0.00000000000E+00  0.00000000000E+00  0.22915410331E+03  0.22915410331E+03  0.00000000000E+00 0.  1.
          3   -1    0    0  501    0  0.00000000000E+00 -0.00000000000E+00 -0.53060885325E+02  0.53060885325E+02  0.00000000000E+00 0. -1.
         25    2    1    2    0    0  0.12691022200E+02  0.74663929368E+01  0.85659249289E+02  0.15232033645E+03  0.12508864393E+03 0.  0.
         23    2    1    2    0    0 -0.12691022200E+02 -0.74663929368E+01  0.90433968696E+02  0.12989465218E+03  0.92073388680E+02 0.  0.
          5    1    3    3  502    0  0.35572176304E+02  0.71412099525E+01 -0.21691673748E+02  0.42477967425E+02  0.41800000000E+01 0.  1.
         -5    1    3    3    0  502 -0.22881154104E+02  0.32518298436E+00  0.10735092304E+03  0.10984236903E+03  0.41800000000E+01 0.  1.
        -11    1    4    4    0    0  0.23914622488E+02 -0.29518994216E+02  0.10762811976E+02  0.39485672210E+02  0.00000000000E+00 0. -1.
         11    1    4    4    0    0 -0.36605644688E+02  0.22052601279E+02  0.79671156720E+02  0.90408979970E+02  0.00000000000E+00 0.  1.
</event>
<event>
 8    1  0.7224195E-009  0.1521179E+03  0.7561462E-02  0.1197894E+00
          2   -1    0    0  501    0  0.00000000000E+00  0.00000000000E+00  0.87676825016E+03  0.87676825016E+03  0.00000000000E+00 0. -1.
         -2   -1    0    0    0  501 -0.00000000000E+00 -0.00000000000E+00 -0.29044050823E+02  0.29044050823E+02  0.00000000000E+00 0.  1.
         25    2    1    2    0    0 -0.31998332031E+02  0.10487530691E+03  0.56867052118E+03  0.59250113470E+03  0.12509480290E+03 0.  0.
         23    2    1    2    0    0  0.31998332031E+02 -0.10487530691E+03  0.27905367815E+03  0.31331116628E+03  0.90940686008E+02 0.  0.
          5    1    3    3  502    0 -0.72479243339E+02  0.10083816225E+03  0.45649831609E+03  0.47310650035E+03  0.41800000000E+01 0.  1.
         -5    1    3    3    0  502  0.40480911307E+02  0.40371446553E+01  0.11217220509E+03  0.11939463436E+03  0.41800000000E+01 0.  1.
        -11    1    4    4    0    0 -0.35184030831E+01 -0.10348218529E+03  0.17480060811E+03  0.20316543611E+03  0.00000000000E+00 0.  1.
         11    1    4    4    0    0  0.35516735114E+02 -0.13931216131E+01  0.10425307004E+03  0.11014573017E+03  0.00000000000E+00 0. -1.
</event>
<event>
 8    1  0.7224195E-009  0.1161088E+03  0.7561462E-02  0.1249658E+00
         -3   -1    0    0    0  501 -0.00000000000E+00  0.00000000000E+00  0.32373915614E+03  0.32373915614E+03  0.00000000000E+00 0.  1.
          3   -1    0    0  501    0  0.00000000000E+00 -0.00000000000E+00 -0.60839776780E+02  0.60839776780E+02  0.00000000000E+00 0. -1.
         25    2    1    2    0    0  0.14208942619E+02  0.80907457897E+02  0.10252578311E+03  0.18140545158E+03  0.12509392818E+03 0.  0.
         23    2    1    2    0    0 -0.14208942619E+02 -0.80907457897E+02  0.16037359625E+03  0.20317348134E+03  0.93871520450E+02 0.  0.
          5    1    3    3  502    0  0.34517415136E+02 -0.11121886787E+02  0.74550935892E+02  0.83008811314E+02  0.41800000000E+01 0. -1.
         -5    1    3    3    0  502 -0.20308472517E+02  0.92029344684E+02  0.27974847217E+02  0.98396640267E+02  0.41800000000E+01 0. -1.
        -11    1    4    4    0    0 -0.33917730586E+02 -0.25111704975E+02  0.12678718018E+02  0.44065406675E+02  0.00000000000E+00 0. -1.
         11    1    4    4    0    0  0.19708787967E+02 -0.55795752922E+02  0.14769487823E+03  0.15910807466E+03  0.00000000000E+00 0.  1.
</event>
<event>
 8    1  0.7224195E-009  0.1723974E+03  0.7561462E-02  0.1175371E+00
          1   -1    0    0  501    0  0.00000000000E+00  0.00000000000E+00  0.64784138916E+02  0.64784138916E+02  0.00000000000E+00 0. -1.
         -1   -1    0    0    0  501 -0.00000000000E+00 -0.00000000000E+00 -0.54287160038E+03  0.54287160038E+03  0.00000000000E+00 0.  1.
         25    2    1    2    0    0  0.19380880963E+02 -0.13689324761E+03 -0.35553059869E+03  0.40145299588E+03  0.12508845473E+03 0.  0.
         23    2    1    2    0    0 -0.19380880963E+02  0.13689324761E+03 -0.12255686277E+03  0.20620274341E+03  0.91564223322E+02 0.  0.
          5    1    3    3  502    0  0.21767339417E+02 -0.16065427520E+03 -0.30694412078E+03  0.34715382598E+03  0.41800000000E+01 0. -1.
         -5    1    3    3    0  502 -0.23864584544E+01  0.23761027599E+02 -0.48586477909E+02  0.54299169903E+02  0.41800000000E+01 0. -1.
        -11    1    4    4    0    0 -0.46261180380E+02  0.11413694893E+03 -0.66399430177E+02  0.13991506084E+03  0.00000000000E+00 0.  1.
         11    1    4    4    0    0  0.26880299417E+02  0.22756298677E+02 -0.56157432591E+02  0.66287682577E+02  0.00000000000E+00 0. -1.
</event>
<event>
 8    1  0.7224195E-009  0.1019589E+03  0.7561462E-02  0.1276230E+00
         -1   -1    0    0    0  501 -0.00000000000E+00  0.00000000000E+00  0.18484955611E+02  0.18484955611E+02  0.00000000000E+00 0.  1.
          1   -1    0    0  501    0  0.00000000000E+00 -0.00000000000E+00 -0.10190983449E+04  0.10190983449E+04  0.00000000000E+00 0. -1.
         25    2    1    2    0    0  0.27668749678E+02  0.57629762060E+02 -0.75597006997E+03  0.76891071254E+03  0.12508472324E+03 0.  0.
         23    2    1    2    0    0 -0.27668749678E+02 -0.57629762060E+02 -0.24464331928E+03  0.26867258793E+03  0.90817711122E+02 0.  0.
          5    1    3    3  502    0 -0.49545439040E+02  0.27734760360E+02 -0.27252038786E+03  0.27840402594E+03  0.41800000000E+01 0. -1.
         -5    1    3    3    0  502  0.77214188718E+02  0.29895001700E+02 -0.48344968211E+03  0.49050668660E+03  0.41800000000E+01 0. -1.
        -11    1    4    4    0    0 -0.11055240064E+02 -0.18232396192E+02 -0.10423553445E+01  0.21347719045E+02  0.00000000000E+00 0.  1.
         11    1    4    4    0    0 -0.16613509614E+02 -0.39397365868E+02 -0.24360096394E+03  0.24732486889E+03  0.00000000000E+00 0. -1.
</event>
<event>
 8    1  0.7224195E-009  0.2538079E+03  0.7561462E-02  0.1110922E+00
         -4   -1    0    0    0  501 -0.00000000000E+00  0.00000000000E+00  0.28572903364E+03  0.28572903364E+03  0.00000000000E+00 0. -1.
          4   -1    0    0  501    0  0.00000000000E+00 -0.00000000000E+00 -0.24318649960E+03  0.24318649960E+03  0.00000000000E+00 0.  1.
         25    2    1    2    0    0  0.22085513562E+03  0.86781929441E+02 -0.14615255939E+02  0.26864321494E+03  0.12508987578E+03 0.  0.
         23    2    1    2    0    0 -0.22085513562E+03 -0.86781929441E+02  0.57157789974E+02  0.26027231830E+03  0.90369090451E+02 0.  0.
          5    1    3    3  502    0  0.17738356005E+03  0.11712259644E+03 -0.26222051276E+02  0.21421414133E+03  0.41800000000E+01 0.  1.
         -5    1    3    3    0  502  0.43471575571E+02 -0.30340666999E+02  0.11606795337E+02  0.54429073615E+02  0.41800000000E+01 0.  1.
        -11    1    4    4    0    0 -0.10676740303E+03 -0.66990822173E+02  0.69312324819E+02  0.14384452363E+03  0.00000000000E+00 0.  1.
         11    1    4    4    0    0 -0.11408773259E+03 -0.19791107267E+02 -0.12154534845E+02  0.11642779467E+03  0.00000000000E+00 0. -1.
</event>
<event>
 8    1  0.7224195E-009  0.2281032E+03  0.7561462E-02  0.1127982E+00
          2   -1    0    0  501    0  0.00000000000E+00  0.00000000000E+00  0.81021935347E+03  0.81021935347E+03  0.00000000000E+00 0.  1.
         -2   -1    0    0    0  501 -0.00000000000E+00 -0.00000000000E+00 -0.96743450353E+02  0.96743450353E+02  0.00000000000E+00 0. -1.
         25    2    1    2    0    0 -0.38088822812E+01  0.21795657836E+03  0.58915563796E+03  0.64052367360E+03  0.12508650236E+03 0.  0.
         23    2    1    2    0    0  0.38088822812E+01 -0.21795657836E+03  0.12432026517E+03  0.26643913022E+03  0.89524880049E+02 0.  0.
          5    1    3    3  502    0  0.14817277407E+02  0.14687693527E+03  0.51613540502E+03  0.53684785045E+03  0.41800000000E+01 0. -1.
         -5    1    3    3    0  502 -0.18626159688E+02  0.71079643096E+02  0.73020232940E+02  0.10367582315E+03  0.41800000000E+01 0. -1.
        -11    1    4    4    0    0 -0.36792231439E+02 -0.15992037126E+03  0.77059332171E+02  0.18129074470E+03  0.00000000000E+00 0.  1.
         11    1    4    4    0    0  0.40601113720E+02 -0.58036207099E+02  0.47260932994E+02  0.85148385523E+02  0.00000000000E+00 0. -1.
</event>
<event>
 8    1  0.7224195E-009  0.1328601E+03  0.7561462E-02  0.1223273E+00
          1   -1    0    0  501    0  0.00000000000E+00  0.00000000000E+00  0.84942236988E+03  0.84942236988E+03  0.00000000000E+00 0. -1.
         -1   -1    0    0    0  501 -0.00000000000E+00 -0.00000000000E+00 -0.37607154715E+02  0.37607154715E+02  0.00000000000E+00 0.  1.
         25    2    1    2    0    0 -0.92142177523E+02  0.36720155086E+02  0.67352869573E+03  0.69219108032E+03  0.12509611118E+03 0.  0.
         23    2    1    2    0    0  0.92142177523E+02 -0.36720155086E+02  0.13828651943E+03  0.19483844427E+03  0.94869949097E+02 0.  0.
          5    1    3    3  502    0 -0.88228113983E+02  0.77980564383E+02  0.51120917764E+03  0.52461172711E+03  0.41800000000E+01 0. -1.
         -5    1    3    3    0  502 -0.39140635408E+01 -0.41260409298E+02  0.16231951810E+03  0.16757935321E+03  0.41800000000E+01 0. -1.
        -11    1    4    4    0    0  0.17933441230E+02 -0.25519207020E+02 -0.64051881659E+01  0.31841241759E+02  0.00000000000E+00 0.  1.
         11    1    4    4    0    0  0.74208736293E+02 -0.11200948066E+02  0.14469170760E+03  0.16299720251E+03  0.00000000000E+00 0. -1.
</event>
<event>
 8    1  0.7224195E-009  0.1073473E+03  0.7561462E-02  0.1265563E+00
          2   -1    0    0  501    0  0.00000000000E+00  0.00000000000E+00  0.80986677781E+03  0.80986677781E+03  0.00000000000E+00 0.  1.
         -2   -1    0    0    0  501 -0.00000000000E+00 -0.00000000000E+00 -0.16169892250E+02  0.16169892250E+02  0.00000000000E+00 0. -1.
         25    2    1    2    0    0  0.26402325488E+02 -0.29687858669E+02  0.43237354990E+03  0.45185461788E+03  0.12508899754E+03 0.  0.
         23    2    1    2    0    0 -0.26402325488E+02  0.29687858669E+02  0.36132333567E+03  0.37418205218E+03  0.88764877822E+02 0.  0.
          5    1    3    3  502    0 -0.47253209907E+02  0.53425716587E+01  0.12465756528E+03  0.13348554191E+03  0.41800000000E+01 0. -1.
         -5    1    3    3    0  502  0.73655535396E+02 -0.35030430328E+02  0.30771598462E+03  0.31836907597E+03  0.41800000000E+01 0. -1.
        -11    1    4    4    0    0 -0.21953495198E+02  0.55192648362E+02  0.31964517091E+03  0.32511723989E+03  0.00000000000E+00 0.  1.
         11    1    4    4    0    0 -0.44488302905E+01 -0.25504789693E+02  0.41678164754E+02  0.49064812294E+02  0.00000000000E+00 0. -1.
</event>
<event>
 8    1  0.7224195E-009  0.2018106E+03  0.7561462E-02  0.1148220E+00
         -2   -1    0    0    0  501 -0.00000000000E+00  0.00000000000E+00  0.44040998339E+03  0.44040998339E+03  0.00000000000E+00 0.  1.
          2   -1    0    0  501    0  0.00000000000E+00 -0.00000000000E+00 -0.12640024843E+03  0.12640024843E+03  0.00000000000E+00 0. -1.
         25    2    1    2    0    0  0.17672245134E+03 -0.25395823724E+02  0.30234978945E+02  0.22008468214E+03  0.12508933084E+03 0.  0.
         23    2    1    2    0    0 -0.17672245134E+03  0.25395823724E+02  0.28377475602E+03  0.34672554968E+03  0.88400916149E+02 0.  0.
          5    1    3    3  502    0 -0.17968487348E+02  0.74729388296E+00  0.13535689549E+02  0.22893498581E+02  0.41800000000E+01 0.  1.
         -5    1    3    3    0  502  0.19469093869E+03 -0.26143117607E+02  0.16699289395E+02  0.19719118356E+03  0.41800000000E+01 0.  1.
        -11    1    4    4    0    0 -0.17744620150E+03  0.14808521140E+02  0.28498991594E+03  0.33604419190E+03  0.00000000000E+00 0.  1.
         11    1    4    4    0    0  0.72375015448E+00  0.10587302585E+02 -0.12151599221E+01  0.10681357776E+02  0.00000000000E+00 0. -1.
</event>
<event>
 8    1  0.7224195E-009  0.1193611E+03  0.7561462E-02  0.1244155E+00
          1   -1    0    0  501    0  0.00000000000E+00  0.00000000000E+00  0.36976673492E+03  0.36976673492E+03  0.00000000000E+00 0. -1.
         -1   -1    0    0    0  501 -0.00000000000E+00 -0.00000000000E+00 -0.67673183033E+02  0.67673183033E+02  0.00000000000E+00 0.  1.
         25    2    1    2    0    0 -0.67936811196E+02 -0.36377615905E+02  0.48514779992E+02  0.15472592158E+03  0.12509070979E+03 0.  0.
         23    2    1    2    0    0  0.67936811196E+02  0.36377615905E+02  0.25357877190E+03  0.28271399638E+03  0.98418844413E+02 0.  0.
          5    1    3    3  502    0 -0.97212259566E+02 -0.45376967281E+02  0.13804326250E+02  0.10824659067E+03  0.41800000000E+01 0.  1.
         -5    1    3    3    0  502  0.29275448370E+02  0.89993513755E+01  0.34710453741E+02  0.46479330905E+02  0.41800000000E+01 0.  1.
        -11    1    4    4    0    0  0.12184271830E+02  0.42638388732E+02  0.20096707127E+03  0.20580148787E+03  0.00000000000E+00 0. -1.
         11    1    4    4    0    0  0.55752539366E+02 -0.62607728270E+01  0.52611700627E+02  0.76912508508E+02  0.00000000000E+00 0.  1.
</event>
<event>
 8    1  0.7224195E-009  0.7797491E+02  0.7561462E-02  0.1334899E+00
          2   -1    0    0  501    0  0.00000000000E+00  0.00000000000E+00  0.57266778649E+03  0.57266778649E+03  0.00000000000E+00 0. -1.
         -2   -1    0    0    0  501 -0.00000000000E+00 -0.00000000000E+00 -0.29747325449E+02  0.29747325449E+02  0.00000000000E+00 0.  1.
         25    2    1    2    0    0 -0.19089664482E+02 -0.85416978768E+01  0.46322818077E+03  0.48027555072E+03  0.12508749444E+03 0.  0.
         23    2    1    2    0    0  0.19089664482E+02  0.85416978768E+01  0.79692280276E+02  0.12213956123E+03  0.90165608678E+02 0.  0.
          5    1    3    3  502    0  0.90661719012E+00  0.37185270383E+02  0.42731544569E+02  0.56806897375E+02  0.41800000000E+01 0. -1.
         -5    1    3    3    0  502 -0.19996281672E+02 -0.45726968260E+02  0.42049663620E+03  0.42346865334E+03  0.41800000000E+01 0. -1.
        -11    1    4    4    0    0  0.26583743369E+02  0.33276600763E+02  0.47375521477E+01  0.42854077637E+02  0.00000000000E+00 0.  1.
         11    1    4    4    0    0 -0.74940788866E+01 -0.24734902886E+02  0.74954728128E+02  0.79285483589E+02  0.00000000000E+00 0. -1.
</event>
<event>
 8    1  0.7224195E-009  0.1002503E+03  0.7561462E-02  0.1279771E+00
          1   -1    0    0  501    0  0.00000000000E+00  0.00000000000E+00  0.13571275292E+03  0.13571275292E+03  0.00000000000E+00 0. -1.
         -1   -1    0    0    0  501 -0.00000000000E+00 -0.00000000000E+00 -0.12634333658E+03  0.12634333658E+03  0.00000000000E+00 0.  1.
         25    2    1    2    0    0  0.69274135699E+02  0.22209273266E+01 -0.18856163536E+02  0.14424725435E+03  0.12509147489E+03 0.  0.
         23    2    1    2    0    0 -0.69274135699E+02 -0.22209273266E+01  0.28225579872E+02  0.11780883515E+03  0.90985712540E+02 0.  0.
          5    1    3    3  502    0  0.89083021281E+02 -0.23342312532E+02  0.19166518592E+02  0.94156657066E+02  0.41800000000E+01 0. -1.
         -5    1    3    3    0  502 -0.19808885582E+02  0.25563239859E+02 -0.38022682128E+02  0.50090597284E+02  0.41800000000E+01 0. -1.
        -11    1    4    4    0    0 -0.28118078792E+02  0.14071794123E+02  0.56941791958E+02  0.65046209852E+02  0.00000000000E+00 0. -1.
         11    1    4    4    0    0 -0.41156056906E+02 -0.16292721449E+02 -0.28716212085E+02  0.52762625302E+02  0.00000000000E+00 0.  1.
</event>
<event>
 8    1  0.7224195E-009  0.3585884E+03  0.7561462E-02  0.1059144E+00
          1   -1    0    0  501    0  0.00000000000E+00  0.00000000000E+00  0.17040179352E+03  0.17040179352E+03  0.00000000000E+00 0. -1.
         -1   -1    0    0    0  501 -0.00000000000E+00 -0.00000000000E+00 -0.14363510087E+04  0.14363510087E+04  0.00000000000E+00 0.  1.
         25    2    1    2    0    0  0.27039181877E+03 -0.22243987502E+03 -0.11743220114E+04  0.12317757738E+04  0.12509251347E+03 0.  0.
         23    2    1    2    0    0 -0.27039181877E+03  0.22243987502E+03 -0.91627203815E+02  0.37497702841E+03  0.98086664245E+02 0.  0.
          5    1    3    3  502    0  0.72824724464E+02 -0.12327269099E+03 -0.34656305132E+03  0.37499735703E+03  0.41800000000E+01 0. -1.
         -5    1    3    3    0  502  0.19756709430E+03 -0.99167184034E+02 -0.82775896007E+03  0.85677841682E+03  0.41800000000E+01 0. -1.
        -11    1    4    4    0    0 -0.13325818785E+03  0.81551628350E+02  0.41348010146E+01  0.15628662545E+03  0.00000000000E+00 0.  1.
         11    1    4    4    0    0 -0.13713363092E+03  0.14088824667E+03 -0.95762004830E+02  0.21869040296E+03  0.00000000000E+00 0. -1.
</event>
<event>
 8    1  0.7224195E-009  0.2055853E+03  0.7561462E-02  0.1145110E+00
         -2   -1    0    0    0  501 -0.00000000000E+00  0.00000000000E+00  0.72922440319E+02  0.72922440319E+02  0.00000000000E+00 0.  1.
          2   -1    0    0  501    0  0.00000000000E+00 -0.00000000000E+00 -0.77195332096E+03  0.77195332096E+03  0.00000000000E+00 0. -1.
         25    2    1    2    0    0  0.19075267639E+03 -0.16919709584E+02 -0.20542902101E+03  0.30744285076E+03  0.12508862333E+03 0.  0.
         23    2    1    2    0    0 -0.19075267639E+03  0.16919709584E+02 -0.49360185963E+03  0.53743291052E+03  0.92295597731E+02 0.  0.
          5    1    3    3  502    0  0.99970823364E+02  0.18512540285E+02 -0.17978987957E+03  0.20658836576E+03  0.41800000000E+01 0.  1.
         -5    1    3    3    0  502  0.90781853025E+02 -0.35432249869E+02 -0.25639141437E+02  0.10085448499E+03  0.41800000000E+01 0.  1.
        -11    1    4    4    0    0 -0.11307296635E+03 -0.35086783750E+02 -0.25384226967E+03  0.28009369144E+03  0.00000000000E+00 0.  1.
         11    1    4    4    0    0 -0.77679710044E+02  0.52006493333E+02 -0.23975958996E+03  0.25733921909E+03  0.00000000000E+00 0. -1.
</event>
<event>
 8    1  0.7224195E-009  0.1126160E+03  0.7561462E-02  0.1255801E+00
         -2   -1    0    0    0  501 -0.00000000000E+00  0.00000000000E+00  0.10871394713E+03  0.10871394713E+03  0.00000000000E+00 0.  1.
          2   -1    0    0  501    0  0.00000000000E+00 -0.00000000000E+00 -0.24721031102E+03  0.24721031102E+03  0.00000000000E+00 0. -1.
         25    2    1    2    0    0 -0.73240771988E+02 -0.38983298381E+02 -0.17012777555E+03  0.22688182116E+03  0.12509193629E+03 0.  0.
         23    2    1    2    0    0  0.73240771988E+02  0.38983298381E+02  0.31631411668E+02  0.12904243699E+03  0.93634908592E+02 0.  0.
          5    1    3    3  502    0 -0.26630156788E+02 -0.58422020104E+02 -0.16358926209E+03  0.17578741922E+03  0.41800000000E+01 0.  1.
         -5    1    3    3    0  502 -0.46610615200E+02  0.19438721723E+02 -0.65385134628E+01  0.51094401943E+02  0.41800000000E+01 0.  1.
        -11    1    4    4    0    0  0.79052501516E+02  0.52910686286E+02  0.12661915074E+01  0.95133810815E+02  0.00000000000E+00 0. -1.
         11    1    4    4    0    0 -0.58117295275E+01 -0.13927387905E+02  0.30365220160E+02  0.33908626179E+02  0.00000000000E+00 0.  1.
</event>
<event>
 8    1  0.7224195E-009  0.1172308E+03  0.7561462E-02  0.1247737E+00
         -1   -1    0    0    0  501 -0.00000000000E+00  0.00000000000E+00  0.20212279808E+02  0.20212279808E+02  0.00000000000E+00 0.  1.
          1   -1    0    0  501    0  0.00000000000E+00 -0.00000000000E+00 -0.81627393876E+03  0.81627393876E+03  0.00000000000E+00 0. -1.
         25    2    1    2    0    0 -0.83190750422E+00 -0.67831842514E+02 -0.50195458075E+03  0.52173533037E+03  0.12508997920E+03 0.  0.
         23    2    1    2    0    0  0.83190750422E+00  0.67831842514E+02 -0.29410707820E+03  0.31475088819E+03  0.89259717912E+02 0.  0.
          5    1    3    3  502    0 -0.47744893646E+02 -0.58480190367E+02 -0.16653211869E+03  0.18289321061E+03  0.41800000000E+01 0. -1.
         -5    1    3    3    0  502  0.46912986141E+02 -0.93516521474E+01 -0.33542246206E+03  0.33884211976E+03  0.41800000000E+01 0. -1.
        -11    1    4    4    0    0  0.56644495872E+01 -0.21060513740E+02 -0.40920774319E+02  0.46369612884E+02  0.00000000000E+00 0.  1.
         11    1    4    4    0    0 -0.48325420829E+01  0.88892356254E+02 -0.25318630388E+03  0.26838127531E+03  0.00000000000E+00 0. -1.
</event>
<event>
 8    1  0.7224195E-009  0.3448605E+03  0.7561462E-02  0.1064744E+00
          2   -1    0    0  501    0  0.00000000000E+00  0.00000000000E+00  0.11567570244E+04  0.11567570244E+04  0.00000000000E+00 0. -1.
         -2   -1    0    0    0  501 -0.00000000000E+00 -0.00000000000E+00 -0.11143594732E+03  0.11143594732E+03  0.00000000000E+00 0.  1.
         25    2    1    2    0    0 -0.22377649504E+03 -0.25756336368E+03  0.57340990213E+03  0.67886734787E+03  0.12508858500E+03 0.  0.
         23    2    1    2    0    0  0.22377649504E+03  0.25756336368E+03  0.47191117494E+03  0.58932562384E+03  0.90497115088E+02 0.  0.
          5    1    3    3  502    0 -0.22589672467E+02 -0.58159062136E+02  0.20379861898E+03  0.21317626347E+03  0.41800000000E+01 0. -1.
         -5    1    3    3    0  502 -0.20118682258E+03 -0.19940430154E+03  0.36961128316E+03  0.46569108440E+03  0.41800000000E+01 0. -1.
        -11    1    4    4    0    0  0.96159017509E+02  0.79187791931E+02  0.11021620112E+03  0.16632761054E+03  0.00000000000E+00 0.  1.
         11    1    4    4    0    0  0.12761747754E+03  0.17837557175E+03  0.36169497382E+03  0.42299801330E+03  0.00000000000E+00 0. -1.
</event>
<event>
 8    1  0.7224195E-009  0.1104472E+03  0.7561462E-02  0.1259744E+00
         -2   -1    0    0    0  501 -0.00000000000E+00  0.00000000000E+00  0.24656342046E+02  0.24656342046E+02  0.00000000000E+00 0.  1.
          2   -1    0    0  501    0  0.00000000000E+00 -0.00000000000E+00 -0.78111385879E+03  0.78111385879E+03  0.00000000000E+00 0. -1.
         25    2    1    2    0    0  0.63420902475E+02 -0.53722151159E+01 -0.24573188097E+03  0.28298810890E+03  0.12508813248E+03 0.  0.
         23    2    1    2    0    0 -0.63420902475E+02  0.53722151159E+01 -0.51072563577E+03  0.52278209193E+03  0.91702611997E+02 0.  0.
          5    1    3    3  502    0  0.73710467390E+02 -0.31985583122E+02 -0.24060037152E+03  0.25369730331E+03  0.41800000000E+01 0.  1.
         -5    1    3    3    0  502 -0.10289564915E+02  0.26613368006E+02 -0.51315094478E+01  0.29290805588E+02  0.41800000000E+01 0.  1.
        -11    1    4    4    0    0 -0.11160918264E+02  0.44776135462E+02 -0.20528146804E+03  0.21040425262E+03  0.00000000000E+00 0.  1.
         11    1    4    4    0    0 -0.52259984211E+02 -0.39403920346E+02 -0.30544416774E+03  0.31237783931E+03  0.00000000000E+00 0. -1.
</event>
<event>
 8    1  0.7224195E-009  0.8549359E+02  0.7561462E-02  0.1314147E+00
          1   -1    0    0  501    0  0.00000000000E+00  0.00000000000E+00  0.27013127014E+03  0.27013127014E+03  0.00000000000E+00 0. -1.
         -1   -1    0    0    0  501 -0.00000000000E+00 -0.00000000000E+00 -0.47301481099E+02  0.47301481099E+02  0.00000000000E+00 0.  1.
         25    2    1    2    0    0  0.28322558182E+02 -0.14170923602E+02  0.12360702629E+03  0.17868989352E+03  0.12509355986E+03 0.  0.
         23    2    1    2    0    0 -0.28322558182E+02  0.14170923602E+02  0.99222762744E+02  0.13874285772E+03  0.91659377823E+02 0.  0.
          5    1    3    3  502    0 -0.25103915986E+02  0.13636279737E+02  0.11394606112E+03  0.11754714785E+03  0.41800000000E+01 0. -1.
         -5    1    3    3    0  502  0.53426474168E+02 -0.27807203339E+02  0.96609651706E+01  0.61142745666E+02  0.41800000000E+01 0. -1.
        -11    1    4    4    0    0 -0.60386493804E+01 -0.30887516767E+02  0.48861579597E+01  0.31849309537E+02  0.00000000000E+00 0.  1.
         11    1    4    4    0    0 -0.22283908802E+02  0.45058440369E+02  0.94336604784E+02  0.10689354818E+03  0.00000000000E+00 0. -1.
</event>
<event>
 8    1  0.7224195E-009  0.1269362E+03  0.7561462E-02  0.1232074E+00
         -2   -1    0    0    0  501 -0.00000000000E+00  0.00000000000E+00  0.64569873718E+02  0.64569873718E+02  0.00000000000E+00 0. -1.
          2   -1    0    0  501    0  0.00000000000E+00 -0.00000000000E+00 -0.52142732547E+03  0.52142732547E+03  0.00000000000E+00 0.  1.
         25    2    1    2    0    0  0.48504698364E+02 -0.10245974986E+03 -0.39117105491E+03  0.42604433619E+03  0.12509306972E+03 0.  0.
         23    2    1    2    0    0 -0.48504698364E+02  0.10245974986E+03 -0.65686396844E+02  0.15995286300E+03  0.91757885476E+02 0.  0.
          5    1    3    3  502    0  0.43316948354E+01  0.10309121687E+02  0.40933692436E+01  0.12620207679E+02  0.41800000000E+01 0.  1.
         -5    1    3    3    0  502  0.44173003529E+02 -0.11276887155E+03 -0.39526442415E+03  0.41342412851E+03  0.41800000000E+01 0.  1.
        -11    1    4    4    0    0 -0.10086325836E+02  0.69212367401E+02 -0.80874570436E+02  0.10692418769E+03  0.00000000000E+00 0.  1.
         11    1    4    4    0    0 -0.38418372528E+02  0.33247382462E+02  0.15188173592E+02  0.53028675312E+02  0.00000000000E+00 0. -1.
</event>
<event>
 8    1  0.7224195E-009  0.1548585E+03  0.7561462E-02  0.1194627E+00
          2   -1    0    0  501    0  0.00000000000E+00  0.00000000000E+00  0.22521683938E+03  0.22521683938E+03  0.00000000000E+00 0.  1.
         -2   -1    0    0    0  501 -0.00000000000E+00 -0.00000000000E+00 -0.14404376938E+03  0.14404376938E+03  0.00000000000E+00 0. -1.
         25    2    1    2    0    0  0.10714946597E+03 -0.13282435843E+02  0.13474530426E+03  0.21321848100E+03  0.12509353485E+03 0.  0.
         23    2    1    2    0    0 -0.10714946597E+03  0.13282435843E+02 -0.53572234266E+02  0.15604212775E+03  0.99104642627E+02 0.  0.
          5    1    3    3  502    0  0.61668604326E+02 -0.68904734554E+02  0.65949406704E+02  0.11365595386E+03  0.41800000000E+01 0. -1.
         -5    1    3    3    0  502  0.45480861642E+02  0.55622298711E+02  0.68795897559E+02  0.99562527141E+02  0.41800000000E+01 0. -1.
        -11    1    4    4    0    0  0.11042573152E+02 -0.19602768819E+02 -0.86007521870E+00  0.22515476823E+02  0.00000000000E+00 0.  1.
         11    1    4    4    0    0 -0.11819203912E+03  0.32885204662E+02 -0.52712159047E+02  0.13352665093E+03  0.00000000000E+00 0. -1.
</event>
<event>
 8    1  0.7224195E-009  0.6125615E+02  0.7561462E-02  0.1392635E+00
         -1   -1    0    0    0  501 -0.00000000000E+00  0.00000000000E+00  0.11734239780E+03  0.11734239780E+03  0.00000000000E+00 0.  1.
          1   -1    0    0  501    0  0.00000000000E+00 -0.00000000000E+00 -0.12233612587E+03  0.12233612587E+03  0.00000000000E+00 0. -1.
         25    2    1    2    0    0  0.50953511885E+02 -0.14156716910E+02 -0.54970794126E+01  0.13592058486E+03  0.12509002558E+03 0.  0.
         23    2    1    2    0    0 -0.50953511885E+02  0.14156716910E+02  0.50335134367E+00  0.10375793881E+03  0.89268042976E+02 0.  0.
          5    1    3    3  502    0  0.42459675474E+02 -0.37683029786E+01 -0.63302514644E+02  0.76431046761E+02  0.41800000000E+01 0.  1.
         -5    1    3    3    0  502  0.84938364104E+01 -0.10388413931E+02  0.57805435231E+02  0.59489538099E+02  0.41800000000E+01 0.  1.
        -11    1    4    4    0    0 -0.59843402354E+01  0.19447259131E+02  0.39219298700E+02  0.44183272924E+02  0.00000000000E+00 0.  1.
         11    1    4    4    0    0 -0.44969171649E+02 -0.52905422210E+01 -0.38715947357E+02  0.59574665887E+02  0.00000000000E+00 0. -1.
</event>
<event>
 8    1  0.7224195E-009  0.1190726E+03  0.7561462E-02  0.1244635E+00
          2   -1    0    0  501    0  0.00000000000E+00  0.00000000000E+00  0.75653332680E+03  0.75653332680E+03  0.00000000000E+00 0. -1.
         -2   -1    0    0    0  501 -0.00000000000E+00 -0.00000000000E+00 -0.30034784425E+02  0.30034784425E+02  0.00000000000E+00 0.  1.
         25    2    1    2    0    0 -0.22059712558E+02  0.64563220296E+02  0.60168404320E+03  0.61832516747E+03  0.12508910646E+03 0.  0.
         23    2    1    2    0    0  0.22059712558E+02 -0.64563220296E+02  0.12481449918E+03  0.16824294375E+03  0.89844246255E+02 0.  0.
          5    1    3    3  502    0  0.19186510798E+02  0.91144533153E+02  0.39175632040E+03  0.40269831772E+03  0.41800000000E+01 0. -1.
         -5    1    3    3    0  502 -0.41246223357E+02 -0.26581312857E+02  0.20992772280E+03  0.21562684975E+03  0.41800000000E+01 0. -1.
        -11    1    4    4    0    0 -0.14309920574E+02 -0.56666014896E+02  0.11615750788E+03  0.13003221796E+03  0.00000000000E+00 0. -1.
         11    1    4    4    0    0  0.36369633132E+02 -0.78972054002E+01  0.86569912964E+01  0.38210725793E+02  0.00000000000E+00 0.  1.
</event>
<event>
 8    1  0.7224195E-009  0.1132700E+03  0.7561462E-02  0.1254631E+00
         -2   -1    0    0    0  501 -0.00000000000E+00  0.00000000000E+00  0.22586599868E+03  0.22586599868E+03  0.00000000000E+00 0.  1.
          2   -1    0    0  501    0  0.00000000000E+00 -0.00000000000E+00 -0.61399762403E+02  0.61399762403E+02  0.00000000000E+00 0. -1.
         25    2    1    2    0    0  0.34078705366E+02  0.28834609944E+02  0.80948280763E+02  0.15554323573E+03  0.12509308987E+03 0.  0.
         23    2    1    2    0    0 -0.34078705366E+02 -0.28834609944E+02  0.83517955512E+02  0.13172252535E+03  0.91557533283E+02 0.  0.
          5    1    3    3  502    0 -0.12525661884E+02  0.65584629437E+02  0.18769275224E+02  0.69483767287E+02  0.41800000000E+01 0. -1.
         -5    1    3    3    0  502  0.46604367250E+02 -0.36750019493E+02  0.62179005539E+02  0.86059468446E+02  0.41800000000E+01 0. -1.
        -11    1    4    4    0    0 -0.21541637936E+02  0.31697528248E+02  0.44014992378E+02  0.58361759878E+02  0.00000000000E+00 0.  1.
         11    1    4    4    0    0 -0.12537067430E+02 -0.60532138193E+02  0.39502963134E+02  0.73360765470E+02  0.00000000000E+00 0. -1.
</event>
<event>
 8    1  0.7224195E-009  0.9033307E+02  0.7561462E-02  0.1302047E+00
          2   -1    0    0  501    0  0.00000000000E+00  0.00000000000E+00  0.11819781969E+03  0.11819781969E+03  0.00000000000E+00 0. -1.
         -2   -1    0    0    0  501 -0.00000000000E+00 -0.00000000000E+00 -0.12181607577E+03  0.12181607577E+03  0.00000000000E+00 0.  1.
         25    2    1    2    0    0 -0.42403788812E+02 -0.26291235282E+02  0.81093065162E+01  0.13492053672E+03  0.12509388482E+03 0.  0.
         23    2    1    2    0    0  0.42403788812E+02  0.26291235282E+02 -0.11727562597E+02  0.10509335874E+03  0.91748394907E+02 0.  0.
          5    1    3    3  502    0 -0.62326706411E+02 -0.17794796824E+02  0.53698577281E+02  0.84275042143E+02  0.41800000000E+01 0. -1.
         -5    1    3    3    0  502  0.19922917600E+02 -0.84964384578E+01 -0.45589270765E+02  0.50645494578E+02  0.41800000000E+01 0. -1.
        -11    1    4    4    0    0  0.60950576844E+02  0.37902073528E+02  0.12051172388E+02  0.72778916942E+02  0.00000000000E+00 0. -1.
         11    1    4    4    0    0 -0.18546788032E+02 -0.11610838246E+02 -0.23778734985E+02  0.32314441796E+02  0.00000000000E+00 0.  1.
</event>
<event>
 8    1  0.7224195E-009  0.1135031E+03  0.7561462E-02  0.1254217E+00
         -1   -1    0    0    0  501 -0.00000000000E+00  0.00000000000E+00  0.27944578995E+02  0.27944578995E+02  0.00000000000E+00 0.  1.
          1   -1    0    0  501    0  0.00000000000E+00 -0.00000000000E+00 -0.64586386631E+03  0.64586386631E+03  0.00000000000E+00 0. -1.
         25    2    1    2    0    0  0.48913318130E+02  0.13734007334E+02 -0.18050395567E+03  0.22540978823E+03  0.12508700559E+03 0.  0.
         23    2    1    2    0    0 -0.48913318130E+02 -0.13734007334E+02 -0.43741533164E+03  0.44839865708E+03  0.84546127433E+02 0.  0.
          5    1    3    3  502    0 -0.39658838886E+02  0.87443798253E+01 -0.30026252115E+02  0.50678751922E+02  0.41800000000E+01 0. -1.
         -5    1    3    3    0  502  0.88572157015E+02  0.49896275083E+01 -0.15047770355E+03  0.17473103630E+03  0.41800000000E+01 0. -1.
        -11    1    4    4    0    0  0.18099880419E+02  0.15904022353E+02 -0.14211620781E+03  0.14414423374E+03  0.00000000000E+00 0. -1.
         11    1    4    4    0    0 -0.67013198549E+02 -0.29638029686E+02 -0.29529912383E+03  0.30425442334E+03  0.00000000000E+00 0.  1.
</event>
<event>
 8    1  0.7224195E-009  0.1107456E+03  0.7561462E-02  0.1259195E+00
          1   -1    0    0  501    0  0.00000000000E+00  0.00000000000E+00  0.77430794811E+03  0.77430794811E+03  0.00000000000E+00 0. -1.
         -1   -1    0    0    0  501 -0.00000000000E+00 -0.00000000000E+00 -0.25425089124E+02  0.25425089124E+02  0.00000000000E+00 0.  1.
         25    2    1    2    0    0  0.41949108284E+02  0.80340588816E+02  0.41250655253E+03  0.44048184645E+03  0.12509301847E+03 0.  0.
         23    2    1    2    0    0 -0.41949108284E+02 -0.80340588816E+02  0.33637630645E+03  0.35925119079E+03  0.87738592659E+02 0.  0.
          5    1    3    3  502    0  0.46050434864E+02  0.92295611634E+02  0.17928671320E+03  0.20688238303E+03  0.41800000000E+01 0. -1.
         -5    1    3    3    0  502 -0.41013265794E+01 -0.11955022818E+02  0.23321983933E+03  0.23359946341E+03  0.41800000000E+01 0. -1.
        -11    1    4    4    0    0 -0.41007430141E+02 -0.21878998319E+02  0.55678901692E+02  0.72528890712E+02  0.00000000000E+00 0.  1.
         11    1    4    4    0    0 -0.94167814363E+00 -0.58461590497E+02  0.28069740476E+03  0.28672230008E+03  0.00000000000E+00 0. -1.
</event>
<event>
 8    1  0.7224195E-009  0.3842648E+03  0.7561462E-02  0.1049369E+00
          1   -1    0    0  501    0  0.00000000000E+00  0.00000000000E+00  0.11955648814E+04  0.11955648814E+04  0.00000000000E+00 0. -1.
         -1   -1    0    0    0  501 -0.00000000000E+00 -0.00000000000E+00 -0.13144947625E+03  0.13144947625E+03  0.00000000000E+00 0.  1.
         25    2    1    2    0    0 -0.98166946439E+02 -0.36432903104E+03  0.62346048296E+03  0.73940686756E+03  0.12508856759E+03 0.  0.
         23    2    1    2    0    0  0.98166946439E+02  0.36432903104E+03  0.44065492217E+03  0.58760749008E+03  0.93452713884E+02 0.  0.
          5    1    3    3  502    0 -0.15384024357E+02 -0.15024565452E+00  0.69454335451E+02  0.71260563372E+02  0.41800000000E+01 0.  1.
         -5    1    3    3    0  502 -0.82782922082E+02 -0.36417878539E+03  0.55400614751E+03  0.66814630418E+03  0.41800000000E+01 0.  1.
        -11    1    4    4    0    0  0.85124402977E+02  0.25152642061E+03  0.24452464128E+03  0.36097645967E+03  0.00000000000E+00 0.  1.
         11    1    4    4    0    0  0.13042543462E+02  0.11280261044E+03  0.19613028089E+03  0.22663103041E+03  0.00000000000E+00 0. -1.
</event>
<event>
 8    1  0.7224195E-009  0.1261572E+03  0.7561462E-02  0.1233272E+00
          2   -1    0    0  501    0  0.00000000000E+00  0.00000000000E+00  0.42809775787E+03  0.42809775787E+03  0.00000000000E+00 0. -1.
         -2   -1    0    0    0  501 -0.00000000000E+00 -0.00000000000E+00 -0.43904639705E+02  0.43904639705E+02  0.00000000000E+00 0.  1.
         25    2    1    2    0    0  0.64482171271E+02 -0.52110772642E+02  0.24080492084E+03  0.28374001162E+03  0.12509157148E+03 0.  0.
         23    2    1    2    0    0 -0.64482171271E+02  0.52110772642E+02  0.14338819733E+03  0.18826238596E+03  0.89493395272E+02 0.  0.
          5    1    3    3  502    0 -0.29569238231E+02 -0.35574347860E+02  0.39806853830E+02  0.61171333867E+02  0.41800000000E+01 0. -1.
         -5    1    3    3    0  502  0.94051409502E+02 -0.16536424782E+02  0.20099806701E+03  0.22256867775E+03  0.41800000000E+01 0. -1.
        -11    1    4    4    0    0  0.11970455644E+02 -0.67981139141E+01  0.57303967648E+02  0.58934292813E+02  0.00000000000E+00 0. -1.
         11    1    4    4    0    0 -0.76452626915E+02  0.58908886557E+02  0.86084229677E+02  0.12932809315E+03  0.00000000000E+00 0.  1.
</event>
<event>
 8    1  0.7224195E-009  0.1031744E+03  0.7561462E-02  0.1273759E+00
         -2   -1    0    0    0  501 -0.00000000000E+00  0.00000000000E+00  0.98702820727E+02  0.98702820727E+02  0.00000000000E+00 0.  1.
          2   -1    0    0  501    0  0.00000000000E+00 -0.00000000000E+00 -0.14296716318E+03  0.14296716318E+03  0.00000000000E+00 0. -1.
         25    2    1    2    0    0 -0.12322162018E+02 -0.36307511019E+02 -0.52260621316E+02  0.14088563285E+03  0.12509003945E+03 0.  0.
         23    2    1    2    0    0  0.12322162018E+02  0.36307511019E+02  0.79962788679E+01  0.10078435106E+03  0.92862661543E+02 0.  0.
          5    1    3    3  502    0  0.27410157931E+02  0.23228641499E+02  0.18085237366E+02  0.40440508829E+02  0.41800000000E+01 0. -1.
         -5    1    3    3    0  502 -0.39732319949E+02 -0.59536152518E+02 -0.70345858683E+02  0.10044512402E+03  0.41800000000E+01 0. -1.
        -11    1    4    4    0    0  0.49691399099E+02  0.53992642319E+01  0.14029240649E+02  0.51915381072E+02  0.00000000000E+00 0.  1.
         11    1    4    4    0    0 -0.37369237081E+02  0.30908246787E+02 -0.60329617814E+01  0.48868969984E+02  0.00000000000E+00 0. -1.
</event>
<event>
 8    1  0.7224195E-009  0.9885216E+02  0.7561462E-02  0.1282728E+00
         -2   -1    0    0    0  501 -0.00000000000E+00  0.00000000000E+00  0.72031097883E+03  0.72031097883E+03  0.00000000000E+00 0. -1.
          2   -1    0    0  501    0  0.00000000000E+00 -0.00000000000E+00 -0.20513768911E+02  0.20513768911E+02  0.00000000000E+00 0.  1.
         25    2    1    2    0    0 -0.16443101260E+01 -0.24927642786E+02  0.53723856626E+03  0.55217493905E+03  0.12509114720E+03 0.  0.
         23    2    1    2    0    0  0.16443101260E+01  0.24927642786E+02  0.16255864367E+03  0.18864980870E+03  0.92408584885E+02 0.  0.
          5    1    3    3  502    0 -0.20864448644E+02  0.36158934275E+02  0.78863905959E+02  0.89329624471E+02  0.41800000000E+01 0.  1.
         -5    1    3    3    0  502  0.19220138518E+02 -0.61086577061E+02  0.45837466030E+03  0.46284531458E+03  0.41800000000E+01 0.  1.
        -11    1    4    4    0    0  0.20269365140E+02 -0.28511263095E+02  0.36956739328E+02  0.50887521734E+02  0.00000000000E+00 0.  1.
         11    1    4    4    0    0 -0.18625055014E+02  0.53438905881E+02  0.12560190434E+03  0.13776228696E+03  0.00000000000E+00 0. -1.
</event>
<event>
 8    1  0.7224195E-009  0.9656631E+02  0.7561462E-02  0.1287687E+00
          1   -1    0    0  501    0  0.00000000000E+00  0.00000000000E+00  0.80383941351E+03  0.80383941351E+03  0.00000000000E+00 0. -1.
         -1   -1    0    0    0  501 -0.00000000000E+00 -0.00000000000E+00 -0.18247341921E+02  0.18247341921E+02  0.00000000000E+00 0.  1.
         25    2    1    2    0    0 -0.33070286303E+02 -0.17559926284E+02  0.30520437869E+03  0.33196241638E+03  0.12508932116E+03 0.  0.
         23    2    1    2    0    0  0.33070286303E+02  0.17559926284E+02  0.48038769290E+03  0.49012433906E+03  0.89708067622E+02 0.  0.
          5    1    3    3  502    0  0.30988222745E+02 -0.18689983229E+01  0.15752441557E+02  0.35062443135E+02  0.41800000000E+01 0. -1.
         -5    1    3    3    0  502 -0.64058509048E+02 -0.15690927962E+02  0.28945193713E+03  0.29689997324E+03  0.41800000000E+01 0. -1.
        -11    1    4    4    0    0  0.45180165787E+02 -0.24888167078E+02  0.30084745902E+03  0.30523738604E+03  0.00000000000E+00 0.  1.
         11    1    4    4    0    0 -0.12109879484E+02  0.42448093363E+02  0.17954023389E+03  0.18488695302E+03  0.00000000000E+00 0. -1.
</event>
<event>
 8    1  0.7224195E-009  0.1126719E+03  0.7561462E-02  0.1255700E+00
          1   -1    0    0  501    0  0.00000000000E+00  0.00000000000E+00  0.10851078615E+03  0.10851078615E+03  0.00000000000E+00 0. -1.
         -1   -1    0    0    0  501 -0.00000000000E+00 -0.00000000000E+00 -0.27804588007E+03  0.27804588007E+03  0.00000000000E+00 0.  1.
         25    2    1    2    0    0 -0.56742510685E+00  0.15898450653E+02  0.56922809922E+02  0.13835169946E+03  0.12509158145E+03 0.  0.
         23    2    1    2    0    0  0.56742510685E+00 -0.15898450653E+02 -0.22645790384E+03  0.24820496677E+03  0.10034660238E+03 0.  0.
          5    1    3    3  502    0  0.47331721930E+02  0.46716997270E+02  0.17306014055E+02  0.68845771528E+02  0.41800000000E+01 0.  1.
         -5    1    3    3    0  502 -0.47899147037E+02 -0.30818546617E+02  0.39616795867E+02  0.69505927929E+02  0.41800000000E+01 0.  1.
        -11    1    4    4    0    0 -0.38551776448E+02 -0.40077638954E+02 -0.12329666591E+03  0.13525725281E+03  0.00000000000E+00 0. -1.
         11    1    4    4    0    0  0.39119201555E+02  0.24179188301E+02 -0.10316123793E+03  0.11294771396E+03  0.00000000000E+00 0.  1.
</event>
<event>
 8    1  0.7224195E-009  0.3145385E+03  0.7561462E-02  0.1078191E+00
         -1   -1    0    0    0  501 -0.00000000000E+00  0.00000000000E+00  0.17545184583E+04  0.17545184583E+04  0.00000000000E+00 0.  1.
          1   -1    0    0  501    0  0.00000000000E+00 -0.00000000000E+00 -0.66378934638E+02  0.66378934638E+02  0.00000000000E+00 0. -1.
         25    2    1    2    0    0 -0.82608033754E+02 -0.30145227861E+03  0.10782469556E+04  0.11295847814E+04  0.12509083754E+03 0.  0.
         23    2    1    2    0    0  0.82608033754E+02  0.30145227861E+03  0.60989256810E+03  0.69131261155E+03  0.90810895566E+02 0.  0.
          5    1    3    3  502    0 -0.43747218584E+02 -0.15486312570E+03  0.76216700896E+03  0.77898166139E+03  0.41800000000E+01 0. -1.
         -5    1    3    3    0  502 -0.38860815170E+02 -0.14658915291E+03  0.31607994661E+03  0.35060312000E+03  0.41800000000E+01 0. -1.
        -11    1    4    4    0    0  0.43991763323E+02  0.77358928652E+02  0.25237114079E+03  0.26760207732E+03  0.00000000000E+00 0.  1.
         11    1    4    4    0    0  0.38616270430E+02  0.22409334995E+03  0.35752142731E+03  0.42371053424E+03  0.00000000000E+00 0. -1.
</event>
<event>
 8    1  0.7224195E-009  0.1354371E+03  0.7561462E-02  0.1219604E+00
         -2   -1    0    0    0  501 -0.00000000000E+00  0.00000000000E+00  0.57048948195E+02  0.57048948195E+02  0.00000000000E+00 0.  1.
          2   -1    0    0  501    0  0.00000000000E+00 -0.00000000000E+00 -0.36680742640E+03  0.36680742640E+03  0.00000000000E+00 0. -1.
         25    2    1    2    0    0  0.45758506833E+01 -0.95332178231E+02 -0.16800823788E+03  0.23019123171E+03  0.12510824331E+03 0.  0.
         23    2    1    2    0    0 -0.45758506833E+01  0.95332178231E+02 -0.14175024032E+03  0.19366514288E+03  0.91125706143E+02 0.  0.
          5    1    3    3  502    0 -0.13663614839E+02  0.19299816649E+02  0.22166491031E+01  0.24115622040E+02  0.41800000000E+01 0. -1.
         -5    1    3    3    0  502  0.18239465522E+02 -0.11463199488E+03 -0.17022488699E+03  0.20607560967E+03  0.41800000000E+01 0. -1.
        -11    1    4    4    0    0 -0.12236107788E+02  0.11184286829E+03 -0.13033964116E+03  0.17218295960E+03  0.00000000000E+00 0.  1.
         11    1    4    4    0    0  0.76602571043E+01 -0.16510690057E+02 -0.11410599166E+02  0.21482183278E+02  0.00000000000E+00 0. -1.
</event>
<event>
 8    1  0.7224195E-009  0.9955756E+02  0.7561462E-02  0.1281229E+00
          2   -1    0    0  501    0  0.00000000000E+00  0.00000000000E+00  0.14399513180E+03  0.14399513180E+03  0.00000000000E+00 0.  1.
         -2   -1    0    0    0  501 -0.00000000000E+00 -0.00000000000E+00 -0.13802370180E+03  0.13802370180E+03  0.00000000000E+00 0. -1.
         25    2    1    2    0    0  0.63250904950E+02 -0.63697058021E+02 -0.16890150721E+02  0.15489118704E+03  0.12509200795E+03 0.  0.
         23    2    1    2    0    0 -0.63250904950E+02  0.63697058021E+02  0.22861580718E+02  0.12712764657E+03  0.87067757932E+02 0.  0.
          5    1    3    3  502    0  0.74876508329E+01  0.48891272554E+01  0.45536756592E+02  0.46594388946E+02  0.41800000000E+01 0.  1.
         -5    1    3    3    0  502  0.55763254117E+02 -0.68586185277E+02 -0.62426907313E+02  0.10829679809E+03  0.41800000000E+01 0.  1.
        -11    1    4    4    0    0 -0.81535887475E+01 -0.72576359119E+01  0.34828791308E+02  0.36499301260E+02  0.00000000000E+00 0.  1.
         11    1    4    4    0    0 -0.55097316202E+02  0.70954693933E+02 -0.11967210590E+02  0.90628345307E+02  0.00000000000E+00 0. -1.
</event>
<event>
 8    1  0.7224195E-009  0.7110437E+02  0.7561462E-02  0.1356377E+00
         -2   -1    0    0    0  501 -0.00000000000E+00  0.00000000000E+00  0.28958747616E+03  0.28958747616E+03  0.00000000000E+00 0.  1.
          2   -1    0    0  501    0  0.00000000000E+00 -0.00000000000E+00 -0.49268399454E+02  0.49268399454E+02  0.00000000000E+00 0. -1.
         25    2    1    2    0    0  0.27457990622E+02  0.24186904460E+01  0.19133771259E+03  0.23025665999E+03  0.12509283711E+03 0.  0.
         23    2    1    2    0    0 -0.27457990622E+02 -0.24186904460E+01  0.48981364109E+02  0.10859921562E+03  0.92923755258E+02 0.  0.
          5    1    3    3  502    0  0.34693043887E+01  0.36102134208E+02  0.21659255603E+01  0.36572719353E+02  0.41800000000E+01 0.  1.
         -5    1    3    3    0  502  0.23988686233E+02 -0.33683443762E+02  0.18917178703E+03  0.19368394063E+03  0.41800000000E+01 0.  1.
        -11    1    4    4    0    0 -0.39509619764E+02 -0.18836926920E+02  0.67910685610E+02  0.80794189702E+02  0.00000000000E+00 0.  1.
         11    1    4    4    0    0  0.12051629143E+02  0.16418236474E+02 -0.18929321500E+02  0.27805025919E+02  0.00000000000E+00 0. -1.
</event>
<event>
 8    1  0.7224195E-009  0.1319745E+03  0.7561462E-02  0.1224555E+00
          2   -1    0    0  501    0  0.00000000000E+00  0.00000000000E+00  0.56861002378E+02  0.56861002378E+02  0.00000000000E+00 0. -1.
         -2   -1    0    0    0  501 -0.00000000000E+00 -0.00000000000E+00 -0.34440916188E+03  0.34440916188E+03  0.00000000000E+00 0.  1.
         25    2    1    2    0    0 -0.12978232143E+02  0.76462981543E+02 -0.95375645615E+02  0.17538306057E+03  0.12509069550E+03 0.  0.
         23    2    1    2    0    0  0.12978232143E+02 -0.76462981543E+02 -0.19217251389E+03  0.22588710369E+03  0.89887076177E+02 0.  0.
          5    1    3    3  502    0 -0.21113500218E+02 -0.31871288184E+02 -0.25539094543E+02  0.46165751938E+02  0.41800000000E+01 0.  1.
         -5    1    3    3    0  502  0.81352680749E+01  0.10833426973E+03 -0.69836551072E+02  0.12921730863E+03  0.41800000000E+01 0.  1.
        -11    1    4    4    0    0 -0.47360655842E+01  0.19049679259E+02 -0.49824929264E+02  0.53552256472E+02  0.00000000000E+00 0.  1.
         11    1    4    4    0    0  0.17714297727E+02 -0.95512660802E+02 -0.14234758463E+03  0.17233484722E+03  0.00000000000E+00 0. -1.
</event>
<event>
 8    1  0.7224195E-009  0.1194153E+03  0.7561462E-02  0.1244065E+00
         -1   -1    0    0    0  501 -0.00000000000E+00  0.00000000000E+00  0.31536471347E+03  0.31536471347E+03  0.00000000000E+00 0.  1.
          1   -1    0    0  501    0  0.00000000000E+00 -0.00000000000E+00 -0.52426821190E+02  0.52426821190E+02  0.00000000000E+00 0. -1.
         25    2    1    2    0    0 -0.22930109936E+02 -0.61034812160E+02  0.17789124119E+03  0.22703008875E+03  0.12508528799E+03 0.  0.
         23    2    1    2    0    0  0.22930109936E+02  0.61034812160E+02  0.85046651096E+02  0.14076144591E+03  0.91267812263E+02 0.  0.
          5    1    3    3  502    0  0.46687707507E+02 -0.41316429873E+02  0.11584632275E+03  0.13162306905E+03  0.41800000000E+01 0. -1.
         -5    1    3    3    0  502 -0.69617817443E+02 -0.19718382288E+02  0.62044918432E+02  0.95407019705E+02  0.41800000000E+01 0. -1.
        -11    1    4    4    0    0  0.51467171934E+02  0.23136377843E+02  0.19201640414E+02  0.59605912133E+02  0.00000000000E+00 0. -1.
         11    1    4    4    0    0 -0.28537061998E+02  0.37898434317E+02  0.65845010682E+02  0.81155533778E+02  0.00000000000E+00 0.  1.
</event>
<event>
 8    1  0.7224195E-009  0.1022465E+03  0.7561462E-02  0.1275642E+00
         -1   -1    0    0    0  501 -0.00000000000E+00  0.00000000000E+00  0.14428610603E+02  0.14428610603E+02  0.00000000000E+00 0.  1.
          1   -1    0    0  501    0  0.00000000000E+00 -0.00000000000E+00 -0.88492096432E+03  0.88492096432E+03  0.00000000000E+00 0. -1.
         25    2    1    2    0    0 -0.78994609704E+01  0.40957147086E+01 -0.61561617421E+03  0.62825977222E+03  0.12509153077E+03 0.  0.
         23    2    1    2    0    0  0.78994609704E+01 -0.40957147086E+01 -0.25487617951E+03  0.27108980271E+03  0.91916472352E+02 0.  0.
          5    1    3    3  502    0  0.29408563155E+02  0.51755313882E+02 -0.21709734757E+03  0.22514929896E+03  0.41800000000E+01 0. -1.
         -5    1    3    3    0  502 -0.37308024126E+02 -0.47659599173E+02 -0.39851882665E+03  0.40311047326E+03  0.41800000000E+01 0. -1.
        -11    1    4    4    0    0 -0.26615668007E+02 -0.30656183988E+02 -0.67925173274E+02  0.79132954984E+02  0.00000000000E+00 0.  1.
         11    1    4    4    0    0  0.34515128978E+02  0.26560469280E+02 -0.18695100623E+03  0.19195684772E+03  0.00000000000E+00 0. -1.
</event>
<event>
 8    1  0.7224195E-009  0.1150458E+03  0.7561462E-02  0.1251501E+00
          2   -1    0    0  501    0  0.00000000000E+00  0.00000000000E+00  0.50199422085E+03  0.50199422085E+03  0.00000000000E+00 0. -1.
         -2   -1    0    0    0  501 -0.00000000000E+00 -0.00000000000E+00 -0.33290174611E+02  0.33290174611E+02  0.00000000000E+00 0.  1.
         25    2    1    2    0    0 -0.33336272909E+01  0.65157706586E+02  0.31713918477E+03  0.34709723042E+03  0.12507032041E+03 0.  0.
         23    2    1    2    0    0  0.33336272909E+01 -0.65157706586E+02  0.15156486147E+03  0.18818716505E+03  0.90475753976E+02 0.  0.
          5    1    3    3  502    0  0.47300866226E+02  0.17367167806E+02  0.22993685386E+03  0.23543028613E+03  0.41800000000E+01 0.  1.
         -5    1    3    3    0  502 -0.50634493516E+02  0.47790538780E+02  0.87202330916E+02  0.11166694429E+03  0.41800000000E+01 0.  1.
        -11    1    4    4    0    0  0.44474759755E+02 -0.20228790327E+02  0.84303676725E+02  0.97438791673E+02  0.00000000000E+00 0. -1.
         11    1    4    4    0    0 -0.41141132465E+02 -0.44928916259E+02  0.67261184745E+02  0.90748373373E+02  0.00000000000E+00 0.  1.
</event>
<event>
 8    1  0.7224195E-009  0.1061856E+03  0.7561462E-02  0.1267801E+00
         -1   -1    0    0    0  501 -0.00000000000E+00  0.00000000000E+00  0.18552002585E+03  0.18552002585E+03  0.00000000000E+00 0.  1.
          1   -1    0    0  501    0  0.00000000000E+00 -0.00000000000E+00 -0.67069753568E+02  0.67069753568E+02  0.00000000000E+00 0. -1.
         25    2    1    2    0    0  0.63439960842E+01 -0.39813058058E+01  0.33694662017E+02  0.12976374093E+03  0.12508877300E+03 0.  0.
         23    2    1    2    0    0 -0.63439960842E+01  0.39813058058E+01  0.84755610260E+02  0.12282603848E+03  0.88581178455E+02 0.  0.
          5    1    3    3  502    0 -0.58323681577E+02  0.42172732211E+01  0.25505899229E+02  0.63933250517E+02  0.41800000000E+01 0.  1.
         -5    1    3    3    0  502  0.64667677662E+02 -0.81985790268E+01  0.81887627877E+01  0.65830490414E+02  0.41800000000E+01 0.  1.
        -11    1    4    4    0    0  0.35139936652E+02  0.23810676810E+02  0.47007950826E+02  0.63336489632E+02  0.00000000000E+00 0.  1.
         11    1    4    4    0    0 -0.41483932736E+02 -0.19829371004E+02  0.37747659434E+02  0.59489548850E+02  0.00000000000E+00 0. -1.
</event>
<event>
 8    1  0.7224195E-009  0.7291025E+02  0.7561462E-02  0.1350467E+00
         -1   -1    0    0    0  501 -0.00000000000E+00  0.00000000000E+00  0.22123480726E+02  0.22123480726E+02  0.00000000000E+00 0.  1.
          1   -1    0    0  501    0  0.00000000000E+00 -0.00000000000E+00 -0.54666720646E+03  0.54666720646E+03  0.00000000000E+00 0. -1.
         25    2    1    2    0    0  0.93528154727E+01  0.16521708641E+02 -0.29599515046E+03  0.32190259519E+03  0.12509080575E+03 0.  0.
         23    2    1    2    0    0 -0.93528154727E+01 -0.16521708641E+02 -0.22854857528E+03  0.24688809199E+03  0.91426673866E+02 0.  0.
          5    1    3    3  502    0  0.29238993277E+02 -0.15341628223E+02 -0.27810647718E+03  0.28009100187E+03  0.41800000000E+01 0.  1.
         -5    1    3    3    0  502 -0.19886177804E+02  0.31863336864E+02 -0.17888673281E+02  0.41811593315E+02  0.41800000000E+01 0.  1.
        -11    1    4    4    0    0 -0.37474728096E+02 -0.25381735744E+02 -0.56804776728E+02  0.72631745225E+02  0.00000000000E+00 0.  1.
         11    1    4    4    0    0  0.28121912623E+02  0.88600271028E+01 -0.17174379855E+03  0.17425634677E+03  0.00000000000E+00 0. -1.
</event>
<event>
 8    1  0.7224195E-009  0.1383315E+03  0.7561462E-02  0.1215592E+00
          2   -1    0    0  501    0  0.00000000000E+00  0.00000000000E+00  0.15445380460E+04  0.15445380460E+04  0.00000000000E+00 0. -1.
         -2   -1    0    0    0  501 -0.00000000000E+00 -0.00000000000E+00 -0.16323104752E+02  0.16323104752E+02  0.00000000000E+00 0.  1.
         25    2    1    2    0    0  0.52446125162E+02  0.79131540319E+02  0.11533862565E+04  0.11640274679E+04  0.12509073808E+03 0.  0.
         23    2    1    2    0    0 -0.52446125162E+02 -0.79131540319E+02  0.37482868480E+03  0.39683368285E+03  0.89263834647E+02 0.  0.
          5    1    3    3  502    0  0.53752256507E+02  0.11005213471E+03  0.80916263703E+03  0.81839014107E+03  0.41800000000E+01 0. -1.
         -5    1    3    3    0  502 -0.13061313448E+01 -0.30920594388E+02  0.34422361943E+03  0.34563732685E+03  0.41800000000E+01 0. -1.
        -11    1    4    4    0    0  0.15747904067E+02 -0.42823754608E+02  0.20855805232E+03  0.21349082329E+03  0.00000000000E+00 0.  1.
         11    1    4    4    0    0 -0.68194029229E+02 -0.36307785712E+02  0.16627063248E+03  0.18334285956E+03  0.00000000000E+00 0. -1.
</event>
<event>
 8    1  0.7224195E-009  0.2508899E+03  0.7561462E-02  0.1112744E+00
         -1   -1    0    0    0  501 -0.00000000000E+00  0.00000000000E+00  0.91504454467E+02  0.91504454467E+02  0.00000000000E+00 0.  1.
          1   -1    0    0  501    0  0.00000000000E+00 -0.00000000000E+00 -0.17962308004E+04  0.17962308004E+04  0.00000000000E+00 0. -1.
         25    2    1    2    0    0 -0.15931947647E+03  0.16127095316E+03 -0.16020467873E+04  0.16228343528E+04  0.12508561827E+03 0.  0.
         23    2    1    2    0    0  0.15931947647E+03 -0.16127095316E+03 -0.10267955866E+03  0.26490090213E+03  0.90765523569E+02 0.  0.
          5    1    3    3  502    0 -0.16008842383E+03  0.82812265228E+02 -0.11003303145E+04  0.11150024431E+04  0.41800000000E+01 0. -1.
         -5    1    3    3    0  502  0.76894735873E+00  0.78458687930E+02 -0.50171647281E+03  0.50783190967E+03  0.41800000000E+01 0. -1.
        -11    1    4    4    0    0  0.15277056574E+03 -0.10292822443E+03 -0.66002022341E+02  0.19567660078E+03  0.00000000000E+00 0. -1.
         11    1    4    4    0    0  0.65489107351E+01 -0.58342728730E+02 -0.36677536324E+02  0.69224301356E+02  0.00000000000E+00 0.  1.
</event>
<event>
 8    1  0.7224195E-009  0.1319766E+03  0.7561462E-02  0.1224552E+00
         -2   -1    0    0    0  501 -0.00000000000E+00  0.00000000000E+00  0.10982763999E+03  0.10982763999E+03  0.00000000000E+00 0.  1.
          2   -1    0    0  501    0  0.00000000000E+00 -0.00000000000E+00 -0.24359907091E+03  0.24359907091E+03  0.00000000000E+00 0. -1.
         25    2    1    2    0    0  0.10894900059E+03  0.17854880362E+02 -0.17767431669E+02  0.16778641943E+03  0.12509164414E+03 0.  0.
         23    2    1    2    0    0 -0.10894900059E+03 -0.17854880362E+02 -0.11600399925E+03  0.18564029147E+03  0.93897329528E+02 0.  0.
          5    1    3    3  502    0 -0.58024245624E+01  0.26637411304E+02  0.32073145007E+02  0.42301050134E+02  0.41800000000E+01 0.  1.
         -5    1    3    3    0  502  0.11475142515E+03 -0.87825309426E+01 -0.49840576676E+02  0.12548536929E+03  0.41800000000E+01 0.  1.
        -11    1    4    4    0    0 -0.23494849651E+02 -0.26386579919E+02 -0.88776343427E+02  0.95548410308E+02  0.00000000000E+00 0.  1.
         11    1    4    4    0    0 -0.85454150934E+02  0.85316995577E+01 -0.27227655822E+02  0.90091881159E+02  0.00000000000E+00 0. -1.
</event>
<event>
 8    1  0.7224195E-009  0.9840560E+02  0.7561462E-02  0.1283685E+00
         -2   -1    0    0    0  501 -0.00000000000E+00  0.00000000000E+00  0.25944562383E+02  0.25944562383E+02  0.00000000000E+00 0.  1.
          2   -1    0    0  501    0  0.00000000000E+00 -0.00000000000E+00 -0.51553887837E+03  0.51553887837E+03  0.00000000000E+00 0. -1.
         25    2    1    2    0    0 -0.37110545227E+02 -0.79012108167E+01 -0.30538022179E+03  0.33218059697E+03  0.12508895811E+03 0.  0.
         23    2    1    2    0    0  0.37110545227E+02  0.79012108167E+01 -0.18421409419E+03  0.20930284378E+03  0.91832598879E+02 0.  0.
          5    1    3    3  502    0  0.15932767754E+02 -0.56376367217E+02 -0.13863091329E+03  0.15055945798E+03  0.41800000000E+01 0.  1.
         -5    1    3    3    0  502 -0.53043312981E+02  0.48475156401E+02 -0.16674930851E+03  0.18162113899E+03  0.41800000000E+01 0.  1.
        -11    1    4    4    0    0  0.34083206202E+02 -0.19004629262E+02 -0.21905535728E+02  0.44751462254E+02  0.00000000000E+00 0.  1.
         11    1    4    4    0    0  0.30273390251E+01  0.26905840079E+02 -0.16230855847E+03  0.16455138153E+03  0.00000000000E+00 0. -1.
</event>
<event>
 8    1  0.7224195E-009  0.1060161E+03  0.7561462E-02  0.1268130E+00
         -2   -1    0    0    0  501 -0.00000000000E+00  0.00000000000E+00  0.23874813528E+03  0.23874813528E+03  0.00000000000E+00 0.  1.
          2   -1    0    0  501    0  0.00000000000E+00 -0.00000000000E+00 -0.55122398525E+02  0.55122398525E+02  0.00000000000E+00 0. -1.
         25    2    1    2    0    0  0.29518703544E+02 -0.23317172236E+02  0.95296405944E+02  0.16169407291E+03  0.12509406000E+03 0.  0.
         23    2    1    2    0    0 -0.29518703544E+02  0.23317172236E+02  0.88329330808E+02  0.13217646089E+03  0.90848785095E+02 0.  0.
          5    1    3    3  502    0 -0.18503334736E+02 -0.55015433544E+02  0.85120046124E+02  0.10311142505E+03  0.41800000000E+01 0. -1.
         -5    1    3    3    0  502  0.48022038280E+02  0.31698261308E+02  0.10176359819E+02  0.58582647855E+02  0.41800000000E+01 0. -1.
        -11    1    4    4    0    0 -0.57853491879E+02 -0.23686353045E+01  0.66365621076E+02  0.88074017829E+02  0.00000000000E+00 0.  1.
         11    1    4    4    0    0  0.28334788335E+02  0.25685807540E+02  0.21963709732E+02  0.44102443064E+02  0.00000000000E+00 0. -1.
</event>
<event>
 8    1  0.7224195E-009  0.1286317E+03  0.7561462E-02  0.1229500E+00
          2   -1    0    0  501    0  0.00000000000E+00  0.00000000000E+00  0.34255480693E+03  0.34255480693E+03  0.00000000000E+00 0. -1.
         -2   -1    0    0    0  501 -0.00000000000E+00 -0.00000000000E+00 -0.88782805221E+02  0.88782805221E+02  0.00000000000E+00 0.  1.
         25    2    1    2    0    0  0.61677388934E+02 -0.43931132112E+02 -0.55448060452E+01  0.14633020798E+03  0.12509092781E+03 0.  0.
         23    2    1    2    0    0 -0.61677388934E+02  0.43931132112E+02  0.25931680775E+03  0.28500740417E+03  0.90829339820E+02 0.  0.
          5    1    3    3  502    0 -0.32858497106E+02 -0.39271657496E+02 -0.46229263603E+01  0.51582824299E+02  0.41800000000E+01 0. -1.
         -5    1    3    3    0  502  0.94535886040E+02 -0.46594746157E+01 -0.92187968484E+00  0.94747383685E+02  0.41800000000E+01 0. -1.
        -11    1    4    4    0    0  0.90055873452E+01  0.39291280097E+02  0.14521599690E+03  0.15070697081E+03  0.00000000000E+00 0. -1.
         11    1    4    4    0    0 -0.70682976279E+02  0.46398520149E+01  0.11410081085E+03  0.13430043336E+03  0.00000000000E+00 0.  1.
</event>
<event>
 8    1  0.7224195E-009  0.1190448E+03  0.7561462E-02  0.1244681E+00
         -2   -1    0    0    0  501 -0.00000000000E+00  0.00000000000E+00  0.54440759898E+02  0.54440759898E+02  0.00000000000E+00 0.  1.
          2   -1    0    0  501    0  0.00000000000E+00 -0.00000000000E+00 -0.85208354083E+03  0.85208354083E+03  0.00000000000E+00 0. -1.
         25    2    1    2    0    0 -0.49618338763E+02 -0.86189933075E+02 -0.73890288125E+03  0.75598971229E+03  0.12510912463E+03 0.  0.
         23    2    1    2    0    0  0.49618338763E+02  0.86189933075E+02 -0.58739899688E+02  0.15053458844E+03  0.96538087805E+02 0.  0.
          5    1    3    3  502    0 -0.22482998768E+02 -0.48982913673E+02 -0.67473405767E+03  0.67689610136E+03  0.41800000000E+01 0. -1.
         -5    1    3    3    0  502 -0.27135339995E+02 -0.37207019402E+02 -0.64168823579E+02  0.79093610923E+02  0.41800000000E+01 0. -1.
        -11    1    4    4    0    0  0.63640049259E+02  0.15200456471E+02 -0.19794692920E+02  0.68358902963E+02  0.00000000000E+00 0.  1.
         11    1    4    4    0    0 -0.14021710495E+02  0.70989476604E+02 -0.38945206769E+02  0.82175685479E+02  0.00000000000E+00 0. -1.
</event>
<event>
 8    1  0.7224195E-009  0.2135378E+03  0.7561462E-02  0.1138795E+00
          1   -1    0    0  501    0  0.00000000000E+00  0.00000000000E+00  0.77455623220E+03  0.77455623220E+03  0.00000000000E+00 0. -1.
         -1   -1    0    0    0  501 -0.00000000000E+00 -0.00000000000E+00 -0.93493147308E+02  0.93493147308E+02  0.00000000000E+00 0.  1.
         25    2    1    2    0    0  0.11836326630E+03 -0.14222144072E+03  0.61049934544E+03  0.65007221898E+03  0.12509051965E+03 0.  0.
         23    2    1    2    0    0 -0.11836326630E+03  0.14222144072E+03  0.70563739460E+02  0.21797716053E+03  0.91093359679E+02 0.  0.
          5    1    3    3  502    0  0.20326223006E+02  0.22266632227E+02  0.61472359459E+02  0.68595055433E+02  0.41800000000E+01 0.  1.
         -5    1    3    3    0  502  0.98037043293E+02 -0.16448807294E+03  0.54902698598E+03  0.58147716355E+03  0.41800000000E+01 0. -1.
        -11    1    4    4    0    0 -0.81493990620E+02  0.29766430989E+02  0.41191532311E+02  0.96041934878E+02  0.00000000000E+00 0.  1.
         11    1    4    4    0    0 -0.36869275679E+02  0.11245500973E+03  0.29372207149E+02  0.12193522565E+03  0.00000000000E+00 0. -1.
</event>
<event>
 8    1  0.7224195E-009  0.1824350E+03  0.7561462E-02  0.1165467E+00
          2   -1    0    0  501    0  0.00000000000E+00  0.00000000000E+00  0.42091422581E+03  0.42091422581E+03  0.00000000000E+00 0.  1.
         -2   -1    0    0    0  501 -0.00000000000E+00 -0.00000000000E+00 -0.11983550872E+03  0.11983550872E+03  0.00000000000E+00 0. -1.
         25    2    1    2    0    0  0.47141885678E+02  0.14637192279E+03  0.96895176379E+01  0.19847052202E+03  0.12509821818E+03 0.  0.
         23    2    1    2    0    0 -0.47141885678E+02 -0.14637192279E+03  0.29138919945E+03  0.34227921251E+03  0.92737784066E+02 0.  0.
          5    1    3    3  502    0 -0.27217946470E+02  0.11352811375E+03  0.44624013172E+01  0.11690523789E+03  0.41800000000E+01 0. -1.
         -5    1    3    3    0  502  0.74359832148E+02  0.32843809039E+02  0.52271163207E+01  0.81565284124E+02  0.41800000000E+01 0. -1.
        -11    1    4    4    0    0  0.14230162307E+02 -0.53303759869E+02  0.42762549079E+02  0.69802750226E+02  0.00000000000E+00 0. -1.
         11    1    4    4    0    0 -0.61372047985E+02 -0.93068162920E+02  0.24862665037E+03  0.27247646228E+03  0.00000000000E+00 0.  1.
</event>
<event>
 8    1  0.7224195E-009  0.1284632E+03  0.7561462E-02  0.1229754E+00
          2   -1    0    0  501    0  0.00000000000E+00  0.00000000000E+00  0.81152435102E+03  0.81152435102E+03  0.00000000000E+00 0. -1.
         -2   -1    0    0    0  501 -0.00000000000E+00 -0.00000000000E+00 -0.29613610697E+02  0.29613610697E+02  0.00000000000E+00 0.  1.
         25    2    1    2    0    0 -0.10967693438E+03 -0.10268380240E+02  0.44429224941E+03  0.47452687703E+03  0.12508271094E+03 0.  0.
         23    2    1    2    0    0  0.10967693438E+03  0.10268380240E+02  0.33761849092E+03  0.36661108468E+03  0.91010836921E+02 0.  0.
          5    1    3    3  502    0 -0.12266144754E+03  0.85238385388E+01  0.24772612328E+03  0.27659391008E+03  0.41800000000E+01 0. -1.
         -5    1    3    3    0  502  0.12984513155E+02 -0.18792218779E+02  0.19656612612E+03  0.19793296696E+03  0.41800000000E+01 0. -1.
        -11    1    4    4    0    0  0.93979221515E+02  0.12553566779E+02  0.33768964935E+03  0.35074775180E+03  0.00000000000E+00 0. -1.
         11    1    4    4    0    0  0.15697712865E+02 -0.22851865388E+01 -0.71158431406E-01  0.15863332885E+02  0.00000000000E+00 0.  1.
</event>
<event>
 8    1  0.7224195E-009  0.1139505E+03  0.7561462E-02  0.1253424E+00
          2   -1    0    0  501    0  0.00000000000E+00  0.00000000000E+00  0.91747066448E+03  0.91747066448E+03  0.00000000000E+00 0. -1.
         -2   -1    0    0    0  501 -0.00000000000E+00 -0.00000000000E+00 -0.23627567001E+02  0.23627567001E+02  0.00000000000E+00 0.  1.
         25    2    1    2    0    0  0.75590174542E+02 -0.52909922370E+02  0.59772975874E+03  0.61761028294E+03  0.12509301635E+03 0.  0.
         23    2    1    2    0    0 -0.75590174542E+02  0.52909922370E+02  0.29611333874E+03  0.32348794854E+03  0.91913051838E+02 0.  0.
          5    1    3    3  502    0 -0.12885157501E+01 -0.58189841357E+02  0.41742509209E+03  0.42148416082E+03  0.41800000000E+01 0. -1.
         -5    1    3    3    0  502  0.76878690292E+02  0.52799189868E+01  0.18030466665E+03  0.19612612213E+03  0.41800000000E+01 0. -1.
        -11    1    4    4    0    0 -0.14128183228E+02  0.12054736126E+02  0.26573636314E+00  0.18573982885E+02  0.00000000000E+00 0.  1.
         11    1    4    4    0    0 -0.61461991314E+02  0.40855186244E+02  0.29584760237E+03  0.30491396565E+03  0.00000000000E+00 0. -1.
</event>
<event>
 8    1  0.7224195E-009  0.1102850E+03  0.7561462E-02  0.1260043E+00
         -2   -1    0    0    0  501 -0.00000000000E+00  0.00000000000E+00  0.52854205705E+02  0.52854205705E+02  0.00000000000E+00 0.  1.
          2   -1    0    0  501    0  0.00000000000E+00 -0.00000000000E+00 -0.34015042584E+03  0.34015042584E+03  0.00000000000E+00 0. -1.
         25    2    1    2    0    0 -0.33670294437E+02 -0.18400128484E+02 -0.57796366727E+02  0.14303710800E+03  0.12508773243E+03 0.  0.
         23    2    1    2    0    0  0.33670294437E+02  0.18400128484E+02 -0.22949985341E+03  0.24996752354E+03  0.91330863654E+02 0.  0.
          5    1    3    3  502    0 -0.37590613677E+02  0.46009180088E+02 -0.50266423304E+02  0.77936413831E+02  0.41800000000E+01 0.  1.
         -5    1    3    3    0  502  0.39203192398E+01 -0.64409308572E+02 -0.75299434224E+01  0.65100694172E+02  0.41800000000E+01 0.  1.
        -11    1    4    4    0    0 -0.29944853039E+02 -0.61184110075E+00 -0.10072516959E+03  0.10508391105E+03  0.00000000000E+00 0. -1.
         11    1    4    4    0    0  0.63615147476E+02  0.19011969585E+02 -0.12877468382E+03  0.14488361249E+03  0.00000000000E+00 0.  1.
</event>
<event>
 8    1  0.7224195E-009  0.9960273E+02  0.7561462E-02  0.1281134E+00
         -2   -1    0    0    0  501 -0.00000000000E+00  0.00000000000E+00  0.38950011883E+02  0.38950011883E+02  0.00000000000E+00 0.  1.
          2   -1    0    0  501    0  0.00000000000E+00 -0.00000000000E+00 -0.42359381937E+03  0.42359381937E+03  0.00000000000E+00 0. -1.
         25    2    1    2    0    0 -0.47164132181E+02 -0.46560312315E+02 -0.18777905424E+03  0.23516080997E+03  0.12508922929E+03 0.  0.
         23    2    1    2    0    0  0.47164132181E+02  0.46560312315E+02 -0.19686475324E+03  0.22738302128E+03  0.92493184900E+02 0.  0.
          5    1    3    3  502    0 -0.18243866792E+02  0.10456303569E+02  0.12545644246E+02  0.24840260655E+02  0.41800000000E+01 0.  1.
         -5    1    3    3    0  502 -0.28920265389E+02 -0.57016615885E+02 -0.20032469849E+03  0.21032054931E+03  0.41800000000E+01 0.  1.
        -11    1    4    4    0    0 -0.25468035913E+02 -0.31808574037E+01 -0.48271974012E+02  0.54671036044E+02  0.00000000000E+00 0.  1.
         11    1    4    4    0    0  0.72632168094E+02  0.49741169719E+02 -0.14859277923E+03  0.17271198524E+03  0.00000000000E+00 0. -1.
</event>
<event>
 8    1  0.7224195E-009  0.1113277E+03  0.7561462E-02  0.1258131E+00
          2   -1    0    0  501    0  0.00000000000E+00  0.00000000000E+00  0.37297526383E+03  0.37297526383E+03  0.00000000000E+00 0. -1.
         -2   -1    0    0    0  501 -0.00000000000E+00 -0.00000000000E+00 -0.37114086011E+02  0.37114086011E+02  0.00000000000E+00 0.  1.
         25    2    1    2    0    0 -0.20194249303E+02  0.27198156163E+02  0.24623397101E+03  0.27825411864E+03  0.12508652469E+03 0.  0.
         23    2    1    2    0    0  0.20194249303E+02 -0.27198156163E+02  0.89627206813E+02  0.13183523120E+03  0.90553545384E+02 0.  0.
          5    1    3    3  502    0 -0.55205322769E+02 -0.28586478815E+02  0.10007171099E+03  0.11788398608E+03  0.41800000000E+01 0. -1.
         -5    1    3    3    0  502  0.35011073466E+02  0.55784634978E+02  0.14616226001E+03  0.16037013256E+03  0.41800000000E+01 0. -1.
        -11    1    4    4    0    0  0.15621814194E+02  0.31667331076E+02  0.20138117384E+02  0.40649781155E+02  0.00000000000E+00 0.  1.
         11    1    4    4    0    0  0.45724351086E+01 -0.58865487239E+02  0.69489089429E+02  0.91185450047E+02  0.00000000000E+00 0. -1.
</event>
<event>
 8    1  0.7224195E-009  0.1132568E+03  0.7561462E-02  0.1254655E+00
         -1   -1    0    0    0  501 -0.00000000000E+00  0.00000000000E+00  0.16291949087E+03  0.16291949087E+03  0.00000000000E+00 0.  1.
          1   -1    0    0  501    0  0.00000000000E+00 -0.00000000000E+00 -0.97185829197E+02  0.97185829197E+02  0.00000000000E+00 0. -1.
         25    2    1    2    0    0  0.33997111727E+02 -0.52550370232E+02  0.43792097399E+02  0.14657061098E+03  0.12509137137E+03 0.  0.
         23    2    1    2    0    0 -0.33997111727E+02  0.52550370232E+02  0.21941564275E+02  0.11353470909E+03  0.92148537197E+02 0.  0.
          5    1    3    3  502    0 -0.15994997843E+02 -0.71874193548E+02  0.54565616055E+02  0.91742130505E+02  0.41800000000E+01 0.  1.
         -5    1    3    3    0  502  0.49992109571E+02  0.19323823316E+02 -0.10773518656E+02  0.54828480474E+02  0.41800000000E+01 0.  1.
        -11    1    4    4    0    0 -0.29497899520E+02 -0.13753511618E+02  0.32788159772E+02  0.46199010586E+02  0.00000000000E+00 0.  1.
         11    1    4    4    0    0 -0.44992122070E+01  0.66303881850E+02 -0.10846595496E+02  0.67335698502E+02  0.00000000000E+00 0. -1.
</event>
<event>
 8    1  0.7224195E-009  0.9277026E+02  0.7561462E-02  0.1296278E+00
          1   -1    0    0  501    0  0.00000000000E+00  0.00000000000E+00  0.58382996023E+03  0.58382996023E+03  0.00000000000E+00 0. -1.
         -1   -1    0    0    0  501 -0.00000000000E+00 -0.00000000000E+00 -0.26607170399E+02  0.26607170399E+02  0.00000000000E+00 0.  1.
         25    2    1    2    0    0  0.30325712705E+02  0.23063632492E+02  0.42771229255E+03  0.44725514195E+03  0.12509107409E+03 0.  0.
         23    2    1    2    0    0 -0.30325712705E+02 -0.23063632492E+02  0.12951049729E+03  0.16318198867E+03  0.91672310572E+02 0.  0.
          5    1    3    3  502    0  0.29526122313E+02 -0.35526933863E+02  0.65208809288E+02  0.80022597667E+02  0.41800000000E+01 0.  1.
         -5    1    3    3    0  502  0.79959039205E+00  0.58590566355E+02  0.36250348326E+03  0.36723254429E+03  0.41800000000E+01 0.  1.
        -11    1    4    4    0    0 -0.26547468802E+02  0.22434503290E+02  0.11439256236E+02  0.36591414579E+02  0.00000000000E+00 0.  1.
         11    1    4    4    0    0 -0.37782439028E+01 -0.45498135781E+02  0.11807124105E+03  0.12659057410E+03  0.00000000000E+00 0. -1.
</event>
<event>
 8    1  0.7224195E-009  0.1169288E+03  0.7561462E-02  0.1248251E+00
          1   -1    0    0  501    0  0.00000000000E+00  0.00000000000E+00  0.25727508065E+02  0.25727508065E+02  0.00000000000E+00 0. -1.
         -1   -1    0    0    0  501 -0.00000000000E+00 -0.00000000000E+00 -0.63348381946E+03  0.63348381946E+03  0.00000000000E+00 0.  1.
         25    2    1    2    0    0  0.28273862210E+02  0.56740026878E+02 -0.37780759615E+03  0.40299300333E+03  0.12508372831E+03 0.  0.
         23    2    1    2    0    0 -0.28273862210E+02 -0.56740026878E+02 -0.22994871525E+03  0.25621832420E+03  0.93555203367E+02 0.  0.
          5    1    3    3  502    0 -0.17141697847E+02  0.72758982861E+02 -0.12581206971E+03  0.14640306239E+03  0.41800000000E+01 0.  1.
         -5    1    3    3    0  502  0.45415560057E+02 -0.16018955982E+02 -0.25199552644E+03  0.25658994094E+03  0.41800000000E+01 0.  1.
        -11    1    4    4    0    0  0.30107426290E+02 -0.39716431564E+02 -0.78122356742E+02  0.92665822593E+02  0.00000000000E+00 0.  1.
         11    1    4    4    0    0 -0.58381288500E+02 -0.17023595314E+02 -0.15182635851E+03  0.16355250161E+03  0.00000000000E+00 0. -1.
</event>
<event>
 8    1  0.7224195E-009  0.1115766E+03  0.7561462E-02  0.1257678E+00
         -2   -1    0    0    0  501 -0.00000000000E+00  0.00000000000E+00  0.38486807479E+02  0.38486807479E+02  0.00000000000E+00 0.  1.
          2   -1    0    0  501    0  0.00000000000E+00 -0.00000000000E+00 -0.52820802946E+03  0.52820802946E+03  0.00000000000E+00 0. -1.
         25    2    1    2    0    0 -0.24349549039E+02  0.60565400274E+02 -0.39562710211E+03  0.42003534380E+03  0.12509123817E+03 0.  0.
         23    2    1    2    0    0  0.24349549039E+02 -0.60565400274E+02 -0.94094119875E+02  0.14665949314E+03  0.91620059405E+02 0.  0.
          5    1    3    3  502    0  0.24138155549E+02 -0.21515871319E+02 -0.38856236274E+02  0.50723394694E+02  0.41800000000E+01 0. -1.
         -5    1    3    3    0  502 -0.48487704588E+02  0.82081271593E+02 -0.35677086583E+03  0.36931194910E+03  0.41800000000E+01 0. -1.
        -11    1    4    4    0    0  0.39824154634E+02 -0.83850354544E+01 -0.81046620828E+02  0.90690831176E+02  0.00000000000E+00 0. -1.
         11    1    4    4    0    0 -0.15474605595E+02 -0.52180364820E+02 -0.13047499047E+02  0.55968661968E+02  0.00000000000E+00 0.  1.
</event>
<event>
 8    1  0.7224195E-009  0.1307378E+03  0.7561462E-02  0.1226365E+00
         -1   -1    0    0    0  501 -0.00000000000E+00  0.00000000000E+00  0.17368557927E+03  0.17368557927E+03  0.00000000000E+00 0.  1.
          1   -1    0    0  501    0  0.00000000000E+00 -0.00000000000E+00 -0.14639896128E+03  0.14639896128E+03  0.00000000000E+00 0. -1.
         25    2    1    2    0    0  0.29323987591E+02 -0.11201547556E+03 -0.74540620604E+00  0.17045752141E+03  0.12509135847E+03 0.  0.
         23    2    1    2    0    0 -0.29323987591E+02  0.11201547556E+03  0.28032024190E+02  0.14962701913E+03  0.90526722367E+02 0.  0.
          5    1    3    3  502    0 -0.85536247694E+01 -0.10071994617E+03 -0.45216007544E+02  0.11081350004E+03  0.41800000000E+01 0. -1.
         -5    1    3    3    0  502  0.37877612360E+02 -0.11295529391E+02  0.44470601338E+02  0.59644021374E+02  0.41800000000E+01 0. -1.
        -11    1    4    4    0    0 -0.14398491119E+02  0.10172493775E+02 -0.27504504712E+02  0.32669465186E+02  0.00000000000E+00 0. -1.
         11    1    4    4    0    0 -0.14925496472E+02  0.10184298178E+03  0.55536528902E+02  0.11695755395E+03  0.00000000000E+00 0.  1.
</event>
<event>
 8    1  0.7224195E-009  0.1195240E+03  0.7561462E-02  0.1243884E+00
          2   -1    0    0  501    0  0.00000000000E+00  0.00000000000E+00  0.43322348362E+03  0.43322348362E+03  0.00000000000E+00 0. -1.
         -2   -1    0    0    0  501 -0.00000000000E+00 -0.00000000000E+00 -0.47342694123E+02  0.47342694123E+02  0.00000000000E+00 0.  1.
         25    2    1    2    0    0  0.84741909980E+02  0.23382644640E+02  0.26078759131E+03  0.30229787123E+03  0.12508355522E+03 0.  0.
         23    2    1    2    0    0 -0.84741909980E+02 -0.23382644640E+02  0.12509319819E+03  0.17826830652E+03  0.91669741462E+02 0.  0.
          5    1    3    3  502    0 -0.19013004780E+02  0.36209507327E+02  0.12029470379E+03  0.12712557151E+03  0.41800000000E+01 0. -1.
         -5    1    3    3    0  502  0.10375491476E+03 -0.12826862687E+02  0.14049288752E+03  0.17517229972E+03  0.41800000000E+01 0. -1.
        -11    1    4    4    0    0 -0.38270606498E+02 -0.26785708675E+02  0.12306048449E+03  0.13162825059E+03  0.00000000000E+00 0. -1.
         11    1    4    4    0    0 -0.46471303482E+02  0.34030640349E+01  0.20327136982E+01  0.46640055930E+02  0.00000000000E+00 0.  1.
</event>
<event>
 8    1  0.7224195E-009  0.4023699E+03  0.7561462E-02  0.1042962E+00
          1   -1    0    0  501    0  0.00000000000E+00  0.00000000000E+00  0.62598788209E+03  0.62598788209E+03  0.00000000000E+00 0. -1.
         -1   -1    0    0    0  501 -0.00000000000E+00 -0.00000000000E+00 -0.69055388603E+03  0.69055388603E+03  0.00000000000E+00 0.  1.
         25    2    1    2    0    0  0.39443367876E+03  0.25740267741E+02 -0.54702121239E+03  0.68638198999E+03  0.12509013174E+03 0.  0.
         23    2    1    2    0    0 -0.39443367876E+03 -0.25740267741E+02  0.48245520845E+03  0.63015977814E+03  0.89987940863E+02 0.  0.
          5    1    3    3  502    0  0.10036444480E+03 -0.38872208925E+02 -0.19816833551E+03  0.22554873533E+03  0.41800000000E+01 0. -1.
         -5    1    3    3    0  502  0.29406923396E+03  0.64612476667E+02 -0.34885287688E+03  0.46083325466E+03  0.41800000000E+01 0. -1.
        -11    1    4    4    0    0 -0.82740042070E+02 -0.14639673213E+02  0.52804221894E+02  0.99239712028E+02  0.00000000000E+00 0.  1.
         11    1    4    4    0    0 -0.31169363669E+03 -0.11100594529E+02  0.42965098655E+03  0.53092006611E+03  0.00000000000E+00 0. -1.
</event>
<event>
 8    1  0.7224195E-009  0.9403082E+02  0.7561462E-02  0.1293374E+00
          2   -1    0    0  501    0  0.00000000000E+00  0.00000000000E+00  0.26294952583E+02  0.26294952583E+02  0.00000000000E+00 0. -1.
         -2   -1    0    0    0  501 -0.00000000000E+00 -0.00000000000E+00 -0.46773540979E+03  0.46773540979E+03  0.00000000000E+00 0.  1.
         25    2    1    2    0    0  0.96566025912E+01  0.13494044430E+02 -0.29910519640E+03  0.32462720623E+03  0.12507423918E+03 0.  0.
         23    2    1    2    0    0 -0.96566025912E+01 -0.13494044430E+02 -0.14233526080E+03  0.16940315614E+03  0.90348013992E+02 0.  0.
          5    1    3    3  502    0  0.31930610606E+02 -0.32205494192E+02 -0.24897888045E+03  0.25311008092E+03  0.41800000000E+01 0.  1.
         -5    1    3    3    0  502 -0.22274008015E+02  0.45699538622E+02 -0.50126315948E+02  0.71517125318E+02  0.41800000000E+01 0.  1.
        -11    1    4    4    0    0 -0.43403890199E+02  0.16424673722E+02 -0.79579161740E+02  0.92122258844E+02  0.00000000000E+00 0.  1.
         11    1    4    4    0    0  0.33747287607E+02 -0.29918718152E+02 -0.62756099064E+02  0.77280897293E+02  0.00000000000E+00 0. -1.
</event>
<event>
 8    1  0.7224195E-009  0.1038821E+03  0.7561462E-02  0.1272338E+00
         -3   -1    0    0    0  501 -0.00000000000E+00  0.00000000000E+00  0.19583291681E+03  0.19583291681E+03  0.00000000000E+00 0.  1.
          3   -1    0    0  501    0  0.00000000000E+00 -0.00000000000E+00 -0.71255576156E+02  0.71255576156E+02  0.00000000000E+00 0. -1.
         25    2    1    2    0    0 -0.41392318473E+02  0.19987292332E+02  0.71169291661E+02  0.15109006925E+03  0.12510125926E+03 0.  0.
         23    2    1    2    0    0  0.41392318473E+02 -0.19987292332E+02  0.53408048993E+02  0.11599842372E+03  0.92143359630E+02 0.  0.
          5    1    3    3  502    0 -0.55033807753E+02  0.49215238646E+02  0.12303326399E+01  0.73958406075E+02  0.41800000000E+01 0. -1.
         -5    1    3    3    0  502  0.13641489280E+02 -0.29227946314E+02  0.69938959022E+02  0.77131663177E+02  0.41800000000E+01 0. -1.
        -11    1    4    4    0    0  0.29067317451E+02 -0.56072920804E+02  0.22966113196E+02  0.67205087208E+02  0.00000000000E+00 0. -1.
         11    1    4    4    0    0  0.12325001022E+02  0.36085628472E+02  0.30441935797E+02  0.48793336507E+02  0.00000000000E+00 0.  1.
</event>
<event>
 8    1  0.7224195E-009  0.1159267E+03  0.7561462E-02  0.1249972E+00
         -2   -1    0    0    0  501 -0.00000000000E+00  0.00000000000E+00  0.32136446930E+02  0.32136446930E+02  0.00000000000E+00 0.  1.
          2   -1    0    0  501    0  0.00000000000E+00 -0.00000000000E+00 -0.56671786135E+03  0.56671786135E+03  0.00000000000E+00 0. -1.
         25    2    1    2    0    0  0.64828028785E+02 -0.42221858203E+02 -0.25234365272E+03  0.29207913630E+03  0.12509014417E+03 0.  0.
         23    2    1    2    0    0 -0.64828028785E+02  0.42221858203E+02 -0.28223776170E+03  0.30677517198E+03  0.92018983839E+02 0.  0.
          5    1    3    3  502    0  0.46026572735E+02 -0.86417285876E+02 -0.18357100270E+03  0.20809175411E+03  0.41800000000E+01 0.  1.
         -5    1    3    3    0  502  0.18801456050E+02  0.44195427673E+02 -0.68772650014E+02  0.83987382188E+02  0.41800000000E+01 0.  1.
        -11    1    4    4    0    0 -0.56428855528E+02  0.16808822940E+02 -0.27170627681E+03  0.27801268518E+03  0.00000000000E+00 0. -1.
         11    1    4    4    0    0 -0.83991732565E+01  0.25413035263E+02 -0.10531484890E+02  0.28762486795E+02  0.00000000000E+00 0.  1.
</event>
<event>
 8    1  0.7224195E-009  0.1166883E+03  0.7561462E-02  0.1248663E+00
         -2   -1    0    0    0  501 -0.00000000000E+00  0.00000000000E+00  0.17861726944E+03  0.17861726944E+03  0.00000000000E+00 0.  1.
          2   -1    0    0  501    0  0.00000000000E+00 -0.00000000000E+00 -0.11626166370E+03  0.11626166370E+03  0.00000000000E+00 0. -1.
         25    2    1    2    0    0 -0.83620650541E+02 -0.19376146653E+02  0.74056924452E+02  0.16882003449E+03  0.12509167731E+03 0.  0.
         23    2    1    2    0    0  0.83620650541E+02  0.19376146653E+02 -0.11701318709E+02  0.12605889865E+03  0.91575525186E+02 0.  0.
          5    1    3    3  502    0 -0.10505877714E+03 -0.31161342604E+02  0.87773243162E+02  0.14046348473E+03  0.41800000000E+01 0. -1.
         -5    1    3    3    0  502  0.21438126599E+02  0.11785195951E+02 -0.13716318710E+02  0.28356549766E+02  0.41800000000E+01 0. -1.
        -11    1    4    4    0    0  0.68232996297E+02 -0.67590354096E+01  0.29712010089E+02  0.74727704948E+02  0.00000000000E+00 0.  1.
         11    1    4    4    0    0  0.15387654244E+02  0.26135182063E+02 -0.41413328798E+02  0.51331193701E+02  0.00000000000E+00 0. -1.
</event>
<event>
 8    1  0.7224195E-009  0.1174845E+03  0.7561462E-02  0.1247305E+00
         -2   -1    0    0    0  501 -0.00000000000E+00  0.00000000000E+00  0.95342439513E+02  0.95342439513E+02  0.00000000000E+00 0.  1.
          2   -1    0    0  501    0  0.00000000000E+00 -0.00000000000E+00 -0.16949850010E+03  0.16949850010E+03  0.00000000000E+00 0. -1.
         25    2    1    2    0    0  0.36822145088E+02  0.47787012582E+02 -0.67216688052E+02  0.15429002620E+03  0.12509140695E+03 0.  0.
         23    2    1    2    0    0 -0.36822145088E+02 -0.47787012582E+02 -0.69393725352E+01  0.11055091341E+03  0.92379005322E+02 0.  0.
          5    1    3    3  502    0 -0.23593895565E+02 -0.28495945456E+02 -0.24278035908E+01  0.37310286057E+02  0.41800000000E+01 0.  1.
         -5    1    3    3    0  502  0.60416040653E+02  0.76282958038E+02 -0.64788884462E+02  0.11697974015E+03  0.41800000000E+01 0.  1.
        -11    1    4    4    0    0 -0.26858411548E+02 -0.70550366007E+02  0.15506002218E+02  0.77065975108E+02  0.00000000000E+00 0.  1.
         11    1    4    4    0    0 -0.99637335396E+01  0.22763353425E+02 -0.22445374754E+02  0.33484938301E+02  0.00000000000E+00 0. -1.
</event>
<event>
 8    1  0.7224195E-009  0.1103488E+03  0.7561462E-02  0.1259925E+00
          2   -1    0    0  501    0  0.00000000000E+00  0.00000000000E+00  0.49253425057E+03  0.49253425057E+03  0.00000000000E+00 0. -1.
         -2   -1    0    0    0  501 -0.00000000000E+00 -0.00000000000E+00 -0.39847829913E+02  0.39847829913E+02  0.00000000000E+00 0.  1.
         25    2    1    2    0    0  0.70924840559E+02 -0.57499986117E+02  0.29930784876E+03  0.33699944719E+03  0.12508740011E+03 0.  0.
         23    2    1    2    0    0 -0.70924840559E+02  0.57499986117E+02  0.15337857190E+03  0.19538263329E+03  0.79453166472E+02 0.  0.
          5    1    3    3  502    0  0.70741967129E+02 -0.37001416441E+02  0.30501192965E+03  0.31531457366E+03  0.41800000000E+01 0. -1.
         -5    1    3    3    0  502  0.18287342957E+00 -0.20498569677E+02 -0.57040808885E+01  0.21684873536E+02  0.41800000000E+01 0. -1.
        -11    1    4    4    0    0 -0.41866068084E+02 -0.12787249653E+02  0.43201760200E+02  0.61503442952E+02  0.00000000000E+00 0.  1.
         11    1    4    4    0    0 -0.29058772474E+02  0.70287235770E+02  0.11017681170E+03  0.13387919034E+03  0.00000000000E+00 0. -1.
</event>
<event>
 8    1  0.7224195E-009  0.1249896E+03  0.7561462E-02  0.1235086E+00
         -1   -1    0    0    0  501 -0.00000000000E+00  0.00000000000E+00  0.23354857674E+03  0.23354857674E+03  0.00000000000E+00 0.  1.
          1   -1    0    0  501    0  0.00000000000E+00 -0.00000000000E+00 -0.12407095505E+03  0.12407095505E+03  0.00000000000E+00 0. -1.
         25    2    1    2    0    0 -0.62723546170E+00 -0.92763251709E+02  0.15562246880E+03  0.22016067308E+03  0.12508778870E+03 0.  0.
         23    2    1    2    0    0  0.62723546170E+00  0.92763251709E+02 -0.46144847101E+02  0.13745885871E+03  0.90333696000E+02 0.  0.
          5    1    3    3  502    0 -0.67346308288E+01 -0.12291584329E+03  0.13573527750E+03  0.18328992810E+03  0.41800000000E+01 0.  1.
         -5    1    3    3    0  502  0.61073953671E+01  0.30152591583E+02  0.19887191302E+02  0.36870744978E+02  0.41800000000E+01 0.  1.
        -11    1    4    4    0    0 -0.11188049977E+02  0.57260104359E+02  0.19822579706E+02  0.61618395627E+02  0.00000000000E+00 0.  1.
         11    1    4    4    0    0  0.11815285438E+02  0.35503147350E+02 -0.65967426807E+02  0.75840463087E+02  0.00000000000E+00 0. -1.
</event>
<event>
 8    1  0.7224195E-009  0.8821007E+02  0.7561462E-02  0.1307245E+00
          2   -1    0    0  501    0  0.00000000000E+00  0.00000000000E+00  0.18352272470E+03  0.18352272470E+03  0.00000000000E+00 0.  1.
         -2   -1    0    0    0  501 -0.00000000000E+00 -0.00000000000E+00 -0.75177717151E+02  0.75177717151E+02  0.00000000000E+00 0. -1.
         25    2    1    2    0    0  0.96923435327E+01  0.23969139534E+02  0.10187049570E+03  0.16337815634E+03  0.12508542242E+03 0.  0.
         23    2    1    2    0    0 -0.96923435327E+01 -0.23969139534E+02  0.64745118504E+01  0.95322285510E+02  0.91520258074E+02 0.  0.
          5    1    3    3  502    0  0.73686150990E+01  0.58275255602E+02  0.11264019884E+03  0.12710463681E+03  0.41800000000E+01 0. -1.
         -5    1    3    3    0  502  0.23237284337E+01 -0.34306116068E+02 -0.10769703141E+02  0.36273519532E+02  0.41800000000E+01 0. -1.
        -11    1    4    4    0    0 -0.42684945662E+02 -0.10051988502E+01  0.26664612157E+02  0.50339016204E+02  0.00000000000E+00 0.  1.
         11    1    4    4    0    0  0.32992602129E+02 -0.22963940684E+02 -0.20190100307E+02  0.44983269305E+02  0.00000000000E+00 0. -1.
</event>
<event>
 8    1  0.7224195E-009  0.1319682E+03  0.7561462E-02  0.1224564E+00
         -2   -1    0    0    0  501 -0.00000000000E+00  0.00000000000E+00  0.26828143562E+03  0.26828143562E+03  0.00000000000E+00 0.  1.
          2   -1    0    0  501    0  0.00000000000E+00 -0.00000000000E+00 -0.75977543916E+02  0.75977543916E+02  0.00000000000E+00 0. -1.
         25    2    1    2    0    0  0.18441103827E+02  0.89826798122E+02  0.87020878181E+02  0.17784676753E+03  0.12509161246E+03 0.  0.
         23    2    1    2    0    0 -0.18441103827E+02 -0.89826798122E+02  0.10528301352E+03  0.16641221201E+03  0.90551551052E+02 0.  0.
          5    1    3    3  502    0  0.48433492302E+02 -0.93988115677E+01  0.15665698939E+02  0.51932912095E+02  0.41800000000E+01 0. -1.
         -5    1    3    3    0  502 -0.29992388475E+02  0.99225609690E+02  0.71355179242E+02  0.12591385543E+03  0.41800000000E+01 0. -1.
        -11    1    4    4    0    0 -0.33846769292E+02 -0.20303740234E+02  0.82819277689E+02  0.91743546999E+02  0.00000000000E+00 0.  1.
         11    1    4    4    0    0  0.15405665465E+02 -0.69523057889E+02  0.22463735832E+02  0.74668665008E+02  0.00000000000E+00 0. -1.
</event>
<event>
 8    1  0.7224195E-009  0.9228001E+02  0.7561462E-02  0.1297422E+00
         -2   -1    0    0    0  501 -0.00000000000E+00  0.00000000000E+00  0.10035419894E+03  0.10035419894E+03  0.00000000000E+00 0.  1.
          2   -1    0    0  501    0  0.00000000000E+00 -0.00000000000E+00 -0.13096896786E+03  0.13096896786E+03  0.00000000000E+00 0. -1.
         25    2    1    2    0    0  0.19450995735E+02  0.13220342028E+02 -0.51528939365E+02  0.13731477795E+03  0.12508796095E+03 0.  0.
         23    2    1    2    0    0 -0.19450995735E+02 -0.13220342028E+02  0.20914170451E+02  0.94008388850E+02  0.88583610053E+02 0.  0.
          5    1    3    3  502    0  0.28564930671E+02  0.55592985327E+02  0.84369614172E+01  0.63207515374E+02  0.41800000000E+01 0.  1.
         -5    1    3    3    0  502 -0.91139349357E+01 -0.42372643299E+02 -0.59965900782E+02  0.74107262578E+02  0.41800000000E+01 0.  1.
        -11    1    4    4    0    0 -0.45669191598E+02 -0.22045398258E+02  0.36289931682E+02  0.62358911047E+02  0.00000000000E+00 0.  1.
         11    1    4    4    0    0  0.26218195862E+02  0.88250562300E+01 -0.15375761231E+02  0.31649477802E+02  0.00000000000E+00 0. -1.
</event>
<event>
 8    1  0.7224195E-009  0.7044288E+02  0.7561462E-02  0.1358593E+00
          2   -1    0    0  501    0  0.00000000000E+00  0.00000000000E+00  0.64421205578E+03  0.64421205578E+03  0.00000000000E+00 0. -1.
         -2   -1    0    0    0  501 -0.00000000000E+00 -0.00000000000E+00 -0.20476533922E+02  0.20476533922E+02  0.00000000000E+00 0.  1.
         25    2    1    2    0    0  0.34980487804E+02 -0.10426229139E+02  0.37187326325E+03  0.39404251467E+03  0.12508972247E+03 0.  0.
         23    2    1    2    0    0 -0.34980487804E+02  0.10426229139E+02  0.25186225861E+03  0.27064607503E+03  0.92099727671E+02 0.  0.
          5    1    3    3  502    0  0.41574937945E+02 -0.20837816837E+02  0.37712824467E+03  0.38000773071E+03  0.41800000000E+01 0.  1.
         -5    1    3    3    0  502 -0.65944501412E+01  0.10411587697E+02 -0.52549814178E+01  0.14034783958E+02  0.41800000000E+01 0.  1.
        -11    1    4    4    0    0 -0.38725536343E+02 -0.24649268334E+02  0.21412101879E+03  0.21898644771E+03  0.00000000000E+00 0. -1.
         11    1    4    4    0    0  0.37450485388E+01  0.35075497474E+02  0.37741239821E+02  0.51659627320E+02  0.00000000000E+00 0.  1.
</event>
<event>
 8    1  0.7224195E-009  0.3231295E+03  0.7561462E-02  0.1074218E+00
          1   -1    0    0  501    0  0.00000000000E+00  0.00000000000E+00  0.17064661913E+03  0.17064661913E+03  0.00000000000E+00 0. -1.
         -1   -1    0    0    0  501 -0.00000000000E+00 -0.00000000000E+00 -0.74986731849E+03  0.74986731849E+03  0.00000000000E+00 0.  1.
         25    2    1    2    0    0 -0.16061149745E+03  0.27793743282E+03 -0.14675772759E+03  0.37447371092E+03  0.12508980729E+03 0.  0.
         23    2    1    2    0    0  0.16061149745E+03 -0.27793743282E+03 -0.43246297177E+03  0.54604022671E+03  0.89946859615E+02 0.  0.
          5    1    3    3  502    0 -0.65625211938E+01  0.41431594545E+02  0.19951802365E+02  0.46638937902E+02  0.41800000000E+01 0.  1.
         -5    1    3    3    0  502 -0.15404897625E+03  0.23650583828E+03 -0.16670952995E+03  0.32783477302E+03  0.41800000000E+01 0.  1.
        -11    1    4    4    0    0  0.13353067438E+02 -0.12603290264E+02 -0.79241045132E+00  0.18378662895E+02  0.00000000000E+00 0.  1.
         11    1    4    4    0    0  0.14725843001E+03 -0.26533414256E+03 -0.43167056132E+03  0.52766156381E+03  0.00000000000E+00 0. -1.
</event>
<event>
 8    1  0.7224195E-009  0.1574401E+03  0.7561462E-02  0.1191618E+00
          1   -1    0    0  501    0  0.00000000000E+00  0.00000000000E+00  0.50841592854E+03  0.50841592854E+03  0.00000000000E+00 0. -1.
         -1   -1    0    0    0  501 -0.00000000000E+00 -0.00000000000E+00 -0.59940423763E+02  0.59940423763E+02  0.00000000000E+00 0.  1.
         25    2    1    2    0    0 -0.96698357762E+02  0.91117932243E+02  0.28738734616E+03  0.34043115946E+03  0.12509531419E+03 0.  0.
         23    2    1    2    0    0  0.96698357762E+02 -0.91117932243E+02  0.16108815862E+03  0.22792519284E+03  0.91364373331E+02 0.  0.
          5    1    3    3  502    0 -0.29154943920E+02 -0.14366491630E+02  0.72853578503E+01  0.33570160497E+02  0.41800000000E+01 0. -1.
         -5    1    3    3    0  502 -0.67543413842E+02  0.10548442387E+03  0.28010198831E+03  0.30686099897E+03  0.41800000000E+01 0. -1.
        -11    1    4    4    0    0  0.10189441017E+03 -0.46739801307E+02  0.13747572473E+03  0.17738842899E+03  0.00000000000E+00 0.  1.
         11    1    4    4    0    0 -0.51960524120E+01 -0.44378130937E+02  0.23612433894E+02  0.50536763851E+02  0.00000000000E+00 0. -1.
</event>
<event>
 8    1  0.7224195E-009  0.3029261E+03  0.7561462E-02  0.1083787E+00
         -2   -1    0    0    0  501 -0.00000000000E+00  0.00000000000E+00  0.74311207719E+02  0.74311207719E+02  0.00000000000E+00 0.  1.
          2   -1    0    0  501    0  0.00000000000E+00 -0.00000000000E+00 -0.15579394813E+04  0.15579394813E+04  0.00000000000E+00 0. -1.
         25    2    1    2    0    0 -0.19643134724E+03  0.21418786202E+03 -0.41994369048E+03  0.52580080847E+03  0.12510824354E+03 0.  0.
         23    2    1    2    0    0  0.19643134724E+03 -0.21418786202E+03 -0.10636845831E+04  0.11064498806E+04  0.91349501456E+02 0.  0.
          5    1    3    3  502    0 -0.19752032131E+03  0.18162497411E+03 -0.41251035813E+03  0.49212211545E+03  0.41800000000E+01 0.  1.
         -5    1    3    3    0  502  0.10889740775E+01  0.32562887914E+02 -0.74333323523E+01  0.33678693023E+02  0.41800000000E+01 0.  1.
        -11    1    4    4    0    0  0.10064879023E+03 -0.45064890734E+02 -0.38683653391E+03  0.40224809175E+03  0.00000000000E+00 0. -1.
         11    1    4    4    0    0  0.95782557010E+02 -0.16912297129E+03 -0.67684804920E+03  0.70420178880E+03  0.00000000000E+00 0.  1.
</event>
<event>
 8    1  0.7224195E-009  0.9234324E+02  0.7561462E-02  0.1297274E+00
         -2   -1    0    0    0  501 -0.00000000000E+00  0.00000000000E+00  0.23742271584E+02  0.23742271584E+02  0.00000000000E+00 0.  1.
          2   -1    0    0  501    0  0.00000000000E+00 -0.00000000000E+00 -0.68203913576E+03  0.68203913576E+03  0.00000000000E+00 0. -1.
         25    2    1    2    0    0  0.44841805366E+02  0.21679755740E-01 -0.23475784365E+03  0.26975583783E+03  0.12508468695E+03 0.  0.
         23    2    1    2    0    0 -0.44841805366E+02 -0.21679755740E-01 -0.42353902053E+03  0.43602556951E+03  0.93392758735E+02 0.  0.
          5    1    3    3  502    0  0.44170402510E+02  0.36341625376E+02 -0.22459792652E+03  0.23180474367E+03  0.41800000000E+01 0. -1.
         -5    1    3    3    0  502  0.67140285540E+00 -0.36319945620E+02 -0.10159917134E+02  0.37951094158E+02  0.41800000000E+01 0. -1.
        -11    1    4    4    0    0 -0.67127065391E+02 -0.68129039258E+01 -0.38594306366E+03  0.39179651218E+03  0.00000000000E+00 0. -1.
         11    1    4    4    0    0  0.22285260026E+02  0.67912241700E+01 -0.37595956862E+02  0.44229057332E+02  0.00000000000E+00 0.  1.
</event>
<event>
 8    1  0.7224195E-009  0.1159083E+03  0.7561462E-02  0.1250004E+00
         -4   -1    0    0    0  501 -0.00000000000E+00  0.00000000000E+00  0.48924800389E+02  0.48924800389E+02  0.00000000000E+00 0.  1.
          4   -1    0    0  501    0  0.00000000000E+00 -0.00000000000E+00 -0.39128229831E+03  0.39128229831E+03  0.00000000000E+00 0. -1.
         25    2    1    2    0    0 -0.71919347063E+02  0.44315053178E+02 -0.15388565365E+03  0.21555774166E+03  0.12509248246E+03 0.  0.
         23    2    1    2    0    0  0.71919347063E+02 -0.44315053178E+02 -0.18847184426E+03  0.22464935704E+03  0.88371268626E+02 0.  0.
          5    1    3    3  502    0 -0.47546805899E+00  0.41135330419E+02 -0.13540172750E+03  0.14157486249E+03  0.41800000000E+01 0.  1.
         -5    1    3    3    0  502 -0.71443879004E+02  0.31797227584E+01 -0.18483926154E+02  0.73982879168E+02  0.41800000000E+01 0.  1.
        -11    1    4    4    0    0  0.84941170636E+02 -0.55665164688E+02 -0.13826622417E+03  0.17155512751E+03  0.00000000000E+00 0.  1.
         11    1    4    4    0    0 -0.13021823573E+02  0.11350111511E+02 -0.50205620092E+02  0.53094229529E+02  0.00000000000E+00 0. -1.
</event>
<event>
 8    1  0.7224195E-009  0.8613482E+02  0.7561462E-02  0.1312491E+00
         -2   -1    0    0    0  501 -0.00000000000E+00  0.00000000000E+00  0.85392157807E+02  0.85392157807E+02  0.00000000000E+00 0. -1.
          2   -1    0    0  501    0  0.00000000000E+00 -0.00000000000E+00 -0.15110593892E+03  0.15110593892E+03  0.00000000000E+00 0.  1.
         25    2    1    2    0    0  0.26489901810E+02 -0.97186582748E+01 -0.19539538219E+02  0.12970409359E+03  0.12508073842E+03 0.  0.
         23    2    1    2    0    0 -0.26489901810E+02  0.97186582748E+01 -0.46174242893E+02  0.10679400314E+03  0.92069165210E+02 0.  0.
          5    1    3    3  502    0 -0.23460058951E+02  0.33020614127E+02 -0.43522395618E+02  0.59602069123E+02  0.41800000000E+01 0. -1.
         -5    1    3    3    0  502  0.49949960761E+02 -0.42739272402E+02  0.23982857399E+02  0.70102024468E+02  0.41800000000E+01 0. -1.
        -11    1    4    4    0    0 -0.26865902295E+02 -0.21528289720E+02  0.15422491185E+02  0.37723960539E+02  0.00000000000E+00 0. -1.
         11    1    4    4    0    0  0.37600048442E+00  0.31246947995E+02 -0.61596734077E+02  0.69070042597E+02  0.00000000000E+00 0.  1.
</event>
<event>
 8    1  0.7224195E-009  0.1064546E+03  0.7561462E-02  0.1267280E+00
         -2   -1    0    0    0  501 -0.00000000000E+00  0.00000000000E+00  0.21757618264E+03  0.21757618264E+03  0.00000000000E+00 0.  1.
          2   -1    0    0  501    0  0.00000000000E+00 -0.00000000000E+00 -0.77833705537E+02  0.77833705537E+02  0.00000000000E+00 0. -1.
         25    2    1    2    0    0  0.28065051441E+02  0.67277692847E+02  0.75245774463E+02  0.16316613578E+03  0.12508927301E+03 0.  0.
         23    2    1    2    0    0 -0.28065051441E+02 -0.67277692847E+02  0.64496702644E+02  0.13224375240E+03  0.89524579477E+02 0.  0.
          5    1    3    3  502    0  0.65853082484E+02  0.52176692876E+02  0.80612781317E+01  0.84507350907E+02  0.41800000000E+01 0. -1.
         -5    1    3    3    0  502 -0.37788031043E+02  0.15100999970E+02  0.67184496331E+02  0.78658784872E+02  0.41800000000E+01 0. -1.
        -11    1    4    4    0    0 -0.23952442598E+02 -0.37801237735E+01  0.64184492186E+02  0.68612374098E+02  0.00000000000E+00 0.  1.
         11    1    4    4    0    0 -0.41126088434E+01 -0.63497569073E+02  0.31221045810E+00  0.63631378306E+02  0.00000000000E+00 0. -1.
</event>
<event>
 8    1  0.7224195E-009  0.2039401E+03  0.7561462E-02  0.1146457E+00
         -2   -1    0    0    0  501 -0.00000000000E+00  0.00000000000E+00  0.14860344339E+03  0.14860344339E+03  0.00000000000E+00 0.  1.
          2   -1    0    0  501    0  0.00000000000E+00 -0.00000000000E+00 -0.32183727981E+03  0.32183727981E+03  0.00000000000E+00 0. -1.
         25    2    1    2    0    0  0.62302686005E+02 -0.17485187385E+03 -0.13068072673E+03  0.25919047628E+03  0.12508976050E+03 0.  0.
         23    2    1    2    0    0 -0.62302686005E+02  0.17485187385E+03 -0.42553109684E+02  0.21125024692E+03  0.91439035466E+02 0.  0.
          5    1    3    3  502    0  0.23972541273E+02 -0.15927016536E+03 -0.50467196084E+02  0.16883743243E+03  0.41800000000E+01 0. -1.
         -5    1    3    3    0  502  0.38330144731E+02 -0.15581708498E+02 -0.80213530647E+02  0.90353043854E+02  0.41800000000E+01 0. -1.
        -11    1    4    4    0    0  0.84727531008E+01  0.10631993540E+03 -0.35784718378E+02  0.11250005457E+03  0.00000000000E+00 0. -1.
         11    1    4    4    0    0 -0.70775439106E+02  0.68531938455E+02 -0.67683913060E+01  0.98750192353E+02  0.00000000000E+00 0.  1.
</event>
<event>
 8    1  0.7224195E-009  0.8627764E+02  0.7561462E-02  0.1312125E+00
         -2   -1    0    0    0  501 -0.00000000000E+00  0.00000000000E+00  0.13553698947E+02  0.13553698947E+02  0.00000000000E+00 0.  1.
          2   -1    0    0  501    0  0.00000000000E+00 -0.00000000000E+00 -0.84160200289E+03  0.84160200289E+03  0.00000000000E+00 0. -1.
         25    2    1    2    0    0  0.24513278524E+02 -0.26866323333E+01 -0.47161809811E+03  0.48854479926E+03  0.12507706267E+03 0.  0.
         23    2    1    2    0    0 -0.24513278524E+02  0.26866323333E+01 -0.35643020583E+03  0.36661090257E+03  0.82176294864E+02 0.  0.
          5    1    3    3  502    0  0.43287612245E+02 -0.33065076473E+02 -0.43037785846E+03  0.43383140747E+03  0.41800000000E+01 0.  1.
         -5    1    3    3    0  502 -0.18774333721E+02  0.30378444140E+02 -0.41240239651E+02  0.54713391793E+02  0.41800000000E+01 0.  1.
        -11    1    4    4    0    0 -0.18601733861E+02  0.40040051934E+02 -0.13678352732E+03  0.14373226363E+03  0.00000000000E+00 0.  1.
         11    1    4    4    0    0 -0.59115446636E+01 -0.37353419600E+02 -0.21964667851E+03  0.22287863894E+03  0.00000000000E+00 0. -1.
</event>
<event>
 8    1  0.7224195E-009  0.9696576E+02  0.7561462E-02  0.1286809E+00
          2   -1    0    0  501    0  0.00000000000E+00  0.00000000000E+00  0.94671956285E+02  0.94671956285E+02  0.00000000000E+00 0. -1.
         -2   -1    0    0    0  501 -0.00000000000E+00 -0.00000000000E+00 -0.13526512622E+03  0.13526512622E+03  0.00000000000E+00 0.  1.
         25    2    1    2    0    0  0.74719698134E+01  0.98077688384E+01 -0.58554293359E+02  0.13868328532E+03  0.12510965468E+03 0.  0.
         23    2    1    2    0    0 -0.74719698134E+01 -0.98077688384E+01  0.17961123428E+02  0.91253797183E+02  0.88615071422E+02 0.  0.
          5    1    3    3  502    0  0.41900863768E+02 -0.29974448331E+02  0.95089907969E+01  0.52555144783E+02  0.41800000000E+01 0.  1.
         -5    1    3    3    0  502 -0.34428893954E+02  0.39782217169E+02 -0.68063284155E+02  0.86128140534E+02  0.41800000000E+01 0.  1.
        -11    1    4    4    0    0 -0.10801210077E+01  0.39616176920E+02  0.82798661090E+01  0.40486594299E+02  0.00000000000E+00 0.  1.
         11    1    4    4    0    0 -0.63918488057E+01 -0.49423945758E+02  0.96812573189E+01  0.50767202885E+02  0.00000000000E+00 0. -1.
</event>
<event>
 8    1  0.7224195E-009  0.2497225E+03  0.7561462E-02  0.1113480E+00
          1   -1    0    0  501    0  0.00000000000E+00  0.00000000000E+00  0.82752993945E+03  0.82752993945E+03  0.00000000000E+00 0. -1.
         -1   -1    0    0    0  501 -0.00000000000E+00 -0.00000000000E+00 -0.18468576290E+03  0.18468576290E+03  0.00000000000E+00 0.  1.
         25    2    1    2    0    0  0.43759285392E+02 -0.22998603349E+03  0.70459093471E+03  0.75293065976E+03  0.12509093684E+03 0.  0.
         23    2    1    2    0    0 -0.43759285392E+02  0.22998603349E+03 -0.61746758160E+02  0.25928504259E+03  0.92777262903E+02 0.  0.
          5    1    3    3  502    0 -0.31752993343E+02 -0.15601135735E+03  0.44288039459E+03  0.47064669607E+03  0.41800000000E+01 0. -1.
         -5    1    3    3    0  502  0.75512278735E+02 -0.73974676134E+02  0.26171054012E+03  0.28228396369E+03  0.41800000000E+01 0. -1.
        -11    1    4    4    0    0 -0.13971738451E+02  0.10371210017E+03  0.19155584331E+02  0.10638771361E+03  0.00000000000E+00 0.  1.
         11    1    4    4    0    0 -0.29787546941E+02  0.12627393332E+03 -0.80902342491E+02  0.15289732898E+03  0.00000000000E+00 0. -1.
</event>
<event>
 8    1  0.7224195E-009  0.1254970E+03  0.7561462E-02  0.1234295E+00
          2   -1    0    0  501    0  0.00000000000E+00  0.00000000000E+00  0.46533485768E+02  0.46533485768E+02  0.00000000000E+00 0. -1.
         -2   -1    0    0    0  501 -0.00000000000E+00 -0.00000000000E+00 -0.40152887512E+03  0.40152887512E+03  0.00000000000E+00 0.  1.
         25    2    1    2    0    0  0.53707461685E+02  0.65567430610E+02 -0.16900978559E+03  0.22670530944E+03  0.12508960911E+03 0.  0.
         23    2    1    2    0    0 -0.53707461685E+02 -0.65567430610E+02 -0.18598560376E+03  0.22135705144E+03  0.84998353036E+02 0.  0.
          5    1    3    3  502    0  0.71154110546E+02  0.93227319306E+02 -0.14098345921E+03  0.18343404450E+03  0.41800000000E+01 0.  1.
         -5    1    3    3    0  502 -0.17446648861E+02 -0.27659888695E+02 -0.28026326376E+02  0.43271264937E+02  0.41800000000E+01 0.  1.
        -11    1    4    4    0    0 -0.57893312123E+02 -0.30652082862E+02 -0.54389347567E+02  0.85143331513E+02  0.00000000000E+00 0. -1.
         11    1    4    4    0    0  0.41858504380E+01 -0.34915347748E+02 -0.13159625620E+03  0.13621371993E+03  0.00000000000E+00 0.  1.
</event>
<event>
 8    1  0.7224195E-009  0.1332405E+03  0.7561462E-02  0.1222725E+00
          2   -1    0    0  501    0  0.00000000000E+00  0.00000000000E+00  0.14165503506E+04  0.14165503506E+04  0.00000000000E+00 0.  1.
         -2   -1    0    0    0  501 -0.00000000000E+00 -0.00000000000E+00 -0.20128221366E+02  0.20128221366E+02  0.00000000000E+00 0. -1.
         25    2    1    2    0    0 -0.60044821927E+02 -0.57344456776E+02  0.11701873366E+04  0.11797798368E+04  0.12509313849E+03 0.  0.
         23    2    1    2    0    0  0.60044821927E+02  0.57344456776E+02  0.22623479263E+03  0.25689873513E+03  0.89000063770E+02 0.  0.
          5    1    3    3  502    0 -0.98955200570E+02 -0.40092053971E+02  0.78952856456E+03  0.79672600758E+03  0.41800000000E+01 0.  1.
         -5    1    3    3    0  502  0.38910378643E+02 -0.17252402805E+02  0.38065877200E+03  0.38305382921E+03  0.41800000000E+01 0.  1.
        -11    1    4    4    0    0  0.35735719706E+02  0.77462443450E+02  0.19330160700E+03  0.21128886170E+03  0.00000000000E+00 0.  1.
         11    1    4    4    0    0  0.24309102221E+02 -0.20117986674E+02  0.32933185623E+02  0.45609873426E+02  0.00000000000E+00 0. -1.
</event>
<event>
 8    1  0.7224195E-009  0.1696289E+03  0.7561462E-02  0.1178235E+00
          2   -1    0    0  501    0  0.00000000000E+00  0.00000000000E+00  0.14888359449E+03  0.14888359449E+03  0.00000000000E+00 0. -1.
         -2   -1    0    0    0  501 -0.00000000000E+00 -0.00000000000E+00 -0.26702020931E+03  0.26702020931E+03  0.00000000000E+00 0.  1.
         25    2    1    2    0    0  0.15839255419E+03  0.48284960218E+01 -0.11644068090E+03  0.23306080972E+03  0.12508954099E+03 0.  0.
         23    2    1    2    0    0 -0.15839255419E+03 -0.48284960218E+01 -0.16959339198E+01  0.18284299408E+03  0.91198512575E+02 0.  0.
          5    1    3    3  502    0  0.10217511876E+03  0.24942035923E+02 -0.13426846630E+03  0.17060877320E+03  0.41800000000E+01 0.  1.
         -5    1    3    3    0  502  0.56217435431E+02 -0.20113539901E+02  0.17827785403E+02  0.62452036525E+02  0.41800000000E+01 0.  1.
        -11    1    4    4    0    0 -0.10933582891E+03 -0.37062573335E+02  0.25374394786E+02  0.11820244387E+03  0.00000000000E+00 0. -1.
         11    1    4    4    0    0 -0.49056725274E+02  0.32234077313E+02 -0.27070328706E+02  0.64640550207E+02  0.00000000000E+00 0.  1.
</event>
<event>
 8    1  0.7224195E-009  0.8684139E+02  0.7561462E-02  0.1310686E+00
          2   -1    0    0  501    0  0.00000000000E+00  0.00000000000E+00  0.42126072822E+03  0.42126072822E+03  0.00000000000E+00 0. -1.
         -2   -1    0    0    0  501 -0.00000000000E+00 -0.00000000000E+00 -0.36350183363E+02  0.36350183363E+02  0.00000000000E+00 0.  1.
         25    2    1    2    0    0  0.23936754432E+02 -0.51987448813E+02  0.23752327705E+03  0.27448247203E+03  0.12509059623E+03 0.  0.
         23    2    1    2    0    0 -0.23936754432E+02  0.51987448813E+02  0.14738726781E+03  0.18312843955E+03  0.92397811736E+02 0.  0.
          5    1    3    3  502    0  0.15103888391E+02 -0.42042319547E+01 -0.12035685136E+02  0.20202305006E+02  0.41800000000E+01 0. -1.
         -5    1    3    3    0  502  0.88328660404E+01 -0.47783216858E+02  0.24955896218E+03  0.25428016702E+03  0.41800000000E+01 0. -1.
        -11    1    4    4    0    0 -0.17708194181E+02 -0.25445991819E+02  0.41438277514E+02  0.51751420117E+02  0.00000000000E+00 0.  1.
         11    1    4    4    0    0 -0.62285602506E+01  0.77433440632E+02  0.10594899029E+03  0.13137701943E+03  0.00000000000E+00 0. -1.
</event>
<event>
 8    1  0.7224195E-009  0.1065004E+03  0.7561462E-02  0.1267191E+00
          1   -1    0    0  501    0  0.00000000000E+00  0.00000000000E+00  0.69402119759E+03  0.69402119759E+03  0.00000000000E+00 0. -1.
         -1   -1    0    0    0  501 -0.00000000000E+00 -0.00000000000E+00 -0.19682307765E+02  0.19682307765E+02  0.00000000000E+00 0.  1.
         25    2    1    2    0    0 -0.10213560956E+02 -0.37830292088E+01  0.45066178796E+03  0.46782719052E+03  0.12509038703E+03 0.  0.
         23    2    1    2    0    0  0.10213560956E+02  0.37830292088E+01  0.22367710187E+03  0.24587631483E+03  0.10151398012E+03 0.  0.
          5    1    3    3  502    0 -0.51573436267E+02  0.36494729869E+02  0.17367686225E+03  0.18485889082E+03  0.41800000000E+01 0.  1.
         -5    1    3    3    0  502  0.41359875312E+02 -0.40277759078E+02  0.27698492571E+03  0.28296829970E+03  0.41800000000E+01 0.  1.
        -11    1    4    4    0    0  0.23028235284E+02 -0.40013828958E+02  0.58562821526E+02  0.74572181095E+02  0.00000000000E+00 0.  1.
         11    1    4    4    0    0 -0.12814674328E+02  0.43796858166E+02  0.16511428034E+03  0.17130413374E+03  0.00000000000E+00 0. -1.
</event>
<event>
 8    1  0.7224195E-009  0.8187639E+02  0.7561462E-02  0.1323809E+00
          2   -1    0    0  501    0  0.00000000000E+00  0.00000000000E+00  0.74512737404E+02  0.74512737404E+02  0.00000000000E+00 0. -1.
         -2   -1    0    0    0  501 -0.00000000000E+00 -0.00000000000E+00 -0.18062554734E+03  0.18062554734E+03  0.00000000000E+00 0.  1.
         25    2    1    2    0    0  0.38145600690E+02  0.10226597381E+02 -0.45923180291E+02  0.13898098836E+03  0.12508839471E+03 0.  0.
         23    2    1    2    0    0 -0.38145600690E+02 -0.10226597381E+02 -0.60189629650E+02  0.11615729639E+03  0.91159507684E+02 0.  0.
          5    1    3    3  502    0 -0.19036022527E+02 -0.34233696191E+02  0.17036885209E+02  0.42919039670E+02  0.41800000000E+01 0. -1.
         -5    1    3    3    0  502  0.57181623216E+02  0.44460293572E+02 -0.62960065500E+02  0.96061948689E+02  0.41800000000E+01 0. -1.
        -11    1    4    4    0    0 -0.61397930332E+01 -0.17875032741E+02 -0.76943550984E+02  0.79230826652E+02  0.00000000000E+00 0.  1.
         11    1    4    4    0    0 -0.32005807656E+02  0.76484353597E+01  0.16753921334E+02  0.36926469737E+02  0.00000000000E+00 0. -1.
</event>
<event>
 8    1  0.7224195E-009  0.1448192E+03  0.7561462E-02  0.1206988E+00
          2   -1    0    0  501    0  0.00000000000E+00  0.00000000000E+00  0.31377276061E+03  0.31377276061E+03  0.00000000000E+00 0. -1.
         -2   -1    0    0    0  501 -0.00000000000E+00 -0.00000000000E+00 -0.10688224021E+03  0.10688224021E+03  0.00000000000E+00 0.  1.
         25    2    1    2    0    0  0.14016116302E+03 -0.13562414353E+02  0.15911818556E+03  0.24656567498E+03  0.12508774681E+03 0.  0.
         23    2    1    2    0    0 -0.14016116302E+03  0.13562414353E+02  0.47772334838E+02  0.17408932583E+03  0.90530694736E+02 0.  0.
          5    1    3    3  502    0  0.35853790744E+01  0.31683924971E+01 -0.19813487498E+02  0.20807218482E+02  0.41800000000E+01 0.  1.
         -5    1    3    3    0  502  0.13657578395E+03 -0.16730806850E+02  0.17893167306E+03  0.22575845650E+03  0.41800000000E+01 0.  1.
        -11    1    4    4    0    0 -0.12822108916E+03  0.23171899301E+02  0.69364067724E+02  0.14761083468E+03  0.00000000000E+00 0. -1.
         11    1    4    4    0    0 -0.11940073865E+02 -0.96094849485E+01 -0.21591732886E+02  0.26478491156E+02  0.00000000000E+00 0.  1.
</event>
<event>
 8    1  0.7224195E-009  0.1130318E+03  0.7561462E-02  0.1255056E+00
         -2   -1    0    0    0  501 -0.00000000000E+00  0.00000000000E+00  0.11028210841E+03  0.11028210841E+03  0.00000000000E+00 0. -1.
          2   -1    0    0  501    0  0.00000000000E+00 -0.00000000000E+00 -0.19259072122E+03  0.19259072122E+03  0.00000000000E+00 0.  1.
         25    2    1    2    0    0  0.87392862667E+02  0.26091110521E+02 -0.79108142338E+02  0.17385251334E+03  0.12509332404E+03 0.  0.
         23    2    1    2    0    0 -0.87392862667E+02 -0.26091110521E+02 -0.32004704776E+01  0.12902031628E+03  0.91201647512E+02 0.  0.
          5    1    3    3  502    0  0.78936785882E+02  0.11743034935E+00 -0.10802324346E+03  0.13385635391E+03  0.41800000000E+01 0. -1.
         -5    1    3    3    0  502  0.84560767844E+01  0.25973680172E+02  0.28915101124E+02  0.39996159431E+02  0.41800000000E+01 0. -1.
        -11    1    4    4    0    0 -0.88498679051E+02  0.46508172820E+01  0.19560056300E+02  0.90753744263E+02  0.00000000000E+00 0. -1.
         11    1    4    4    0    0  0.11058163846E+01 -0.30741927803E+02 -0.22760526778E+02  0.38266572020E+02  0.00000000000E+00 0.  1.
</event>
<event>
 8    1  0.7224195E-009  0.2213083E+03  0.7561462E-02  0.1132911E+00
         -1   -1    0    0    0  501 -0.00000000000E+00  0.00000000000E+00  0.64701702950E+02  0.64701702950E+02  0.00000000000E+00 0.  1.
          1   -1    0    0  501    0  0.00000000000E+00 -0.00000000000E+00 -0.87325245351E+03  0.87325245351E+03  0.00000000000E+00 0. -1.
         25    2    1    2    0    0  0.20089511370E+03  0.67020343378E+02 -0.40442805242E+03  0.47334888350E+03  0.12508614148E+03 0.  0.
         23    2    1    2    0    0 -0.20089511370E+03 -0.67020343378E+02 -0.40412269814E+03  0.46460527296E+03  0.87705936962E+02 0.  0.
          5    1    3    3  502    0 -0.25570198948E+01  0.88577326349E+01  0.58548862957E+01  0.11694010078E+02  0.41800000000E+01 0. -1.
         -5    1    3    3    0  502  0.20345213359E+03  0.58162610744E+02 -0.41028293872E+03  0.46165487342E+03  0.41800000000E+01 0. -1.
        -11    1    4    4    0    0 -0.18489023656E+03 -0.39574018346E+02 -0.29041387662E+03  0.34654108304E+03  0.00000000000E+00 0.  1.
         11    1    4    4    0    0 -0.16004877138E+02 -0.27446325033E+02 -0.11370882152E+03  0.11806418992E+03  0.00000000000E+00 0. -1.
</event>
<event>
 8    1  0.7224195E-009  0.1402467E+03  0.7561462E-02  0.1212997E+00
          1   -1    0    0  501    0  0.00000000000E+00  0.00000000000E+00  0.38033055636E+03  0.38033055636E+03  0.00000000000E+00 0. -1.
         -1   -1    0    0    0  501 -0.00000000000E+00 -0.00000000000E+00 -0.72015067019E+02  0.72015067019E+02  0.00000000000E+00 0.  1.
         25    2    1    2    0    0 -0.44721069496E+02 -0.10249274122E+03  0.24043559060E+03  0.29319369436E+03  0.12509409709E+03 0.  0.
         23    2    1    2    0    0  0.44721069496E+02  0.10249274122E+03  0.67879898740E+02  0.15915192902E+03  0.90647227192E+02 0.  0.
          5    1    3    3  502    0  0.42492192666E+02 -0.20972708767E+02  0.56308954701E+02  0.73713036365E+02  0.41800000000E+01 0. -1.
         -5    1    3    3    0  502 -0.87213262161E+02 -0.81520032450E+02  0.18412663590E+03  0.21948065799E+03  0.41800000000E+01 0. -1.
        -11    1    4    4    0    0  0.32075610367E+02  0.49459780806E+02 -0.14180151901E+02  0.60631604018E+02  0.00000000000E+00 0.  1.
         11    1    4    4    0    0  0.12645459128E+02  0.53032960410E+02  0.82060050642E+02  0.98520324998E+02  0.00000000000E+00 0. -1.
</event>
<event>
 8    1  0.7224195E-009  0.8719607E+02  0.7561462E-02  0.1309787E+00
         -3   -1    0    0    0  501 -0.00000000000E+00  0.00000000000E+00  0.10320706087E+03  0.10320706087E+03  0.00000000000E+00 0.  1.
          3   -1    0    0  501    0  0.00000000000E+00 -0.00000000000E+00 -0.15572198107E+03  0.15572198107E+03  0.00000000000E+00 0. -1.
         25    2    1    2    0    0 -0.49757149561E+02 -0.41283309793E+02 -0.24825604820E+02  0.14298090969E+03  0.12508854576E+03 0.  0.
         23    2    1    2    0    0  0.49757149561E+02  0.41283309793E+02 -0.27689315379E+02  0.11594813224E+03  0.92180179999E+02 0.  0.
          5    1    3    3  502    0 -0.70204825716E+02 -0.27677381595E+02  0.31122497761E+02  0.81736388914E+02  0.41800000000E+01 0.  1.
         -5    1    3    3    0  502  0.20447676155E+02 -0.13605928198E+02 -0.55948102581E+02  0.61244520773E+02  0.41800000000E+01 0.  1.
        -11    1    4    4    0    0  0.37687074162E+02  0.80439338593E+01 -0.57823027745E+02  0.69487574202E+02  0.00000000000E+00 0. -1.
         11    1    4    4    0    0  0.12070075399E+02  0.33239375934E+02  0.30133712366E+02  0.46460558042E+02  0.00000000000E+00 0.  1.
</event>
<event>
 8    1  0.7224195E-009  0.1580641E+03  0.7561462E-02  0.1190900E+00
         -1   -1    0    0    0  501 -0.00000000000E+00  0.00000000000E+00  0.10647869931E+03  0.10647869931E+03  0.00000000000E+00 0.  1.
          1   -1    0    0  501    0  0.00000000000E+00 -0.00000000000E+00 -0.31074424577E+03  0.31074424577E+03  0.00000000000E+00 0. -1.
         25    2    1    2    0    0  0.11929853734E+03 -0.83213606325E+02 -0.11280119266E+03  0.22254898700E+03  0.12508915725E+03 0.  0.
         23    2    1    2    0    0 -0.11929853734E+03  0.83213606325E+02 -0.91464353799E+02  0.19467395807E+03  0.91518176598E+02 0.  0.
          5    1    3    3  502    0  0.11408438616E+03 -0.77876102132E+02 -0.32722263219E+02  0.14201462375E+03  0.41800000000E+01 0. -1.
         -5    1    3    3    0  502  0.52141511783E+01 -0.53375041928E+01 -0.80078929444E+02  0.80534363252E+02  0.41800000000E+01 0. -1.
        -11    1    4    4    0    0 -0.13110396044E+03  0.61821635076E+02 -0.89059163475E+02  0.17012259581E+03  0.00000000000E+00 0.  1.
         11    1    4    4    0    0  0.11805423101E+02  0.21391971249E+02 -0.24051903241E+01  0.24551362264E+02  0.00000000000E+00 0. -1.
</event>
<event>
 8    1  0.7224195E-009  0.1142641E+03  0.7561462E-02  0.1252871E+00
         -1   -1    0    0    0  501 -0.00000000000E+00  0.00000000000E+00  0.26229348730E+02  0.26229348730E+02  0.00000000000E+00 0.  1.
          1   -1    0    0  501    0  0.00000000000E+00 -0.00000000000E+00 -0.59910549050E+03  0.59910549050E+03  0.00000000000E+00 0. -1.
         25    2    1    2    0    0 -0.56516633070E+02  0.32535766710E+02 -0.29196078467E+03  0.32425906317E+03  0.12510049694E+03 0.  0.
         23    2    1    2    0    0  0.56516633070E+02 -0.32535766710E+02 -0.28091535710E+03  0.30107577606E+03  0.86489763239E+02 0.  0.
          5    1    3    3  502    0 -0.49870168980E+02  0.76400872513E+02 -0.23367729012E+03  0.25089176031E+03  0.41800000000E+01 0. -1.
         -5    1    3    3    0  502 -0.66464640900E+01 -0.43865105803E+02 -0.58283494551E+02  0.73367302861E+02  0.41800000000E+01 0. -1.
        -11    1    4    4    0    0  0.39374231095E+02 -0.52944504037E+02 -0.25677133320E+03  0.26511312328E+03  0.00000000000E+00 0. -1.
         11    1    4    4    0    0  0.17142401975E+02  0.20408737327E+02 -0.24144023903E+02  0.35962652780E+02  0.00000000000E+00 0.  1.
</event>
<event>
 8    1  0.7224195E-009  0.1022659E+03  0.7561462E-02  0.1275602E+00
         -1   -1    0    0    0  501 -0.00000000000E+00  0.00000000000E+00  0.15805634271E+03  0.15805634271E+03  0.00000000000E+00 0.  1.
          1   -1    0    0  501    0  0.00000000000E+00 -0.00000000000E+00 -0.11830710077E+03  0.11830710077E+03  0.00000000000E+00 0. -1.
         25    2    1    2    0    0  0.52143586271E+02  0.39821894804E+02 -0.29110605843E+02  0.14421446296E+03  0.12508256097E+03 0.  0.
         23    2    1    2    0    0 -0.52143586271E+02 -0.39821894804E+02  0.68859847783E+02  0.13214898053E+03  0.91743869126E+02 0.  0.
          5    1    3    3  502    0 -0.38639541434E+00 -0.20059301326E+02  0.35882558477E+02  0.41322575839E+02  0.41800000000E+01 0.  1.
         -5    1    3    3    0  502  0.52529981686E+02  0.59881196130E+02 -0.64993164321E+02  0.10289188712E+03  0.41800000000E+01 0.  1.
        -11    1    4    4    0    0 -0.28482854958E+02 -0.64239722258E+02  0.68517845525E+02  0.98146370782E+02  0.00000000000E+00 0.  1.
         11    1    4    4    0    0 -0.23660731313E+02  0.24417827454E+02  0.34200225843E+00  0.34002609743E+02  0.00000000000E+00 0. -1.
</event>
<event>
 8    1  0.7224195E-009  0.8886543E+02  0.7561462E-02  0.1305623E+00
          1   -1    0    0  501    0  0.00000000000E+00  0.00000000000E+00  0.15109105388E+04  0.15109105388E+04  0.00000000000E+00 0. -1.
         -1   -1    0    0    0  501 -0.00000000000E+00 -0.00000000000E+00 -0.11408729682E+02  0.11408729682E+02  0.00000000000E+00 0.  1.
         25    2    1    2    0    0 -0.13429897396E+02  0.20161671277E+02  0.12184690595E+04  0.12251134192E+04  0.12509670596E+03 0.  0.
         23    2    1    2    0    0  0.13429897396E+02 -0.20161671277E+02  0.28103274961E+03  0.29720584926E+03  0.93621874309E+02 0.  0.
          5    1    3    3  502    0 -0.46538182118E+02 -0.62292179502E+01  0.18984341315E+03  0.19560828067E+03  0.41800000000E+01 0.  1.
         -5    1    3    3    0  502  0.33108284722E+02  0.26390889227E+02  0.10286256463E+04  0.10295051385E+04  0.41800000000E+01 0.  1.
        -11    1    4    4    0    0 -0.20602509664E+02  0.24426276752E+02  0.49068963441E+02  0.58556550219E+02  0.00000000000E+00 0.  1.
         11    1    4    4    0    0  0.34032407060E+02 -0.44587948029E+02  0.23196378616E+03  0.23864929904E+03  0.00000000000E+00 0. -1.
</event>
<event>
 8    1  0.7224195E-009  0.1224944E+03  0.7561462E-02  0.1239038E+00
         -2   -1    0    0    0  501 -0.00000000000E+00  0.00000000000E+00  0.31833278386E+03  0.31833278386E+03  0.00000000000E+00 0.  1.
          2   -1    0    0  501    0  0.00000000000E+00 -0.00000000000E+00 -0.12494953108E+03  0.12494953108E+03  0.00000000000E+00 0. -1.
         25    2    1    2    0    0  0.74429007979E+02  0.81807836389E+02  0.24129045830E+03  0.29342733359E+03  0.12508523297E+03 0.  0.
         23    2    1    2    0    0 -0.74429007979E+02 -0.81807836389E+02 -0.47907205532E+02  0.14985498134E+03  0.89046144041E+02 0.  0.
          5    1    3    3  502    0  0.79606066975E+02  0.71381660888E+02  0.85021481114E+02  0.13666964572E+03  0.41800000000E+01 0.  1.
         -5    1    3    3    0  502 -0.51770589959E+01  0.10426175501E+02  0.15626897719E+03  0.15675768787E+03  0.41800000000E+01 0.  1.
        -11    1    4    4    0    0 -0.52227123345E+01 -0.48555360484E+02 -0.54031523748E+02  0.72830661911E+02  0.00000000000E+00 0. -1.
         11    1    4    4    0    0 -0.69206295644E+02 -0.33252475905E+02  0.61243182158E+01  0.77024319434E+02  0.00000000000E+00 0.  1.
</event>
<event>
 8    1  0.7224195E-009  0.1702921E+03  0.7561462E-02  0.1177544E+00
         -1   -1    0    0    0  501 -0.00000000000E+00  0.00000000000E+00  0.73066710194E+03  0.73066710194E+03  0.00000000000E+00 0.  1.
          1   -1    0    0  501    0  0.00000000000E+00 -0.00000000000E+00 -0.59996842534E+02  0.59996842534E+02  0.00000000000E+00 0. -1.
         25    2    1    2    0    0 -0.13503537829E+03 -0.77071084868E+02  0.18281061317E+03  0.27063408337E+03  0.12509428957E+03 0.  0.
         23    2    1    2    0    0  0.13503537829E+03  0.77071084868E+02  0.48785964624E+03  0.52002986110E+03  0.90826848992E+02 0.  0.
          5    1    3    3  502    0 -0.71062824990E+01 -0.31527548865E+02  0.11356169394E+03  0.11814489544E+03  0.41800000000E+01 0. -1.
         -5    1    3    3    0  502 -0.12792909579E+03 -0.45543536003E+02  0.69248919228E+02  0.15248918793E+03  0.41800000000E+01 0. -1.
        -11    1    4    4    0    0  0.10122253813E+03  0.16206347432E+02  0.21149338543E+03  0.23502787070E+03  0.00000000000E+00 0. -1.
         11    1    4    4    0    0  0.33812840157E+02  0.60864737436E+02  0.27636626081E+03  0.28500199041E+03  0.00000000000E+00 0.  1.
</event>
<event>
 8    1  0.7224195E-009  0.8498404E+02  0.7561462E-02  0.1315474E+00
          1   -1    0    0  501    0  0.00000000000E+00  0.00000000000E+00  0.31940881082E+03  0.31940881082E+03  0.00000000000E+00 0. -1.
         -1   -1    0    0    0  501 -0.00000000000E+00 -0.00000000000E+00 -0.47649400048E+02  0.47649400048E+02  0.00000000000E+00 0.  1.
         25    2    1    2    0    0 -0.96788747367E+01 -0.51987123135E+01  0.23596710709E+03  0.26729885627E+03  0.12508995047E+03 0.  0.
         23    2    1    2    0    0  0.96788747367E+01  0.51987123135E+01  0.35792303675E+02  0.99759354593E+02  0.92466927064E+02 0.  0.
          5    1    3    3  502    0  0.14992902834E+02  0.31313208823E+02  0.21587419684E+03  0.21868800938E+03  0.41800000000E+01 0. -1.
         -5    1    3    3    0  502 -0.24671777571E+02 -0.36511921137E+02  0.20092910251E+02  0.48610846896E+02  0.41800000000E+01 0. -1.
        -11    1    4    4    0    0  0.58845283399E+01 -0.42490518803E+02  0.28162789695E+02  0.51314857355E+02  0.00000000000E+00 0.  1.
         11    1    4    4    0    0  0.37943463968E+01  0.47689231117E+02  0.76295139807E+01  0.48444497238E+02  0.00000000000E+00 0. -1.
</event>
<event>
 8    1  0.7224195E-009  0.9890347E+02  0.7561462E-02  0.1282619E+00
         -1   -1    0    0    0  501 -0.00000000000E+00  0.00000000000E+00  0.75244414083E+03  0.75244414083E+03  0.00000000000E+00 0.  1.
          1   -1    0    0  501    0  0.00000000000E+00 -0.00000000000E+00 -0.27570038551E+02  0.27570038551E+02  0.00000000000E+00 0. -1.
         25    2    1    2    0    0  0.33352871640E+02  0.56507837136E+02  0.57992579346E+03  0.59688322214E+03  0.12510038071E+03 0.  0.
         23    2    1    2    0    0 -0.33352871640E+02 -0.56507837136E+02  0.14494830882E+03  0.18313095724E+03  0.90671856516E+02 0.  0.
          5    1    3    3  502    0  0.57317717936E+02  0.34989501895E+02  0.54520110775E+03  0.54933715178E+03  0.41800000000E+01 0.  1.
         -5    1    3    3    0  502 -0.23964846296E+02  0.21518335242E+02  0.34724685705E+02  0.47546070362E+02  0.41800000000E+01 0.  1.
        -11    1    4    4    0    0 -0.52453416787E+02 -0.58813766516E+02  0.14365155884E+03  0.16384807115E+03  0.00000000000E+00 0.  1.
         11    1    4    4    0    0  0.19100545147E+02  0.23059293799E+01  0.12967499858E+01  0.19282886085E+02  0.00000000000E+00 0. -1.
</event>
<event>
 8    1  0.7224195E-009  0.6240745E+02  0.7561462E-02  0.1387998E+00
         -2   -1    0    0    0  501 -0.00000000000E+00  0.00000000000E+00  0.21117456498E+02  0.21117456498E+02  0.00000000000E+00 0.  1.
          2   -1    0    0  501    0  0.00000000000E+00 -0.00000000000E+00 -0.76283317914E+03  0.76283317914E+03  0.00000000000E+00 0. -1.
         25    2    1    2    0    0 -0.11999870618E+02 -0.22015781294E+02 -0.22726521619E+03  0.26062547763E+03  0.12508984602E+03 0.  0.
         23    2    1    2    0    0  0.11999870618E+02  0.22015781294E+02 -0.51445050645E+03  0.52332515801E+03  0.92634798530E+02 0.  0.
          5    1    3    3  502    0 -0.70131538240E+01 -0.20652580157E+02  0.92208409927E+01  0.24045991398E+02  0.41800000000E+01 0.  1.
         -5    1    3    3    0  502 -0.49867167938E+01 -0.13632011369E+01 -0.23648605719E+03  0.23657948623E+03  0.41800000000E+01 0.  1.
        -11    1    4    4    0    0  0.48763455165E+02 -0.68168547909E+01 -0.26033576909E+03  0.26495104592E+03  0.00000000000E+00 0.  1.
         11    1    4    4    0    0 -0.36763584547E+02  0.28832636085E+02 -0.25411473736E+03  0.25837411208E+03  0.00000000000E+00 0. -1.
</event>
<event>
 8    1  0.7224195E-009  0.9955366E+02  0.7561462E-02  0.1281237E+00
         -1   -1    0    0    0  501 -0.00000000000E+00  0.00000000000E+00  0.50117993738E+02  0.50117993738E+02  0.00000000000E+00 0.  1.
          1   -1    0    0  501    0  0.00000000000E+00 -0.00000000000E+00 -0.51252145307E+03  0.51252145307E+03  0.00000000000E+00 0. -1.
         25    2    1    2    0    0  0.71362106456E+02 -0.33989834121E+02 -0.96343111711E+02  0.17656643450E+03  0.12508337842E+03 0.  0.
         23    2    1    2    0    0 -0.71362106456E+02  0.33989834121E+02 -0.36606034762E+03  0.38607301231E+03  0.93831410896E+02 0.  0.
          5    1    3    3  502    0  0.50917325395E+02 -0.50966039984E+01 -0.12219097196E+03  0.13253925995E+03  0.41800000000E+01 0. -1.
         -5    1    3    3    0  502  0.20444781061E+02 -0.28893230123E+02  0.25847860252E+02  0.44027174554E+02  0.41800000000E+01 0. -1.
        -11    1    4    4    0    0  0.16888993144E+02 -0.16049194065E+01 -0.16037666897E+02  0.23345676585E+02  0.00000000000E+00 0. -1.
         11    1    4    4    0    0 -0.88251099600E+02  0.35594753528E+02 -0.35002268073E+03  0.36272733573E+03  0.00000000000E+00 0.  1.
</event>
<event>
 8    1  0.7224195E-009  0.1682518E+03  0.7561462E-02  0.1179683E+00
         -2   -1    0    0    0  501 -0.00000000000E+00  0.00000000000E+00  0.61956611875E+02  0.61956611875E+02  0.00000000000E+00 0.  1.
          2   -1    0    0  501    0  0.00000000000E+00 -0.00000000000E+00 -0.56979538593E+03  0.56979538593E+03  0.00000000000E+00 0. -1.
         25    2    1    2    0    0 -0.29592550152E+02  0.14243095005E+03 -0.18832957549E+03  0.26884596866E+03  0.12509129187E+03 0.  0.
         23    2    1    2    0    0  0.29592550152E+02 -0.14243095005E+03 -0.31950919857E+03  0.36290602915E+03  0.91936736223E+02 0.  0.
          5    1    3    3  502    0  0.45665951849E+02  0.27601903156E+02 -0.65429953565E+02  0.84532806883E+02  0.41800000000E+01 0. -1.
         -5    1    3    3    0  502 -0.75258502001E+02  0.11482904689E+03 -0.12289962192E+03  0.18431316177E+03  0.41800000000E+01 0. -1.
        -11    1    4    4    0    0  0.17820833419E+02 -0.10066015784E+03 -0.11510434881E+03  0.15394499211E+03  0.00000000000E+00 0.  1.
         11    1    4    4    0    0  0.11771716733E+02 -0.41770792206E+02 -0.20440484976E+03  0.20896103704E+03  0.00000000000E+00 0. -1.
</event>
<event>
 8    1  0.7224195E-009  0.1122418E+03  0.7561462E-02  0.1256474E+00
          1   -1    0    0  501    0  0.00000000000E+00  0.00000000000E+00  0.28256079974E+02  0.28256079974E+02  0.00000000000E+00 0. -1.
         -1   -1    0    0    0  501 -0.00000000000E+00 -0.00000000000E+00 -0.52107585195E+03  0.52107585195E+03  0.00000000000E+00 0.  1.
         25    2    1    2    0    0  0.52483954206E+02 -0.31640812746E+01 -0.24090177117E+03  0.27648959163E+03  0.12509298169E+03 0.  0.
         23    2    1    2    0    0 -0.52483954206E+02  0.31640812746E+01 -0.25191800080E+03  0.27284234029E+03  0.90640425121E+02 0.  0.
          5    1    3    3  502    0 -0.31213845580E+02  0.13538183311E+02 -0.14062594756E+03  0.14474362193E+03  0.41800000000E+01 0.  1.
         -5    1    3    3    0  502  0.83697799786E+02 -0.16702264586E+02 -0.10027582361E+03  0.13174596970E+03  0.41800000000E+01 0.  1.
        -11    1    4    4    0    0  0.25942352222E+02  0.44283870409E+01 -0.60374670043E+02  0.65861347036E+02  0.00000000000E+00 0.  1.
         11    1    4    4    0    0 -0.78426306428E+02 -0.12643057663E+01 -0.19154333076E+03  0.20698099325E+03  0.00000000000E+00 0. -1.
</event>
<event>
 8    1  0.7224195E-009  0.7486195E+02  0.7561462E-02  0.1344299E+00
         -4   -1    0    0    0  501 -0.00000000000E+00  0.00000000000E+00  0.11312874428E+03  0.11312874428E+03  0.00000000000E+00 0.  1.
          4   -1    0    0  501    0  0.00000000000E+00 -0.00000000000E+00 -0.12475046380E+03  0.12475046380E+03  0.00000000000E+00 0. -1.
         25    2    1    2    0    0 -0.26537047065E+02 -0.38121962309E+02 -0.21444813376E+02  0.13514773567E+03  0.12509009377E+03 0.  0.
         23    2    1    2    0    0  0.26537047065E+02  0.38121962309E+02  0.98230938527E+01  0.10273147241E+03  0.91103037126E+02 0.  0.
          5    1    3    3  502    0 -0.28103939255E+02 -0.47100342807E+02 -0.68035427252E+02  0.87490373502E+02  0.41800000000E+01 0. -1.
         -5    1    3    3    0  502  0.15668921901E+01  0.89783804981E+01  0.46590613876E+02  0.47657362168E+02  0.41800000000E+01 0. -1.
        -11    1    4    4    0    0 -0.18095340182E+02  0.35661819944E+02 -0.24033875144E+02  0.46656552513E+02  0.00000000000E+00 0. -1.
         11    1    4    4    0    0  0.44632387246E+02  0.24601423653E+01  0.33856968997E+02  0.56074919897E+02  0.00000000000E+00 0.  1.
</event>
<event>
 8    1  0.7224195E-009  0.1187959E+03  0.7561462E-02  0.1245097E+00
          1   -1    0    0  501    0  0.00000000000E+00  0.00000000000E+00  0.14493579397E+03  0.14493579397E+03  0.00000000000E+00 0. -1.
         -1   -1    0    0    0  501 -0.00000000000E+00 -0.00000000000E+00 -0.10976383094E+03  0.10976383094E+03  0.00000000000E+00 0.  1.
         25    2    1    2    0    0  0.27050051842E+02 -0.55089458542E+02  0.24993588796E+01  0.13935722899E+03  0.12509051415E+03 0.  0.
         23    2    1    2    0    0 -0.27050051842E+02  0.55089458542E+02  0.32672604151E+02  0.11534239592E+03  0.92031600486E+02 0.  0.
          5    1    3    3  502    0  0.34727355097E+02 -0.87135786080E+02  0.27437192312E+02  0.97820786798E+02  0.41800000000E+01 0. -1.
         -5    1    3    3    0  502 -0.76773032548E+01  0.32046327538E+02 -0.24937833432E+02  0.41536442195E+02  0.41800000000E+01 0. -1.
        -11    1    4    4    0    0 -0.69031218591E+01 -0.26012831177E+02  0.55091693352E+01  0.27471283625E+02  0.00000000000E+00 0.  1.
         11    1    4    4    0    0 -0.20146929983E+02  0.81102289719E+02  0.27163434816E+02  0.87871112297E+02  0.00000000000E+00 0. -1.
</event>
<event>
 8    1  0.7224195E-009  0.1678173E+03  0.7561462E-02  0.1180143E+00
         -3   -1    0    0    0  501 -0.00000000000E+00  0.00000000000E+00  0.34534041398E+03  0.34534041398E+03  0.00000000000E+00 0.  1.
          3   -1    0    0  501    0  0.00000000000E+00 -0.00000000000E+00 -0.91653797589E+02  0.91653797589E+02  0.00000000000E+00 0. -1.
         25    2    1    2    0    0  0.83774627711E+02 -0.11172061225E+03  0.10628550110E+03  0.21551195644E+03  0.12509641151E+03 0.  0.
         23    2    1    2    0    0 -0.83774627711E+02  0.11172061225E+03  0.14740111529E+03  0.22148225513E+03  0.88473821551E+02 0.  0.
          5    1    3    3  502    0  0.39755619798E+02  0.12068915725E+02 -0.65599960551E+01  0.42269066474E+02  0.41800000000E+01 0.  1.
         -5    1    3    3    0  502  0.44019007913E+02 -0.12378952798E+03  0.11284549716E+03  0.17324288996E+03  0.41800000000E+01 0.  1.
        -11    1    4    4    0    0 -0.44795068064E+02  0.74013148010E+00  0.60280256140E+02  0.75105626938E+02  0.00000000000E+00 0.  1.
         11    1    4    4    0    0 -0.38979559648E+02  0.11098048077E+03  0.87120859149E+02  0.14637662819E+03  0.00000000000E+00 0. -1.
</event>
<event>
 8    1  0.7224195E-009  0.1184356E+03  0.7561462E-02  0.1245700E+00
          1   -1    0    0  501    0  0.00000000000E+00  0.00000000000E+00  0.11119723587E+03  0.11119723587E+03  0.00000000000E+00 0. -1.
         -1   -1    0    0    0  501 -0.00000000000E+00 -0.00000000000E+00 -0.23918467973E+03  0.23918467973E+03  0.00000000000E+00 0.  1.
         25    2    1    2    0    0 -0.19806571494E+02  0.99363709251E+02 -0.13899246104E+03  0.21268488615E+03  0.12510199670E+03 0.  0.
         23    2    1    2    0    0  0.19806571494E+02 -0.99363709251E+02  0.11005017180E+02  0.13769702945E+03  0.92595434697E+02 0.  0.
          5    1    3    3  502    0 -0.25053540864E+02  0.81179859913E+02 -0.14007843750E+02  0.86206389855E+02  0.41800000000E+01 0.  1.
         -5    1    3    3    0  502  0.52469693705E+01  0.18183849338E+02 -0.12498461729E+03  0.12647849629E+03  0.41800000000E+01 0.  1.
        -11    1    4    4    0    0  0.50076198617E+02 -0.34383680416E+02 -0.12962672349E+02  0.62111947493E+02  0.00000000000E+00 0.  1.
         11    1    4    4    0    0 -0.30269627124E+02 -0.64980028835E+02  0.23967689529E+02  0.75585081960E+02  0.00000000000E+00 0. -1.
</event>
<event>
 8    1  0.7224195E-009  0.1157709E+03  0.7561462E-02  0.1250241E+00
          1   -1    0    0  501    0  0.00000000000E+00  0.00000000000E+00  0.28594565600E+03  0.28594565600E+03  0.00000000000E+00 0.  1.
         -1   -1    0    0    0  501 -0.00000000000E+00 -0.00000000000E+00 -0.65817345408E+02  0.65817345408E+02  0.00000000000E+00 0. -1.
         25    2    1    2    0    0  0.31040673788E+02 -0.50197469875E+02  0.43784082612E+02  0.14507942895E+03  0.12509070870E+03 0.  0.
         23    2    1    2    0    0 -0.31040673788E+02  0.50197469875E+02  0.17634422798E+03  0.20668357246E+03  0.90208109235E+02 0.  0.
          5    1    3    3  502    0 -0.38225943336E+02  0.16329449138E+02  0.82040818698E+01  0.42575262916E+02  0.41800000000E+01 0.  1.
         -5    1    3    3    0  502  0.69266617123E+02 -0.66526919013E+02  0.35580000742E+02  0.10250416603E+03  0.41800000000E+01 0.  1.
        -11    1    4    4    0    0 -0.18902430050E+02  0.68839703390E+02  0.77505049354E+02  0.10537190944E+03  0.00000000000E+00 0. -1.
         11    1    4    4    0    0 -0.12138243738E+02 -0.18642233515E+02  0.98839178625E+02  0.10131166301E+03  0.00000000000E+00 0.  1.
</event>
<event>
 8    1  0.7224195E-009  0.1000917E+03  0.7561462E-02  0.1280103E+00
         -4   -1    0    0    0  501 -0.00000000000E+00  0.00000000000E+00  0.10636466059E+03  0.10636466059E+03  0.00000000000E+00 0.  1.
          4   -1    0    0  501    0  0.00000000000E+00 -0.00000000000E+00 -0.20127853344E+03  0.20127853344E+03  0.00000000000E+00 0. -1.
         25    2    1    2    0    0 -0.36400331020E+02  0.37435835255E+02 -0.13869205063E+03  0.19393277409E+03  0.12509200653E+03 0.  0.
         23    2    1    2    0    0  0.36400331020E+02 -0.37435835255E+02  0.43778177779E+02  0.11371041994E+03  0.91033537186E+02 0.  0.
          5    1    3    3  502    0 -0.13940003074E+02 -0.43633583950E+02 -0.24729191648E+02  0.52222779068E+02  0.41800000000E+01 0.  1.
         -5    1    3    3    0  502 -0.22460327946E+02  0.81069419205E+02 -0.11396285899E+03  0.14170999502E+03  0.41800000000E+01 0.  1.
        -11    1    4    4    0    0  0.47512418728E+02 -0.33645997294E+02 -0.96446287955E+01  0.59012726864E+02  0.00000000000E+00 0. -1.
         11    1    4    4    0    0 -0.11112087708E+02 -0.37898379610E+01  0.53422806575E+02  0.54697693071E+02  0.00000000000E+00 0.  1.
</event>
<event>
 8    1  0.7224195E-009  0.9156401E+02  0.7561462E-02  0.1299108E+00
          1   -1    0    0  501    0  0.00000000000E+00  0.00000000000E+00  0.13997515816E+03  0.13997515816E+03  0.00000000000E+00 0. -1.
         -1   -1    0    0    0  501 -0.00000000000E+00 -0.00000000000E+00 -0.10972432767E+03  0.10972432767E+03  0.00000000000E+00 0.  1.
         25    2    1    2    0    0 -0.23773989514E+02 -0.28706679432E+02 -0.30748909256E+02  0.13409530889E+03  0.12508709135E+03 0.  0.
         23    2    1    2    0    0  0.23773989514E+02  0.28706679432E+02  0.60999739743E+02  0.11560417694E+03  0.90851975521E+02 0.  0.
          5    1    3    3  502    0 -0.49294139103E+00  0.28317151522E+02 -0.59473372790E+02  0.66004988695E+02  0.41800000000E+01 0.  1.
         -5    1    3    3    0  502 -0.23281048123E+02 -0.57023830954E+02  0.28724463534E+02  0.68090320191E+02  0.41800000000E+01 0.  1.
        -11    1    4    4    0    0  0.11024645898E+01  0.56717792503E+02  0.18032403045E+02  0.59525548919E+02  0.00000000000E+00 0.  1.
         11    1    4    4    0    0  0.22671524924E+02 -0.28011113071E+02  0.42967336698E+02  0.56078628021E+02  0.00000000000E+00 0. -1.
</event>
<event>
 8    1  0.7224195E-009  0.1563716E+03  0.7561462E-02  0.1192855E+00
          4   -1    0    0  501    0  0.00000000000E+00  0.00000000000E+00  0.48683006074E+02  0.48683006074E+02  0.00000000000E+00 0.  1.
         -4   -1    0    0    0  501 -0.00000000000E+00 -0.00000000000E+00 -0.82882360289E+03  0.82882360289E+03  0.00000000000E+00 0. -1.
         25    2    1    2    0    0 -0.12576551704E+03 -0.45524367291E+02 -0.18569971433E+03  0.26081057535E+03  0.12509332124E+03 0.  0.
         23    2    1    2    0    0  0.12576551704E+03  0.45524367291E+02 -0.59444088248E+03  0.61669603361E+03  0.95208202439E+02 0.  0.
          5    1    3    3  502    0 -0.81914138750E+02 -0.78590793482E+02 -0.72052907445E+02  0.13451963730E+03  0.41800000000E+01 0. -1.
         -5    1    3    3    0  502 -0.43851378288E+02  0.33066426191E+02 -0.11364680688E+03  0.12629093805E+03  0.41800000000E+01 0. -1.
        -11    1    4    4    0    0  0.12414444520E+03  0.29029357938E+02 -0.58244629067E+03  0.59623672179E+03  0.00000000000E+00 0. -1.
         11    1    4    4    0    0  0.16210718396E+01  0.16495009353E+02 -0.11994591815E+02  0.20459311823E+02  0.00000000000E+00 0.  1.
</event>
<event>
 8    1  0.7224195E-009  0.8300769E+02  0.7561462E-02  0.1320726E+00
         -2   -1    0    0    0  501 -0.00000000000E+00  0.00000000000E+00  0.14091853126E+03  0.14091853126E+03  0.00000000000E+00 0.  1.
          2   -1    0    0  501    0  0.00000000000E+00 -0.00000000000E+00 -0.17585854011E+03  0.17585854011E+03  0.00000000000E+00 0. -1.
         25    2    1    2    0    0 -0.43088490328E+02  0.35149832732E+01 -0.12530826555E+03  0.18226109230E+03  0.12509185122E+03 0.  0.
         23    2    1    2    0    0  0.43088490328E+02 -0.35149832732E+01  0.90368256703E+02  0.13451597907E+03  0.89772789311E+02 0.  0.
          5    1    3    3  502    0 -0.20135815543E+01  0.21542821510E+02 -0.13449014096E+03  0.13628359434E+03  0.41800000000E+01 0.  1.
         -5    1    3    3    0  502 -0.41074908774E+02 -0.18027838236E+02  0.91818754118E+01  0.45977497957E+02  0.41800000000E+01 0.  1.
        -11    1    4    4    0    0  0.67005766124E+02 -0.19943986250E+02  0.70918809141E+02  0.99584199407E+02  0.00000000000E+00 0.  1.
         11    1    4    4    0    0 -0.23917275796E+02  0.16429002976E+02  0.19449447562E+02  0.34931779668E+02  0.00000000000E+00 0. -1.
</event>
<event>
 8    1  0.7224195E-009  0.1320962E+03  0.7561462E-02  0.1224378E+00
         -1   -1    0    0    0  501 -0.00000000000E+00  0.00000000000E+00  0.41698345075E+03  0.41698345075E+03  0.00000000000E+00 0.  1.
          1   -1    0    0  501    0  0.00000000000E+00 -0.00000000000E+00 -0.61091783651E+02  0.61091783651E+02  0.00000000000E+00 0. -1.
         25    2    1    2    0    0  0.63887514284E+02 -0.65398068522E+02  0.29894684008E+03  0.33671437062E+03  0.12509529302E+03 0.  0.
         23    2    1    2    0    0 -0.63887514284E+02  0.65398068522E+02  0.56944827023E+02  0.14136086379E+03  0.91551398891E+02 0.  0.
          5    1    3    3  502    0  0.37465995386E+02 -0.90843983727E+02  0.27658041987E+03  0.29354817534E+03  0.41800000000E+01 0. -1.
         -5    1    3    3    0  502  0.26421518899E+02  0.25445915205E+02  0.22366420209E+02  0.43166195275E+02  0.41800000000E+01 0. -1.
        -11    1    4    4    0    0  0.45027313990E+01  0.60158329411E+02  0.32645219849E+02  0.68593072293E+02  0.00000000000E+00 0. -1.
         11    1    4    4    0    0 -0.68390245683E+02  0.52397391114E+01  0.24299607173E+02  0.72767791497E+02  0.00000000000E+00 0.  1.
</event>
<event>
 8    1  0.7224195E-009  0.1029996E+03  0.7561462E-02  0.1274112E+00
         -2   -1    0    0    0  501 -0.00000000000E+00  0.00000000000E+00  0.55610070109E+02  0.55610070109E+02  0.00000000000E+00 0.  1.
          2   -1    0    0  501    0  0.00000000000E+00 -0.00000000000E+00 -0.29369469409E+03  0.29369469409E+03  0.00000000000E+00 0. -1.
         25    2    1    2    0    0  0.18061446383E+02 -0.51589195192E+01 -0.22496436674E+03  0.25808761796E+03  0.12508965563E+03 0.  0.
         23    2    1    2    0    0 -0.18061446383E+02  0.51589195192E+01 -0.13120257237E+02  0.91217146236E+02  0.88292674223E+02 0.  0.
          5    1    3    3  502    0 -0.40185621881E+02 -0.31935771145E+02 -0.50321764948E+02  0.72003681240E+02  0.41800000000E+01 0.  1.
         -5    1    3    3    0  502  0.58247068264E+02  0.26776851626E+02 -0.17464260179E+03  0.18608393672E+03  0.41800000000E+01 0.  1.
        -11    1    4    4    0    0  0.30974929820E+02  0.22455694089E+02 -0.63179394854E+01  0.38776550049E+02  0.00000000000E+00 0.  1.
         11    1    4    4    0    0 -0.49036376203E+02 -0.17296774570E+02 -0.68023177520E+01  0.52440596187E+02  0.00000000000E+00 0. -1.
</event>
<event>
 8    1  0.7224195E-009  0.1237191E+03  0.7561462E-02  0.1237085E+00
         -1   -1    0    0    0  501 -0.00000000000E+00  0.00000000000E+00  0.32930334895E+02  0.32930334895E+02  0.00000000000E+00 0.  1.
          1   -1    0    0  501    0  0.00000000000E+00 -0.00000000000E+00 -0.61480800676E+03  0.61480800676E+03  0.00000000000E+00 0. -1.
         25    2    1    2    0    0 -0.21768357192E+02  0.88267076591E+02 -0.33950767144E+03  0.37306751598E+03  0.12509586056E+03 0.  0.
         23    2    1    2    0    0  0.21768357192E+02 -0.88267076591E+02 -0.24237000043E+03  0.27467082567E+03  0.91847194762E+02 0.  0.
          5    1    3    3  502    0 -0.70851804519E+02  0.72530023652E+02 -0.24798463556E+03  0.26794483464E+03  0.41800000000E+01 0. -1.
         -5    1    3    3    0  502  0.49083447327E+02  0.15737052939E+02 -0.91523035883E+02  0.10512268135E+03  0.41800000000E+01 0. -1.
        -11    1    4    4    0    0  0.20779903292E+02 -0.33185010855E+02 -0.17035530257E+02  0.42699632521E+02  0.00000000000E+00 0.  1.
         11    1    4    4    0    0  0.98845389982E+00 -0.55082065735E+02 -0.22533447017E+03  0.23197119315E+03  0.00000000000E+00 0. -1.
</event>
<event>
 8    1  0.7224195E-009  0.1473017E+03  0.7561462E-02  0.1203828E+00
          2   -1    0    0  501    0  0.00000000000E+00  0.00000000000E+00  0.38369449374E+03  0.38369449374E+03  0.00000000000E+00 0. -1.
         -2   -1    0    0    0  501 -0.00000000000E+00 -0.00000000000E+00 -0.88563438003E+02  0.88563438003E+02  0.00000000000E+00 0.  1.
         25    2    1    2    0    0 -0.82597711302E+02 -0.11105221139E+03  0.84447756688E+02  0.20477829896E+03  0.12509097708E+03 0.  0.
         23    2    1    2    0    0  0.82597711302E+02  0.11105221139E+03  0.21068329905E+03  0.26747963278E+03  0.89459073817E+02 0.  0.
          5    1    3    3  502    0 -0.17714037748E+02 -0.82887245046E+02 -0.11356395977E+02  0.85618471455E+02  0.41800000000E+01 0.  1.
         -5    1    3    3    0  502 -0.64883673554E+02 -0.28164966345E+02  0.95804152665E+02  0.11915982750E+03  0.41800000000E+01 0.  1.
        -11    1    4    4    0    0  0.13943296610E+02  0.12179372307E+02 -0.61225577546E+01  0.19499701116E+02  0.00000000000E+00 0.  1.
         11    1    4    4    0    0  0.68654414693E+02  0.98872839084E+02  0.21680585680E+03  0.24797993166E+03  0.00000000000E+00 0. -1.
</event>
<event>
 8    1  0.7224195E-009  0.1138078E+03  0.7561462E-02  0.1253677E+00
          2   -1    0    0  501    0  0.00000000000E+00  0.00000000000E+00  0.94419051670E+03  0.94419051670E+03  0.00000000000E+00 0. -1.
         -2   -1    0    0    0  501 -0.00000000000E+00 -0.00000000000E+00 -0.30514829647E+02  0.30514829647E+02  0.00000000000E+00 0.  1.
         25    2    1    2    0    0 -0.52498843562E+02  0.16806276567E+02  0.82429507865E+03  0.83555287372E+03  0.12509056159E+03 0.  0.
         23    2    1    2    0    0  0.52498843562E+02 -0.16806276567E+02  0.89380608411E+02  0.13915247263E+03  0.91301357991E+02 0.  0.
          5    1    3    3  502    0  0.23516868460E+02 -0.34570422137E+02  0.18623598916E+03  0.19091745139E+03  0.41800000000E+01 0.  1.
         -5    1    3    3    0  502 -0.76015712022E+02  0.51376698705E+02  0.63805908949E+03  0.64463542233E+03  0.41800000000E+01 0.  1.
        -11    1    4    4    0    0  0.43430269179E+02  0.25581632286E+02  0.80386591175E+02  0.94882096478E+02  0.00000000000E+00 0.  1.
         11    1    4    4    0    0  0.90685743830E+01 -0.42387908854E+02  0.89940172357E+01  0.44270376149E+02  0.00000000000E+00 0. -1.
</event>
<event>
 8    1  0.7224195E-009  0.1532771E+03  0.7561462E-02  0.1196503E+00
          1   -1    0    0  501    0  0.00000000000E+00  0.00000000000E+00  0.43904233126E+03  0.43904233126E+03  0.00000000000E+00 0. -1.
         -1   -1    0    0    0  501 -0.00000000000E+00 -0.00000000000E+00 -0.75923913822E+02  0.75923913822E+02  0.00000000000E+00 0.  1.
         25    2    1    2    0    0 -0.10370614602E+03 -0.10002522240E+03  0.20118716483E+03  0.27728518128E+03  0.12510310398E+03 0.  0.
         23    2    1    2    0    0  0.10370614602E+03  0.10002522240E+03  0.16193125261E+03  0.23768106380E+03  0.97522036906E+02 0.  0.
          5    1    3    3  502    0 -0.81579088152E+02 -0.32387982396E+02  0.18407392458E+03  0.20397257447E+03  0.41800000000E+01 0.  1.
         -5    1    3    3    0  502 -0.22127057868E+02 -0.67637240000E+02  0.17113240254E+02  0.73312606806E+02  0.41800000000E+01 0.  1.
        -11    1    4    4    0    0  0.33847569353E+02  0.14132811520E+02 -0.53626458324E+01  0.37069560058E+02  0.00000000000E+00 0.  1.
         11    1    4    4    0    0  0.69858576667E+02  0.85892410876E+02  0.16729389844E+03  0.20061150375E+03  0.00000000000E+00 0. -1.
</event>
<event>
 8    1  0.7224195E-009  0.1334284E+03  0.7561462E-02  0.1222455E+00
         -1   -1    0    0    0  501 -0.00000000000E+00  0.00000000000E+00  0.47261041965E+03  0.47261041965E+03  0.00000000000E+00 0.  1.
          1   -1    0    0  501    0  0.00000000000E+00 -0.00000000000E+00 -0.62907858339E+02  0.62907858339E+02  0.00000000000E+00 0. -1.
         25    2    1    2    0    0 -0.93183443254E+02 -0.67540939676E+02  0.32380825283E+03  0.36570996424E+03  0.12508821171E+03 0.  0.
         23    2    1    2    0    0  0.93183443254E+02  0.67540939676E+02  0.85894308474E+02  0.16980831375E+03  0.90620629890E+02 0.  0.
          5    1    3    3  502    0  0.33155440238E+01 -0.70230005080E+01 -0.97898217936E+01  0.13176812174E+02  0.41800000000E+01 0. -1.
         -5    1    3    3    0  502 -0.96498987278E+02 -0.60517939168E+02  0.33359807463E+03  0.35253315206E+03  0.41800000000E+01 0. -1.
        -11    1    4    4    0    0  0.10840155893E+03  0.46182065733E+02  0.81370747463E+02  0.14319525033E+03  0.00000000000E+00 0.  1.
         11    1    4    4    0    0 -0.15218115672E+02  0.21358873942E+02  0.45235610110E+01  0.26613063426E+02  0.00000000000E+00 0. -1.
</event>
<event>
 8    1  0.7224195E-009  0.9801054E+02  0.7561462E-02  0.1284536E+00
          2   -1    0    0  501    0  0.00000000000E+00  0.00000000000E+00  0.28966285316E+03  0.28966285316E+03  0.00000000000E+00 0. -1.
         -2   -1    0    0    0  501 -0.00000000000E+00 -0.00000000000E+00 -0.58171543431E+02  0.58171543431E+02  0.00000000000E+00 0.  1.
         25    2    1    2    0    0 -0.36422644263E+02 -0.47410697134E+02  0.10051936709E+03  0.17126155427E+03  0.12510792778E+03 0.  0.
         23    2    1    2    0    0  0.36422644263E+02  0.47410697134E+02  0.13097194263E+03  0.17657284232E+03  0.10222492685E+03 0.  0.
          5    1    3    3  502    0  0.16191157753E+02 -0.40381089064E+02 -0.13231594110E+02  0.45665451120E+02  0.41800000000E+01 0.  1.
         -5    1    3    3    0  502 -0.52613802015E+02 -0.70296080707E+01  0.11375096121E+03  0.12559610315E+03  0.41800000000E+01 0.  1.
        -11    1    4    4    0    0  0.84118548382E+01  0.65295653141E+02  0.12706848298E+03  0.14311072982E+03  0.00000000000E+00 0. -1.
         11    1    4    4    0    0  0.28010789424E+02 -0.17884956007E+02  0.39034596463E+01  0.33462112497E+02  0.00000000000E+00 0.  1.
</event>
<event>
 8    1  0.7224195E-009  0.1012260E+03  0.7561462E-02  0.1277739E+00
          1   -1    0    0  501    0  0.00000000000E+00  0.00000000000E+00  0.11376108072E+03  0.11376108072E+03  0.00000000000E+00 0. -1.
         -1   -1    0    0    0  501 -0.00000000000E+00 -0.00000000000E+00 -0.11432065353E+03  0.11432065353E+03  0.00000000000E+00 0.  1.
         25    2    1    2    0    0 -0.74250458639E+01  0.23241239254E+02 -0.28719182831E+02  0.13064428262E+03  0.12509136905E+03 0.  0.
         23    2    1    2    0    0  0.74250458639E+01 -0.23241239254E+02  0.28159610013E+02  0.97437451635E+02  0.90032254425E+02 0.  0.
          5    1    3    3  502    0 -0.61784681300E+02  0.16612856659E+02 -0.38603917810E+02  0.74840288080E+02  0.41800000000E+01 0.  1.
         -5    1    3    3    0  502  0.54359635436E+02  0.66283825956E+01  0.98847349792E+01  0.55803994536E+02  0.41800000000E+01 0.  1.
        -11    1    4    4    0    0 -0.32262592421E+02 -0.28914983972E+02  0.36308384327E+02  0.56526541910E+02  0.00000000000E+00 0.  1.
         11    1    4    4    0    0  0.39687638285E+02  0.56737447177E+01 -0.81487743145E+01  0.40910909725E+02  0.00000000000E+00 0. -1.
</event>
<event>
 8    1  0.7224195E-009  0.9317688E+02  0.7561462E-02  0.1295336E+00
          2   -1    0    0  501    0  0.00000000000E+00  0.00000000000E+00  0.14739721748E+04  0.14739721748E+04  0.00000000000E+00 0. -1.
         -2   -1    0    0    0  501 -0.00000000000E+00 -0.00000000000E+00 -0.10418037486E+02  0.10418037486E+02  0.00000000000E+00 0.  1.
         25    2    1    2    0    0 -0.41855878355E+01 -0.18364555453E+02  0.11617278824E+04  0.11685949977E+04  0.12509124598E+03 0.  0.
         23    2    1    2    0    0  0.41855878355E+01  0.18364555453E+02  0.30182625493E+03  0.31579521462E+03  0.90954677553E+02 0.  0.
          5    1    3    3  502    0 -0.42632511299E+02  0.13401822127E+02  0.94893547181E+03  0.94999639047E+03  0.41800000000E+01 0. -1.
         -5    1    3    3    0  502  0.38446923463E+02 -0.31766377580E+02  0.21279241057E+03  0.21859860719E+03  0.41800000000E+01 0. -1.
        -11    1    4    4    0    0  0.45837440702E+02 -0.15691067441E+00  0.12340861144E+03  0.13164642406E+03  0.00000000000E+00 0.  1.
         11    1    4    4    0    0 -0.41651852866E+02  0.18521466127E+02  0.17841764350E+03  0.18414879056E+03  0.00000000000E+00 0. -1.
</event>
<event>
 8    1  0.7224195E-009  0.1178500E+03  0.7561462E-02  0.1246687E+00
          2   -1    0    0  501    0  0.00000000000E+00  0.00000000000E+00  0.48209903897E+03  0.48209903897E+03  0.00000000000E+00 0. -1.
         -2   -1    0    0    0  501 -0.00000000000E+00 -0.00000000000E+00 -0.33662110154E+02  0.33662110154E+02  0.00000000000E+00 0.  1.
         25    2    1    2    0    0 -0.28544267820E+01  0.69896263402E+02  0.23206723029E+03  0.27275656826E+03  0.12508921122E+03 0.  0.
         23    2    1    2    0    0  0.28544267820E+01 -0.69896263402E+02  0.21636969853E+03  0.24300458087E+03  0.85683980363E+02 0.  0.
          5    1    3    3  502    0 -0.44941675668E+02  0.75798884429E+02  0.20230743604E+03  0.22070567771E+03  0.41800000000E+01 0.  1.
         -5    1    3    3    0  502  0.42087248886E+02 -0.59026210276E+01  0.29759794241E+02  0.52050890550E+02  0.41800000000E+01 0.  1.
        -11    1    4    4    0    0  0.35395695360E+02 -0.10282375276E+02  0.11679412457E+03  0.12247224186E+03  0.00000000000E+00 0. -1.
         11    1    4    4    0    0 -0.32541268578E+02 -0.59613888125E+02  0.99575573965E+02  0.12053233902E+03  0.00000000000E+00 0.  1.
</event>
<event>
 8    1  0.7224195E-009  0.1040863E+03  0.7561462E-02  0.1271930E+00
         -2   -1    0    0    0  501 -0.00000000000E+00  0.00000000000E+00  0.33622100055E+02  0.33622100055E+02  0.00000000000E+00 0. -1.
          2   -1    0    0  501    0  0.00000000000E+00 -0.00000000000E+00 -0.47621872111E+03  0.47621872111E+03  0.00000000000E+00 0.  1.
         25    2    1    2    0    0 -0.43971510534E+02  0.21288817533E+02 -0.32602892143E+03  0.35260234308E+03  0.12508735848E+03 0.  0.
         23    2    1    2    0    0  0.43971510534E+02 -0.21288817533E+02 -0.11656769963E+03  0.15723847808E+03  0.93537173905E+02 0.  0.
          5    1    3    3  502    0  0.16328840881E+01 -0.34624283186E+02 -0.22882831645E+03  0.23147651739E+03  0.41800000000E+01 0. -1.
         -5    1    3    3    0  502 -0.45604394622E+02  0.55913100718E+02 -0.97200604981E+02  0.12112582569E+03  0.41800000000E+01 0. -1.
        -11    1    4    4    0    0 -0.27233994577E+02 -0.92938868998E+01 -0.56122762872E+02  0.63070050791E+02  0.00000000000E+00 0.  1.
         11    1    4    4    0    0  0.71205505111E+02 -0.11994930633E+02 -0.60444936755E+02  0.94168427290E+02  0.00000000000E+00 0. -1.
</event>
<event>
 8    1  0.7224195E-009  0.2556371E+03  0.7561462E-02  0.1109793E+00
         -1   -1    0    0    0  501 -0.00000000000E+00  0.00000000000E+00  0.46376351514E+02  0.46376351514E+02  0.00000000000E+00 0.  1.
          1   -1    0    0  501    0  0.00000000000E+00 -0.00000000000E+00 -0.15582749171E+04  0.15582749171E+04  0.00000000000E+00 0. -1.
         25    2    1    2    0    0 -0.58599963408E+02 -0.23323917472E+03 -0.63868473236E+03  0.69383076465E+03  0.12509386192E+03 0.  0.
         23    2    1    2    0    0  0.58599963408E+02  0.23323917472E+03 -0.87321383318E+03  0.91082050392E+03  0.96213946836E+02 0.  0.
          5    1    3    3  502    0  0.37990468092E+02 -0.50456674090E+02 -0.17623554207E+03  0.18725808477E+03  0.41800000000E+01 0. -1.
         -5    1    3    3    0  502 -0.96590431499E+02 -0.18278250063E+03 -0.46244919030E+03  0.50657267988E+03  0.41800000000E+01 0. -1.
        -11    1    4    4    0    0  0.21418817735E+02  0.52982016423E+02 -0.92699932151E+02  0.10889966592E+03  0.00000000000E+00 0.  1.
         11    1    4    4    0    0  0.37181145672E+02  0.18025715829E+03 -0.78051390103E+03  0.80192083800E+03  0.00000000000E+00 0. -1.
</event>
<event>
 8    1  0.7224195E-009  0.1384450E+03  0.7561462E-02  0.1215437E+00
          3   -1    0    0  501    0  0.00000000000E+00  0.00000000000E+00  0.37507209685E+02  0.37507209685E+02  0.00000000000E+00 0. -1.
         -3   -1    0    0    0  501 -0.00000000000E+00 -0.00000000000E+00 -0.71125774016E+03  0.71125774016E+03  0.00000000000E+00 0.  1.
         25    2    1    2    0    0 -0.48946472059E+02 -0.11254389754E+03 -0.37383923068E+03  0.41287392519E+03  0.12508885524E+03 0.  0.
         23    2    1    2    0    0  0.48946472059E+02  0.11254389754E+03 -0.29991129980E+03  0.33589102466E+03  0.88397436046E+02 0.  0.
          5    1    3    3  502    0 -0.75006711703E+02 -0.75605027086E+02 -0.14721280420E+03  0.18174490101E+03  0.41800000000E+01 0. -1.
         -5    1    3    3    0  502  0.26060239644E+02 -0.36938870456E+02 -0.22662642648E+03  0.23112902418E+03  0.41800000000E+01 0. -1.
        -11    1    4    4    0    0  0.46372833328E+02  0.81581721849E+02 -0.28751291385E+03  0.30243956858E+03  0.00000000000E+00 0.  1.
         11    1    4    4    0    0  0.25736387317E+01  0.30962175693E+02 -0.12398385949E+02  0.33451456084E+02  0.00000000000E+00 0. -1.
</event>
<event>
 8    1  0.7224195E-009  0.1178136E+03  0.7561462E-02  0.1246748E+00
          1   -1    0    0  501    0  0.00000000000E+00  0.00000000000E+00  0.40995274058E+03  0.40995274058E+03  0.00000000000E+00 0. -1.
         -1   -1    0    0    0  501 -0.00000000000E+00 -0.00000000000E+00 -0.45413255864E+02  0.45413255864E+02  0.00000000000E+00 0.  1.
         25    2    1    2    0    0  0.68059889383E+02  0.24042526636E+01  0.27901452412E+03  0.31326448727E+03  0.12509038869E+03 0.  0.
         23    2    1    2    0    0 -0.68059889383E+02 -0.24042526636E+01  0.85524960588E+02  0.14210150917E+03  0.90776599684E+02 0.  0.
          5    1    3    3  502    0 -0.17706673903E+02  0.29334433182E+02  0.16205410357E+03  0.16568958976E+03  0.41800000000E+01 0. -1.
         -5    1    3    3    0  502  0.85766563286E+02 -0.26930180519E+02  0.11696042056E+03  0.14757489752E+03  0.41800000000E+01 0. -1.
        -11    1    4    4    0    0 -0.82187412013E+02  0.20040885885E+02  0.51790086743E+02  0.99189822489E+02  0.00000000000E+00 0.  1.
         11    1    4    4    0    0  0.14127522631E+02 -0.22445138549E+02  0.33734873845E+02  0.42911686678E+02  0.00000000000E+00 0. -1.
</event>
<event>
 8    1  0.7224195E-009  0.1647548E+03  0.7561462E-02  0.1183431E+00
         -1   -1    0    0    0  501 -0.00000000000E+00  0.00000000000E+00  0.67812887263E+02  0.67812887263E+02  0.00000000000E+00 0.  1.
          1   -1    0    0  501    0  0.00000000000E+00 -0.00000000000E+00 -0.54420012325E+03  0.54420012325E+03  0.00000000000E+00 0. -1.
         25    2    1    2    0    0 -0.63965585757E+02 -0.14298044054E+03 -0.22365622182E+03  0.30034025271E+03  0.12508860579E+03 0.  0.
         23    2    1    2    0    0  0.63965585757E+02  0.14298044054E+03 -0.25273101416E+03  0.31167275780E+03  0.93444849490E+02 0.  0.
          5    1    3    3  502    0 -0.67054447552E+02 -0.83550004386E+02 -0.53079081065E+02  0.11963178263E+03  0.41800000000E+01 0.  1.
         -5    1    3    3    0  502  0.30888617948E+01 -0.59430436156E+02 -0.17057714075E+03  0.18070847007E+03  0.41800000000E+01 0.  1.
        -11    1    4    4    0    0  0.44313875008E+02  0.46714159272E+02 -0.17475242633E+03  0.18623732897E+03  0.00000000000E+00 0. -1.
         11    1    4    4    0    0  0.19651710748E+02  0.96266281271E+02 -0.77978587836E+02  0.12543542883E+03  0.00000000000E+00 0.  1.
</event>
<event>
 8    1  0.7224195E-009  0.1355730E+03  0.7561462E-02  0.1219413E+00
         -2   -1    0    0    0  501 -0.00000000000E+00  0.00000000000E+00  0.12177362712E+04  0.12177362712E+04  0.00000000000E+00 0.  1.
          2   -1    0    0  501    0  0.00000000000E+00 -0.00000000000E+00 -0.16082980024E+02  0.16082980024E+02  0.00000000000E+00 0. -1.
         25    2    1    2    0    0  0.23096650190E+02  0.83095392653E+02  0.77586957454E+03  0.79060659529E+03  0.12508753852E+03 0.  0.
         23    2    1    2    0    0 -0.23096650190E+02 -0.83095392653E+02  0.42578371663E+03  0.44321265593E+03  0.87791716558E+02 0.  0.
          5    1    3    3  502    0  0.16303596828E+02 -0.31448896431E+02  0.14130755183E+03  0.14573996350E+03  0.41800000000E+01 0. -1.
         -5    1    3    3    0  502  0.67930533612E+01  0.11454428908E+03  0.63456202271E+03  0.64486663179E+03  0.41800000000E+01 0. -1.
        -11    1    4    4    0    0 -0.30271049867E+02  0.63436078533E+01  0.15153471400E+03  0.15465880954E+03  0.00000000000E+00 0.  1.
         11    1    4    4    0    0  0.71743996770E+01 -0.89439000506E+02  0.27424900264E+03  0.28855384639E+03  0.00000000000E+00 0. -1.
</event>
<event>
 8    1  0.7224195E-009  0.1244451E+03  0.7561462E-02  0.1235939E+00
          1   -1    0    0  501    0  0.00000000000E+00  0.00000000000E+00  0.17682865143E+02  0.17682865143E+02  0.00000000000E+00 0. -1.
         -1   -1    0    0    0  501 -0.00000000000E+00 -0.00000000000E+00 -0.88628970585E+03  0.88628970585E+03  0.00000000000E+00 0.  1.
         25    2    1    2    0    0  0.61904330588E+02  0.62324584309E+01 -0.46478006115E+03  0.48532356691E+03  0.12508984641E+03 0.  0.
         23    2    1    2    0    0 -0.61904330588E+02 -0.62324584309E+01 -0.40382677955E+03  0.41864900408E+03  0.91213656026E+02 0.  0.
          5    1    3    3  502    0 -0.23922680558E+02  0.39865300315E+02 -0.18072553239E+03  0.18665670969E+03  0.41800000000E+01 0.  1.
         -5    1    3    3    0  502  0.85827011146E+02 -0.33632841884E+02 -0.28405452875E+03  0.29866685722E+03  0.41800000000E+01 0.  1.
        -11    1    4    4    0    0  0.43183907794E+01 -0.36760693248E+02 -0.15494005521E+03  0.15929977331E+03  0.00000000000E+00 0.  1.
         11    1    4    4    0    0 -0.66222721368E+02  0.30528234817E+02 -0.24888672434E+03  0.25934923077E+03  0.00000000000E+00 0. -1.
</event>
<event>
 8    1  0.7224195E-009  0.8794079E+02  0.7561462E-02  0.1307916E+00
          2   -1    0    0  501    0  0.00000000000E+00  0.00000000000E+00  0.34073572429E+03  0.34073572429E+03  0.00000000000E+00 0.  1.
         -2   -1    0    0    0  501 -0.00000000000E+00 -0.00000000000E+00 -0.57995567938E+02  0.57995567938E+02  0.00000000000E+00 0. -1.
         25    2    1    2    0    0 -0.59446625292E+02  0.22598738195E+02  0.25268810266E+03  0.28903838778E+03  0.12508920081E+03 0.  0.
         23    2    1    2    0    0  0.59446625292E+02 -0.22598738195E+02  0.30052053698E+02  0.10969290445E+03  0.84171272589E+02 0.  0.
          5    1    3    3  502    0 -0.31980088232E+01  0.14909639641E+02 -0.11009297923E+02  0.19266594287E+02  0.41800000000E+01 0. -1.
         -5    1    3    3    0  502 -0.56248616468E+02  0.76890985542E+01  0.26369740058E+03  0.26977179349E+03  0.41800000000E+01 0. -1.
        -11    1    4    4    0    0  0.27736948416E+02 -0.52617076526E+02  0.58439739060E+01  0.59766605061E+02  0.00000000000E+00 0.  1.
         11    1    4    4    0    0  0.31709676876E+02  0.30018338331E+02  0.24208079792E+02  0.49926299391E+02  0.00000000000E+00 0. -1.
</event>
<event>
 8    1  0.7224195E-009  0.1347991E+03  0.7561462E-02  0.1220504E+00
         -1   -1    0    0    0  501 -0.00000000000E+00  0.00000000000E+00  0.47435263454E+02  0.47435263454E+02  0.00000000000E+00 0.  1.
          1   -1    0    0  501    0  0.00000000000E+00 -0.00000000000E+00 -0.47656298422E+03  0.47656298422E+03  0.00000000000E+00 0. -1.
         25    2    1    2    0    0  0.67102558117E+02  0.71659090125E+02 -0.17830296312E+03  0.23890776073E+03  0.12508874041E+03 0.  0.
         23    2    1    2    0    0 -0.67102558117E+02 -0.71659090125E+02 -0.25082475764E+03  0.28509048694E+03  0.93411713360E+02 0.  0.
          5    1    3    3  502    0  0.32740900908E+02  0.96132127112E+02 -0.16620937255E+03  0.19482397280E+03  0.41800000000E+01 0.  1.
         -5    1    3    3    0  502  0.34361657209E+02 -0.24473036987E+02 -0.12093590574E+02  0.44083787933E+02  0.41800000000E+01 0.  1.
        -11    1    4    4    0    0 -0.24799594721E+02  0.15104933436E+02 -0.11402164426E+03  0.11766101424E+03  0.00000000000E+00 0. -1.
         11    1    4    4    0    0 -0.42302963396E+02 -0.86764023561E+02 -0.13680311338E+03  0.16742947270E+03  0.00000000000E+00 0.  1.
</event>
<event>
 8    1  0.7224195E-009  0.1381506E+03  0.7561462E-02  0.1215839E+00
          2   -1    0    0  501    0  0.00000000000E+00  0.00000000000E+00  0.68523293784E+03  0.68523293784E+03  0.00000000000E+00 0. -1.
         -2   -1    0    0    0  501 -0.00000000000E+00 -0.00000000000E+00 -0.41322690130E+02  0.41322690130E+02  0.00000000000E+00 0.  1.
         25    2    1    2    0    0  0.91138834974E+02 -0.57108272900E+02  0.19324043632E+03  0.25408138543E+03  0.12509133510E+03 0.  0.
         23    2    1    2    0    0 -0.91138834974E+02  0.57108272900E+02  0.45066981139E+03  0.47247424254E+03  0.92525612093E+02 0.  0.
          5    1    3    3  502    0 -0.19306843953E+02 -0.46625840099E+02  0.85538079546E+02  0.99403011226E+02  0.41800000000E+01 0. -1.
         -5    1    3    3    0  502  0.11044567893E+03 -0.10482432801E+02  0.10770235678E+03  0.15467837420E+03  0.41800000000E+01 0. -1.
        -11    1    4    4    0    0 -0.49644867771E+02  0.53510331836E+02  0.40129220540E+03  0.40787670027E+03  0.00000000000E+00 0. -1.
         11    1    4    4    0    0 -0.41493967203E+02  0.35979410637E+01  0.49377605989E+02  0.64597542270E+02  0.00000000000E+00 0.  1.
</event>
<event>
 8    1  0.7224195E-009  0.1280956E+03  0.7561462E-02  0.1230309E+00
         -1   -1    0    0    0  501 -0.00000000000E+00  0.00000000000E+00  0.74665641412E+03  0.74665641412E+03  0.00000000000E+00 0.  1.
          1   -1    0    0  501    0  0.00000000000E+00 -0.00000000000E+00 -0.26235645720E+02  0.26235645720E+02  0.00000000000E+00 0. -1.
         25    2    1    2    0    0  0.45875512105E+02 -0.75202316925E+02  0.40847837624E+03  0.43619197760E+03  0.12509558899E+03 0.  0.
         23    2    1    2    0    0 -0.45875512105E+02  0.75202316925E+02  0.31194239216E+03  0.33670008224E+03  0.91098508615E+02 0.  0.
          5    1    3    3  502    0 -0.20730040859E+02  0.24909830691E+02  0.88913861341E+02  0.94727933565E+02  0.41800000000E+01 0. -1.
         -5    1    3    3    0  502  0.66605552965E+02 -0.10011214762E+03  0.31956451490E+03  0.34146404403E+03  0.41800000000E+01 0. -1.
        -11    1    4    4    0    0 -0.50961678060E+02  0.33050604634E+02  0.77614297636E+02  0.98556655254E+02  0.00000000000E+00 0. -1.
         11    1    4    4    0    0  0.50861659545E+01  0.42151712291E+02  0.23432809452E+03  0.23814342698E+03  0.00000000000E+00 0.  1.
</event>
<event>
 8    1  0.7224195E-009  0.1375544E+03  0.7561462E-02  0.1216658E+00
         -2   -1    0    0    0  501 -0.00000000000E+00  0.00000000000E+00  0.37620723098E+02  0.37620723098E+02  0.00000000000E+00 0. -1.
          2   -1    0    0  501    0  0.00000000000E+00 -0.00000000000E+00 -0.81463980773E+03  0.81463980773E+03  0.00000000000E+00 0.  1.
         25    2    1    2    0    0 -0.26890331594E+01 -0.13545959142E+03 -0.40959534458E+03  0.44918873402E+03  0.12508253539E+03 0.  0.
         23    2    1    2    0    0  0.26890331594E+01  0.13545959142E+03 -0.36742374005E+03  0.40307179681E+03  0.95447036740E+02 0.  0.
          5    1    3    3  502    0 -0.97727854099E+01 -0.46518877975E+02 -0.24057127338E+02  0.53439041145E+02  0.41800000000E+01 0. -1.
         -5    1    3    3    0  502  0.70837522506E+01 -0.88940713448E+02 -0.38553821724E+03  0.39574969288E+03  0.41800000000E+01 0. -1.
        -11    1    4    4    0    0  0.13943561734E+02  0.97044110196E+02 -0.34170515926E+03  0.35549176939E+03  0.00000000000E+00 0.  1.
         11    1    4    4    0    0 -0.11254528575E+02  0.38415481227E+02 -0.25718580785E+02  0.47580027417E+02  0.00000000000E+00 0. -1.
</event>
<event>
 8    1  0.7224195E-009  0.9220765E+02  0.7561462E-02  0.1297592E+00
          1   -1    0    0  501    0  0.00000000000E+00  0.00000000000E+00  0.17836027219E+03  0.17836027219E+03  0.00000000000E+00 0. -1.
         -1   -1    0    0    0  501 -0.00000000000E+00 -0.00000000000E+00 -0.86407564598E+02  0.86407564598E+02  0.00000000000E+00 0.  1.
         25    2    1    2    0    0 -0.38625030958E+02  0.40974826660E+02  0.17928206947E+02  0.13834890035E+03  0.12509263842E+03 0.  0.
         23    2    1    2    0    0  0.38625030958E+02 -0.40974826660E+02  0.74024500647E+02  0.12641893644E+03  0.85622960466E+02 0.  0.
          5    1    3    3  502    0  0.36065401294E+02  0.28642757800E+02  0.38073182515E+02  0.59901255176E+02  0.41800000000E+01 0. -1.
         -5    1    3    3    0  502 -0.74690432252E+02  0.12332068860E+02 -0.20144975569E+02  0.78447645172E+02  0.41800000000E+01 0. -1.
        -11    1    4    4    0    0  0.72675563482E+01 -0.27110454233E+02 -0.14424503683E+02  0.31557256067E+02  0.00000000000E+00 0.  1.
         11    1    4    4    0    0  0.31357474609E+02 -0.13864372427E+02  0.88449004330E+02  0.94861680375E+02  0.00000000000E+00 0. -1.
</event>
<event>
 8    1  0.7224195E-009  0.2494952E+03  0.7561462E-02  0.1113624E+00
         -3   -1    0    0    0  501 -0.00000000000E+00  0.00000000000E+00  0.18349960112E+03  0.18349960112E+03  0.00000000000E+00 0.  1.
          3   -1    0    0  501    0  0.00000000000E+00 -0.00000000000E+00 -0.37261678396E+03  0.37261678396E+03  0.00000000000E+00 0. -1.
         25    2    1    2    0    0  0.57123356085E+02  0.22663848007E+03 -0.14413299866E+03  0.30174480589E+03  0.12509008003E+03 0.  0.
         23    2    1    2    0    0 -0.57123356085E+02 -0.22663848007E+03 -0.44984184173E+02  0.25437157919E+03  0.89739874163E+02 0.  0.
          5    1    3    3  502    0 -0.21657647534E+02  0.15940331758E+03 -0.96805773926E+02  0.18779590415E+03  0.41800000000E+01 0.  1.
         -5    1    3    3    0  502  0.78781003619E+02  0.67235162494E+02 -0.47327224737E+02  0.11394890174E+03  0.41800000000E+01 0.  1.
        -11    1    4    4    0    0 -0.55880633977E+02 -0.19765241233E+03 -0.56275451205E+01  0.20547698318E+03  0.00000000000E+00 0.  1.
         11    1    4    4    0    0 -0.12427221082E+01 -0.28986067742E+02 -0.39356639053E+02  0.48894596009E+02  0.00000000000E+00 0. -1.
</event>
<event>
 8    1  0.7224195E-009  0.8742764E+02  0.7561462E-02  0.1309203E+00
         -2   -1    0    0    0  501 -0.00000000000E+00  0.00000000000E+00  0.46961673416E+02  0.46961673416E+02  0.00000000000E+00 0.  1.
          2   -1    0    0  501    0  0.00000000000E+00 -0.00000000000E+00 -0.37054090485E+03  0.37054090485E+03  0.00000000000E+00 0. -1.
         25    2    1    2    0    0  0.44917564042E+02 -0.45248257014E+01 -0.84685992787E+02  0.15766646405E+03  0.12509570298E+03 0.  0.
         23    2    1    2    0    0 -0.44917564042E+02  0.45248257014E+01 -0.23889323864E+03  0.25983611421E+03  0.91688413518E+02 0.  0.
          5    1    3    3  502    0 -0.21288646625E+02  0.18370500423E+01 -0.88281875472E+02  0.90927131071E+02  0.41800000000E+01 0. -1.
         -5    1    3    3    0  502  0.66206210667E+02 -0.63618757437E+01  0.35958826852E+01  0.66739332977E+02  0.41800000000E+01 0. -1.
        -11    1    4    4    0    0 -0.62033500263E+02 -0.11387570252E+02 -0.22256032773E+03  0.23132429918E+03  0.00000000000E+00 0. -1.
         11    1    4    4    0    0  0.17115936221E+02  0.15912395953E+02 -0.16332910911E+02  0.28511815034E+02  0.00000000000E+00 0.  1.
</event>
<event>
 8    1  0.7224195E-009  0.5507656E+02  0.7561462E-02  0.1419737E+00
         -2   -1    0    0    0  501 -0.00000000000E+00  0.00000000000E+00  0.12790220428E+03  0.12790220428E+03  0.00000000000E+00 0.  1.
          2   -1    0    0  501    0  0.00000000000E+00 -0.00000000000E+00 -0.93898603043E+02  0.93898603043E+02  0.00000000000E+00 0. -1.
         25    2    1    2    0    0 -0.11672179277E+02  0.19010042971E+02  0.16372189043E+02  0.12811195911E+03  0.12508798500E+03 0.  0.
         23    2    1    2    0    0  0.11672179277E+02 -0.19010042971E+02  0.17631412196E+02  0.93688848215E+02  0.89269883392E+02 0.  0.
          5    1    3    3  502    0 -0.80447569389E+01  0.29387173658E+02  0.68281178209E+02  0.74887353989E+02  0.41800000000E+01 0. -1.
         -5    1    3    3    0  502 -0.36274223385E+01 -0.10377130687E+02 -0.51908989167E+02  0.53224605122E+02  0.41800000000E+01 0. -1.
        -11    1    4    4    0    0  0.72397782223E+01  0.23657969072E+02  0.38672007249E+02  0.45909019092E+02  0.00000000000E+00 0.  1.
         11    1    4    4    0    0  0.44324010551E+01 -0.42668012043E+02 -0.21040595053E+02  0.47779829123E+02  0.00000000000E+00 0. -1.
</event>
<event>
 8    1  0.7224195E-009  0.1401820E+03  0.7561462E-02  0.1213084E+00
          1   -1    0    0  501    0  0.00000000000E+00  0.00000000000E+00  0.13883828431E+04  0.13883828431E+04  0.00000000000E+00 0. -1.
         -1   -1    0    0    0  501 -0.00000000000E+00 -0.00000000000E+00 -0.17597302968E+02  0.17597302968E+02  0.00000000000E+00 0.  1.
         25    2    1    2    0    0 -0.10074391219E+03 -0.22051207092E+02  0.94311819891E+03  0.95695080303E+03  0.12508921110E+03 0.  0.
         23    2    1    2    0    0  0.10074391219E+03  0.22051207092E+02  0.42766734123E+03  0.44902934304E+03  0.89957793333E+02 0.  0.
          5    1    3    3  502    0 -0.42425162093E+02  0.51786041409E+02  0.34457725644E+03  0.35104507762E+03  0.41800000000E+01 0. -1.
         -5    1    3    3    0  502 -0.58318750096E+02 -0.73837248501E+02  0.59854094247E+03  0.60590572541E+03  0.41800000000E+01 0. -1.
        -11    1    4    4    0    0  0.34138114012E+02 -0.20733773835E+02  0.54566104010E+02  0.67622185062E+02  0.00000000000E+00 0.  1.
         11    1    4    4    0    0  0.66605798177E+02  0.42784980927E+02  0.37310123722E+03  0.38140715798E+03  0.00000000000E+00 0. -1.
</event>
<event>
 8    1  0.7224195E-009  0.8792261E+02  0.7561462E-02  0.1307962E+00
          4   -1    0    0  501    0  0.00000000000E+00  0.00000000000E+00  0.30722735457E+02  0.30722735457E+02  0.00000000000E+00 0. -1.
         -4   -1    0    0    0  501 -0.00000000000E+00 -0.00000000000E+00 -0.44898866359E+03  0.44898866359E+03  0.00000000000E+00 0.  1.
         25    2    1    2    0    0 -0.37868174600E+02 -0.19863716153E+02 -0.26073985745E+03  0.29233837132E+03  0.12509150337E+03 0.  0.
         23    2    1    2    0    0  0.37868174600E+02  0.19863716153E+02 -0.15752607069E+03  0.18737302773E+03  0.92008818641E+02 0.  0.
          5    1    3    3  502    0  0.23585883556E+02 -0.42011446610E+01 -0.20892976661E+03  0.21034035108E+03  0.41800000000E+01 0.  1.
         -5    1    3    3    0  502 -0.61454058155E+02 -0.15662571492E+02 -0.51810090841E+02  0.81998020235E+02  0.41800000000E+01 0.  1.
        -11    1    4    4    0    0  0.39651965444E+02  0.46592805099E+02 -0.14582691838E+03  0.15814125956E+03  0.00000000000E+00 0.  1.
         11    1    4    4    0    0 -0.17837908447E+01 -0.26729088945E+02 -0.11699152303E+02  0.29231768168E+02  0.00000000000E+00 0. -1.
</event>
<event>
 8    1  0.7224195E-009  0.2646191E+03  0.7561462E-02  0.1104399E+00
         -1   -1    0    0    0  501 -0.00000000000E+00  0.00000000000E+00  0.47222613838E+03  0.47222613838E+03  0.00000000000E+00 0.  1.
          1   -1    0    0  501    0  0.00000000000E+00 -0.00000000000E+00 -0.17664068586E+03  0.17664068586E+03  0.00000000000E+00 0. -1.
         25    2    1    2    0    0  0.20288395294E+03  0.14701742803E+03  0.25566336688E+03  0.37919264358E+03  0.12508909334E+03 0.  0.
         23    2    1    2    0    0 -0.20288395294E+03 -0.14701742803E+03  0.39922085637E+02  0.26967418066E+03  0.91402233486E+02 0.  0.
          5    1    3    3  502    0 -0.64609159305E+01  0.97953944741E+01  0.60484295030E+02  0.61753668173E+02  0.41800000000E+01 0.  1.
         -5    1    3    3    0  502  0.20934486887E+03  0.13722203356E+03  0.19517907185E+03  0.31743897541E+03  0.41800000000E+01 0.  1.
        -11    1    4    4    0    0 -0.95965326418E+02 -0.15934868190E+02  0.87879015781E+01  0.97675437613E+02  0.00000000000E+00 0.  1.
         11    1    4    4    0    0 -0.10691862653E+03 -0.13108255984E+03  0.31134184059E+02  0.17199874305E+03  0.00000000000E+00 0. -1.
</event>
<event>
 8    1  0.7224195E-009  0.1647835E+03  0.7561462E-02  0.1183400E+00
         -2   -1    0    0    0  501 -0.00000000000E+00  0.00000000000E+00  0.19523807554E+02  0.19523807554E+02  0.00000000000E+00 0.  1.
          2   -1    0    0  501    0  0.00000000000E+00 -0.00000000000E+00 -0.18519247859E+04  0.18519247859E+04  0.00000000000E+00 0. -1.
         25    2    1    2    0    0 -0.24573155694E+02 -0.14744514180E+03 -0.11711118257E+04  0.11872208314E+04  0.12508590890E+03 0.  0.
         23    2    1    2    0    0  0.24573155694E+02  0.14744514180E+03 -0.66128915272E+03  0.68422776204E+03  0.92305888316E+02 0.  0.
          5    1    3    3  502    0 -0.30987973395E+02 -0.55809472110E+02 -0.16581887808E+03  0.17773104512E+03  0.41800000000E+01 0. -1.
         -5    1    3    3    0  502  0.64148177010E+01 -0.91635669691E+02 -0.10052929476E+04  0.10094897863E+04  0.41800000000E+01 0. -1.
        -11    1    4    4    0    0  0.44665483065E+02  0.28441498852E+02 -0.15665122687E+03  0.16535879509E+03  0.00000000000E+00 0. -1.
         11    1    4    4    0    0 -0.20092327371E+02  0.11900364295E+03 -0.50463792585E+03  0.51886896695E+03  0.00000000000E+00 0.  1.
</event>
<event>
 8    1  0.7224195E-009  0.1408657E+03  0.7561462E-02  0.1212169E+00
         -1   -1    0    0    0  501 -0.00000000000E+00  0.00000000000E+00  0.22168635030E+03  0.22168635030E+03  0.00000000000E+00 0.  1.
          1   -1    0    0  501    0  0.00000000000E+00 -0.00000000000E+00 -0.12110909299E+03  0.12110909299E+03  0.00000000000E+00 0. -1.
         25    2    1    2    0    0 -0.98504717590E+02  0.74992159663E+02  0.61098893687E+02  0.18629855067E+03  0.12508825594E+03 0.  0.
         23    2    1    2    0    0  0.98504717590E+02 -0.74992159663E+02  0.39478363628E+02  0.15649689262E+03  0.87210852573E+02 0.  0.
          5    1    3    3  502    0  0.14571846524E+02 -0.83066035685E+01 -0.18082459287E+02  0.25015717216E+02  0.41800000000E+01 0.  1.
         -5    1    3    3    0  502 -0.11307656411E+03  0.83298763231E+02  0.79181352974E+02  0.16128283345E+03  0.41800000000E+01 0.  1.
        -11    1    4    4    0    0  0.76724923184E+02 -0.55322269559E+02  0.67275843755E+02  0.11607457301E+03  0.00000000000E+00 0.  1.
         11    1    4    4    0    0  0.21779794406E+02 -0.19669890104E+02 -0.27797480128E+02  0.40422319608E+02  0.00000000000E+00 0. -1.
</event>
<event>
 8    1  0.7224195E-009  0.9495938E+02  0.7561462E-02  0.1291268E+00
          1   -1    0    0  501    0  0.00000000000E+00  0.00000000000E+00  0.23607097583E+03  0.23607097583E+03  0.00000000000E+00 0.  1.
         -1   -1    0    0    0  501 -0.00000000000E+00 -0.00000000000E+00 -0.77831368345E+02  0.77831368345E+02  0.00000000000E+00 0. -1.
         25    2    1    2    0    0 -0.33446237726E+02 -0.57518380843E+02  0.14452981765E+03  0.20239566720E+03  0.12509245764E+03 0.  0.
         23    2    1    2    0    0  0.33446237726E+02  0.57518380843E+02  0.13709789831E+02  0.11150667697E+03  0.88423784803E+02 0.  0.
          5    1    3    3  502    0 -0.48901242867E+02  0.51262489784E+01  0.62435843784E+01  0.49739971134E+02  0.41800000000E+01 0.  1.
         -5    1    3    3    0  502  0.15455005141E+02 -0.62644629821E+02  0.13828623328E+03  0.15265569607E+03  0.41800000000E+01 0.  1.
        -11    1    4    4    0    0  0.31128479809E+02  0.17268566459E+02 -0.33874554326E+02  0.49139302738E+02  0.00000000000E+00 0. -1.
         11    1    4    4    0    0  0.23177579171E+01  0.40249814383E+02  0.47584344158E+02  0.62367374232E+02  0.00000000000E+00 0.  1.
</event>
<event>
 8    1  0.7224195E-009  0.1325070E+03  0.7561462E-02  0.1223782E+00
          2   -1    0    0  501    0  0.00000000000E+00  0.00000000000E+00  0.32571042864E+03  0.32571042864E+03  0.00000000000E+00 0. -1.
         -2   -1    0    0    0  501 -0.00000000000E+00 -0.00000000000E+00 -0.68366027699E+02  0.68366027699E+02  0.00000000000E+00 0.  1.
         25    2    1    2    0    0  0.25503623482E+02 -0.93500578088E+02  0.17630816048E+03  0.23690538287E+03  0.12508716989E+03 0.  0.
         23    2    1    2    0    0 -0.25503623482E+02  0.93500578088E+02  0.81036240466E+02  0.15717107347E+03  0.93504444559E+02 0.  0.
          5    1    3    3  502    0 -0.45131609590E+02 -0.40332183419E+02  0.11242288824E+03  0.12774946342E+03  0.41800000000E+01 0. -1.
         -5    1    3    3    0  502  0.70635233072E+02 -0.53168394670E+02  0.63885272231E+02  0.10915591945E+03  0.41800000000E+01 0. -1.
        -11    1    4    4    0    0 -0.98692950524E+01 -0.82662279739E+01 -0.12589822124E+02  0.18006585764E+02  0.00000000000E+00 0.  1.
         11    1    4    4    0    0 -0.15634328430E+02  0.10176680606E+03  0.93626062590E+02  0.13916448770E+03  0.00000000000E+00 0. -1.
</event>
<event>
 8    1  0.7224195E-009  0.1343718E+03  0.7561462E-02  0.1221109E+00
          1   -1    0    0  501    0  0.00000000000E+00  0.00000000000E+00  0.55295335895E+02  0.55295335895E+02  0.00000000000E+00 0.  1.
         -1   -1    0    0    0  501 -0.00000000000E+00 -0.00000000000E+00 -0.45737734956E+03  0.45737734956E+03  0.00000000000E+00 0. -1.
         25    2    1    2    0    0  0.51375702138E+02  0.90682029129E+02 -0.13302757319E+03  0.21025257259E+03  0.12508843221E+03 0.  0.
         23    2    1    2    0    0 -0.51375702138E+02 -0.90682029129E+02 -0.26905444048E+03  0.30242011287E+03  0.90581121393E+02 0.  0.
          5    1    3    3  502    0  0.52943442979E+01  0.89798684473E+02 -0.13684485592E+03  0.16381642411E+03  0.41800000000E+01 0. -1.
         -5    1    3    3    0  502  0.46081357840E+02  0.88334465606E+00  0.38172827305E+01  0.46436148479E+02  0.41800000000E+01 0. -1.
        -11    1    4    4    0    0 -0.72870308674E+02 -0.57259879454E+02 -0.22360007055E+03  0.24204496944E+03  0.00000000000E+00 0. -1.
         11    1    4    4    0    0  0.21494606537E+02 -0.33422149675E+02 -0.45454369925E+02  0.60375143431E+02  0.00000000000E+00 0.  1.
</event>
<event>
 8    1  0.7224195E-009  0.1157187E+03  0.7561462E-02  0.1250332E+00
          2   -1    0    0  501    0  0.00000000000E+00  0.00000000000E+00  0.74580274176E+02  0.74580274176E+02  0.00000000000E+00 0. -1.
         -2   -1    0    0    0  501 -0.00000000000E+00 -0.00000000000E+00 -0.33869958202E+03  0.33869958202E+03  0.00000000000E+00 0.  1.
         25    2    1    2    0    0  0.87138992086E+02 -0.17997434745E+02 -0.46463035697E+02  0.16038168260E+03  0.12508540613E+03 0.  0.
         23    2    1    2    0    0 -0.87138992086E+02  0.17997434745E+02 -0.21765627214E+03  0.25289817360E+03  0.93092007204E+02 0.  0.
          5    1    3    3  502    0 -0.12129239155E+02 -0.24427376984E+01  0.30870442483E+02  0.33519278468E+02  0.41800000000E+01 0.  1.
         -5    1    3    3    0  502  0.99268231241E+02 -0.15554697046E+02 -0.77333478180E+02  0.12686240413E+03  0.41800000000E+01 0.  1.
        -11    1    4    4    0    0 -0.22981510584E+02  0.43158787665E+02 -0.14378832531E+03  0.15187466305E+03  0.00000000000E+00 0. -1.
         11    1    4    4    0    0 -0.64157481502E+02 -0.25161352920E+02 -0.73867946838E+02  0.10102351055E+03  0.00000000000E+00 0.  1.
</event>
<event>
 8    1  0.7224195E-009  0.1480020E+03  0.7561462E-02  0.1202950E+00
         -1   -1    0    0    0  501 -0.00000000000E+00  0.00000000000E+00  0.18521434113E+02  0.18521434113E+02  0.00000000000E+00 0.  1.
          1   -1    0    0  501    0  0.00000000000E+00 -0.00000000000E+00 -0.15692171160E+04  0.15692171160E+04  0.00000000000E+00 0. -1.
         25    2    1    2    0    0  0.83020527887E+02  0.84621215702E+02 -0.10906656043E+04  0.11041971717E+04  0.12508707096E+03 0.  0.
         23    2    1    2    0    0 -0.83020527887E+02 -0.84621215702E+02 -0.46003007756E+03  0.48354137842E+03  0.90174465256E+02 0.  0.
          5    1    3    3  502    0  0.30457705559E+02 -0.16070127981E+02 -0.57994285296E+03  0.58097943677E+03  0.41800000000E+01 0.  1.
         -5    1    3    3    0  502  0.52562822329E+02  0.10069134368E+03 -0.51072275132E+03  0.52321773489E+03  0.41800000000E+01 0.  1.
        -11    1    4    4    0    0 -0.24648776748E+02 -0.85797883560E+02 -0.30839269624E+03  0.32105279023E+03  0.00000000000E+00 0.  1.
         11    1    4    4    0    0 -0.58371751140E+02  0.11766678581E+01 -0.15163738132E+03  0.16248858819E+03  0.00000000000E+00 0. -1.
</event>
<event>
 8    1  0.7224195E-009  0.1180802E+03  0.7561462E-02  0.1246298E+00
          2   -1    0    0  501    0  0.00000000000E+00  0.00000000000E+00  0.58621374725E+03  0.58621374725E+03  0.00000000000E+00 0. -1.
         -2   -1    0    0    0  501 -0.00000000000E+00 -0.00000000000E+00 -0.28115820208E+02  0.28115820208E+02  0.00000000000E+00 0.  1.
         25    2    1    2    0    0  0.56915089767E+02  0.38133224076E+02  0.29021625714E+03  0.32336938413E+03  0.12509521359E+03 0.  0.
         23    2    1    2    0    0 -0.56915089767E+02 -0.38133224076E+02  0.26788166991E+03  0.29096018333E+03  0.90574659755E+02 0.  0.
          5    1    3    3  502    0  0.68161758992E+02  0.72393286247E+02  0.16212261031E+03  0.19023150752E+03  0.41800000000E+01 0.  1.
         -5    1    3    3    0  502 -0.11246669225E+02 -0.34260062171E+02  0.12809364683E+03  0.13313787660E+03  0.41800000000E+01 0.  1.
        -11    1    4    4    0    0 -0.65333199044E+02 -0.42995203441E+01  0.10022158049E+03  0.11971331576E+03  0.00000000000E+00 0.  1.
         11    1    4    4    0    0  0.84181092769E+01 -0.33833703732E+02  0.16766008942E+03  0.17124686758E+03  0.00000000000E+00 0. -1.
</event>
<event>
 8    1  0.7224195E-009  0.8032640E+02  0.7561462E-02  0.1328128E+00
          1   -1    0    0  501    0  0.00000000000E+00  0.00000000000E+00  0.27631968855E+03  0.27631968855E+03  0.00000000000E+00 0. -1.
         -1   -1    0    0    0  501 -0.00000000000E+00 -0.00000000000E+00 -0.48829972992E+02  0.48829972992E+02  0.00000000000E+00 0.  1.
         25    2    1    2    0    0 -0.38357539049E+02  0.76574751420E+01  0.14897294384E+03  0.19841963614E+03  0.12508987282E+03 0.  0.
         23    2    1    2    0    0  0.38357539049E+02 -0.76574751420E+01  0.78516771720E+02  0.12673002541E+03  0.91464081314E+02 0.  0.
          5    1    3    3  502    0 -0.62604095207E+01  0.32510144885E+02 -0.95647361954E+01  0.34713957226E+02  0.41800000000E+01 0.  1.
         -5    1    3    3    0  502 -0.32097129528E+02 -0.24852669743E+02  0.15853768003E+03  0.16370567891E+03  0.41800000000E+01 0.  1.
        -11    1    4    4    0    0 -0.22975558985E+02 -0.10087659794E+02 -0.23542856912E+01  0.25202774686E+02  0.00000000000E+00 0.  1.
         11    1    4    4    0    0  0.61333098033E+02  0.24301846523E+01  0.80871057411E+02  0.10152725072E+03  0.00000000000E+00 0. -1.
</event>
<event>
 8    1  0.7224195E-009  0.1106771E+03  0.7561462E-02  0.1259321E+00
         -2   -1    0    0    0  501 -0.00000000000E+00  0.00000000000E+00  0.24095044962E+02  0.24095044962E+02  0.00000000000E+00 0.  1.
          2   -1    0    0  501    0  0.00000000000E+00 -0.00000000000E+00 -0.97132677444E+03  0.97132677444E+03  0.00000000000E+00 0. -1.
         25    2    1    2    0    0 -0.75888164120E+02  0.21575481515E+02 -0.74243725826E+03  0.75702391894E+03  0.12509043342E+03 0.  0.
         23    2    1    2    0    0  0.75888164120E+02 -0.21575481515E+02 -0.20479447121E+03  0.23839790046E+03  0.93103537248E+02 0.  0.
          5    1    3    3  502    0  0.44989296394E+01  0.45526537894E+02 -0.11257709687E+03  0.12158939575E+03  0.41800000000E+01 0.  1.
         -5    1    3    3    0  502 -0.80387093760E+02 -0.23951056379E+02 -0.62986016139E+03  0.63543452318E+03  0.41800000000E+01 0.  1.
        -11    1    4    4    0    0  0.24002027295E+02 -0.30470898865E+02 -0.17212511860E+03  0.17644157516E+03  0.00000000000E+00 0. -1.
         11    1    4    4    0    0  0.51886136826E+02  0.88954173507E+01 -0.32669352614E+02  0.61956325301E+02  0.00000000000E+00 0.  1.
</event>
<event>
 8    1  0.7224195E-009  0.1093587E+03  0.7561462E-02  0.1261762E+00
          2   -1    0    0  501    0  0.00000000000E+00  0.00000000000E+00  0.68857106419E+03  0.68857106419E+03  0.00000000000E+00 0. -1.
         -2   -1    0    0    0  501 -0.00000000000E+00 -0.00000000000E+00 -0.25608761526E+02  0.25608761526E+02  0.00000000000E+00 0.  1.
         25    2    1    2    0    0  0.42847359305E+02 -0.37040469098E+02  0.22724268847E+03  0.26550602848E+03  0.12508524751E+03 0.  0.
         23    2    1    2    0    0 -0.42847359305E+02  0.37040469098E+02  0.43571961419E+03  0.44867379723E+03  0.90822362796E+02 0.  0.
          5    1    3    3  502    0 -0.31043477348E+02 -0.17251109537E+02  0.15879990276E+03  0.16277647183E+03  0.41800000000E+01 0. -1.
         -5    1    3    3    0  502  0.73890836652E+02 -0.19789359561E+02  0.68442785718E+02  0.10272955665E+03  0.41800000000E+01 0. -1.
        -11    1    4    4    0    0 -0.34543442264E+02 -0.25703684879E+02  0.15202193084E+03  0.15800188694E+03  0.00000000000E+00 0.  1.
         11    1    4    4    0    0 -0.83039170403E+01  0.62744153977E+02  0.28369768335E+03  0.29067191029E+03  0.00000000000E+00 0. -1.
</event>
<event>
 8    1  0.7224195E-009  0.2407757E+03  0.7561462E-02  0.1119277E+00
         -1   -1    0    0    0  501 -0.00000000000E+00  0.00000000000E+00  0.67130075384E+03  0.67130075384E+03  0.00000000000E+00 0.  1.
          1   -1    0    0  501    0  0.00000000000E+00 -0.00000000000E+00 -0.10732263743E+03  0.10732263743E+03  0.00000000000E+00 0. -1.
         25    2    1    2    0    0 -0.19606994261E+03  0.11691494293E+03  0.41890931001E+03  0.49319837320E+03  0.12508836492E+03 0.  0.
         23    2    1    2    0    0  0.19606994261E+03 -0.11691494293E+03  0.14506880640E+03  0.28542501807E+03  0.91158960477E+02 0.  0.
          5    1    3    3  502    0 -0.14692741633E+03  0.55621314090E+02  0.36620531835E+03  0.39850370617E+03  0.41800000000E+01 0.  1.
         -5    1    3    3    0  502 -0.49142526286E+02  0.61293628836E+02  0.52703991662E+02  0.94694667024E+02  0.41800000000E+01 0.  1.
        -11    1    4    4    0    0  0.16746509212E+03 -0.52927533579E+02  0.10018310185E+03  0.20219429958E+03  0.00000000000E+00 0.  1.
         11    1    4    4    0    0  0.28604850496E+02 -0.63987409347E+02  0.44885704551E+02  0.83230718487E+02  0.00000000000E+00 0. -1.
</event>
<event>
 8    1  0.7224195E-009  0.1577115E+03  0.7561462E-02  0.1191305E+00
          1   -1    0    0  501    0  0.00000000000E+00  0.00000000000E+00  0.58047240119E+03  0.58047240119E+03  0.00000000000E+00 0. -1.
         -1   -1    0    0    0  501 -0.00000000000E+00 -0.00000000000E+00 -0.45530502466E+02  0.45530502466E+02  0.00000000000E+00 0.  1.
         25    2    1    2    0    0  0.10755968503E+03  0.53390726128E+02  0.31244779797E+03  0.35733866258E+03  0.12509051859E+03 0.  0.
         23    2    1    2    0    0 -0.10755968503E+03 -0.53390726128E+02  0.22249410076E+03  0.26866424108E+03  0.90869104093E+02 0.  0.
          5    1    3    3  502    0  0.22813120261E+02  0.78878057606E+02  0.11983553752E+03  0.14532795629E+03  0.41800000000E+01 0.  1.
         -5    1    3    3    0  502  0.84746564774E+02 -0.25487331478E+02  0.19261226045E+03  0.21201070629E+03  0.41800000000E+01 0.  1.
        -11    1    4    4    0    0 -0.68130020665E+02  0.11093427671E+02  0.14403152603E+03  0.15971801509E+03  0.00000000000E+00 0.  1.
         11    1    4    4    0    0 -0.39429664370E+02 -0.64484153799E+02  0.78462574727E+02  0.10894622598E+03  0.00000000000E+00 0. -1.
</event>
<event>
 8    1  0.7224195E-009  0.1257448E+03  0.7561462E-02  0.1233910E+00
          2   -1    0    0  501    0  0.00000000000E+00  0.00000000000E+00  0.24315725632E+04  0.24315725632E+04  0.00000000000E+00 0. -1.
         -2   -1    0    0    0  501 -0.00000000000E+00 -0.00000000000E+00 -0.91026922277E+01  0.91026922277E+01  0.00000000000E+00 0.  1.
         25    2    1    2    0    0  0.33754449452E+02  0.53320784946E+02  0.19588720568E+04  0.19638763420E+04  0.12509229622E+03 0.  0.
         23    2    1    2    0    0 -0.33754449452E+02 -0.53320784946E+02  0.46359781413E+03  0.47679891344E+03  0.91824842103E+02 0.  0.
          5    1    3    3  502    0  0.75446129417E+02  0.61481581192E+02  0.13532136840E+04  0.13567154639E+04  0.41800000000E+01 0. -1.
         -5    1    3    3    0  502 -0.41691679965E+02 -0.81607962463E+01  0.60565837288E+03  0.60716087803E+03  0.41800000000E+01 0. -1.
        -11    1    4    4    0    0 -0.32541421883E+02  0.19908105573E+02  0.16426585617E+03  0.16863732775E+03  0.00000000000E+00 0. -1.
         11    1    4    4    0    0 -0.12130275682E+01 -0.73228890519E+02  0.29933195796E+03  0.30816158570E+03  0.00000000000E+00 0.  1.
</event>
<event>
 8    1  0.7224195E-009  0.1147068E+03  0.7561462E-02  0.1252094E+00
         -1   -1    0    0    0  501 -0.00000000000E+00  0.00000000000E+00  0.26999135436E+03  0.26999135436E+03  0.00000000000E+00 0.  1.
          1   -1    0    0  501    0  0.00000000000E+00 -0.00000000000E+00 -0.66090149039E+02  0.66090149039E+02  0.00000000000E+00 0. -1.
         25    2    1    2    0    0 -0.72403278691E+02 -0.22323073318E+02  0.91905450747E+02  0.17272615058E+03  0.12508859600E+03 0.  0.
         23    2    1    2    0    0  0.72403278691E+02  0.22323073318E+02  0.11199575458E+03  0.16335535283E+03  0.91658976025E+02 0.  0.
          5    1    3    3  502    0 -0.40574877652E+02 -0.52722520810E+02  0.10695195230E+03  0.12602451110E+03  0.41800000000E+01 0.  1.
         -5    1    3    3    0  502 -0.31828401039E+02  0.30399447492E+02 -0.15046501557E+02  0.46701639474E+02  0.41800000000E+01 0.  1.
        -11    1    4    4    0    0  0.26907945252E+02  0.55873142347E+02  0.52083604101E+02  0.80984858891E+02  0.00000000000E+00 0.  1.
         11    1    4    4    0    0  0.45495333439E+02 -0.33550069028E+02  0.59912150476E+02  0.82370493935E+02  0.00000000000E+00 0. -1.
</event>
<event>
 8    1  0.7224195E-009  0.9494761E+02  0.7561462E-02  0.1291294E+00
          1   -1    0    0  501    0  0.00000000000E+00  0.00000000000E+00  0.16040041823E+03  0.16040041823E+03  0.00000000000E+00 0. -1.
         -1   -1    0    0    0  501 -0.00000000000E+00 -0.00000000000E+00 -0.11218125506E+03  0.11218125506E+03  0.00000000000E+00 0.  1.
         25    2    1    2    0    0  0.36976929343E+02 -0.49140694976E+02 -0.22341184816E+02  0.14117137967E+03  0.12509248056E+03 0.  0.
         23    2    1    2    0    0 -0.36976929343E+02  0.49140694976E+02  0.70560347989E+02  0.13141029362E+03  0.92237743654E+02 0.  0.
          5    1    3    3  502    0  0.57796248396E+02 -0.25935081082E+01 -0.55438278443E+02  0.80237196671E+02  0.41800000000E+01 0.  1.
         -5    1    3    3    0  502 -0.20819319053E+02 -0.46547186868E+02  0.33097093627E+02  0.60934182999E+02  0.41800000000E+01 0.  1.
        -11    1    4    4    0    0 -0.50292563174E+02  0.34800837295E+02  0.31754907184E+01  0.61241521277E+02  0.00000000000E+00 0.  1.
         11    1    4    4    0    0  0.13315633831E+02  0.14339857681E+02  0.67384857271E+02  0.70168772343E+02  0.00000000000E+00 0. -1.
</event>
<event>
 8    1  0.7224195E-009  0.1244351E+03  0.7561462E-02  0.1235955E+00
         -2   -1    0    0    0  501 -0.00000000000E+00  0.00000000000E+00  0.19819225692E+03  0.19819225692E+03  0.00000000000E+00 0.  1.
          2   -1    0    0  501    0  0.00000000000E+00 -0.00000000000E+00 -0.16439793853E+03  0.16439793853E+03  0.00000000000E+00 0. -1.
         25    2    1    2    0    0 -0.75910275019E+02 -0.26779884383E+02  0.13818860511E+03  0.20303191108E+03  0.12508530800E+03 0.  0.
         23    2    1    2    0    0  0.75910275019E+02  0.26779884383E+02 -0.10439428672E+03  0.15955828437E+03  0.89895199807E+02 0.  0.
          5    1    3    3  502    0  0.30531286332E+01  0.41475627232E+02  0.57258269679E+02  0.70890980352E+02  0.41800000000E+01 0.  1.
         -5    1    3    3    0  502 -0.78963403652E+02 -0.68255511615E+02  0.80930335427E+02  0.13214093073E+03  0.41800000000E+01 0.  1.
        -11    1    4    4    0    0  0.45822990532E+02 -0.17524502403E+02 -0.85967135065E+01  0.49807209608E+02  0.00000000000E+00 0.  1.
         11    1    4    4    0    0  0.30087284487E+02  0.44304386786E+02 -0.95797573218E+02  0.10975107476E+03  0.00000000000E+00 0. -1.
</event>
<event>
 8    1  0.7224195E-009  0.1261901E+03  0.7561462E-02  0.1233221E+00
         -2   -1    0    0    0  501 -0.00000000000E+00  0.00000000000E+00  0.67303136681E+02  0.67303136681E+02  0.00000000000E+00 0.  1.
          2   -1    0    0  501    0  0.00000000000E+00 -0.00000000000E+00 -0.36820910019E+03  0.36820910019E+03  0.00000000000E+00 0. -1.
         25    2    1    2    0    0 -0.88152668507E+02 -0.41683204120E+02 -0.25043182185E+03  0.29643457616E+03  0.12509587554E+03 0.  0.
         23    2    1    2    0    0  0.88152668507E+02  0.41683204120E+02 -0.50474141659E+02  0.13907766071E+03  0.85361433108E+02 0.  0.
          5    1    3    3  502    0 -0.85410493526E+02 -0.59573474637E+02 -0.25652336715E+03  0.27688564711E+03  0.41800000000E+01 0. -1.
         -5    1    3    3    0  502 -0.27421749818E+01  0.17890270517E+02  0.60915452959E+01  0.19548929047E+02  0.41800000000E+01 0. -1.
        -11    1    4    4    0    0  0.47579713895E+02 -0.23299021451E+02 -0.21435233758E+02  0.57150177788E+02  0.00000000000E+00 0.  1.
         11    1    4    4    0    0  0.40572954613E+02  0.64982225572E+02 -0.29038907901E+02  0.81927482924E+02  0.00000000000E+00 0. -1.
</event>
<event>
 8    1  0.7224195E-009  0.1171243E+03  0.7561462E-02  0.1247918E+00
         -1   -1    0    0    0  501 -0.00000000000E+00  0.00000000000E+00  0.73767442441E+02  0.73767442441E+02  0.00000000000E+00 0.  1.
          1   -1    0    0  501    0  0.00000000000E+00 -0.00000000000E+00 -0.29771769990E+03  0.29771769990E+03  0.00000000000E+00 0. -1.
         25    2    1    2    0    0  0.43304893872E+02  0.82895781099E+02 -0.75197349719E+02  0.17334807820E+03  0.12509152830E+03 0.  0.
         23    2    1    2    0    0 -0.43304893872E+02 -0.82895781099E+02 -0.14875290774E+03  0.19813706415E+03  0.91563334747E+02 0.  0.
          5    1    3    3  502    0  0.67988360068E+02  0.68338209254E+02 -0.40960185177E+01  0.96575243807E+02  0.41800000000E+01 0. -1.
         -5    1    3    3    0  502 -0.24683466196E+02  0.14557571844E+02 -0.71101331201E+02  0.76772834388E+02  0.41800000000E+01 0. -1.
        -11    1    4    4    0    0 -0.39188212896E+02 -0.16901031226E+02 -0.91226248861E+01  0.43641530350E+02  0.00000000000E+00 0.  1.
         11    1    4    4    0    0 -0.41166809764E+01 -0.65994749872E+02 -0.13963028285E+03  0.15449553379E+03  0.00000000000E+00 0. -1.
</event>
<event>
 8    1  0.7224195E-009  0.1217473E+03  0.7561462E-02  0.1240242E+00
          1   -1    0    0  501    0  0.00000000000E+00  0.00000000000E+00  0.56403539564E+02  0.56403539564E+02  0.00000000000E+00 0. -1.
         -1   -1    0    0    0  501 -0.00000000000E+00 -0.00000000000E+00 -0.28637332641E+03  0.28637332641E+03  0.00000000000E+00 0.  1.
         25    2    1    2    0    0  0.26290400273E+02 -0.58333311524E+02 -0.10730289368E+03  0.17679169336E+03  0.12508969370E+03 0.  0.
         23    2    1    2    0    0 -0.26290400273E+02  0.58333311524E+02 -0.12266689316E+03  0.16598517261E+03  0.91705782086E+02 0.  0.
          5    1    3    3  502    0 -0.46428822202E+02 -0.17760195457E+01 -0.49172772155E+02  0.67780702991E+02  0.41800000000E+01 0.  1.
         -5    1    3    3    0  502  0.72719222475E+02 -0.56557291978E+02 -0.58130121525E+02  0.10901099037E+03  0.41800000000E+01 0.  1.
        -11    1    4    4    0    0 -0.56529494406E+02  0.40204030576E+02 -0.10673324767E+03  0.12729467377E+03  0.00000000000E+00 0.  1.
         11    1    4    4    0    0  0.30239094133E+02  0.18129280947E+02 -0.15933645494E+02  0.38690498839E+02  0.00000000000E+00 0. -1.
</event>
<event>
 8    1  0.7224195E-009  0.8786825E+02  0.7561462E-02  0.1308098E+00
          3   -1    0    0  501    0  0.00000000000E+00  0.00000000000E+00  0.24512667954E+02  0.24512667954E+02  0.00000000000E+00 0. -1.
         -3   -1    0    0    0  501 -0.00000000000E+00 -0.00000000000E+00 -0.53526308446E+03  0.53526308446E+03  0.00000000000E+00 0.  1.
         25    2    1    2    0    0 -0.34063572626E+02  0.23307333736E+01 -0.32599519188E+03  0.35083747802E+03  0.12509321147E+03 0.  0.
         23    2    1    2    0    0  0.34063572626E+02 -0.23307333736E+01 -0.18475522463E+03  0.20893827440E+03  0.91405416591E+02 0.  0.
          5    1    3    3  502    0 -0.36618711402E+02  0.45636189835E+02 -0.28510277883E+03  0.29107500536E+03  0.41800000000E+01 0. -1.
         -5    1    3    3    0  502  0.25551387762E+01 -0.43305456461E+02 -0.40892413045E+02  0.59762472658E+02  0.41800000000E+01 0. -1.
        -11    1    4    4    0    0  0.41989349682E+02 -0.25418675166E+02 -0.17645611214E+03  0.18315560064E+03  0.00000000000E+00 0.  1.
         11    1    4    4    0    0 -0.79257770562E+01  0.23087941792E+02 -0.82991124933E+01  0.25782673762E+02  0.00000000000E+00 0. -1.
</event>
<event>
 8    1  0.7224195E-009  0.1089231E+03  0.7561462E-02  0.1262577E+00
          1   -1    0    0  501    0  0.00000000000E+00  0.00000000000E+00  0.12491775876E+03  0.12491775876E+03  0.00000000000E+00 0. -1.
         -1   -1    0    0    0  501 -0.00000000000E+00 -0.00000000000E+00 -0.17144827753E+03  0.17144827753E+03  0.00000000000E+00 0.  1.
         25    2    1    2    0    0  0.97816554121E+02  0.10826160306E+01 -0.19470434786E+02  0.15998717267E+03  0.12509015657E+03 0.  0.
         23    2    1    2    0    0 -0.97816554121E+02 -0.10826160306E+01 -0.27060083987E+02  0.13637886363E+03  0.91091689968E+02 0.  0.
          5    1    3    3  502    0  0.91383984063E+02 -0.54048041655E+01  0.39772929935E+02  0.99897961976E+02  0.41800000000E+01 0. -1.
         -5    1    3    3    0  502  0.64325700578E+01  0.64874201960E+01 -0.59243364721E+02  0.60089210694E+02  0.41800000000E+01 0. -1.
        -11    1    4    4    0    0  0.29989804484E+01 -0.14183612943E+02  0.19714858361E+02  0.24471297474E+02  0.00000000000E+00 0. -1.
         11    1    4    4    0    0 -0.10081553457E+03  0.13100996913E+02 -0.46774942348E+02  0.11190756615E+03  0.00000000000E+00 0.  1.
</event>
<event>
 8    1  0.7224195E-009  0.1555718E+03  0.7561462E-02  0.1193789E+00
          2   -1    0    0  501    0  0.00000000000E+00  0.00000000000E+00  0.24171188257E+03  0.24171188257E+03  0.00000000000E+00 0. -1.
         -2   -1    0    0    0  501 -0.00000000000E+00 -0.00000000000E+00 -0.13917380955E+03  0.13917380955E+03  0.00000000000E+00 0.  1.
         25    2    1    2    0    0  0.11673196713E+02  0.12577858683E+03 -0.25226231582E+02  0.17955576067E+03  0.12508953595E+03 0.  0.
         23    2    1    2    0    0 -0.11673196713E+02 -0.12577858683E+03  0.12776430460E+03  0.20132993145E+03  0.90848815851E+02 0.  0.
          5    1    3    3  502    0 -0.41314640504E+02  0.89768960036E+02 -0.49891344834E+02  0.11077898896E+03  0.41800000000E+01 0.  1.
         -5    1    3    3    0  502  0.52987837218E+02  0.36009626796E+02  0.24665113251E+02  0.68776771709E+02  0.41800000000E+01 0.  1.
        -11    1    4    4    0    0 -0.42295181339E+02 -0.45544857101E+02  0.23976736316E+02  0.66619068271E+02  0.00000000000E+00 0.  1.
         11    1    4    4    0    0  0.30621984626E+02 -0.80233729731E+02  0.10378756828E+03  0.13471086318E+03  0.00000000000E+00 0. -1.
</event>
<event>
 8    1  0.7224195E-009  0.1150521E+03  0.7561462E-02  0.1251490E+00
          1   -1    0    0  501    0  0.00000000000E+00  0.00000000000E+00  0.80776631302E+03  0.80776631302E+03  0.00000000000E+00 0. -1.
         -1   -1    0    0    0  501 -0.00000000000E+00 -0.00000000000E+00 -0.26069735664E+02  0.26069735664E+02  0.00000000000E+00 0.  1.
         25    2    1    2    0    0 -0.68934500868E+02 -0.65453338924E+02  0.38830501295E+03  0.41888465604E+03  0.12508983572E+03 0.  0.
         23    2    1    2    0    0  0.68934500868E+02  0.65453338924E+02  0.39339156441E+03  0.41495139264E+03  0.91605842182E+02 0.  0.
          5    1    3    3  502    0 -0.68991234095E+02 -0.61361895139E+02  0.12471666475E+03  0.15523141249E+03  0.41800000000E+01 0. -1.
         -5    1    3    3    0  502  0.56733227100E-01 -0.40914437857E+01  0.26358834820E+03  0.26365324355E+03  0.41800000000E+01 0. -1.
        -11    1    4    4    0    0  0.61559544926E+02 -0.42786086791E+01  0.17321386538E+03  0.18387747884E+03  0.00000000000E+00 0. -1.
         11    1    4    4    0    0  0.73749559424E+01  0.69731947603E+02  0.22017769903E+03  0.23107391380E+03  0.00000000000E+00 0.  1.
</event>
<event>
 8    1  0.7224195E-009  0.8786481E+02  0.7561462E-02  0.1308106E+00
         -1   -1    0    0    0  501 -0.00000000000E+00  0.00000000000E+00  0.11083899623E+03  0.11083899623E+03  0.00000000000E+00 0.  1.
          1   -1    0    0  501    0  0.00000000000E+00 -0.00000000000E+00 -0.16681189454E+03  0.16681189454E+03  0.00000000000E+00 0. -1.
         25    2    1    2    0    0  0.13242861564E+02 -0.21240915038E+01  0.51079081476E+02  0.13578053344E+03  0.12508955012E+03 0.  0.
         23    2    1    2    0    0 -0.13242861564E+02  0.21240915038E+01 -0.10705197978E+03  0.14187035734E+03  0.92125928860E+02 0.  0.
          5    1    3    3  502    0 -0.35813396887E+02  0.20233092071E+02  0.67599173284E+02  0.79240759966E+02  0.41800000000E+01 0. -1.
         -5    1    3    3    0  502  0.49056258451E+02 -0.22357183575E+02 -0.16520091808E+02  0.56539773469E+02  0.41800000000E+01 0. -1.
        -11    1    4    4    0    0 -0.23668241163E+00  0.40135745908E+02 -0.17629509534E+02  0.43837583471E+02  0.00000000000E+00 0.  1.
         11    1    4    4    0    0 -0.13006179152E+02 -0.38011654404E+02 -0.89422470247E+02  0.98032773865E+02  0.00000000000E+00 0. -1.
</event>
<event>
 8    1  0.7224195E-009  0.9879460E+02  0.7561462E-02  0.1282851E+00
          1   -1    0    0  501    0  0.00000000000E+00  0.00000000000E+00  0.42647780021E+03  0.42647780021E+03  0.00000000000E+00 0. -1.
         -1   -1    0    0    0  501 -0.00000000000E+00 -0.00000000000E+00 -0.41794774277E+02  0.41794774277E+02  0.00000000000E+00 0.  1.
         25    2    1    2    0    0  0.73527348925E+02  0.25282006058E+02  0.21539834181E+03  0.26093838340E+03  0.12508774283E+03 0.  0.
         23    2    1    2    0    0 -0.73527348925E+02 -0.25282006058E+02  0.16928468412E+03  0.20733419109E+03  0.91020391372E+02 0.  0.
          5    1    3    3  502    0  0.35513669982E+02 -0.28418422950E+02  0.18080927911E+03  0.18648939737E+03  0.41800000000E+01 0.  1.
         -5    1    3    3    0  502  0.38013678944E+02  0.53700429008E+02  0.34589062699E+02  0.74448986030E+02  0.41800000000E+01 0.  1.
        -11    1    4    4    0    0 -0.31192236360E+02 -0.30139176551E+02  0.12906164343E+02  0.45253670021E+02  0.00000000000E+00 0.  1.
         11    1    4    4    0    0 -0.42335112565E+02  0.48571704934E+01  0.15637851978E+03  0.16208052107E+03  0.00000000000E+00 0. -1.
</event>
<event>
 8    1  0.7224195E-009  0.1291158E+03  0.7561462E-02  0.1228774E+00
         -1   -1    0    0    0  501 -0.00000000000E+00  0.00000000000E+00  0.30207404104E+02  0.30207404104E+02  0.00000000000E+00 0.  1.
          1   -1    0    0  501    0  0.00000000000E+00 -0.00000000000E+00 -0.11128024951E+04  0.11128024951E+04  0.00000000000E+00 0. -1.
         25    2    1    2    0    0 -0.19083135211E+02 -0.11697088801E+03 -0.86406413054E+03  0.88107864225E+03  0.12508556047E+03 0.  0.
         23    2    1    2    0    0  0.19083135211E+02  0.11697088801E+03 -0.21853096043E+03  0.26193125693E+03  0.82497563608E+02 0.  0.
          5    1    3    3  502    0  0.13831064171E+02 -0.89047292705E+02 -0.79090142524E+03  0.79602968256E+03  0.41800000000E+01 0. -1.
         -5    1    3    3    0  502 -0.32914199382E+02 -0.27923595308E+02 -0.73162705303E+02  0.85048959682E+02  0.41800000000E+01 0. -1.
        -11    1    4    4    0    0 -0.52833963171E+01  0.81207889923E+02 -0.70387809100E+02  0.10759683700E+03  0.00000000000E+00 0.  1.
         11    1    4    4    0    0  0.24366531528E+02  0.35762998090E+02 -0.14814315133E+03  0.15433441993E+03  0.00000000000E+00 0. -1.
</event>
<event>
 8    1  0.7224195E-009  0.1279365E+03  0.7561462E-02  0.1230550E+00
         -2   -1    0    0    0  501 -0.00000000000E+00  0.00000000000E+00  0.28101794555E+02  0.28101794555E+02  0.00000000000E+00 0. -1.
          2   -1    0    0  501    0  0.00000000000E+00 -0.00000000000E+00 -0.67886857935E+03  0.67886857935E+03  0.00000000000E+00 0.  1.
         25    2    1    2    0    0 -0.83680264953E+02 -0.14744137359E+02 -0.33059397068E+03  0.36353599293E+03  0.12508504456E+03 0.  0.
         23    2    1    2    0    0  0.83680264953E+02  0.14744137359E+02 -0.32017281411E+03  0.34343438097E+03  0.90646383329E+02 0.  0.
          5    1    3    3  502    0  0.75750423707E+01 -0.50788402756E+02 -0.90554510885E+02  0.10418461961E+03  0.41800000000E+01 0.  1.
         -5    1    3    3    0  502 -0.91255307324E+02  0.36044265396E+02 -0.24003945980E+03  0.25935137332E+03  0.41800000000E+01 0.  1.
        -11    1    4    4    0    0  0.93784999527E+02  0.82737518265E+01 -0.31746806453E+03  0.33113449398E+03  0.00000000000E+00 0.  1.
         11    1    4    4    0    0 -0.10104734574E+02  0.64703855327E+01 -0.27047495759E+01  0.12299886992E+02  0.00000000000E+00 0. -1.
</event>
<event>
 8    1  0.7224195E-009  0.9900676E+02  0.7561462E-02  0.1282399E+00
         -2   -1    0    0    0  501 -0.00000000000E+00  0.00000000000E+00  0.56235878359E+02  0.56235878359E+02  0.00000000000E+00 0.  1.
          2   -1    0    0  501    0  0.00000000000E+00 -0.00000000000E+00 -0.24590309107E+03  0.24590309107E+03  0.00000000000E+00 0. -1.
         25    2    1    2    0    0  0.46733972579E+02  0.48134892300E+01 -0.12027262095E+03  0.17977737234E+03  0.12508863412E+03 0.  0.
         23    2    1    2    0    0 -0.46733972579E+02 -0.48134892300E+01 -0.69394591765E+02  0.12236159709E+03  0.89160065075E+02 0.  0.
          5    1    3    3  502    0  0.70760254457E+02 -0.54471958380E+01 -0.16901555023E+02  0.73074075537E+02  0.41800000000E+01 0.  1.
         -5    1    3    3    0  502 -0.24026281878E+02  0.10260685068E+02 -0.10337106592E+03  0.10670329681E+03  0.41800000000E+01 0.  1.
        -11    1    4    4    0    0  0.18127936689E+02  0.23509467482E+02 -0.25027247293E+02  0.38828858558E+02  0.00000000000E+00 0. -1.
         11    1    4    4    0    0 -0.64861909268E+02 -0.28322956712E+02 -0.44367344473E+02  0.83532738530E+02  0.00000000000E+00 0.  1.
</event>
<event>
 8    1  0.7224195E-009  0.1515453E+03  0.7561462E-02  0.1198587E+00
         -2   -1    0    0    0  501 -0.00000000000E+00  0.00000000000E+00  0.38832950017E+03  0.38832950017E+03  0.00000000000E+00 0.  1.
          2   -1    0    0  501    0  0.00000000000E+00 -0.00000000000E+00 -0.73834036402E+02  0.73834036402E+02  0.00000000000E+00 0. -1.
         25    2    1    2    0    0 -0.33514593067E+02 -0.11548632785E+03  0.10012129588E+03  0.20032945179E+03  0.12508915020E+03 0.  0.
         23    2    1    2    0    0  0.33514593067E+02  0.11548632785E+03  0.21437416789E+03  0.26183408478E+03  0.90224632035E+02 0.  0.
          5    1    3    3  502    0  0.43694847291E+02 -0.20112950119E+02  0.13714619536E+02  0.50192963962E+02  0.41800000000E+01 0.  1.
         -5    1    3    3    0  502 -0.77209440358E+02 -0.95373377733E+02  0.86406676344E+02  0.15013648783E+03  0.41800000000E+01 0.  1.
        -11    1    4    4    0    0  0.34571655128E+02  0.27873477718E+02  0.14010012715E+03  0.14696998240E+03  0.00000000000E+00 0.  1.
         11    1    4    4    0    0 -0.10570620609E+01  0.87612850134E+02  0.74274040738E+02  0.11486410238E+03  0.00000000000E+00 0. -1.
</event>
<event>
 8    1  0.7224195E-009  0.2518261E+03  0.7561462E-02  0.1112156E+00
          4   -1    0    0  501    0  0.00000000000E+00  0.00000000000E+00  0.54507499795E+03  0.54507499795E+03  0.00000000000E+00 0. -1.
         -4   -1    0    0    0  501 -0.00000000000E+00 -0.00000000000E+00 -0.13259869463E+03  0.13259869463E+03  0.00000000000E+00 0.  1.
         25    2    1    2    0    0 -0.18080783639E+03  0.16646189095E+03  0.21455101969E+03  0.34940046218E+03  0.12508999993E+03 0.  0.
         23    2    1    2    0    0  0.18080783639E+03 -0.16646189095E+03  0.19792528364E+03  0.32827323040E+03  0.90486800457E+02 0.  0.
          5    1    3    3  502    0 -0.63631845612E+02  0.10040379186E+03  0.17031772452E+03  0.20773909810E+03  0.41800000000E+01 0.  1.
         -5    1    3    3    0  502 -0.11717599078E+03  0.66058099089E+02  0.44233295171E+02  0.14166136407E+03  0.41800000000E+01 0.  1.
        -11    1    4    4    0    0  0.11905437655E+03 -0.13763113681E+03  0.18384900970E+03  0.25868268740E+03  0.00000000000E+00 0.  1.
         11    1    4    4    0    0  0.61753459842E+02 -0.28830754145E+02  0.14076273936E+02  0.69590542999E+02  0.00000000000E+00 0. -1.
</event>
<event>
 8    1  0.7224195E-009  0.1549687E+03  0.7561462E-02  0.1194497E+00
         -4   -1    0    0    0  501 -0.00000000000E+00  0.00000000000E+00  0.61078795910E+02  0.61078795910E+02  0.00000000000E+00 0. -1.
          4   -1    0    0  501    0  0.00000000000E+00 -0.00000000000E+00 -0.50707902136E+03  0.50707902136E+03  0.00000000000E+00 0.  1.
         25    2    1    2    0    0 -0.13022285362E+03  0.27633958494E+02 -0.17431715086E+03  0.25249944716E+03  0.12509146439E+03 0.  0.
         23    2    1    2    0    0  0.13022285362E+03 -0.27633958494E+02 -0.27168307458E+03  0.31565837011E+03  0.90038249320E+02 0.  0.
          5    1    3    3  502    0  0.29688498679E+01 -0.30645793904E+02 -0.90844590142E+01  0.32372496801E+02  0.41800000000E+01 0. -1.
         -5    1    3    3    0  502 -0.13319170348E+03  0.58279752398E+02 -0.16523269185E+03  0.22012695035E+03  0.41800000000E+01 0. -1.
        -11    1    4    4    0    0  0.85225959401E+02 -0.13725773554E+02 -0.24869363772E+03  0.26324966564E+03  0.00000000000E+00 0.  1.
         11    1    4    4    0    0  0.44996894215E+02 -0.13908184941E+02 -0.22989436861E+02  0.52408704473E+02  0.00000000000E+00 0. -1.
</event>
<event>
 8    1  0.7224195E-009  0.1383224E+03  0.7561462E-02  0.1215604E+00
          3   -1    0    0  501    0  0.00000000000E+00  0.00000000000E+00  0.73986889311E+02  0.73986889311E+02  0.00000000000E+00 0. -1.
         -3   -1    0    0    0  501 -0.00000000000E+00 -0.00000000000E+00 -0.36320192672E+03  0.36320192672E+03  0.00000000000E+00 0.  1.
         25    2    1    2    0    0 -0.10606638114E+03  0.61429359474E+02 -0.14896870822E+03  0.22991815057E+03  0.12508811503E+03 0.  0.
         23    2    1    2    0    0  0.10606638114E+03 -0.61429359474E+02 -0.14024632919E+03  0.20727066546E+03  0.90931031533E+02 0.  0.
          5    1    3    3  502    0 -0.90594623885E+02  0.45180509520E+01 -0.14445159515E+03  0.17062102568E+03  0.41800000000E+01 0.  1.
         -5    1    3    3    0  502 -0.15471757252E+02  0.56911308522E+02 -0.45171130643E+01  0.59297124893E+02  0.41800000000E+01 0.  1.
        -11    1    4    4    0    0  0.41126249033E+02 -0.42347053139E+02 -0.91548905856E+01  0.59736532296E+02  0.00000000000E+00 0. -1.
         11    1    4    4    0    0  0.64940132104E+02 -0.19082306335E+02 -0.13109143861E+03  0.14753413316E+03  0.00000000000E+00 0.  1.
</event>
<event>
 8    1  0.7224195E-009  0.9442046E+02  0.7561462E-02  0.1292487E+00
         -1   -1    0    0    0  501 -0.00000000000E+00  0.00000000000E+00  0.47784130455E+02  0.47784130455E+02  0.00000000000E+00 0.  1.
          1   -1    0    0  501    0  0.00000000000E+00 -0.00000000000E+00 -0.29962881765E+03  0.29962881765E+03  0.00000000000E+00 0. -1.
         25    2    1    2    0    0  0.48240742538E+02 -0.17147008973E+02 -0.11586327654E+03  0.17802846278E+03  0.12509454645E+03 0.  0.
         23    2    1    2    0    0 -0.48240742538E+02  0.17147008973E+02 -0.13598141066E+03  0.16938448533E+03  0.87057283832E+02 0.  0.
          5    1    3    3  502    0 -0.42221442084E+02 -0.13490418060E+02 -0.37031602130E+02  0.57909010589E+02  0.41800000000E+01 0. -1.
         -5    1    3    3    0  502  0.90462184622E+02 -0.36565909136E+01 -0.78831674406E+02  0.12011945219E+03  0.41800000000E+01 0. -1.
        -11    1    4    4    0    0 -0.32383311658E+02  0.31498165295E+01 -0.14334261776E+03  0.14698879645E+03  0.00000000000E+00 0. -1.
         11    1    4    4    0    0 -0.15857430880E+02  0.13997192444E+02  0.73612070934E+01  0.22395688877E+02  0.00000000000E+00 0.  1.
</event>
<event>
 8    1  0.7224195E-009  0.1034201E+03  0.7561462E-02  0.1273264E+00
         -2   -1    0    0    0  501 -0.00000000000E+00  0.00000000000E+00  0.68933047152E+02  0.68933047152E+02  0.00000000000E+00 0.  1.
          2   -1    0    0  501    0  0.00000000000E+00 -0.00000000000E+00 -0.23258925796E+03  0.23258925796E+03  0.00000000000E+00 0. -1.
         25    2    1    2    0    0  0.18392114602E+02 -0.33701275103E+02 -0.33793692484E+02  0.13514317155E+03  0.12509043665E+03 0.  0.
         23    2    1    2    0    0 -0.18392114602E+02  0.33701275103E+02 -0.12986251832E+03  0.16637913356E+03  0.96662798408E+02 0.  0.
          5    1    3    3  502    0 -0.11668522025E+02 -0.62263494201E+02  0.20486546622E+02  0.66708830816E+02  0.41800000000E+01 0.  1.
         -5    1    3    3    0  502  0.30060636627E+02  0.28562219098E+02 -0.54280239106E+02  0.68434340734E+02  0.41800000000E+01 0.  1.
        -11    1    4    4    0    0 -0.18014932957E+02 -0.31601005395E+02 -0.30458363495E+02  0.47443368960E+02  0.00000000000E+00 0.  1.
         11    1    4    4    0    0 -0.37718164505E+00  0.65302280498E+02 -0.99404154828E+02  0.11893576460E+03  0.00000000000E+00 0. -1.
</event>
<event>
 8    1  0.7224195E-009  0.7503247E+02  0.7561462E-02  0.1343770E+00
          1   -1    0    0  501    0  0.00000000000E+00  0.00000000000E+00  0.17068807505E+03  0.17068807505E+03  0.00000000000E+00 0.  1.
         -1   -1    0    0    0  501 -0.00000000000E+00 -0.00000000000E+00 -0.23012119520E+03  0.23012119520E+03  0.00000000000E+00 0. -1.
         25    2    1    2    0    0 -0.35335693102E+02  0.42289592747E+02  0.12702956551E+03  0.18660241768E+03  0.12508769287E+03 0.  0.
         23    2    1    2    0    0  0.35335693102E+02 -0.42289592747E+02 -0.18646268566E+03  0.21420685257E+03  0.89884490787E+02 0.  0.
          5    1    3    3  502    0 -0.53924129532E+02  0.47277494683E+02  0.15683972297E+02  0.73528447803E+02  0.41800000000E+01 0. -1.
         -5    1    3    3    0  502  0.18588436430E+02 -0.49879019363E+01  0.11134559321E+03  0.11307396987E+03  0.41800000000E+01 0. -1.
        -11    1    4    4    0    0  0.30554860141E+02 -0.21903236507E+02 -0.18937079858E+03  0.19306644091E+03  0.00000000000E+00 0. -1.
         11    1    4    4    0    0  0.47808329608E+01 -0.20386356240E+02  0.29081129271E+01  0.21140411664E+02  0.00000000000E+00 0.  1.
</event>
<event>
 8    1  0.7224195E-009  0.8013424E+02  0.7561462E-02  0.1328671E+00
         -2   -1    0    0    0  501 -0.00000000000E+00  0.00000000000E+00  0.17689908247E+03  0.17689908247E+03  0.00000000000E+00 0.  1.
          2   -1    0    0  501    0  0.00000000000E+00 -0.00000000000E+00 -0.94104600341E+02  0.94104600341E+02  0.00000000000E+00 0. -1.
         25    2    1    2    0    0  0.32519888774E+02  0.32855643342E+02  0.10197882538E+03  0.16788169891E+03  0.12509015764E+03 0.  0.
         23    2    1    2    0    0 -0.32519888774E+02 -0.32855643342E+02 -0.19184343256E+02  0.10312198390E+03  0.90161344664E+02 0.  0.
          5    1    3    3  502    0  0.20422817090E+02  0.48722895892E+02  0.12581280464E+03  0.13651866631E+03  0.41800000000E+01 0. -1.
         -5    1    3    3    0  502  0.12097071684E+02 -0.15867252550E+02 -0.23833979251E+02  0.31363032598E+02  0.41800000000E+01 0. -1.
        -11    1    4    4    0    0 -0.46651555351E+02  0.45776325842E+01 -0.36612290692E+02  0.59479258288E+02  0.00000000000E+00 0. -1.
         11    1    4    4    0    0  0.14131666578E+02 -0.37433275926E+02  0.17427947436E+02  0.43642725610E+02  0.00000000000E+00 0.  1.
</event>
<event>
 8    1  0.7224195E-009  0.1201934E+03  0.7561462E-02  0.1242778E+00
          2   -1    0    0  501    0  0.00000000000E+00  0.00000000000E+00  0.20731540171E+03  0.20731540171E+03  0.00000000000E+00 0. -1.
         -2   -1    0    0    0  501 -0.00000000000E+00 -0.00000000000E+00 -0.10708476805E+03  0.10708476805E+03  0.00000000000E+00 0.  1.
         25    2    1    2    0    0  0.70646467117E+02 -0.27908956011E+02 -0.96530370262E+01  0.14666935708E+03  0.12509550768E+03 0.  0.
         23    2    1    2    0    0 -0.70646467117E+02  0.27908956011E+02  0.10988367069E+03  0.16773081268E+03  0.10143653827E+03 0.  0.
          5    1    3    3  502    0 -0.15163627569E+01  0.27681208643E+02 -0.41497996009E+02  0.50080981826E+02  0.41800000000E+01 0.  1.
         -5    1    3    3    0  502  0.72162829874E+02 -0.55590164654E+02  0.31844958982E+02  0.96588375254E+02  0.41800000000E+01 0.  1.
        -11    1    4    4    0    0  0.14165799700E+02 -0.19420740492E+02  0.45710990524E+01  0.24468959703E+02  0.00000000000E+00 0.  1.
         11    1    4    4    0    0 -0.84812266817E+02  0.47329696503E+02  0.10531257164E+03  0.14326185298E+03  0.00000000000E+00 0. -1.
</event>
<event>
 8    1  0.7224195E-009  0.1636543E+03  0.7561462E-02  0.1184632E+00
          2   -1    0    0  501    0  0.00000000000E+00  0.00000000000E+00  0.25980513633E+03  0.25980513633E+03  0.00000000000E+00 0.  1.
         -2   -1    0    0    0  501 -0.00000000000E+00 -0.00000000000E+00 -0.16018275867E+03  0.16018275867E+03  0.00000000000E+00 0. -1.
         25    2    1    2    0    0 -0.15268592858E+03 -0.42972791976E+01 -0.29880101676E+02  0.19968138357E+03  0.12509346535E+03 0.  0.
         23    2    1    2    0    0  0.15268592858E+03  0.42972791976E+01  0.12950247934E+03  0.22030651142E+03  0.91829229690E+02 0.  0.
          5    1    3    3  502    0 -0.13806851876E+03 -0.32945273440E+02  0.16633607240E+02  0.14297711776E+03  0.41800000000E+01 0.  1.
         -5    1    3    3    0  502 -0.14617409825E+02  0.28647994242E+02 -0.46513708916E+02  0.56704265812E+02  0.41800000000E+01 0.  1.
        -11    1    4    4    0    0  0.74951802590E+02  0.51840543806E+01  0.73160123219E+01  0.75486231643E+02  0.00000000000E+00 0. -1.
         11    1    4    4    0    0  0.77734125991E+02 -0.88677518302E+00  0.12218646702E+03  0.14482027978E+03  0.00000000000E+00 0.  1.
</event>
<event>
 8    1  0.7224195E-009  0.9455913E+02  0.7561462E-02  0.1292172E+00
          3   -1    0    0  501    0  0.00000000000E+00  0.00000000000E+00  0.17000120879E+03  0.17000120879E+03  0.00000000000E+00 0. -1.
         -3   -1    0    0    0  501 -0.00000000000E+00 -0.00000000000E+00 -0.91036804399E+02  0.91036804399E+02  0.00000000000E+00 0.  1.
         25    2    1    2    0    0  0.37483503323E+02 -0.74469237137E+01  0.96524751285E+02  0.16255736250E+03  0.12508956310E+03 0.  0.
         23    2    1    2    0    0 -0.37483503323E+02  0.74469237137E+01 -0.17560346894E+02  0.98480650694E+02  0.89048318815E+02 0.  0.
          5    1    3    3  502    0  0.71452868535E+02  0.13260079617E+02  0.98532394721E+02  0.12250488702E+03  0.41800000000E+01 0.  1.
         -5    1    3    3    0  502 -0.33969365212E+02 -0.20707003330E+02 -0.20076434361E+01  0.40052475479E+02  0.41800000000E+01 0.  1.
        -11    1    4    4    0    0 -0.57747800044E+01 -0.28100936769E+02  0.22325787528E+02  0.36351774649E+02  0.00000000000E+00 0. -1.
         11    1    4    4    0    0 -0.31708723319E+02  0.35547860482E+02 -0.39886134423E+02  0.62128876045E+02  0.00000000000E+00 0.  1.
</event>
<event>
 8    1  0.7224195E-009  0.2018866E+03  0.7561462E-02  0.1148157E+00
         -2   -1    0    0    0  501 -0.00000000000E+00  0.00000000000E+00  0.26152468133E+02  0.26152468133E+02  0.00000000000E+00 0. -1.
          2   -1    0    0  501    0  0.00000000000E+00 -0.00000000000E+00 -0.16580754404E+04  0.16580754404E+04  0.00000000000E+00 0.  1.
         25    2    1    2    0    0  0.70290794905E+02  0.16207583776E+03 -0.74490519842E+03  0.77571928342E+03  0.12508908423E+03 0.  0.
         23    2    1    2    0    0 -0.70290794905E+02 -0.16207583776E+03 -0.88701777384E+03  0.90850862511E+03  0.85895388494E+02 0.  0.
          5    1    3    3  502    0  0.60037974421E+01  0.14998765101E+03 -0.54725600321E+03  0.56748475441E+03  0.41800000000E+01 0. -1.
         -5    1    3    3    0  502  0.64286997463E+02  0.12088186743E+02 -0.19764919521E+03  0.20823452900E+03  0.41800000000E+01 0. -1.
        -11    1    4    4    0    0 -0.78229188804E+02 -0.10772800456E+03 -0.73294732196E+03  0.74494087397E+03  0.00000000000E+00 0.  1.
         11    1    4    4    0    0  0.79383938989E+01 -0.54347833191E+02 -0.15407045187E+03  0.16356775113E+03  0.00000000000E+00 0. -1.
</event>
<event>
 8    1  0.7224195E-009  0.8628429E+02  0.7561462E-02  0.1312108E+00
         -2   -1    0    0    0  501 -0.00000000000E+00  0.00000000000E+00  0.10473198847E+03  0.10473198847E+03  0.00000000000E+00 0.  1.
          2   -1    0    0  501    0  0.00000000000E+00 -0.00000000000E+00 -0.13626776346E+03  0.13626776346E+03  0.00000000000E+00 0. -1.
         25    2    1    2    0    0  0.15313659086E+02  0.45773902527E+02 -0.17313223745E+02  0.13519284727E+03  0.12509036706E+03 0.  0.
         23    2    1    2    0    0 -0.15313659086E+02 -0.45773902527E+02 -0.14222551246E+02  0.10580690465E+03  0.93075570379E+02 0.  0.
          5    1    3    3  502    0  0.64888703130E+02  0.33008950748E+02  0.15085232014E+02  0.74465906616E+02  0.41800000000E+01 0. -1.
         -5    1    3    3    0  502 -0.49575044044E+02  0.12764951780E+02 -0.32398455759E+02  0.60726940656E+02  0.41800000000E+01 0. -1.
        -11    1    4    4    0    0 -0.71319520774E+01 -0.23314855708E+02  0.39832949844E+02  0.46702367504E+02  0.00000000000E+00 0.  1.
         11    1    4    4    0    0 -0.81817070086E+01 -0.22459046819E+02 -0.54055501090E+02  0.59104537150E+02  0.00000000000E+00 0. -1.
</event>
<event>
 8    1  0.7224195E-009  0.1777103E+03  0.7561462E-02  0.1170038E+00
         -2   -1    0    0    0  501 -0.00000000000E+00  0.00000000000E+00  0.13046471957E+03  0.13046471957E+03  0.00000000000E+00 0.  1.
          2   -1    0    0  501    0  0.00000000000E+00 -0.00000000000E+00 -0.25291163326E+03  0.25291163326E+03  0.00000000000E+00 0. -1.
         25    2    1    2    0    0  0.13909410242E+03  0.35709198381E+02 -0.87634412185E+02  0.20964207973E+03  0.12509074792E+03 0.  0.
         23    2    1    2    0    0 -0.13909410242E+03 -0.35709198381E+02 -0.34812501502E+02  0.17373427311E+03  0.91374893782E+02 0.  0.
          5    1    3    3  502    0  0.16019523166E+03  0.32166783011E+02 -0.91777823418E+02  0.18745094144E+03  0.41800000000E+01 0. -1.
         -5    1    3    3    0  502 -0.21101129237E+02  0.35424153703E+01  0.41434112330E+01  0.22191138285E+02  0.41800000000E+01 0. -1.
        -11    1    4    4    0    0 -0.87081473032E+02  0.24642846807E+02 -0.16699902819E+02  0.92029014981E+02  0.00000000000E+00 0. -1.
         11    1    4    4    0    0 -0.52012629391E+02 -0.60352045188E+02 -0.18112598683E+02  0.81705258127E+02  0.00000000000E+00 0.  1.
</event>
<event>
 8    1  0.7224195E-009  0.1378823E+03  0.7561462E-02  0.1216207E+00
         -2   -1    0    0    0  501 -0.00000000000E+00  0.00000000000E+00  0.14119949349E+03  0.14119949349E+03  0.00000000000E+00 0.  1.
          2   -1    0    0  501    0  0.00000000000E+00 -0.00000000000E+00 -0.19140011232E+03  0.19140011232E+03  0.00000000000E+00 0. -1.
         25    2    1    2    0    0 -0.74496482800E+02 -0.81911920598E+02 -0.85834319766E+02  0.18781662378E+03  0.12509302551E+03 0.  0.
         23    2    1    2    0    0  0.74496482800E+02  0.81911920598E+02  0.35633700937E+02  0.14478298203E+03  0.86215210700E+02 0.  0.
          5    1    3    3  502    0 -0.89780576034E+02 -0.11366073719E+02 -0.26801715965E+02  0.94475096419E+02  0.41800000000E+01 0. -1.
         -5    1    3    3    0  502  0.15284093234E+02 -0.70545846879E+02 -0.59032603801E+02  0.93341527357E+02  0.41800000000E+01 0. -1.
        -11    1    4    4    0    0  0.39834147213E+02  0.27689305713E+02  0.58940399730E+02  0.76337590055E+02  0.00000000000E+00 0.  1.
         11    1    4    4    0    0  0.34662335587E+02  0.54222614886E+02 -0.23306698793E+02  0.68445391971E+02  0.00000000000E+00 0. -1.
</event>
<event>
 8    1  0.7224195E-009  0.1124492E+03  0.7561462E-02  0.1256100E+00
          2   -1    0    0  501    0  0.00000000000E+00  0.00000000000E+00  0.99999809460E+02  0.99999809460E+02  0.00000000000E+00 0. -1.
         -2   -1    0    0    0  501 -0.00000000000E+00 -0.00000000000E+00 -0.13278441120E+03  0.13278441120E+03  0.00000000000E+00 0.  1.
         25    2    1    2    0    0 -0.16072071484E+02  0.32210634151E+02  0.15910572715E+01  0.13017665677E+03  0.12509034364E+03 0.  0.
         23    2    1    2    0    0  0.16072071484E+02 -0.32210634151E+02 -0.34375659013E+02  0.10260756389E+03  0.89726193501E+02 0.  0.
          5    1    3    3  502    0  0.32118625503E+02  0.64315647742E+02  0.34110234039E+01  0.72091720255E+02  0.41800000000E+01 0.  1.
         -5    1    3    3    0  502 -0.48190696986E+02 -0.32105013590E+02 -0.18199661324E+01  0.58084936519E+02  0.41800000000E+01 0.  1.
        -11    1    4    4    0    0  0.50716413327E+02 -0.32406984872E+02 -0.12016193784E+02  0.61373904571E+02  0.00000000000E+00 0. -1.
         11    1    4    4    0    0 -0.34644341843E+02  0.19635072027E+00 -0.22359465229E+02  0.41233659317E+02  0.00000000000E+00 0.  1.
</event>
<event>
 8    1  0.7224195E-009  0.1005893E+03  0.7561462E-02  0.1279062E+00
         -1   -1    0    0    0  501 -0.00000000000E+00  0.00000000000E+00  0.12416492876E+03  0.12416492876E+03  0.00000000000E+00 0.  1.
          1   -1    0    0  501    0  0.00000000000E+00 -0.00000000000E+00 -0.10604859753E+03  0.10604859753E+03  0.00000000000E+00 0. -1.
         25    2    1    2    0    0 -0.45347423691E+00  0.10951761672E+02  0.43232970491E+02  0.13280415920E+03  0.12509079998E+03 0.  0.
         23    2    1    2    0    0  0.45347423691E+00 -0.10951761672E+02 -0.25116639269E+02  0.97409367096E+02  0.93475090303E+02 0.  0.
          5    1    3    3  502    0  0.16368857980E+02  0.60663144857E+02 -0.25665386579E+01  0.63023933360E+02  0.41800000000E+01 0. -1.
         -5    1    3    3    0  502 -0.16822332216E+02 -0.49711383185E+02  0.45799509149E+02  0.69780225836E+02  0.41800000000E+01 0. -1.
        -11    1    4    4    0    0 -0.72931593264E+01  0.36631436125E+02  0.89132059607E+01  0.38399186529E+02  0.00000000000E+00 0.  1.
         11    1    4    4    0    0  0.77466335633E+01 -0.47583197797E+02 -0.34029845229E+02  0.59010180567E+02  0.00000000000E+00 0. -1.
</event>
<event>
 8    1  0.7224195E-009  0.1177032E+03  0.7561462E-02  0.1246935E+00
          1   -1    0    0  501    0  0.00000000000E+00  0.00000000000E+00  0.67320329563E+02  0.67320329563E+02  0.00000000000E+00 0. -1.
         -1   -1    0    0    0  501 -0.00000000000E+00 -0.00000000000E+00 -0.23928790407E+03  0.23928790407E+03  0.00000000000E+00 0.  1.
         25    2    1    2    0    0 -0.62599232646E+02 -0.10612480313E+02 -0.11440455159E+03  0.18101811322E+03  0.12509143545E+03 0.  0.
         23    2    1    2    0    0  0.62599232646E+02  0.10612480313E+02 -0.57563022910E+02  0.12559012041E+03  0.91804619006E+02 0.  0.
          5    1    3    3  502    0 -0.98050544490E+02 -0.24493564616E+02 -0.73880219090E+02  0.12525814606E+03  0.41800000000E+01 0. -1.
         -5    1    3    3    0  502  0.35451311843E+02  0.13881084304E+02 -0.40524332504E+02  0.55759967160E+02  0.41800000000E+01 0. -1.
        -11    1    4    4    0    0  0.76915836605E+02  0.19180076734E+02 -0.16091046841E+02  0.80887842428E+02  0.00000000000E+00 0. -1.
         11    1    4    4    0    0 -0.14316603959E+02 -0.85675964217E+01 -0.41471976069E+02  0.44702277978E+02  0.00000000000E+00 0.  1.
</event>
<event>
 8    1  0.7224195E-009  0.1642580E+03  0.7561462E-02  0.1183972E+00
          2   -1    0    0  501    0  0.00000000000E+00  0.00000000000E+00  0.81824636541E+03  0.81824636541E+03  0.00000000000E+00 0.  1.
         -2   -1    0    0    0  501 -0.00000000000E+00 -0.00000000000E+00 -0.47156125162E+02  0.47156125162E+02  0.00000000000E+00 0. -1.
         25    2    1    2    0    0 -0.97064763486E+02 -0.75674850002E+02  0.17103236111E+03  0.24504814534E+03  0.12509306038E+03 0.  0.
         23    2    1    2    0    0  0.97064763486E+02  0.75674850002E+02  0.60005787913E+03  0.62035434522E+03  0.98090795161E+02 0.  0.
          5    1    3    3  502    0 -0.15863668162E+02 -0.90108837799E+02  0.10485099277E+03  0.13922090971E+03  0.41800000000E+01 0.  1.
         -5    1    3    3    0  502 -0.81201095324E+02  0.14433987796E+02  0.66181368345E+02  0.10582723563E+03  0.41800000000E+01 0.  1.
        -11    1    4    4    0    0  0.38614966463E+02  0.86659173962E+02  0.30710650357E+03  0.32142702531E+03  0.00000000000E+00 0. -1.
         11    1    4    4    0    0  0.58449797023E+02 -0.10984323959E+02  0.29295137556E+03  0.29892731991E+03  0.00000000000E+00 0.  1.
</event>
<event>
 8    1  0.7224195E-009  0.1593395E+03  0.7561462E-02  0.1189444E+00
         -2   -1    0    0    0  501 -0.00000000000E+00  0.00000000000E+00  0.15123475965E+03  0.15123475965E+03  0.00000000000E+00 0.  1.
          2   -1    0    0  501    0  0.00000000000E+00 -0.00000000000E+00 -0.21307442392E+03  0.21307442392E+03  0.00000000000E+00 0. -1.
         25    2    1    2    0    0  0.75318760634E+02  0.12120248774E+03 -0.25048131723E+02  0.19141403301E+03  0.12509582085E+03 0.  0.
         23    2    1    2    0    0 -0.75318760634E+02 -0.12120248774E+03 -0.36791532543E+02  0.17289515056E+03  0.90422107261E+02 0.  0.
          5    1    3    3  502    0  0.85725095391E+01 -0.14878500514E+02 -0.35263185363E+02  0.39443913843E+02  0.41800000000E+01 0. -1.
         -5    1    3    3    0  502  0.66746251095E+02  0.13608098825E+03  0.10215053640E+02  0.15197011917E+03  0.41800000000E+01 0. -1.
        -11    1    4    4    0    0  0.33928981154E+01 -0.24307884683E+02  0.23749796763E+02  0.34153153026E+02  0.00000000000E+00 0.  1.
         11    1    4    4    0    0 -0.78711658750E+02 -0.96894603056E+02 -0.60541329306E+02  0.13874199753E+03  0.00000000000E+00 0. -1.
</event>
<event>
 8    1  0.7224195E-009  0.1682027E+03  0.7561462E-02  0.1179735E+00
          2   -1    0    0  501    0  0.00000000000E+00  0.00000000000E+00  0.41899066776E+03  0.41899066776E+03  0.00000000000E+00 0. -1.
         -2   -1    0    0    0  501 -0.00000000000E+00 -0.00000000000E+00 -0.97429266677E+02  0.97429266677E+02  0.00000000000E+00 0.  1.
         25    2    1    2    0    0 -0.84551753805E+02 -0.11356868356E+03  0.28949856730E+03  0.34569407181E+03  0.12509246925E+03 0.  0.
         23    2    1    2    0    0  0.84551753805E+02  0.11356868356E+03  0.32062833789E+02  0.17072586263E+03  0.89846813528E+02 0.  0.
          5    1    3    3  502    0 -0.54128822400E+01 -0.10934600659E+03  0.16962690045E+03  0.20193218220E+03  0.41800000000E+01 0. -1.
         -5    1    3    3    0  502 -0.79138871565E+02 -0.42226769757E+01  0.11987166684E+03  0.14376188961E+03  0.41800000000E+01 0. -1.
        -11    1    4    4    0    0  0.37436945628E+02  0.83722315012E+02 -0.20624716058E+02  0.94001754459E+02  0.00000000000E+00 0.  1.
         11    1    4    4    0    0  0.47114808176E+02  0.29846368550E+02  0.52687549846E+02  0.76724108166E+02  0.00000000000E+00 0. -1.
</event>
<event>
 8    1  0.7224195E-009  0.8013079E+02  0.7561462E-02  0.1328681E+00
         -1   -1    0    0    0  501 -0.00000000000E+00  0.00000000000E+00  0.18924109938E+03  0.18924109938E+03  0.00000000000E+00 0.  1.
          1   -1    0    0  501    0  0.00000000000E+00 -0.00000000000E+00 -0.93937087655E+02  0.93937087655E+02  0.00000000000E+00 0. -1.
         25    2    1    2    0    0 -0.69495258885E+02  0.11135330201E+02  0.13839875778E+02  0.14419893107E+03  0.12509277747E+03 0.  0.
         23    2    1    2    0    0  0.69495258885E+02 -0.11135330201E+02  0.81464135943E+02  0.13897925596E+03  0.87893353304E+02 0.  0.
          5    1    3    3  502    0 -0.11424962532E+02 -0.20235719826E+02  0.59379638136E+02  0.63901705383E+02  0.41800000000E+01 0. -1.
         -5    1    3    3    0  502 -0.58070296352E+02  0.31371050027E+02 -0.45539762358E+02  0.80297225692E+02  0.41800000000E+01 0. -1.
        -11    1    4    4    0    0  0.35467639438E+02 -0.34812629351E+01  0.95078732688E+02  0.10153835752E+03  0.00000000000E+00 0.  1.
         11    1    4    4    0    0  0.34027619447E+02 -0.76540672656E+01 -0.13614596745E+02  0.37440898433E+02  0.00000000000E+00 0. -1.
</event>
<event>
 8    1  0.7224195E-009  0.9061784E+02  0.7561462E-02  0.1301362E+00
          1   -1    0    0  501    0  0.00000000000E+00  0.00000000000E+00  0.94087390929E+02  0.94087390929E+02  0.00000000000E+00 0. -1.
         -1   -1    0    0    0  501 -0.00000000000E+00 -0.00000000000E+00 -0.12919211501E+03  0.12919211501E+03  0.00000000000E+00 0.  1.
         25    2    1    2    0    0 -0.67329779001E+01 -0.27588807258E+02 -0.18856754495E+02  0.12965165663E+03  0.12508996602E+03 0.  0.
         23    2    1    2    0    0  0.67329779001E+01  0.27588807258E+02 -0.16247969584E+02  0.93627849308E+02  0.87725152454E+02 0.  0.
          5    1    3    3  502    0  0.39114365048E+02 -0.50296669693E+02  0.18135618906E+02  0.66378171174E+02  0.41800000000E+01 0.  1.
         -5    1    3    3    0  502 -0.45847342948E+02  0.22707862435E+02 -0.36992373400E+02  0.63273485454E+02  0.41800000000E+01 0.  1.
        -11    1    4    4    0    0  0.23102040130E+02  0.39531674909E+02 -0.41123894109E+02  0.61543742541E+02  0.00000000000E+00 0.  1.
         11    1    4    4    0    0 -0.16369062230E+02 -0.11942867651E+02  0.24875924525E+02  0.32084106766E+02  0.00000000000E+00 0. -1.
</event>
<event>
 8    1  0.7224195E-009  0.1434764E+03  0.7561462E-02  0.1208726E+00
         -2   -1    0    0    0  501 -0.00000000000E+00  0.00000000000E+00  0.33009701943E+02  0.33009701943E+02  0.00000000000E+00 0.  1.
          2   -1    0    0  501    0  0.00000000000E+00 -0.00000000000E+00 -0.90834882192E+03  0.90834882192E+03  0.00000000000E+00 0. -1.
         25    2    1    2    0    0  0.48063175914E+02 -0.12397647173E+03 -0.42009075766E+03  0.45804453946E+03  0.12509324936E+03 0.  0.
         23    2    1    2    0    0 -0.48063175914E+02  0.12397647173E+03 -0.45524836232E+03  0.48331398440E+03  0.93065040196E+02 0.  0.
          5    1    3    3  502    0  0.23321597541E+02 -0.60777944512E+02 -0.51164885108E+02  0.82904603727E+02  0.41800000000E+01 0.  1.
         -5    1    3    3    0  502  0.24741578372E+02 -0.63198527217E+02 -0.36892587255E+03  0.37513993573E+03  0.41800000000E+01 0.  1.
        -11    1    4    4    0    0 -0.50232515227E+02  0.27588434552E+02 -0.10044297308E+03  0.11564263119E+03  0.00000000000E+00 0.  1.
         11    1    4    4    0    0  0.21693393130E+01  0.96388037176E+02 -0.35480538923E+03  0.36767135321E+03  0.00000000000E+00 0. -1.
</event>
<event>
 8    1  0.7224195E-009  0.9721682E+02  0.7561462E-02  0.1286260E+00
         -1   -1    0    0    0  501 -0.00000000000E+00  0.00000000000E+00  0.23644300320E+02  0.23644300320E+02  0.00000000000E+00 0.  1.
          1   -1    0    0  501    0  0.00000000000E+00 -0.00000000000E+00 -0.74850861297E+03  0.74850861297E+03  0.00000000000E+00 0. -1.
         25    2    1    2    0    0 -0.47687947052E+02  0.28086374476E+02 -0.58265552488E+03  0.59849558348E+03  0.12508604258E+03 0.  0.
         23    2    1    2    0    0  0.47687947052E+02 -0.28086374476E+02 -0.14220878777E+03  0.17365732981E+03  0.82888745630E+02 0.  0.
          5    1    3    3  502    0 -0.63809263554E+02  0.56174003904E+02 -0.24696965078E+03  0.26122523162E+03  0.41800000000E+01 0.  1.
         -5    1    3    3    0  502  0.16121316502E+02 -0.28087629427E+02 -0.33568587410E+03  0.33727035186E+03  0.41800000000E+01 0.  1.
        -11    1    4    4    0    0  0.37639100689E+02  0.86147511760E+01 -0.15929024193E+02  0.41769003462E+02  0.00000000000E+00 0.  1.
         11    1    4    4    0    0  0.10048846363E+02 -0.36701125652E+02 -0.12627976358E+03  0.13188832635E+03  0.00000000000E+00 0. -1.
</event>
<event>
 8    1  0.7224195E-009  0.2123078E+03  0.7561462E-02  0.1139751E+00
          2   -1    0    0  501    0  0.00000000000E+00  0.00000000000E+00  0.34230267396E+04  0.34230267396E+04  0.00000000000E+00 0. -1.
         -2   -1    0    0    0  501 -0.00000000000E+00 -0.00000000000E+00 -0.18781823941E+02  0.18781823941E+02  0.00000000000E+00 0.  1.
         25    2    1    2    0    0  0.10929641660E+03 -0.15950833521E+03  0.26024393672E+04  0.26126092291E+04  0.12509079982E+03 0.  0.
         23    2    1    2    0    0 -0.10929641660E+03  0.15950833521E+03  0.80180554844E+03  0.82919933445E+03  0.85386082337E+02 0.  0.
          5    1    3    3  502    0  0.12495757691E+03 -0.16988175775E+03  0.23602356877E+04  0.23696422054E+04  0.41800000000E+01 0. -1.
         -5    1    3    3    0  502 -0.15661160305E+02  0.10373422535E+02  0.24220367947E+03  0.24296702366E+03  0.41800000000E+01 0. -1.
        -11    1    4    4    0    0 -0.69679905772E+02  0.83729416508E+02  0.60336621856E+03  0.61312045974E+03  0.00000000000E+00 0. -1.
         11    1    4    4    0    0 -0.39616510832E+02  0.75778918706E+02  0.19843932988E+03  0.21607887471E+03  0.00000000000E+00 0.  1.
</event>
<event>
 8    1  0.7224195E-009  0.1140480E+03  0.7561462E-02  0.1253252E+00
          1   -1    0    0  501    0  0.00000000000E+00  0.00000000000E+00  0.59802949492E+02  0.59802949492E+02  0.00000000000E+00 0. -1.
         -1   -1    0    0    0  501 -0.00000000000E+00 -0.00000000000E+00 -0.27722705255E+03  0.27722705255E+03  0.00000000000E+00 0.  1.
         25    2    1    2    0    0  0.14982902489E+02  0.68202866040E+02 -0.13262501679E+03  0.19521738515E+03  0.12507723246E+03 0.  0.
         23    2    1    2    0    0 -0.14982902489E+02 -0.68202866040E+02 -0.84799086264E+02  0.14181261689E+03  0.89687317812E+02 0.  0.
          5    1    3    3  502    0 -0.27359884971E+02  0.81297846024E+02 -0.12242870681E+03  0.14954652696E+03  0.41800000000E+01 0.  1.
         -5    1    3    3    0  502  0.42342787459E+02 -0.13094979984E+02 -0.10196309985E+02  0.45670858191E+02  0.41800000000E+01 0.  1.
        -11    1    4    4    0    0  0.25552840348E+02 -0.42838155654E+02 -0.79295518761E+02  0.93679424236E+02  0.00000000000E+00 0.  1.
         11    1    4    4    0    0 -0.40535742836E+02 -0.25364710386E+02 -0.55035675033E+01  0.48133192659E+02  0.00000000000E+00 0. -1.
</event>
<event>
 8    1  0.7224195E-009  0.1023775E+03  0.7561462E-02  0.1275374E+00
         -1   -1    0    0    0  501 -0.00000000000E+00  0.00000000000E+00  0.37074595280E+02  0.37074595280E+02  0.00000000000E+00 0.  1.
          1   -1    0    0  501    0  0.00000000000E+00 -0.00000000000E+00 -0.37579447438E+03  0.37579447438E+03  0.00000000000E+00 0. -1.
         25    2    1    2    0    0 -0.90922286310E+01 -0.44972112055E+02 -0.16966671873E+03  0.21573140843E+03  0.12509230853E+03 0.  0.
         23    2    1    2    0    0  0.90922286310E+01  0.44972112055E+02 -0.16905316037E+03  0.19713766123E+03  0.90438525869E+02 0.  0.
          5    1    3    3  502    0  0.28736400343E+02  0.20573372392E+02 -0.11987389613E+03  0.12504506280E+03  0.41800000000E+01 0.  1.
         -5    1    3    3    0  502 -0.37828628974E+02 -0.65545484446E+02 -0.49792822598E+02  0.90686345629E+02  0.41800000000E+01 0.  1.
        -11    1    4    4    0    0 -0.35252787128E+02  0.30817465844E+02 -0.46277159499E+02  0.65833507370E+02  0.00000000000E+00 0.  1.
         11    1    4    4    0    0  0.44345015759E+02  0.14154646211E+02 -0.12277600087E+03  0.13130415386E+03  0.00000000000E+00 0. -1.
</event>
<event>
 8    1  0.7224195E-009  0.9465740E+02  0.7561462E-02  0.1291950E+00
          1   -1    0    0  501    0  0.00000000000E+00  0.00000000000E+00  0.18432102082E+03  0.18432102082E+03  0.00000000000E+00 0. -1.
         -1   -1    0    0    0  501 -0.00000000000E+00 -0.00000000000E+00 -0.89678635309E+02  0.89678635309E+02  0.00000000000E+00 0.  1.
         25    2    1    2    0    0 -0.27169209731E+02  0.49862076483E+02  0.62361316987E+01  0.13749912786E+03  0.12507089268E+03 0.  0.
         23    2    1    2    0    0  0.27169209731E+02 -0.49862076483E+02  0.88406253817E+02  0.13650052827E+03  0.87134011018E+02 0.  0.
          5    1    3    3  502    0 -0.52765499961E+02  0.16742132356E+02  0.51486809950E+02  0.75715658756E+02  0.41800000000E+01 0.  1.
         -5    1    3    3    0  502  0.25596290230E+02  0.33119944127E+02 -0.45250678252E+02  0.61783469106E+02  0.41800000000E+01 0.  1.
        -11    1    4    4    0    0  0.50052231842E+02 -0.19507340589E+02  0.18298973660E+02  0.56750459789E+02  0.00000000000E+00 0.  1.
         11    1    4    4    0    0 -0.22883022111E+02 -0.30354735894E+02  0.70107280157E+02  0.79750068483E+02  0.00000000000E+00 0. -1.
</event>
<event>
 8    1  0.7224195E-009  0.1034803E+03  0.7561462E-02  0.1273143E+00
         -2   -1    0    0    0  501 -0.00000000000E+00  0.00000000000E+00  0.16563098387E+03  0.16563098387E+03  0.00000000000E+00 0. -1.
          2   -1    0    0  501    0  0.00000000000E+00 -0.00000000000E+00 -0.13694050668E+03  0.13694050668E+03  0.00000000000E+00 0.  1.
         25    2    1    2    0    0 -0.68764329008E+02  0.54274281389E+02  0.72581449539E+02  0.16908659181E+03  0.12509187882E+03 0.  0.
         23    2    1    2    0    0  0.68764329008E+02 -0.54274281389E+02 -0.43890972342E+02  0.13348489874E+03  0.90650814532E+02 0.  0.
          5    1    3    3  502    0 -0.77108035608E+01  0.18657983616E+02 -0.34807867546E+02  0.40455369079E+02  0.41800000000E+01 0.  1.
         -5    1    3    3    0  502 -0.61053525448E+02  0.35616297773E+02  0.10738931709E+03  0.12863122273E+03  0.41800000000E+01 0.  1.
        -11    1    4    4    0    0  0.71568943521E+02 -0.11280574836E+02 -0.52594407360E+02  0.89529529938E+02  0.00000000000E+00 0.  1.
         11    1    4    4    0    0 -0.28046145130E+01 -0.42993706554E+02  0.87034350173E+01  0.43955368806E+02  0.00000000000E+00 0. -1.
</event>
<event>
 8    1  0.7224195E-009  0.1358926E+03  0.7561462E-02  0.1218965E+00
          2   -1    0    0  501    0  0.00000000000E+00  0.00000000000E+00  0.53297206465E+03  0.53297206465E+03  0.00000000000E+00 0.  1.
         -2   -1    0    0    0  501 -0.00000000000E+00 -0.00000000000E+00 -0.36168279405E+02  0.36168279405E+02  0.00000000000E+00 0. -1.
         25    2    1    2    0    0 -0.76035368818E+02  0.36555125429E+02  0.31021567808E+03  0.34496262631E+03  0.12509113523E+03 0.  0.
         23    2    1    2    0    0  0.76035368818E+02 -0.36555125429E+02  0.18658810716E+03  0.22417771775E+03  0.91229780746E+02 0.  0.
          5    1    3    3  502    0 -0.11059919683E+03  0.27926428737E+02  0.25089369153E+03  0.27563959188E+03  0.41800000000E+01 0.  1.
         -5    1    3    3    0  502  0.34563828013E+02  0.86286966918E+01  0.59321986550E+02  0.69323034424E+02  0.41800000000E+01 0.  1.
        -11    1    4    4    0    0  0.71436187808E+02 -0.62805412441E+02  0.12503607113E+03  0.15710400327E+03  0.00000000000E+00 0. -1.
         11    1    4    4    0    0  0.45991810094E+01  0.26250287012E+02  0.61552036037E+02  0.67073714482E+02  0.00000000000E+00 0.  1.
</event>
<event>
 8    1  0.7224195E-009  0.1702721E+03  0.7561462E-02  0.1177564E+00
          1   -1    0    0  501    0  0.00000000000E+00  0.00000000000E+00  0.11357656555E+03  0.11357656555E+03  0.00000000000E+00 0. -1.
         -1   -1    0    0    0  501 -0.00000000000E+00 -0.00000000000E+00 -0.32261685473E+03  0.32261685473E+03  0.00000000000E+00 0.  1.
         25    2    1    2    0    0  0.30771049715E+02  0.14369374552E+03 -0.46636965260E+02  0.19854229995E+03  0.12509711563E+03 0.  0.
         23    2    1    2    0    0 -0.30771049715E+02 -0.14369374552E+03 -0.16240332392E+03  0.23765112032E+03  0.92241343057E+02 0.  0.
          5    1    3    3  502    0 -0.43540547476E+02  0.25109045157E+02 -0.26870496480E+02  0.57146648233E+02  0.41800000000E+01 0.  1.
         -5    1    3    3    0  502  0.74311597191E+02  0.11858470036E+03 -0.19766468780E+02  0.14139565172E+03  0.41800000000E+01 0.  1.
        -11    1    4    4    0    0 -0.27471631000E+02 -0.56291150657E+02 -0.12164912194E+02  0.63807282036E+02  0.00000000000E+00 0. -1.
         11    1    4    4    0    0 -0.32994187155E+01 -0.87402594859E+02 -0.15023841173E+03  0.17384383829E+03  0.00000000000E+00 0.  1.
</event>
<event>
 8    1  0.7224195E-009  0.1014262E+03  0.7561462E-02  0.1277325E+00
          1   -1    0    0  501    0  0.00000000000E+00  0.00000000000E+00  0.18332363389E+03  0.18332363389E+03  0.00000000000E+00 0. -1.
         -1   -1    0    0    0  501 -0.00000000000E+00 -0.00000000000E+00 -0.88842602792E+02  0.88842602792E+02  0.00000000000E+00 0.  1.
         25    2    1    2    0    0 -0.34713262039E+02  0.62943502858E+02  0.47649538843E+02  0.15193462306E+03  0.12508699381E+03 0.  0.
         23    2    1    2    0    0  0.34713262039E+02 -0.62943502858E+02  0.46831492260E+02  0.12023161362E+03  0.84235130045E+02 0.  0.
          5    1    3    3  502    0 -0.54642563248E+02  0.60831585761E+02  0.79467104380E+02  0.11409988880E+03  0.41800000000E+01 0.  1.
         -5    1    3    3    0  502  0.19929301208E+02  0.21119170974E+01 -0.31817565537E+02  0.37834734269E+02  0.41800000000E+01 0.  1.
        -11    1    4    4    0    0  0.33580979577E+02 -0.78252153158E+02  0.56405331587E+02  0.10214031082E+03  0.00000000000E+00 0. -1.
         11    1    4    4    0    0  0.11322824624E+01  0.15308650300E+02 -0.95738393276E+01  0.18091302801E+02  0.00000000000E+00 0.  1.
</event>
<event>
 8    1  0.7224195E-009  0.1393084E+03  0.7561462E-02  0.1214263E+00
         -1   -1    0    0    0  501 -0.00000000000E+00  0.00000000000E+00  0.10018894731E+03  0.10018894731E+03  0.00000000000E+00 0.  1.
          1   -1    0    0  501    0  0.00000000000E+00 -0.00000000000E+00 -0.26658383598E+03  0.26658383598E+03  0.00000000000E+00 0. -1.
         25    2    1    2    0    0 -0.10795369941E+03 -0.52499359522E+02 -0.68815886603E+02  0.18652946560E+03  0.12508969311E+03 0.  0.
         23    2    1    2    0    0  0.10795369941E+03  0.52499359522E+02 -0.97579002075E+02  0.18024331769E+03  0.92497610563E+02 0.  0.
          5    1    3    3  502    0 -0.10799875640E+03 -0.78604961165E+01 -0.49245974002E+01  0.10847692309E+03  0.41800000000E+01 0. -1.
         -5    1    3    3    0  502  0.45056995569E-01 -0.44638863405E+02 -0.63891289203E+02  0.78052542510E+02  0.41800000000E+01 0. -1.
        -11    1    4    4    0    0  0.33802194019E+02  0.36137417339E+02 -0.91552873607E+02  0.10406935148E+03  0.00000000000E+00 0. -1.
         11    1    4    4    0    0  0.74151505387E+02  0.16361942183E+02 -0.60261284679E+01  0.76173966205E+02  0.00000000000E+00 0.  1.
</event>
<event>
 8    1  0.7224195E-009  0.1256920E+03  0.7561462E-02  0.1233992E+00
          1   -1    0    0  501    0  0.00000000000E+00  0.00000000000E+00  0.29899960953E+03  0.29899960953E+03  0.00000000000E+00 0. -1.
         -1   -1    0    0    0  501 -0.00000000000E+00 -0.00000000000E+00 -0.73077654593E+02  0.73077654593E+02  0.00000000000E+00 0.  1.
         25    2    1    2    0    0 -0.66569987753E+02  0.73540431570E+02  0.10583871845E+03  0.19154487590E+03  0.12509135388E+03 0.  0.
         23    2    1    2    0    0  0.66569987753E+02 -0.73540431570E+02  0.12008323649E+03  0.18053238822E+03  0.91280891578E+02 0.  0.
          5    1    3    3  502    0 -0.23653815259E+02 -0.18811236178E+02  0.81120705097E+02  0.86668372422E+02  0.41800000000E+01 0.  1.
         -5    1    3    3    0  502 -0.42916172494E+02  0.92351667748E+02  0.24718013349E+02  0.10487650348E+03  0.41800000000E+01 0.  1.
        -11    1    4    4    0    0  0.49690430872E+01 -0.54141673586E+02  0.13681436527E+02  0.56064194575E+02  0.00000000000E+00 0.  1.
         11    1    4    4    0    0  0.61600944666E+02 -0.19398757984E+02  0.10640179996E+03  0.12446819365E+03  0.00000000000E+00 0. -1.
</event>
<event>
 8    1  0.7224195E-009  0.1345303E+03  0.7561462E-02  0.1220884E+00
         -2   -1    0    0    0  501 -0.00000000000E+00  0.00000000000E+00  0.70909270763E+02  0.70909270763E+02  0.00000000000E+00 0.  1.
          2   -1    0    0  501    0  0.00000000000E+00 -0.00000000000E+00 -0.36271377353E+03  0.36271377353E+03  0.00000000000E+00 0. -1.
         25    2    1    2    0    0  0.35257551503E+02 -0.10616358103E+03 -0.19881193912E+03  0.26016649098E+03  0.12508643020E+03 0.  0.
         23    2    1    2    0    0 -0.35257551503E+02  0.10616358103E+03 -0.92992563646E+02  0.17345655331E+03  0.94476230442E+02 0.  0.
          5    1    3    3  502    0 -0.63869607463E+01 -0.11428975526E+03 -0.98135379995E+02  0.15083423561E+03  0.41800000000E+01 0.  1.
         -5    1    3    3    0  502  0.41644512249E+02  0.81261742334E+01 -0.10067655912E+03  0.10933225537E+03  0.41800000000E+01 0.  1.
        -11    1    4    4    0    0 -0.21687607201E+02  0.62372806841E+02 -0.10680945603E+03  0.12557459630E+03  0.00000000000E+00 0.  1.
         11    1    4    4    0    0 -0.13569944302E+02  0.43790774184E+02  0.13816892380E+02  0.47881957009E+02  0.00000000000E+00 0. -1.
</event>
<event>
 8    1  0.7224195E-009  0.9342239E+02  0.7561462E-02  0.1294769E+00
         -2   -1    0    0    0  501 -0.00000000000E+00  0.00000000000E+00  0.54284680103E+02  0.54284680103E+02  0.00000000000E+00 0.  1.
          2   -1    0    0  501    0  0.00000000000E+00 -0.00000000000E+00 -0.27507656612E+03  0.27507656612E+03  0.00000000000E+00 0. -1.
         25    2    1    2    0    0 -0.22615769153E+01 -0.52319296798E+02 -0.15127452239E+03  0.20315768227E+03  0.12508652683E+03 0.  0.
         23    2    1    2    0    0  0.22615769153E+01  0.52319296798E+02 -0.69517363629E+02  0.12620356395E+03  0.91390656858E+02 0.  0.
          5    1    3    3  502    0  0.24540689024E+02  0.30707773743E+02 -0.17130656490E+02  0.43082996388E+02  0.41800000000E+01 0.  1.
         -5    1    3    3    0  502 -0.26802265939E+02 -0.83027070542E+02 -0.13414386590E+03  0.16007468588E+03  0.41800000000E+01 0.  1.
        -11    1    4    4    0    0  0.12009841185E+02  0.76318805974E+01  0.20662220547E+02  0.25088029908E+02  0.00000000000E+00 0.  1.
         11    1    4    4    0    0 -0.97482642692E+01  0.44687416201E+02 -0.90179584176E+02  0.10111553404E+03  0.00000000000E+00 0. -1.
</event>
<event>
 8    1  0.7224195E-009  0.1030668E+03  0.7561462E-02  0.1273976E+00
         -1   -1    0    0    0  501 -0.00000000000E+00  0.00000000000E+00  0.16813247863E+02  0.16813247863E+02  0.00000000000E+00 0.  1.
          1   -1    0    0  501    0  0.00000000000E+00 -0.00000000000E+00 -0.69463732252E+03  0.69463732252E+03  0.00000000000E+00 0. -1.
         25    2    1    2    0    0 -0.74410213440E+01  0.17308097841E+02 -0.41436943913E+03  0.43325002922E+03  0.12509443106E+03 0.  0.
         23    2    1    2    0    0  0.74410213440E+01 -0.17308097841E+02 -0.26345463552E+03  0.27820054116E+03  0.87362789987E+02 0.  0.
          5    1    3    3  502    0  0.49425838201E+02  0.40941487794E+02 -0.22996435131E+03  0.23878901603E+03  0.41800000000E+01 0.  1.
         -5    1    3    3    0  502 -0.56866859545E+02 -0.23633389953E+02 -0.18440508783E+03  0.19446101319E+03  0.41800000000E+01 0.  1.
        -11    1    4    4    0    0 -0.20779141214E+02  0.22930890769E+02 -0.47260896266E+02  0.56490625566E+02  0.00000000000E+00 0.  1.
         11    1    4    4    0    0  0.28220162558E+02 -0.40238988610E+02 -0.21619373926E+03  0.22170991560E+03  0.00000000000E+00 0. -1.
</event>
<event>
 8    1  0.7224195E-009  0.1054263E+03  0.7561462E-02  0.1269282E+00
          2   -1    0    0  501    0  0.00000000000E+00  0.00000000000E+00  0.14510003819E+02  0.14510003819E+02  0.00000000000E+00 0.  1.
         -2   -1    0    0    0  501 -0.00000000000E+00 -0.00000000000E+00 -0.11944213510E+04  0.11944213510E+04  0.00000000000E+00 0. -1.
         25    2    1    2    0    0  0.48075661988E+02  0.13290594079E+02 -0.90844471782E+03  0.91837236458E+03  0.12509230799E+03 0.  0.
         23    2    1    2    0    0 -0.48075661988E+02 -0.13290594079E+02 -0.27146662940E+03  0.29055899028E+03  0.90788142335E+02 0.  0.
          5    1    3    3  502    0 -0.92734899153E+01  0.43843985833E+02 -0.13741944892E+03  0.14460245520E+03  0.41800000000E+01 0. -1.
         -5    1    3    3    0  502  0.57349151903E+02 -0.30553391754E+02 -0.77102526891E+03  0.77376990938E+03  0.41800000000E+01 0. -1.
        -11    1    4    4    0    0 -0.19675143041E+02  0.37607924503E+02 -0.82055575319E+02  0.92382815935E+02  0.00000000000E+00 0.  1.
         11    1    4    4    0    0 -0.28400518947E+02 -0.50898518582E+02 -0.18941105408E+03  0.19817617434E+03  0.00000000000E+00 0. -1.
</event>
<event>
 8    1  0.7224195E-009  0.8450869E+02  0.7561462E-02  0.1316722E+00
          1   -1    0    0  501    0  0.00000000000E+00  0.00000000000E+00  0.20865606525E+03  0.20865606525E+03  0.00000000000E+00 0. -1.
         -1   -1    0    0    0  501 -0.00000000000E+00 -0.00000000000E+00 -0.58843159019E+02  0.58843159019E+02  0.00000000000E+00 0.  1.
         25    2    1    2    0    0 -0.12427553764E+02  0.23528285547E+02  0.69871370204E+02  0.14573069219E+03  0.12508957574E+03 0.  0.
         23    2    1    2    0    0  0.12427553764E+02 -0.23528285547E+02  0.79941536027E+02  0.12176853208E+03  0.87914173539E+02 0.  0.
          5    1    3    3  502    0 -0.33772574609E+02 -0.24261682911E+02 -0.16269541690E+02  0.44848483143E+02  0.41800000000E+01 0.  1.
         -5    1    3    3    0  502  0.21345020846E+02  0.47789968459E+02  0.86140911895E+02  0.10088220905E+03  0.41800000000E+01 0.  1.
        -11    1    4    4    0    0 -0.28558772069E+02 -0.16939446804E+02  0.72297585538E+02  0.79558086923E+02  0.00000000000E+00 0. -1.
         11    1    4    4    0    0  0.40986325833E+02 -0.65888387437E+01  0.76439504882E+01  0.42210445156E+02  0.00000000000E+00 0.  1.
</event>
<event>
 8    1  0.7224195E-009  0.2354952E+03  0.7561462E-02  0.1122831E+00
         -3   -1    0    0    0  501 -0.00000000000E+00  0.00000000000E+00  0.63070337044E+02  0.63070337044E+02  0.00000000000E+00 0.  1.
          3   -1    0    0  501    0  0.00000000000E+00 -0.00000000000E+00 -0.10038401655E+04  0.10038401655E+04  0.00000000000E+00 0. -1.
         25    2    1    2    0    0 -0.22509750347E+03  0.25905934589E+02 -0.49559332636E+03  0.55910841755E+03  0.12509785741E+03 0.  0.
         23    2    1    2    0    0  0.22509750347E+03 -0.25905934589E+02 -0.44517650209E+03  0.50780208499E+03  0.91328177408E+02 0.  0.
          5    1    3    3  502    0 -0.73896888616E+02  0.49268807335E+02 -0.94245397246E+02  0.12956786957E+03  0.41800000000E+01 0.  1.
         -5    1    3    3    0  502 -0.15120061485E+03 -0.23362872745E+02 -0.40134792911E+03  0.42954054798E+03  0.41800000000E+01 0.  1.
        -11    1    4    4    0    0  0.20126280867E+03 -0.12434896770E+02 -0.30951908614E+03  0.36940954170E+03  0.00000000000E+00 0.  1.
         11    1    4    4    0    0  0.23834694800E+02 -0.13471037820E+02 -0.13565741595E+03  0.13839254329E+03  0.00000000000E+00 0. -1.
</event>
<event>
 8    1  0.7224195E-009  0.1219412E+03  0.7561462E-02  0.1239929E+00
         -1   -1    0    0    0  501 -0.00000000000E+00  0.00000000000E+00  0.19484615163E+03  0.19484615163E+03  0.00000000000E+00 0.  1.
          1   -1    0    0  501    0  0.00000000000E+00 -0.00000000000E+00 -0.13724491220E+03  0.13724491220E+03  0.00000000000E+00 0. -1.
         25    2    1    2    0    0 -0.27290263147E+02 -0.78442097457E+02 -0.60161057285E+02  0.16175434352E+03  0.12508874338E+03 0.  0.
         23    2    1    2    0    0  0.27290263147E+02  0.78442097457E+02  0.11776229672E+03  0.17033672030E+03  0.90822456682E+02 0.  0.
          5    1    3    3  502    0  0.29709789787E+02  0.12692694177E+02  0.90858511972E+01  0.33820129903E+02  0.41800000000E+01 0.  1.
         -5    1    3    3    0  502 -0.57000052934E+02 -0.91134791634E+02 -0.69246908482E+02  0.12793421362E+03  0.41800000000E+01 0.  1.
        -11    1    4    4    0    0  0.24767922754E+02 -0.47727807849E+00 -0.41202258406E+01  0.25112826462E+02  0.00000000000E+00 0. -1.
         11    1    4    4    0    0  0.25223403923E+01  0.78919375536E+02  0.12188252256E+03  0.14522389384E+03  0.00000000000E+00 0.  1.
</event>
<event>
 8    1  0.7224195E-009  0.2080541E+03  0.7561462E-02  0.1143116E+00
          2   -1    0    0  501    0  0.00000000000E+00  0.00000000000E+00  0.20448229635E+03  0.20448229635E+03  0.00000000000E+00 0.  1.
         -2   -1    0    0    0  501 -0.00000000000E+00 -0.00000000000E+00 -0.40766881760E+03  0.40766881760E+03  0.00000000000E+00 0. -1.
         25    2    1    2    0    0  0.19530361858E+03  0.31270447198E+02  0.86683861956E+02  0.24956996866E+03  0.12509889303E+03 0.  0.
         23    2    1    2    0    0 -0.19530361858E+03 -0.31270447198E+02 -0.28987038321E+03  0.36258114529E+03  0.91208023527E+02 0.  0.
          5    1    3    3  502    0  0.10548000714E+03  0.13681242615E+01 -0.19384293410E+02  0.10733651243E+03  0.41800000000E+01 0.  1.
         -5    1    3    3    0  502  0.89823611437E+02  0.29902322937E+02  0.10606815537E+03  0.14223345623E+03  0.41800000000E+01 0.  1.
        -11    1    4    4    0    0 -0.16515972518E+03  0.90780314394E+01 -0.19978711663E+03  0.25937431918E+03  0.00000000000E+00 0. -1.
         11    1    4    4    0    0 -0.30143893394E+02 -0.40348478637E+02 -0.90083266580E+02  0.10320682611E+03  0.00000000000E+00 0.  1.
</event>
<event>
 8    1  0.7224195E-009  0.1289603E+03  0.7561462E-02  0.1229007E+00
          1   -1    0    0  501    0  0.00000000000E+00  0.00000000000E+00  0.49107675961E+03  0.49107675961E+03  0.00000000000E+00 0. -1.
         -1   -1    0    0    0  501 -0.00000000000E+00 -0.00000000000E+00 -0.49161276325E+02  0.49161276325E+02  0.00000000000E+00 0.  1.
         25    2    1    2    0    0  0.95432329470E+02 -0.31434522035E+02  0.15795148480E+03  0.22514720329E+03  0.12508850034E+03 0.  0.
         23    2    1    2    0    0 -0.95432329470E+02  0.31434522035E+02  0.28396399849E+03  0.31509083264E+03  0.92472815975E+02 0.  0.
          5    1    3    3  502    0 -0.17455289635E+01  0.24292114307E+02  0.91616575698E+02  0.94890584524E+02  0.41800000000E+01 0.  1.
         -5    1    3    3    0  502  0.97177858433E+02 -0.55726636342E+02  0.66334909098E+02  0.13025661877E+03  0.41800000000E+01 0.  1.
        -11    1    4    4    0    0 -0.10577658817E+03  0.24266545140E+02  0.28224348374E+03  0.30238871661E+03  0.00000000000E+00 0. -1.
         11    1    4    4    0    0  0.10344258699E+02  0.71679768949E+01  0.17205147498E+01  0.12702116037E+02  0.00000000000E+00 0.  1.
</event>
<event>
 8    1  0.7224195E-009  0.1511927E+03  0.7561462E-02  0.1199015E+00
          1   -1    0    0  501    0  0.00000000000E+00  0.00000000000E+00  0.27498365610E+03  0.27498365610E+03  0.00000000000E+00 0. -1.
         -1   -1    0    0    0  501 -0.00000000000E+00 -0.00000000000E+00 -0.11622137415E+03  0.11622137415E+03  0.00000000000E+00 0.  1.
         25    2    1    2    0    0  0.57356039288E+02 -0.12309469145E+03  0.12736655459E+03  0.22430245855E+03  0.12508930961E+03 0.  0.
         23    2    1    2    0    0 -0.57356039288E+02  0.12309469145E+03  0.31395727365E+02  0.16690257170E+03  0.91808269984E+02 0.  0.
          5    1    3    3  502    0  0.44348112521E+01 -0.38264549023E+02 -0.21966022261E+02  0.44540114467E+02  0.41800000000E+01 0. -1.
         -5    1    3    3    0  502  0.52921228036E+02 -0.84830142424E+02  0.14933257685E+03  0.17976234408E+03  0.41800000000E+01 0. -1.
        -11    1    4    4    0    0 -0.21480048722E+02 -0.11436342032E+02  0.86381828233E+01  0.25822482736E+02  0.00000000000E+00 0. -1.
         11    1    4    4    0    0 -0.35875990566E+02  0.13453103348E+03  0.22757544542E+02  0.14108008896E+03  0.00000000000E+00 0.  1.
</event>
<event>
 8    1  0.7224195E-009  0.1739013E+03  0.7561462E-02  0.1173839E+00
         -2   -1    0    0    0  501 -0.00000000000E+00  0.00000000000E+00  0.10957247936E+03  0.10957247936E+03  0.00000000000E+00 0. -1.
          2   -1    0    0  501    0  0.00000000000E+00 -0.00000000000E+00 -0.38617362640E+03  0.38617362640E+03  0.00000000000E+00 0.  1.
         25    2    1    2    0    0  0.14821354377E+03  0.34789804884E+01 -0.33057380414E+02  0.19677300431E+03  0.12508983557E+03 0.  0.
         23    2    1    2    0    0 -0.14821354377E+03 -0.34789804884E+01 -0.24354376663E+03  0.29897310145E+03  0.89955496002E+02 0.  0.
          5    1    3    3  502    0  0.33694431871E+02  0.55874487209E+02 -0.26651182898E+02  0.70604752035E+02  0.41800000000E+01 0. -1.
         -5    1    3    3    0  502  0.11451911190E+03 -0.52395506721E+02 -0.64061975158E+01  0.12616825228E+03  0.41800000000E+01 0. -1.
        -11    1    4    4    0    0 -0.86431978526E+02  0.22627224842E+02 -0.19988614702E+03  0.21894508441E+03  0.00000000000E+00 0.  1.
         11    1    4    4    0    0 -0.61781565248E+02 -0.26106205330E+02 -0.43657619613E+02  0.80028017041E+02  0.00000000000E+00 0. -1.
</event>
<event>
 8    1  0.7224195E-009  0.6526094E+02  0.7561462E-02  0.1376993E+00
         -1   -1    0    0    0  501 -0.00000000000E+00  0.00000000000E+00  0.13273850693E+02  0.13273850693E+02  0.00000000000E+00 0.  1.
          1   -1    0    0  501    0  0.00000000000E+00 -0.00000000000E+00 -0.98840264670E+03  0.98840264670E+03  0.00000000000E+00 0. -1.
         25    2    1    2    0    0  0.19572920180E+02 -0.27032544649E+02 -0.56146471024E+03  0.57619778931E+03  0.12508962341E+03 0.  0.
         23    2    1    2    0    0 -0.19572920180E+02  0.27032544649E+02 -0.41366408577E+03  0.42547870808E+03  0.93809900894E+02 0.  0.
          5    1    3    3  502    0  0.57555767498E+00 -0.34919917356E+00  0.62360484775E+01  0.75375000706E+01  0.41800000000E+01 0. -1.
         -5    1    3    3    0  502  0.18997362505E+02 -0.26683345475E+02 -0.56770075872E+03  0.56866028924E+03  0.41800000000E+01 0. -1.
        -11    1    4    4    0    0  0.34843043693E+02  0.11021494470E+02 -0.94629722995E+02  0.10144109379E+03  0.00000000000E+00 0.  1.
         11    1    4    4    0    0 -0.54415963873E+02  0.16011050178E+02 -0.31903436277E+03  0.32403761430E+03  0.00000000000E+00 0. -1.
</event>
<event>
 8    1  0.7224195E-009  0.6405199E+02  0.7561462E-02  0.1381573E+00
         -4   -1    0    0    0  501 -0.00000000000E+00  0.00000000000E+00  0.18605951506E+03  0.18605951506E+03  0.00000000000E+00 0.  1.
          4   -1    0    0  501    0  0.00000000000E+00 -0.00000000000E+00 -0.91055312491E+02  0.91055312491E+02  0.00000000000E+00 0. -1.
         25    2    1    2    0    0 -0.96746024641E+01 -0.27237953409E+02  0.12182052305E+03  0.17698220430E+03  0.12508779622E+03 0.  0.
         23    2    1    2    0    0  0.96746024641E+01  0.27237953409E+02 -0.26816320484E+02  0.10013262325E+03  0.92043050560E+02 0.  0.
          5    1    3    3  502    0 -0.79105727859E+01  0.50381286024E+01  0.13951713639E+03  0.13989447325E+03  0.41800000000E+01 0. -1.
         -5    1    3    3    0  502 -0.17640296782E+01 -0.32276082011E+02 -0.17696613331E+02  0.37087731045E+02  0.41800000000E+01 0. -1.
        -11    1    4    4    0    0 -0.35046269138E+02  0.53488044481E+01  0.11538064997E+02  0.37282403804E+02  0.00000000000E+00 0.  1.
         11    1    4    4    0    0  0.44720871602E+02  0.21889148961E+02 -0.38354385482E+02  0.62850219449E+02  0.00000000000E+00 0. -1.
</event>
<event>
 8    1  0.7224195E-009  0.8868159E+02  0.7561462E-02  0.1306076E+00
          1   -1    0    0  501    0  0.00000000000E+00  0.00000000000E+00  0.11152733554E+04  0.11152733554E+04  0.00000000000E+00 0. -1.
         -1   -1    0    0    0  501 -0.00000000000E+00 -0.00000000000E+00 -0.10876600291E+02  0.10876600291E+02  0.00000000000E+00 0.  1.
         25    2    1    2    0    0 -0.98944725349E+01  0.36423318158E+01  0.73741944611E+03  0.74802755568E+03  0.12508643968E+03 0.  0.
         23    2    1    2    0    0  0.98944725349E+01 -0.36423318158E+01  0.36697730898E+03  0.37812239998E+03  0.90515395924E+02 0.  0.
          5    1    3    3  502    0  0.35626282772E+02 -0.12315490995E+02  0.61804881296E+03  0.61921136209E+03  0.41800000000E+01 0. -1.
         -5    1    3    3    0  502 -0.45520755307E+02  0.15957822811E+02  0.11937063315E+03  0.12881619359E+03  0.41800000000E+01 0. -1.
        -11    1    4    4    0    0  0.45384366042E+02 -0.22691102101E+02  0.21365943854E+03  0.21960187265E+03  0.00000000000E+00 0. -1.
         11    1    4    4    0    0 -0.35489893507E+02  0.19048770285E+02  0.15331787044E+03  0.15852052734E+03  0.00000000000E+00 0.  1.
</event>
<event>
 8    1  0.7224195E-009  0.1088931E+03  0.7561462E-02  0.1262634E+00
          1   -1    0    0  501    0  0.00000000000E+00  0.00000000000E+00  0.63558437817E+02  0.63558437817E+02  0.00000000000E+00 0. -1.
         -1   -1    0    0    0  501 -0.00000000000E+00 -0.00000000000E+00 -0.26273245492E+03  0.26273245492E+03  0.00000000000E+00 0.  1.
         25    2    1    2    0    0  0.19231068326E+02  0.11914168500E+02 -0.26113152034E+02  0.12977231202E+03  0.12508866798E+03 0.  0.
         23    2    1    2    0    0 -0.19231068326E+02 -0.11914168500E+02 -0.17306086507E+03  0.19651858072E+03  0.90320031825E+02 0.  0.
          5    1    3    3  502    0  0.68806647696E+02 -0.13880006837E+02 -0.74730865152E+01  0.70713002899E+02  0.41800000000E+01 0. -1.
         -5    1    3    3    0  502 -0.49575579370E+02  0.25794175337E+02 -0.18640065519E+02  0.59059309120E+02  0.41800000000E+01 0. -1.
        -11    1    4    4    0    0  0.61677656176E+01 -0.47394564985E+02 -0.10889751097E+03  0.11892415238E+03  0.00000000000E+00 0. -1.
         11    1    4    4    0    0 -0.25398833944E+02  0.35480396485E+02 -0.64163354097E+02  0.77594428340E+02  0.00000000000E+00 0.  1.
</event>
<event>
 8    1  0.7224195E-009  0.1078608E+03  0.7561462E-02  0.1264583E+00
         -1   -1    0    0    0  501 -0.00000000000E+00  0.00000000000E+00  0.19240564227E+03  0.19240564227E+03  0.00000000000E+00 0.  1.
          1   -1    0    0  501    0  0.00000000000E+00 -0.00000000000E+00 -0.81303585785E+02  0.81303585785E+02  0.00000000000E+00 0. -1.
         25    2    1    2    0    0 -0.66404675775E+02  0.22313145928E+02  0.72801652196E+02  0.16079069214E+03  0.12508440619E+03 0.  0.
         23    2    1    2    0    0  0.66404675775E+02 -0.22313145928E+02  0.38300404286E+02  0.11291853591E+03  0.79851220014E+02 0.  0.
          5    1    3    3  502    0 -0.82012110923E+02  0.42184362987E+02  0.98686839032E+01  0.92845948435E+02  0.41800000000E+01 0.  1.
         -5    1    3    3    0  502  0.15607435149E+02 -0.19871217060E+02  0.62932968293E+02  0.67944743708E+02  0.41800000000E+01 0.  1.
        -11    1    4    4    0    0  0.15977856972E+02 -0.41007189440E+02  0.39482913506E+02  0.59125138123E+02  0.00000000000E+00 0. -1.
         11    1    4    4    0    0  0.50426818802E+02  0.18694043513E+02 -0.11825092194E+01  0.53793397787E+02  0.00000000000E+00 0.  1.
</event>
<event>
 8    1  0.7224195E-009  0.1755308E+03  0.7561462E-02  0.1172200E+00
          2   -1    0    0  501    0  0.00000000000E+00  0.00000000000E+00  0.20920105040E+03  0.20920105040E+03  0.00000000000E+00 0.  1.
         -2   -1    0    0    0  501 -0.00000000000E+00 -0.00000000000E+00 -0.17144895775E+03  0.17144895775E+03  0.00000000000E+00 0. -1.
         25    2    1    2    0    0  0.11846792518E+03 -0.94630983657E+02 -0.12319895838E+02  0.19694876665E+03  0.12508942596E+03 0.  0.
         23    2    1    2    0    0 -0.11846792518E+03  0.94630983657E+02  0.50071988494E+02  0.18370124150E+03  0.90825490536E+02 0.  0.
          5    1    3    3  502    0  0.23599811442E+02  0.30934177722E+02 -0.21832952640E+01  0.39193285518E+02  0.41800000000E+01 0.  1.
         -5    1    3    3    0  502  0.94868113741E+02 -0.12556516138E+03 -0.10136600574E+02  0.15775548113E+03  0.41800000000E+01 0.  1.
        -11    1    4    4    0    0 -0.58212316740E+02  0.65313986255E+02 -0.16737444646E+02  0.89077116444E+02  0.00000000000E+00 0. -1.
         11    1    4    4    0    0 -0.60255608444E+02  0.29316997401E+02  0.66809433141E+02  0.94624125054E+02  0.00000000000E+00 0.  1.
</event>
<event>
 8    1  0.7224195E-009  0.1304666E+03  0.7561462E-02  0.1226765E+00
          2   -1    0    0  501    0  0.00000000000E+00  0.00000000000E+00  0.45020465720E+03  0.45020465720E+03  0.00000000000E+00 0. -1.
         -2   -1    0    0    0  501 -0.00000000000E+00 -0.00000000000E+00 -0.50026530664E+02  0.50026530664E+02  0.00000000000E+00 0.  1.
         25    2    1    2    0    0  0.93371321060E+02 -0.37195786072E+02  0.25178970550E+03  0.29857276179E+03  0.12508360480E+03 0.  0.
         23    2    1    2    0    0 -0.93371321060E+02  0.37195786072E+02  0.14838842103E+03  0.20165842607E+03  0.92440614508E+02 0.  0.
          5    1    3    3  502    0 -0.72987975331E+01 -0.56968682649E+02  0.83484113178E+02  0.10141879905E+03  0.41800000000E+01 0. -1.
         -5    1    3    3    0  502  0.10067011859E+03  0.19772896576E+02  0.16830559233E+03  0.19715396274E+03  0.41800000000E+01 0. -1.
        -11    1    4    4    0    0 -0.67031586401E+02  0.23916208757E+02  0.15576332470E+03  0.17125253849E+03  0.00000000000E+00 0. -1.
         11    1    4    4    0    0 -0.26339734659E+02  0.13279577315E+02 -0.73749036682E+01  0.30405887583E+02  0.00000000000E+00 0.  1.
</event>
<event>
 8    1  0.7224195E-009  0.2081890E+03  0.7561462E-02  0.1143008E+00
         -1   -1    0    0    0  501 -0.00000000000E+00  0.00000000000E+00  0.39450909572E+03  0.39450909572E+03  0.00000000000E+00 0.  1.
          1   -1    0    0  501    0  0.00000000000E+00 -0.00000000000E+00 -0.15485375218E+03  0.15485375218E+03  0.00000000000E+00 0. -1.
         25    2    1    2    0    0 -0.17422469504E+03  0.56313132502E+02  0.26272438641E+03  0.34379697329E+03  0.12508733899E+03 0.  0.
         23    2    1    2    0    0  0.17422469504E+03 -0.56313132502E+02 -0.23069042864E+02  0.20556587461E+03  0.90552387102E+02 0.  0.
          5    1    3    3  502    0 -0.90987997305E+02 -0.27111108736E+02  0.70668425789E+02  0.11842857203E+03  0.41800000000E+01 0.  1.
         -5    1    3    3    0  502 -0.83236697740E+02  0.83424241238E+02  0.19205596062E+03  0.22536840126E+03  0.41800000000E+01 0.  1.
        -11    1    4    4    0    0  0.13808633218E+02  0.21169580217E+02 -0.91275943782E+01  0.26872708406E+02  0.00000000000E+00 0.  1.
         11    1    4    4    0    0  0.16041606183E+03 -0.77482712719E+02 -0.13941448486E+02  0.17869316620E+03  0.00000000000E+00 0. -1.
</event>
<event>
 8    1  0.7224195E-009  0.1308619E+03  0.7561462E-02  0.1226182E+00
          1   -1    0    0  501    0  0.00000000000E+00  0.00000000000E+00  0.68752869759E+03  0.68752869759E+03  0.00000000000E+00 0. -1.
         -1   -1    0    0    0  501 -0.00000000000E+00 -0.00000000000E+00 -0.31969043320E+02  0.31969043320E+02  0.00000000000E+00 0.  1.
         25    2    1    2    0    0 -0.99589980184E+02  0.64547403057E+01  0.31960234118E+03  0.35742762412E+03  0.12509605176E+03 0.  0.
         23    2    1    2    0    0  0.99589980184E+02 -0.64547403057E+01  0.33595731308E+03  0.36207011679E+03  0.90926483670E+02 0.  0.
          5    1    3    3  502    0 -0.84006612255E+02 -0.39706729471E+02  0.27825910544E+03  0.29339280398E+03  0.41800000000E+01 0. -1.
         -5    1    3    3    0  502 -0.15583367929E+02  0.46161469777E+02  0.41343235743E+02  0.64034820134E+02  0.41800000000E+01 0. -1.
        -11    1    4    4    0    0  0.81242012171E+02  0.23599149604E+02  0.30017114426E+03  0.31186519564E+03  0.00000000000E+00 0. -1.
         11    1    4    4    0    0  0.18347968013E+02 -0.30053889910E+02  0.35786168825E+02  0.50204921154E+02  0.00000000000E+00 0.  1.
</event>
<event>
 8    1  0.7224195E-009  0.9068615E+02  0.7561462E-02  0.1301199E+00
          2   -1    0    0  501    0  0.00000000000E+00  0.00000000000E+00  0.46357736625E+03  0.46357736625E+03  0.00000000000E+00 0. -1.
         -2   -1    0    0    0  501 -0.00000000000E+00 -0.00000000000E+00 -0.46691358558E+02  0.46691358558E+02  0.00000000000E+00 0.  1.
         25    2    1    2    0    0  0.64769512072E+02 -0.41596641217E+02  0.32568119947E+03  0.35726820198E+03  0.12508778599E+03 0.  0.
         23    2    1    2    0    0 -0.64769512072E+02  0.41596641217E+02  0.91204808226E+02  0.15300052283E+03  0.95736475223E+02 0.  0.
          5    1    3    3  502    0  0.29484111244E+01 -0.20990128867E+02  0.27166665185E+03  0.27252434894E+03  0.41800000000E+01 0. -1.
         -5    1    3    3    0  502  0.61821100947E+02 -0.20606512349E+02  0.54014547617E+02  0.84743853039E+02  0.41800000000E+01 0. -1.
        -11    1    4    4    0    0 -0.34235934248E+01  0.32230901602E+02  0.84596218850E+02  0.90592892954E+02  0.00000000000E+00 0. -1.
         11    1    4    4    0    0 -0.61345918647E+02  0.93657396147E+01  0.66085893760E+01  0.62407629876E+02  0.00000000000E+00 0.  1.
</event>
<event>
 8    1  0.7224195E-009  0.9789107E+02  0.7561462E-02  0.1284794E+00
         -3   -1    0    0    0  501 -0.00000000000E+00  0.00000000000E+00  0.16600727695E+03  0.16600727695E+03  0.00000000000E+00 0.  1.
          3   -1    0    0  501    0  0.00000000000E+00 -0.00000000000E+00 -0.86806366594E+02  0.86806366594E+02  0.00000000000E+00 0. -1.
         25    2    1    2    0    0  0.43080099877E+02  0.12195600588E+02  0.17379775879E+02  0.13399210647E+03  0.12508876971E+03 0.  0.
         23    2    1    2    0    0 -0.43080099877E+02 -0.12195600588E+02  0.61821134479E+02  0.11882153708E+03  0.91060844086E+02 0.  0.
          5    1    3    3  502    0  0.15620776718E+02  0.54513140094E+02 -0.30320108130E+02  0.64439680828E+02  0.41800000000E+01 0. -1.
         -5    1    3    3    0  502  0.27459323160E+02 -0.42317539506E+02  0.47699884009E+02  0.69552425642E+02  0.41800000000E+01 0. -1.
        -11    1    4    4    0    0 -0.58042516665E+02  0.12551113248E+02  0.66906751865E+02  0.89459363007E+02  0.00000000000E+00 0.  1.
         11    1    4    4    0    0  0.14962416788E+02 -0.24746713837E+02 -0.50856173856E+01  0.29362174069E+02  0.00000000000E+00 0. -1.
</event>
<event>
 8    1  0.7224195E-009  0.1472637E+03  0.7561462E-02  0.1203876E+00
          2   -1    0    0  501    0  0.00000000000E+00  0.00000000000E+00  0.18512242800E+03  0.18512242800E+03  0.00000000000E+00 0. -1.
         -2   -1    0    0    0  501 -0.00000000000E+00 -0.00000000000E+00 -0.16655667361E+03  0.16655667361E+03  0.00000000000E+00 0.  1.
         25    2    1    2    0    0  0.81377707434E+02  0.78549545736E+02 -0.69897138717E+02  0.18255033278E+03  0.12508657640E+03 0.  0.
         23    2    1    2    0    0 -0.81377707434E+02 -0.78549545736E+02  0.88462893108E+02  0.16912876883E+03  0.89367189647E+02 0.  0.
          5    1    3    3  502    0  0.24871181835E+02 -0.25051723546E+02  0.13458618220E+02  0.38010147893E+02  0.41800000000E+01 0. -1.
         -5    1    3    3    0  502  0.56506525599E+02  0.10360126928E+03 -0.83355756938E+02  0.14454018489E+03  0.41800000000E+01 0. -1.
        -11    1    4    4    0    0 -0.16484240532E+02  0.18100440488E+02  0.30416454091E+02  0.39045061291E+02  0.00000000000E+00 0.  1.
         11    1    4    4    0    0 -0.64893466902E+02 -0.96649986224E+02  0.58046439017E+02  0.13008370754E+03  0.00000000000E+00 0. -1.
</event>
<event>
 8    1  0.7224195E-009  0.1045383E+03  0.7561462E-02  0.1271032E+00
          2   -1    0    0  501    0  0.00000000000E+00  0.00000000000E+00  0.17214306202E+03  0.17214306202E+03  0.00000000000E+00 0. -1.
         -2   -1    0    0    0  501 -0.00000000000E+00 -0.00000000000E+00 -0.94094445728E+02  0.94094445728E+02  0.00000000000E+00 0.  1.
         25    2    1    2    0    0  0.28552038030E+02  0.61611942922E+02  0.14469637636E+02  0.14306647349E+03  0.12508954808E+03 0.  0.
         23    2    1    2    0    0 -0.28552038030E+02 -0.61611942922E+02  0.63578978652E+02  0.12317103425E+03  0.80731448433E+02 0.  0.
          5    1    3    3  502    0 -0.16786814824E+02  0.55232768482E+02  0.56420192883E+02  0.80828005240E+02  0.41800000000E+01 0. -1.
         -5    1    3    3    0  502  0.45338852854E+02  0.63791744402E+01 -0.41950555248E+02  0.62238468251E+02  0.41800000000E+01 0. -1.
        -11    1    4    4    0    0  0.15423758694E+01  0.19058704817E+02  0.15065198232E+02  0.24342829548E+02  0.00000000000E+00 0.  1.
         11    1    4    4    0    0 -0.30094413900E+02 -0.80670647739E+02  0.48513780420E+02  0.98828204705E+02  0.00000000000E+00 0. -1.
</event>
<event>
 8    1  0.7224195E-009  0.2028199E+03  0.7561462E-02  0.1147381E+00
         -2   -1    0    0    0  501 -0.00000000000E+00  0.00000000000E+00  0.43037722596E+03  0.43037722596E+03  0.00000000000E+00 0.  1.
          2   -1    0    0  501    0  0.00000000000E+00 -0.00000000000E+00 -0.12161940481E+03  0.12161940481E+03  0.00000000000E+00 0. -1.
         25    2    1    2    0    0  0.13777590710E+03 -0.11950298518E+03  0.57319929685E+02  0.22846480196E+03  0.12508967724E+03 0.  0.
         23    2    1    2    0    0 -0.13777590710E+03  0.11950298518E+03  0.25143789146E+03  0.32353182880E+03  0.90491253397E+02 0.  0.
          5    1    3    3  502    0  0.46133693308E+02  0.14087677323E+02  0.44735685110E+02  0.65920666205E+02  0.41800000000E+01 0.  1.
         -5    1    3    3    0  502  0.91642213794E+02 -0.13359066250E+03  0.12584244575E+02  0.16254413576E+03  0.41800000000E+01 0.  1.
        -11    1    4    4    0    0 -0.36741181146E+02  0.77461625253E+02  0.15744779584E+03  0.17927639608E+03  0.00000000000E+00 0. -1.
         11    1    4    4    0    0 -0.10103472596E+03  0.42041359927E+02  0.93990095624E+02  0.14425543272E+03  0.00000000000E+00 0.  1.
</event>
<event>
 8    1  0.7224195E-009  0.1333819E+03  0.7561462E-02  0.1222522E+00
          1   -1    0    0  501    0  0.00000000000E+00  0.00000000000E+00  0.85390122908E+03  0.85390122908E+03  0.00000000000E+00 0. -1.
         -1   -1    0    0    0  501 -0.00000000000E+00 -0.00000000000E+00 -0.30200479035E+02  0.30200479035E+02  0.00000000000E+00 0.  1.
         25    2    1    2    0    0 -0.31600027007E+02  0.97374527186E+02  0.60405130839E+03  0.62530498834E+03  0.12509190629E+03 0.  0.
         23    2    1    2    0    0  0.31600027007E+02 -0.97374527186E+02  0.21964944165E+03  0.25879671977E+03  0.90826784028E+02 0.  0.
          5    1    3    3  502    0 -0.10636435240E+02 -0.30161944852E+02  0.12824902064E+03  0.13224280837E+03  0.41800000000E+01 0. -1.
         -5    1    3    3    0  502 -0.20963591767E+02  0.12753647204E+03  0.47580228775E+03  0.49306217997E+03  0.41800000000E+01 0. -1.
        -11    1    4    4    0    0  0.18523729872E+02 -0.22304504068E+02  0.15840035280E+03  0.16103195719E+03  0.00000000000E+00 0. -1.
         11    1    4    4    0    0  0.13076297135E+02 -0.75070023118E+02  0.61249088852E+02  0.97764762583E+02  0.00000000000E+00 0.  1.
</event>
<event>
 8    1  0.7224195E-009  0.3684767E+03  0.7561462E-02  0.1055277E+00
          2   -1    0    0  501    0  0.00000000000E+00  0.00000000000E+00  0.94132052359E+03  0.94132052359E+03  0.00000000000E+00 0.  1.
         -2   -1    0    0    0  501 -0.00000000000E+00 -0.00000000000E+00 -0.16420989271E+03  0.16420989271E+03  0.00000000000E+00 0. -1.
         25    2    1    2    0    0 -0.26117494983E+03  0.25337336401E+03  0.25283436652E+03  0.46041082883E+03  0.12506997403E+03 0.  0.
         23    2    1    2    0    0  0.26117494983E+03 -0.25337336401E+03  0.52427626437E+03  0.64511958747E+03  0.94357112924E+02 0.  0.
          5    1    3    3  502    0 -0.18349472434E+03  0.19877661589E+03  0.24508333151E+03  0.36505584322E+03  0.41800000000E+01 0.  1.
         -5    1    3    3    0  502 -0.77680225483E+02  0.54596748116E+02  0.77510350059E+01  0.95354985604E+02  0.41800000000E+01 0.  1.
        -11    1    4    4    0    0  0.21536092835E+03 -0.16319067270E+03  0.33386623706E+03  0.42950924246E+03  0.00000000000E+00 0.  1.
         11    1    4    4    0    0  0.45814021479E+02 -0.90182691310E+02  0.19041002731E+03  0.21561034501E+03  0.00000000000E+00 0. -1.
</event>
<event>
 8    1  0.7224195E-009  0.1042050E+03  0.7561462E-02  0.1271694E+00
         -1   -1    0    0    0  501 -0.00000000000E+00  0.00000000000E+00  0.25927814973E+03  0.25927814973E+03  0.00000000000E+00 0.  1.
          1   -1    0    0  501    0  0.00000000000E+00 -0.00000000000E+00 -0.70137668916E+02  0.70137668916E+02  0.00000000000E+00 0. -1.
         25    2    1    2    0    0  0.27150926819E+02  0.56478149528E+02  0.45906304505E+02  0.14724706350E+03  0.12508938690E+03 0.  0.
         23    2    1    2    0    0 -0.27150926819E+02 -0.56478149528E+02  0.14323417631E+03  0.18216875514E+03  0.93501186547E+02 0.  0.
          5    1    3    3  502    0  0.15187013735E+02  0.73207512620E+02  0.78495174777E+02  0.10848479227E+03  0.41800000000E+01 0. -1.
         -5    1    3    3    0  502  0.11963913084E+02 -0.16729363092E+02 -0.32588870272E+02  0.38762271236E+02  0.41800000000E+01 0. -1.
        -11    1    4    4    0    0 -0.49909683382E+02  0.18340812496E+01  0.65232127344E+02  0.82155771478E+02  0.00000000000E+00 0.  1.
         11    1    4    4    0    0  0.22758756563E+02 -0.58312230777E+02  0.78002048964E+02  0.10001298366E+03  0.00000000000E+00 0. -1.
</event>
<event>
 8    1  0.7224195E-009  0.1008988E+03  0.7561462E-02  0.1278417E+00
         -1   -1    0    0    0  501 -0.00000000000E+00  0.00000000000E+00  0.41222349219E+02  0.41222349219E+02  0.00000000000E+00 0.  1.
          1   -1    0    0  501    0  0.00000000000E+00 -0.00000000000E+00 -0.34399030170E+03  0.34399030170E+03  0.00000000000E+00 0. -1.
         25    2    1    2    0    0 -0.18460193666E+02  0.36719549845E+02 -0.21935547980E+03  0.25583751192E+03  0.12508757690E+03 0.  0.
         23    2    1    2    0    0  0.18460193666E+02 -0.36719549845E+02 -0.83412472678E+02  0.12937513900E+03  0.89950997226E+02 0.  0.
          5    1    3    3  502    0  0.89736616682E+01 -0.33075220864E+02 -0.14139073180E+02  0.37307943247E+02  0.41800000000E+01 0. -1.
         -5    1    3    3    0  502 -0.27433855334E+02  0.69794770709E+02 -0.20521640662E+03  0.21852956867E+03  0.41800000000E+01 0. -1.
        -11    1    4    4    0    0 -0.41760489967E+01 -0.59735508263E+02 -0.75079483247E+02  0.96034885002E+02  0.00000000000E+00 0. -1.
         11    1    4    4    0    0  0.22636242663E+02  0.23015958418E+02 -0.83329894315E+01  0.33340253998E+02  0.00000000000E+00 0.  1.
</event>
<event>
 8    1  0.7224195E-009  0.8160857E+02  0.7561462E-02  0.1324548E+00
          2   -1    0    0  501    0  0.00000000000E+00  0.00000000000E+00  0.13245920367E+04  0.13245920367E+04  0.00000000000E+00 0. -1.
         -2   -1    0    0    0  501 -0.00000000000E+00 -0.00000000000E+00 -0.11936001288E+02  0.11936001288E+02  0.00000000000E+00 0.  1.
         25    2    1    2    0    0 -0.49868212986E+02 -0.19461633970E+02  0.87906265009E+03  0.88952987156E+03  0.12508659305E+03 0.  0.
         23    2    1    2    0    0  0.49868212986E+02  0.19461633970E+02  0.43359338528E+03  0.44699816639E+03  0.94543868798E+02 0.  0.
          5    1    3    3  502    0 -0.14600633420E+02 -0.28929495887E+01  0.76733635836E+01  0.17259796125E+02  0.41800000000E+01 0. -1.
         -5    1    3    3    0  502 -0.35267579566E+02 -0.16568684381E+02  0.87138928651E+03  0.87227007544E+03  0.41800000000E+01 0. -1.
        -11    1    4    4    0    0 -0.31872214076E+01  0.48148136225E+02  0.18426853572E+03  0.19048174364E+03  0.00000000000E+00 0.  1.
         11    1    4    4    0    0  0.53055434393E+02 -0.28686502255E+02  0.24932484956E+03  0.25651642275E+03  0.00000000000E+00 0. -1.
</event>
<event>
 8    1  0.7224195E-009  0.1188998E+03  0.7561462E-02  0.1244923E+00
          2   -1    0    0  501    0  0.00000000000E+00  0.00000000000E+00  0.23832767817E+03  0.23832767817E+03  0.00000000000E+00 0. -1.
         -2   -1    0    0    0  501 -0.00000000000E+00 -0.00000000000E+00 -0.60196534313E+02  0.60196534313E+02  0.00000000000E+00 0.  1.
         25    2    1    2    0    0 -0.21160547559E+02  0.46633566289E+02  0.90025255140E+02  0.16240199215E+03  0.12508957676E+03 0.  0.
         23    2    1    2    0    0  0.21160547559E+02 -0.46633566289E+02  0.88105888713E+02  0.13612222033E+03  0.90244960876E+02 0.  0.
          5    1    3    3  502    0 -0.71927740671E+02  0.40788835850E+02  0.45374797867E+02  0.94412253916E+02  0.41800000000E+01 0. -1.
         -5    1    3    3    0  502  0.50767193112E+02  0.58447304389E+01  0.44650457273E+02  0.67989738233E+02  0.41800000000E+01 0. -1.
        -11    1    4    4    0    0  0.16652044534E+02 -0.74074806366E+02  0.63031384165E+02  0.98677874496E+02  0.00000000000E+00 0. -1.
         11    1    4    4    0    0  0.45085030247E+01  0.27441240077E+02  0.25074504548E+02  0.37444345833E+02  0.00000000000E+00 0.  1.
</event>
<event>
 8    1  0.7224195E-009  0.1143648E+03  0.7561462E-02  0.1252694E+00
          2   -1    0    0  501    0  0.00000000000E+00  0.00000000000E+00  0.19884377232E+03  0.19884377232E+03  0.00000000000E+00 0. -1.
         -2   -1    0    0    0  501 -0.00000000000E+00 -0.00000000000E+00 -0.75300547511E+02  0.75300547511E+02  0.00000000000E+00 0.  1.
         25    2    1    2    0    0  0.38095225602E+02 -0.11899455468E+02  0.24426756476E+02  0.13355675767E+03  0.12509155780E+03 0.  0.
         23    2    1    2    0    0 -0.38095225602E+02  0.11899455468E+02  0.99116468332E+02  0.14058756216E+03  0.91367089726E+02 0.  0.
          5    1    3    3  502    0  0.68226163998E+02  0.32227065661E+02  0.26056636675E+02  0.79936311710E+02  0.41800000000E+01 0. -1.
         -5    1    3    3    0  502 -0.30130938396E+02 -0.44126521129E+02 -0.16298801992E+01  0.53620445961E+02  0.41800000000E+01 0. -1.
        -11    1    4    4    0    0 -0.49339178562E+01 -0.38728816874E+02  0.35262420093E+02  0.52608963806E+02  0.00000000000E+00 0. -1.
         11    1    4    4    0    0 -0.33161307746E+02  0.50628272342E+02  0.63854048239E+02  0.87978598353E+02  0.00000000000E+00 0.  1.
</event>
<event>
 8    1  0.7224195E-009  0.1934838E+03  0.7561462E-02  0.1155356E+00
         -2   -1    0    0    0  501 -0.00000000000E+00  0.00000000000E+00  0.56030835278E+02  0.56030835278E+02  0.00000000000E+00 0.  1.
          2   -1    0    0  501    0  0.00000000000E+00 -0.00000000000E+00 -0.76280899050E+03  0.76280899050E+03  0.00000000000E+00 0. -1.
         25    2    1    2    0    0 -0.11649134911E+03 -0.13173923874E+03 -0.34607019819E+03  0.40784538525E+03  0.12509122574E+03 0.  0.
         23    2    1    2    0    0  0.11649134911E+03  0.13173923874E+03 -0.36070795704E+03  0.41099444053E+03  0.88773523275E+02 0.  0.
          5    1    3    3  502    0 -0.22002972833E+02 -0.88630650039E+02 -0.25044519542E+03  0.26660793545E+03  0.41800000000E+01 0. -1.
         -5    1    3    3    0  502 -0.94488376272E+02 -0.43108588703E+02 -0.95625002771E+02  0.14123744980E+03  0.41800000000E+01 0. -1.
        -11    1    4    4    0    0  0.30737266995E+02  0.92181476478E+02 -0.23049706444E+03  0.25014216139E+03  0.00000000000E+00 0.  1.
         11    1    4    4    0    0  0.85754082110E+02  0.39557762264E+02 -0.13021089260E+03  0.16085227914E+03  0.00000000000E+00 0. -1.
</event>
<event>
 8    1  0.7224195E-009  0.2982414E+03  0.7561462E-02  0.1086123E+00
          2   -1    0    0  501    0  0.00000000000E+00  0.00000000000E+00  0.19587288384E+04  0.19587288384E+04  0.00000000000E+00 0. -1.
         -2   -1    0    0    0  501 -0.00000000000E+00 -0.00000000000E+00 -0.56180897111E+02  0.56180897111E+02  0.00000000000E+00 0.  1.
         25    2    1    2    0    0 -0.94590851463E+02 -0.27498162620E+03  0.61319983369E+03  0.69009013111E+03  0.12509208243E+03 0.  0.
         23    2    1    2    0    0  0.94590851463E+02  0.27498162620E+03  0.12893481076E+04  0.13248196044E+04  0.90366574059E+02 0.  0.
          5    1    3    3  502    0 -0.40077165268E+01 -0.48422119538E+02  0.28442778081E+02  0.56455535400E+02  0.41800000000E+01 0. -1.
         -5    1    3    3    0  502 -0.90583134936E+02 -0.22655950667E+03  0.58475705560E+03  0.63363459571E+03  0.41800000000E+01 0. -1.
        -11    1    4    4    0    0  0.31990946026E+02  0.13347234870E+02  0.11866291629E+03  0.12362223509E+03  0.00000000000E+00 0.  1.
         11    1    4    4    0    0  0.62599905436E+02  0.26163439133E+03  0.11706851913E+04  0.12011973693E+04  0.00000000000E+00 0. -1.
</event>
<event>
 8    1  0.7224195E-009  0.1255595E+03  0.7561462E-02  0.1234197E+00
          2   -1    0    0  501    0  0.00000000000E+00  0.00000000000E+00  0.84585759619E+03  0.84585759619E+03  0.00000000000E+00 0.  1.
         -2   -1    0    0    0  501 -0.00000000000E+00 -0.00000000000E+00 -0.23474496265E+02  0.23474496265E+02  0.00000000000E+00 0. -1.
         25    2    1    2    0    0  0.86102882430E+02  0.14376099230E+02  0.39078335384E+03  0.41949856056E+03  0.12508810529E+03 0.  0.
         23    2    1    2    0    0 -0.86102882430E+02 -0.14376099230E+02  0.43159974609E+03  0.44983353189E+03  0.91931969415E+02 0.  0.
          5    1    3    3  502    0  0.28503722497E+02  0.52969702918E+02  0.75337373120E+02  0.96495822769E+02  0.41800000000E+01 0.  1.
         -5    1    3    3    0  502  0.57599159933E+02 -0.38593603688E+02  0.31544598072E+03  0.32300273779E+03  0.41800000000E+01 0.  1.
        -11    1    4    4    0    0  0.72655934557E+01 -0.26254848256E+02  0.51582973908E+02  0.58334458962E+02  0.00000000000E+00 0. -1.
         11    1    4    4    0    0 -0.93368475885E+02  0.11878749027E+02  0.38001677218E+03  0.39149907293E+03  0.00000000000E+00 0.  1.
</event>
<event>
 8    1  0.7224195E-009  0.1058388E+03  0.7561462E-02  0.1268476E+00
          2   -1    0    0  501    0  0.00000000000E+00  0.00000000000E+00  0.15050308484E+04  0.15050308484E+04  0.00000000000E+00 0. -1.
         -2   -1    0    0    0  501 -0.00000000000E+00 -0.00000000000E+00 -0.10956650018E+02  0.10956650018E+02  0.00000000000E+00 0.  1.
         25    2    1    2    0    0 -0.42324405582E+02  0.47120023835E+02  0.10164311273E+04  0.10260561946E+04  0.12508967131E+03 0.  0.
         23    2    1    2    0    0  0.42324405582E+02 -0.47120023835E+02  0.47764307104E+03  0.48993130383E+03  0.88758814808E+02 0.  0.
          5    1    3    3  502    0  0.20858231193E+02  0.30934517945E+02  0.92671592450E+02  0.99987532504E+02  0.41800000000E+01 0.  1.
         -5    1    3    3    0  502 -0.63182636776E+02  0.16185505890E+02  0.92375953489E+03  0.92606866208E+03  0.41800000000E+01 0.  1.
        -11    1    4    4    0    0 -0.23629479780E+02 -0.34202227477E+02  0.16630375270E+03  0.17142077716E+03  0.00000000000E+00 0.  1.
         11    1    4    4    0    0  0.65953885362E+02 -0.12917796357E+02  0.31133931834E+03  0.31851052667E+03  0.00000000000E+00 0. -1.
</event>
<event>
 8    1  0.7224195E-009  0.1465116E+03  0.7561462E-02  0.1204826E+00
         -2   -1    0    0    0  501 -0.00000000000E+00  0.00000000000E+00  0.26945937672E+03  0.26945937672E+03  0.00000000000E+00 0. -1.
          2   -1    0    0  501    0  0.00000000000E+00 -0.00000000000E+00 -0.81867307617E+02  0.81867307617E+02  0.00000000000E+00 0.  1.
         25    2    1    2    0    0 -0.97911966747E+02  0.10287001956E+02  0.80773131230E+02  0.17850570680E+03  0.12508961983E+03 0.  0.
         23    2    1    2    0    0  0.97911966747E+02 -0.10287001956E+02  0.10681893787E+03  0.17282097754E+03  0.93617461762E+02 0.  0.
          5    1    3    3  502    0  0.95139799543E+01 -0.39401387083E+02  0.21080307381E+02  0.45878501260E+02  0.41800000000E+01 0.  1.
         -5    1    3    3    0  502 -0.10742594670E+03  0.49688389039E+02  0.59692823849E+02  0.13262720554E+03  0.41800000000E+01 0.  1.
        -11    1    4    4    0    0  0.94181207088E+02  0.25728043903E+02  0.90427449807E+02  0.13307575170E+03  0.00000000000E+00 0. -1.
         11    1    4    4    0    0  0.37307596591E+01 -0.36015045859E+02  0.16391488066E+02  0.39745225837E+02  0.00000000000E+00 0.  1.
</event>
<event>
 8    1  0.7224195E-009  0.5988518E+02  0.7561462E-02  0.1398314E+00
         -2   -1    0    0    0  501 -0.00000000000E+00  0.00000000000E+00  0.61840548606E+03  0.61840548606E+03  0.00000000000E+00 0. -1.
          2   -1    0    0  501    0  0.00000000000E+00 -0.00000000000E+00 -0.21901554202E+02  0.21901554202E+02  0.00000000000E+00 0.  1.
         25    2    1    2    0    0  0.24695540557E+02  0.77322978395E+01  0.42331222219E+03  0.44216619108E+03  0.12509214574E+03 0.  0.
         23    2    1    2    0    0 -0.24695540557E+02 -0.77322978395E+01  0.17319170966E+03  0.19814084917E+03  0.92707980580E+02 0.  0.
          5    1    3    3  502    0  0.20340169489E+02  0.36772553148E+01  0.24375823426E+01  0.21228728393E+02  0.41800000000E+01 0. -1.
         -5    1    3    3    0  502  0.43553710680E+01  0.40550425247E+01  0.42087463985E+03  0.42093746269E+03  0.41800000000E+01 0. -1.
        -11    1    4    4    0    0  0.96627085459E+01 -0.41873054450E+02  0.50951450876E+02  0.66654114440E+02  0.00000000000E+00 0.  1.
         11    1    4    4    0    0 -0.34358249103E+02  0.34140756611E+02  0.12224025878E+03  0.13148673473E+03  0.00000000000E+00 0. -1.
</event>
<event>
 8    1  0.7224195E-009  0.1319261E+03  0.7561462E-02  0.1224625E+00
          2   -1    0    0  501    0  0.00000000000E+00  0.00000000000E+00  0.46129558025E+02  0.46129558025E+02  0.00000000000E+00 0. -1.
         -2   -1    0    0    0  501 -0.00000000000E+00 -0.00000000000E+00 -0.39920624490E+03  0.39920624490E+03  0.00000000000E+00 0.  1.
         25    2    1    2    0    0  0.39771544714E+02  0.69678146583E+02 -0.19999642654E+03  0.24916379300E+03  0.12508878940E+03 0.  0.
         23    2    1    2    0    0 -0.39771544714E+02 -0.69678146583E+02 -0.15308026034E+03  0.19617200993E+03  0.92806634970E+02 0.  0.
          5    1    3    3  502    0 -0.41347849565E+02  0.48854670885E+02 -0.75577997546E+02  0.99125827331E+02  0.41800000000E+01 0.  1.
         -5    1    3    3    0  502  0.81119394279E+02  0.20823475698E+02 -0.12441842899E+03  0.15003796566E+03  0.41800000000E+01 0.  1.
        -11    1    4    4    0    0 -0.24116180578E+01  0.19250620023E+02 -0.56227693390E+02  0.59480717689E+02  0.00000000000E+00 0.  1.
         11    1    4    4    0    0 -0.37359926656E+02 -0.88928766606E+02 -0.96852566949E+02  0.13669129224E+03  0.00000000000E+00 0. -1.
</event>
<event>
 8    1  0.7224195E-009  0.7023974E+02  0.7561462E-02  0.1359280E+00
         -2   -1    0    0    0  501 -0.00000000000E+00  0.00000000000E+00  0.25655040438E+03  0.25655040438E+03  0.00000000000E+00 0.  1.
          2   -1    0    0  501    0  0.00000000000E+00 -0.00000000000E+00 -0.56809812897E+02  0.56809812897E+02  0.00000000000E+00 0. -1.
         25    2    1    2    0    0  0.14432376132E+00 -0.31029851788E+02  0.17425173691E+03  0.21673474798E+03  0.12508961041E+03 0.  0.
         23    2    1    2    0    0 -0.14432376132E+00  0.31029851788E+02  0.25488854570E+02  0.96625469300E+02  0.87885875309E+02 0.  0.
          5    1    3    3  502    0  0.14464971041E+02 -0.22448459989E+00 -0.16846403024E+02  0.22595563180E+02  0.41800000000E+01 0.  1.
         -5    1    3    3    0  502 -0.14320647280E+02 -0.30805367188E+02  0.19109813994E+03  0.19413918480E+03  0.41800000000E+01 0.  1.
        -11    1    4    4    0    0 -0.42849710343E+02  0.12453230536E+02  0.22459894344E+02  0.49956255676E+02  0.00000000000E+00 0. -1.
         11    1    4    4    0    0  0.42705386581E+02  0.18576621252E+02  0.30289602256E+01  0.46669213624E+02  0.00000000000E+00 0.  1.
</event>
<event>
 8    1  0.7224195E-009  0.1020173E+03  0.7561462E-02  0.1276110E+00
          1   -1    0    0  501    0  0.00000000000E+00  0.00000000000E+00  0.32459410608E+03  0.32459410608E+03  0.00000000000E+00 0. -1.
         -1   -1    0    0    0  501 -0.00000000000E+00 -0.00000000000E+00 -0.60749276616E+02  0.60749276616E+02  0.00000000000E+00 0.  1.
         25    2    1    2    0    0 -0.65375903401E+02 -0.19308318983E+02  0.22836871709E+03  0.26916006827E+03  0.12509217193E+03 0.  0.
         23    2    1    2    0    0  0.65375903401E+02  0.19308318983E+02  0.35476112380E+02  0.11618331443E+03  0.87138901043E+02 0.  0.
          5    1    3    3  502    0 -0.90725445590E+02 -0.43339492888E+02  0.20028887399E+03  0.22414844092E+03  0.41800000000E+01 0.  1.
         -5    1    3    3    0  502  0.25349542189E+02  0.24031173905E+02  0.28079843096E+02  0.45011627350E+02  0.41800000000E+01 0.  1.
        -11    1    4    4    0    0  0.27986892423E+02  0.68488250739E+01 -0.28831232533E+02  0.40760428380E+02  0.00000000000E+00 0.  1.
         11    1    4    4    0    0  0.37389010978E+02  0.12459493909E+02  0.64307344913E+02  0.75422886050E+02  0.00000000000E+00 0. -1.
</event>
<event>
 8    1  0.7224195E-009  0.8680819E+02  0.7561462E-02  0.1310771E+00
         -1   -1    0    0    0  501 -0.00000000000E+00  0.00000000000E+00  0.48824788087E+02  0.48824788087E+02  0.00000000000E+00 0.  1.
          1   -1    0    0  501    0  0.00000000000E+00 -0.00000000000E+00 -0.33243990321E+03  0.33243990321E+03  0.00000000000E+00 0. -1.
         25    2    1    2    0    0 -0.33423583654E+02  0.42875589021E+02 -0.21682587404E+03  0.25615857532E+03  0.12509318118E+03 0.  0.
         23    2    1    2    0    0  0.33423583654E+02 -0.42875589021E+02 -0.66789241084E+02  0.12510611598E+03  0.90748473560E+02 0.  0.
          5    1    3    3  502    0 -0.45386912235E+02  0.24114386045E+02 -0.22594241904E+03  0.23175185984E+03  0.41800000000E+01 0.  1.
         -5    1    3    3    0  502  0.11963328581E+02  0.18761202976E+02  0.91165449982E+01  0.24406715481E+02  0.41800000000E+01 0.  1.
        -11    1    4    4    0    0  0.40804752920E+02  0.13173263295E+02 -0.81360502592E+01  0.43643533777E+02  0.00000000000E+00 0.  1.
         11    1    4    4    0    0 -0.73811692665E+01 -0.56048852315E+02 -0.58653190825E+02  0.81462582206E+02  0.00000000000E+00 0. -1.
</event>
<event>
 8    1  0.7224195E-009  0.7773920E+02  0.7561462E-02  0.1335593E+00
          1   -1    0    0  501    0  0.00000000000E+00  0.00000000000E+00  0.72461231471E+03  0.72461231471E+03  0.00000000000E+00 0. -1.
         -1   -1    0    0    0  501 -0.00000000000E+00 -0.00000000000E+00 -0.23936498551E+02  0.23936498551E+02  0.00000000000E+00 0.  1.
         25    2    1    2    0    0 -0.48952121826E+02  0.33508385695E+02  0.52824608125E+03  0.54608539953E+03  0.12508484750E+03 0.  0.
         23    2    1    2    0    0  0.48952121826E+02 -0.33508385695E+02  0.17242973491E+03  0.20246341374E+03  0.87978964974E+02 0.  0.
          5    1    3    3  502    0 -0.15579269375E+02 -0.20496711365E+02  0.17540130439E+02  0.31431789431E+02  0.41800000000E+01 0.  1.
         -5    1    3    3    0  502 -0.33372852451E+02  0.54005097059E+02  0.51070595081E+03  0.51465361010E+03  0.41800000000E+01 0.  1.
        -11    1    4    4    0    0  0.83312929905E+01 -0.22044389330E+02 -0.13758566511E+01  0.23606323842E+02  0.00000000000E+00 0.  1.
         11    1    4    4    0    0  0.40620828835E+02 -0.11463996365E+02  0.17380559156E+03  0.17885708990E+03  0.00000000000E+00 0. -1.
</event>
<event>
 8    1  0.7224195E-009  0.1016176E+03  0.7561462E-02  0.1276931E+00
         -2   -1    0    0    0  501 -0.00000000000E+00  0.00000000000E+00  0.12736509695E+03  0.12736509695E+03  0.00000000000E+00 0.  1.
          2   -1    0    0  501    0  0.00000000000E+00 -0.00000000000E+00 -0.95691189163E+02  0.95691189163E+02  0.00000000000E+00 0. -1.
         25    2    1    2    0    0 -0.87737179758E+01 -0.11213450141E+02  0.38226277516E+02  0.13157568116E+03  0.12509273356E+03 0.  0.
         23    2    1    2    0    0  0.87737179758E+01  0.11213450141E+02 -0.65523697325E+01  0.91480604951E+02  0.90127953166E+02 0.  0.
          5    1    3    3  502    0 -0.63459006987E+02 -0.67164235629E+01  0.41851401619E+02  0.76427535161E+02  0.41800000000E+01 0. -1.
         -5    1    3    3    0  502  0.54685289011E+02 -0.44970265777E+01 -0.36251241032E+01  0.55148145998E+02  0.41800000000E+01 0. -1.
        -11    1    4    4    0    0  0.42383402276E+02 -0.11224858192E+02 -0.20934640915E+02  0.48586103159E+02  0.00000000000E+00 0.  1.
         11    1    4    4    0    0 -0.33609684300E+02  0.22438308333E+02  0.14382271183E+02  0.42894501792E+02  0.00000000000E+00 0. -1.
</event>
<event>
 8    1  0.7224195E-009  0.8009718E+02  0.7561462E-02  0.1328776E+00
          1   -1    0    0  501    0  0.00000000000E+00  0.00000000000E+00  0.18664835820E+03  0.18664835820E+03  0.00000000000E+00 0. -1.
         -1   -1    0    0    0  501 -0.00000000000E+00 -0.00000000000E+00 -0.64010845615E+02  0.64010845615E+02  0.00000000000E+00 0.  1.
         25    2    1    2    0    0  0.66345311637E+01  0.47556779597E+01  0.85619296892E+02  0.15180986522E+03  0.12509571416E+03 0.  0.
         23    2    1    2    0    0 -0.66345311637E+01 -0.47556779597E+01  0.37018215689E+02  0.98849338587E+02  0.91291894327E+02 0.  0.
          5    1    3    3  502    0 -0.29459895481E+02 -0.11048718291E+02  0.10355906758E+03  0.10831395337E+03  0.41800000000E+01 0.  1.
         -5    1    3    3    0  502  0.36094426644E+02  0.15804396251E+02 -0.17939770684E+02  0.43495911852E+02  0.41800000000E+01 0.  1.
        -11    1    4    4    0    0  0.36486490977E+02  0.17318064432E+02  0.29063539248E+02  0.49758101784E+02  0.00000000000E+00 0.  1.
         11    1    4    4    0    0 -0.43121022141E+02 -0.22073742392E+02  0.79546764403E+01  0.49091236804E+02  0.00000000000E+00 0. -1.
</event>
<event>
 8    1  0.7224195E-009  0.9716519E+02  0.7561462E-02  0.1286373E+00
         -2   -1    0    0    0  501 -0.00000000000E+00  0.00000000000E+00  0.48535428754E+02  0.48535428754E+02  0.00000000000E+00 0.  1.
          2   -1    0    0  501    0  0.00000000000E+00 -0.00000000000E+00 -0.36726748797E+03  0.36726748797E+03  0.00000000000E+00 0. -1.
         25    2    1    2    0    0  0.10057065365E+02  0.58251386131E+02 -0.26756265157E+03  0.30121426905E+03  0.12508355135E+03 0.  0.
         23    2    1    2    0    0 -0.10057065365E+02 -0.58251386131E+02 -0.51169407649E+02  0.11458864767E+03  0.83772795977E+02 0.  0.
          5    1    3    3  502    0 -0.48250440897E+02  0.15056174076E+01 -0.15405589602E+03  0.16149632637E+03  0.41800000000E+01 0.  1.
         -5    1    3    3    0  502  0.58307506262E+02  0.56745768724E+02 -0.11350675554E+03  0.13971794269E+03  0.41800000000E+01 0.  1.
        -11    1    4    4    0    0 -0.18338023062E+02 -0.32028625111E+02 -0.71450530483E+02  0.80419489072E+02  0.00000000000E+00 0. -1.
         11    1    4    4    0    0  0.82809576973E+01 -0.26222761020E+02  0.20281122834E+02  0.34169158598E+02  0.00000000000E+00 0.  1.
</event>
<event>
 8    1  0.7224195E-009  0.5902616E+02  0.7561462E-02  0.1401965E+00
         -1   -1    0    0    0  501 -0.00000000000E+00  0.00000000000E+00  0.13573086844E+03  0.13573086844E+03  0.00000000000E+00 0.  1.
          1   -1    0    0  501    0  0.00000000000E+00 -0.00000000000E+00 -0.91183207011E+02  0.91183207011E+02  0.00000000000E+00 0. -1.
         25    2    1    2    0    0 -0.22352017907E+02 -0.17636993280E+02  0.22091381485E+02  0.13017985226E+03  0.12509232016E+03 0.  0.
         23    2    1    2    0    0  0.22352017907E+02  0.17636993280E+02  0.22456279945E+02  0.96734223188E+02  0.89680260874E+02 0.  0.
          5    1    3    3  502    0 -0.34369332495E+02  0.26339170595E+02 -0.35824924788E+02  0.56355128958E+02  0.41800000000E+01 0. -1.
         -5    1    3    3    0  502  0.12017314588E+02 -0.43976163875E+02  0.57916306273E+02  0.73824723306E+02  0.41800000000E+01 0. -1.
        -11    1    4    4    0    0  0.13995849953E+02  0.84400093006E+01  0.57381815180E+02  0.59663978130E+02  0.00000000000E+00 0.  1.
         11    1    4    4    0    0  0.83561679542E+01  0.91969839790E+01 -0.34925535235E+02  0.37070245058E+02  0.00000000000E+00 0. -1.
</event>
<event>
 8    1  0.7224195E-009  0.1271412E+03  0.7561462E-02  0.1231760E+00
         -2   -1    0    0    0  501 -0.00000000000E+00  0.00000000000E+00  0.75231481991E+02  0.75231481991E+02  0.00000000000E+00 0. -1.
          2   -1    0    0  501    0  0.00000000000E+00 -0.00000000000E+00 -0.27214785789E+03  0.27214785789E+03  0.00000000000E+00 0.  1.
         25    2    1    2    0    0  0.75166457422E+02  0.42917291922E+02 -0.16388681403E+03  0.22360953904E+03  0.12510175006E+03 0.  0.
         23    2    1    2    0    0 -0.75166457422E+02 -0.42917291922E+02 -0.33029561865E+02  0.12376980084E+03  0.82073877550E+02 0.  0.
          5    1    3    3  502    0  0.80692517009E+02  0.77991809105E+02 -0.14428011631E+03  0.18283388348E+03  0.41800000000E+01 0. -1.
         -5    1    3    3    0  502 -0.55260595873E+01 -0.35074517183E+02 -0.19606697728E+02  0.40775655555E+02  0.41800000000E+01 0. -1.
        -11    1    4    4    0    0 -0.35788172026E+02  0.12793859322E+02  0.14440004054E+02  0.40656977389E+02  0.00000000000E+00 0. -1.
         11    1    4    4    0    0 -0.39378285396E+02 -0.55711151244E+02 -0.47469565919E+02  0.83112823453E+02  0.00000000000E+00 0.  1.
</event>
<event>
 8    1  0.7224195E-009  0.1153844E+03  0.7561462E-02  0.1250912E+00
         -3   -1    0    0    0  501 -0.00000000000E+00  0.00000000000E+00  0.70638775254E+02  0.70638775254E+02  0.00000000000E+00 0.  1.
          3   -1    0    0  501    0  0.00000000000E+00 -0.00000000000E+00 -0.24540595866E+03  0.24540595866E+03  0.00000000000E+00 0. -1.
         25    2    1    2    0    0 -0.21975795469E+02  0.63400177694E+02 -0.53374065079E+02  0.15165563387E+03  0.12509245518E+03 0.  0.
         23    2    1    2    0    0  0.21975795469E+02 -0.63400177694E+02 -0.12139311833E+03  0.16438910005E+03  0.88232470879E+02 0.  0.
          5    1    3    3  502    0  0.21215009697E+02 -0.30013658677E+02 -0.25569239480E+02  0.44968375012E+02  0.41800000000E+01 0.  1.
         -5    1    3    3    0  502 -0.43190805166E+02  0.93413836371E+02 -0.27804825599E+02  0.10668725886E+03  0.41800000000E+01 0.  1.
        -11    1    4    4    0    0 -0.14824682495E+02  0.27518633898E+01  0.59790587507E+01  0.16220145090E+02  0.00000000000E+00 0.  1.
         11    1    4    4    0    0  0.36800477964E+02 -0.66152041084E+02 -0.12737217708E+03  0.14816895496E+03  0.00000000000E+00 0. -1.
</event>
<event>
 8    1  0.7224195E-009  0.1503442E+03  0.7561462E-02  0.1200051E+00
          1   -1    0    0  501    0  0.00000000000E+00  0.00000000000E+00  0.65628344268E+03  0.65628344268E+03  0.00000000000E+00 0.  1.
         -1   -1    0    0    0  501 -0.00000000000E+00 -0.00000000000E+00 -0.50111810048E+02  0.50111810048E+02  0.00000000000E+00 0. -1.
         25    2    1    2    0    0 -0.11963679458E+03 -0.23014418527E+02  0.16683753107E+03  0.24150630149E+03  0.12509158967E+03 0.  0.
         23    2    1    2    0    0  0.11963679458E+03  0.23014418527E+02  0.43933410156E+03  0.46488895124E+03  0.90910165060E+02 0.  0.
          5    1    3    3  502    0 -0.72014469463E+02  0.40584445207E+02  0.40359262463E+02  0.92084328044E+02  0.41800000000E+01 0.  1.
         -5    1    3    3    0  502 -0.47622325121E+02 -0.63598863734E+02  0.12647826860E+03  0.14942197344E+03  0.41800000000E+01 0.  1.
        -11    1    4    4    0    0  0.20320271172E+02  0.32774106350E+02  0.51004779278E+02  0.63941715466E+02  0.00000000000E+00 0. -1.
         11    1    4    4    0    0  0.99316523412E+02 -0.97596878229E+01  0.38832932228E+03  0.40094723577E+03  0.00000000000E+00 0.  1.
</event>
<event>
 8    1  0.7224195E-009  0.1038761E+03  0.7561462E-02  0.1272350E+00
         -2   -1    0    0    0  501 -0.00000000000E+00  0.00000000000E+00  0.22808728651E+03  0.22808728651E+03  0.00000000000E+00 0.  1.
          2   -1    0    0  501    0  0.00000000000E+00 -0.00000000000E+00 -0.63217208972E+02  0.63217208972E+02  0.00000000000E+00 0. -1.
         25    2    1    2    0    0 -0.44394142143E+02  0.28741980181E+02  0.85644916896E+02  0.16056209703E+03  0.12509274132E+03 0.  0.
         23    2    1    2    0    0  0.44394142143E+02 -0.28741980181E+02  0.79225160645E+02  0.13074239846E+03  0.89554493992E+02 0.  0.
          5    1    3    3  502    0  0.38903624106E+02 -0.52382779673E+01  0.52217175422E+01  0.39820475370E+02  0.41800000000E+01 0. -1.
         -5    1    3    3    0  502 -0.83297766249E+02  0.33980258149E+02  0.80423199354E+02  0.12074162166E+03  0.41800000000E+01 0. -1.
        -11    1    4    4    0    0 -0.14065578381E+02 -0.80283588443E+01 -0.12192302062E+02  0.20271834414E+02  0.00000000000E+00 0. -1.
         11    1    4    4    0    0  0.58459720524E+02 -0.20713621337E+02  0.91417462707E+02  0.11047056405E+03  0.00000000000E+00 0.  1.
</event>
<event>
 8    1  0.7224195E-009  0.1020751E+03  0.7561462E-02  0.1275992E+00
          3   -1    0    0  501    0  0.00000000000E+00  0.00000000000E+00  0.22440680299E+03  0.22440680299E+03  0.00000000000E+00 0. -1.
         -3   -1    0    0    0  501 -0.00000000000E+00 -0.00000000000E+00 -0.71488137012E+02  0.71488137012E+02  0.00000000000E+00 0.  1.
         25    2    1    2    0    0  0.19293027018E+02 -0.59763866242E+02  0.11746813191E+03  0.18272998695E+03  0.12509014956E+03 0.  0.
         23    2    1    2    0    0 -0.19293027018E+02  0.59763866242E+02  0.35450534067E+02  0.11316495305E+03  0.87210238126E+02 0.  0.
          5    1    3    3  502    0 -0.20932517576E+02  0.70413223335E+01 -0.16348111383E+02  0.27793590233E+02  0.41800000000E+01 0. -1.
         -5    1    3    3    0  502  0.40225544594E+02 -0.66805188576E+02  0.13381624330E+03  0.15493639672E+03  0.41800000000E+01 0. -1.
        -11    1    4    4    0    0 -0.43307855478E+02  0.65841780708E+02  0.13277041170E+02  0.79918647731E+02  0.00000000000E+00 0.  1.
         11    1    4    4    0    0  0.24014828460E+02 -0.60779144661E+01  0.22173492897E+02  0.33246305321E+02  0.00000000000E+00 0. -1.
</event>
<event>
 8    1  0.7224195E-009  0.8673628E+02  0.7561462E-02  0.1310953E+00
         -2   -1    0    0    0  501 -0.00000000000E+00  0.00000000000E+00  0.31331108133E+02  0.31331108133E+02  0.00000000000E+00 0.  1.
          2   -1    0    0  501    0  0.00000000000E+00 -0.00000000000E+00 -0.50024336217E+03  0.50024336217E+03  0.00000000000E+00 0. -1.
         25    2    1    2    0    0  0.33224793607E+02 -0.82962195477E+01 -0.15513174517E+03  0.20219767840E+03  0.12508128806E+03 0.  0.
         23    2    1    2    0    0 -0.33224793607E+02  0.82962195477E+01 -0.31378050887E+03  0.32937679190E+03  0.94117740767E+02 0.  0.
          5    1    3    3  502    0  0.25562707221E+02 -0.39403251999E+02 -0.16237840858E+03  0.16908662940E+03  0.41800000000E+01 0. -1.
         -5    1    3    3    0  502  0.76620863861E+01  0.31107032451E+02  0.72466634100E+01  0.33111049006E+02  0.41800000000E+01 0. -1.
        -11    1    4    4    0    0 -0.17557536981E+02 -0.39760045752E+02 -0.20313144386E+03  0.20772941975E+03  0.00000000000E+00 0. -1.
         11    1    4    4    0    0 -0.15667256626E+02  0.48056265300E+02 -0.11064906501E+03  0.12164737216E+03  0.00000000000E+00 0.  1.
</event>
<event>
 8    1  0.7224195E-009  0.1140668E+03  0.7561462E-02  0.1253219E+00
          3   -1    0    0  501    0  0.00000000000E+00  0.00000000000E+00  0.33453035180E+03  0.33453035180E+03  0.00000000000E+00 0. -1.
         -3   -1    0    0    0  501 -0.00000000000E+00 -0.00000000000E+00 -0.45495394596E+02  0.45495394596E+02  0.00000000000E+00 0.  1.
         25    2    1    2    0    0 -0.36712677213E+02 -0.34672200934E+02  0.21251201045E+03  0.25171214983E+03  0.12509064553E+03 0.  0.
         23    2    1    2    0    0  0.36712677213E+02  0.34672200934E+02  0.76522946752E+02  0.12831359657E+03  0.89769903080E+02 0.  0.
          5    1    3    3  502    0 -0.55203811564E+02  0.26532386686E+02  0.15052048388E+03  0.16255865656E+03  0.41800000000E+01 0. -1.
         -5    1    3    3    0  502  0.18491134350E+02 -0.61204587620E+02  0.61991526568E+02  0.89153493266E+02  0.41800000000E+01 0. -1.
        -11    1    4    4    0    0  0.47856064130E+02 -0.16251512986E+02  0.42798304307E+02  0.66226953727E+02  0.00000000000E+00 0.  1.
         11    1    4    4    0    0 -0.11143386917E+02  0.50923713920E+02  0.33724642444E+02  0.62086642842E+02  0.00000000000E+00 0. -1.
</event>
<event>
 8    1  0.7224195E-009  0.8213210E+02  0.7561462E-02  0.1323107E+00
         -2   -1    0    0    0  501 -0.00000000000E+00  0.00000000000E+00  0.21320502288E+02  0.21320502288E+02  0.00000000000E+00 0.  1.
          2   -1    0    0  501    0  0.00000000000E+00 -0.00000000000E+00 -0.61581114458E+03  0.61581114458E+03  0.00000000000E+00 0. -1.
         25    2    1    2    0    0  0.25760668485E+02 -0.97606656993E+01 -0.41330211255E+03  0.43269528625E+03  0.12509073455E+03 0.  0.
         23    2    1    2    0    0 -0.25760668485E+02  0.97606656993E+01 -0.18118852974E+03  0.20443636061E+03  0.90587303723E+02 0.  0.
          5    1    3    3  502    0  0.47365420530E+02 -0.45147575342E+01 -0.40617992057E+03  0.40897856468E+03  0.41800000000E+01 0.  1.
         -5    1    3    3    0  502 -0.21604752045E+02 -0.52459081651E+01 -0.71221919825E+01  0.23716721570E+02  0.41800000000E+01 0.  1.
        -11    1    4    4    0    0 -0.59313765852E+02  0.15420555929E+01 -0.12694461213E+03  0.14012649751E+03  0.00000000000E+00 0. -1.
         11    1    4    4    0    0  0.33553097367E+02  0.82186101064E+01 -0.54243917611E+02  0.64309863107E+02  0.00000000000E+00 0.  1.
</event>
<event>
 8    1  0.7224195E-009  0.1266833E+03  0.7561462E-02  0.1232462E+00
         -2   -1    0    0    0  501 -0.00000000000E+00  0.00000000000E+00  0.93214207851E+02  0.93214207851E+02  0.00000000000E+00 0.  1.
          2   -1    0    0  501    0  0.00000000000E+00 -0.00000000000E+00 -0.22734086603E+03  0.22734086603E+03  0.00000000000E+00 0. -1.
         25    2    1    2    0    0  0.31542700023E+02  0.89671200971E+02 -0.83914991176E+02  0.17811437327E+03  0.12508852070E+03 0.  0.
         23    2    1    2    0    0 -0.31542700023E+02 -0.89671200971E+02 -0.50211666999E+02  0.14244070061E+03  0.93446645094E+02 0.  0.
          5    1    3    3  502    0 -0.47808713333E+02  0.25534859378E+02 -0.36852985381E+02  0.65675848266E+02  0.41800000000E+01 0.  1.
         -5    1    3    3    0  502  0.79351413356E+02  0.64136341594E+02 -0.47062005795E+02  0.11243852500E+03  0.41800000000E+01 0.  1.
        -11    1    4    4    0    0 -0.17399194556E+02 -0.72914924756E+02  0.12508007479E+02  0.75998476790E+02  0.00000000000E+00 0.  1.
         11    1    4    4    0    0 -0.14143505467E+02 -0.16756276216E+02 -0.62719674479E+02  0.66442223821E+02  0.00000000000E+00 0. -1.
</event>
<event>
 8    1  0.7224195E-009  0.1739331E+03  0.7561462E-02  0.1173807E+00
         -1   -1    0    0    0  501 -0.00000000000E+00  0.00000000000E+00  0.33257881221E+03  0.33257881221E+03  0.00000000000E+00 0.  1.
          1   -1    0    0  501    0  0.00000000000E+00 -0.00000000000E+00 -0.12257617412E+03  0.12257617412E+03  0.00000000000E+00 0. -1.
         25    2    1    2    0    0  0.10911945180E+03 -0.10128920239E+03  0.20683074821E+03  0.28388895350E+03  0.12508965676E+03 0.  0.
         23    2    1    2    0    0 -0.10911945180E+03  0.10128920239E+03  0.31718898787E+01  0.17126603283E+03  0.84589809279E+02 0.  0.
          5    1    3    3  502    0  0.13202926271E+03 -0.10207284162E+03  0.19797016102E+03  0.25895993563E+03  0.41800000000E+01 0. -1.
         -5    1    3    3    0  502 -0.22909810911E+02  0.78363922488E+00  0.88605871937E+01  0.24929017867E+02  0.41800000000E+01 0. -1.
        -11    1    4    4    0    0 -0.84041791262E+02  0.43501214167E+02  0.34735102828E+02  0.10080627798E+03  0.00000000000E+00 0.  1.
         11    1    4    4    0    0 -0.25077660535E+02  0.57787988227E+02 -0.31563212950E+02  0.70459754846E+02  0.00000000000E+00 0. -1.
</event>
<event>
 8    1  0.7224195E-009  0.1655718E+03  0.7561462E-02  0.1182546E+00
          2   -1    0    0  501    0  0.00000000000E+00  0.00000000000E+00  0.40514337781E+02  0.40514337781E+02  0.00000000000E+00 0. -1.
         -2   -1    0    0    0  501 -0.00000000000E+00 -0.00000000000E+00 -0.70624469649E+03  0.70624469649E+03  0.00000000000E+00 0.  1.
         25    2    1    2    0    0 -0.43961122098E+02 -0.12164380811E+03 -0.34025298642E+03  0.38490053520E+03  0.12508609401E+03 0.  0.
         23    2    1    2    0    0  0.43961122098E+02  0.12164380811E+03 -0.32547737229E+03  0.36185849908E+03  0.90973936795E+02 0.  0.
          5    1    3    3  502    0 -0.86765154924E+02 -0.87274540725E+02 -0.25861948090E+03  0.28643768235E+03  0.41800000000E+01 0. -1.
         -5    1    3    3    0  502  0.42804032826E+02 -0.34369267386E+02 -0.81633505525E+02  0.98462852849E+02  0.41800000000E+01 0. -1.
        -11    1    4    4    0    0  0.65903028255E+02  0.66587165925E+02 -0.24182400688E+03  0.25933744446E+03  0.00000000000E+00 0. -1.
         11    1    4    4    0    0 -0.21941906157E+02  0.55056642186E+02 -0.83653365410E+02  0.10252105461E+03  0.00000000000E+00 0.  1.
</event>
<event>
 8    1  0.7224195E-009  0.1023510E+03  0.7561462E-02  0.1275428E+00
          2   -1    0    0  501    0  0.00000000000E+00  0.00000000000E+00  0.67614195408E+03  0.67614195408E+03  0.00000000000E+00 0.  1.
         -2   -1    0    0    0  501 -0.00000000000E+00 -0.00000000000E+00 -0.19191098301E+02  0.19191098301E+02  0.00000000000E+00 0. -1.
         25    2    1    2    0    0 -0.16637507596E+02 -0.26768818876E+02  0.32754592348E+03  0.35203336188E+03  0.12509108508E+03 0.  0.
         23    2    1    2    0    0  0.16637507596E+02  0.26768818876E+02  0.32940493230E+03  0.34329969050E+03  0.91398532546E+02 0.  0.
          5    1    3    3  502    0 -0.62305225202E+01  0.49293989359E+02  0.98033319412E+02  0.10998509405E+03  0.41800000000E+01 0.  1.
         -5    1    3    3    0  502 -0.10406985076E+02 -0.76062808235E+02  0.22951260407E+03  0.24204826783E+03  0.41800000000E+01 0.  1.
        -11    1    4    4    0    0  0.38868692538E+02  0.36836218625E+02  0.30154251098E+03  0.30626062135E+03  0.00000000000E+00 0.  1.
         11    1    4    4    0    0 -0.22231184941E+02 -0.10067399749E+02  0.27862421316E+02  0.37039069146E+02  0.00000000000E+00 0. -1.
</event>
<event>
 8    1  0.7224195E-009  0.1791181E+03  0.7561462E-02  0.1168659E+00
         -1   -1    0    0    0  501 -0.00000000000E+00  0.00000000000E+00  0.97903184556E+02  0.97903184556E+02  0.00000000000E+00 0.  1.
          1   -1    0    0  501    0  0.00000000000E+00 -0.00000000000E+00 -0.41850899191E+03  0.41850899191E+03  0.00000000000E+00 0. -1.
         25    2    1    2    0    0  0.13500724724E+03 -0.89453075875E+02 -0.23668745555E+03  0.31288438806E+03  0.12508748571E+03 0.  0.
         23    2    1    2    0    0 -0.13500724724E+03  0.89453075875E+02 -0.83918351805E+02  0.20352778841E+03  0.90290981250E+02 0.  0.
          5    1    3    3  502    0  0.12286420668E+03 -0.10021647901E+03 -0.13053115335E+03  0.20541375403E+03  0.41800000000E+01 0. -1.
         -5    1    3    3    0  502  0.12143040559E+02  0.10763403132E+02 -0.10615630220E+03  0.10747063403E+03  0.41800000000E+01 0. -1.
        -11    1    4    4    0    0 -0.14721734638E+03  0.81097670435E+02 -0.66704436787E+02  0.18082937016E+03  0.00000000000E+00 0.  1.
         11    1    4    4    0    0  0.12210099137E+02  0.83554054396E+01 -0.17213915017E+02  0.22698418253E+02  0.00000000000E+00 0. -1.
</event>
<event>
 8    1  0.7224195E-009  0.9407898E+02  0.7561462E-02  0.1293264E+00
         -1   -1    0    0    0  501 -0.00000000000E+00  0.00000000000E+00  0.17909870413E+03  0.17909870413E+03  0.00000000000E+00 0.  1.
          1   -1    0    0  501    0  0.00000000000E+00 -0.00000000000E+00 -0.89923590707E+02  0.89923590707E+02  0.00000000000E+00 0. -1.
         25    2    1    2    0    0 -0.39294001292E+02  0.28545223738E+02 -0.25238379298E+01  0.13421166768E+03  0.12509018206E+03 0.  0.
         23    2    1    2    0    0  0.39294001292E+02 -0.28545223738E+02  0.91698951351E+02  0.13481062716E+03  0.86060206717E+02 0.  0.
          5    1    3    3  502    0 -0.71908835502E+02  0.12720933851E+02 -0.38764631404E+02  0.82782074323E+02  0.41800000000E+01 0. -1.
         -5    1    3    3    0  502  0.32614834210E+02  0.15824289887E+02  0.36240793475E+02  0.51429593355E+02  0.41800000000E+01 0. -1.
        -11    1    4    4    0    0  0.52341802982E+02 -0.35969589033E+02  0.99385728165E+02  0.11794489661E+03  0.00000000000E+00 0. -1.
         11    1    4    4    0    0 -0.13047801689E+02  0.74243652946E+01 -0.76867768146E+01  0.16865730543E+02  0.00000000000E+00 0.  1.
</event>
<event>
 8    1  0.7224195E-009  0.6699675E+02  0.7561462E-02  0.1370614E+00
          1   -1    0    0  501    0  0.00000000000E+00  0.00000000000E+00  0.11331591727E+04  0.11331591727E+04  0.00000000000E+00 0. -1.
         -1   -1    0    0    0  501 -0.00000000000E+00 -0.00000000000E+00 -0.26962986468E+02  0.26962986468E+02  0.00000000000E+00 0.  1.
         25    2    1    2    0    0 -0.44771187120E+02  0.15751472133E+02  0.10091850381E+04  0.10180149574E+04  0.12508974493E+03 0.  0.
         23    2    1    2    0    0  0.44771187120E+02 -0.15751472133E+02  0.97011148116E+02  0.14210720176E+03  0.92361928638E+02 0.  0.
          5    1    3    3  502    0  0.19927087141E+01  0.21399661519E+02  0.88281933586E+03  0.88309080426E+03  0.41800000000E+01 0. -1.
         -5    1    3    3    0  502 -0.46763895834E+02 -0.56481893866E+01  0.12636570225E+03  0.13492415314E+03  0.41800000000E+01 0. -1.
        -11    1    4    4    0    0  0.40081233789E+02  0.77681122271E+01  0.10819745912E+03  0.11564401856E+03  0.00000000000E+00 0. -1.
         11    1    4    4    0    0  0.46899533310E+01 -0.23519584360E+02 -0.11186311005E+02  0.26463183191E+02  0.00000000000E+00 0.  1.
</event>
<event>
 8    1  0.7224195E-009  0.8411509E+02  0.7561462E-02  0.1317763E+00
          2   -1    0    0  501    0  0.00000000000E+00  0.00000000000E+00  0.18325317614E+03  0.18325317614E+03  0.00000000000E+00 0. -1.
         -2   -1    0    0    0  501 -0.00000000000E+00 -0.00000000000E+00 -0.77641100505E+02  0.77641100505E+02  0.00000000000E+00 0.  1.
         25    2    1    2    0    0 -0.27319494095E+02  0.24433271154E+02  0.22607213737E+02  0.13229632468E+03  0.12509153415E+03 0.  0.
         23    2    1    2    0    0  0.27319494095E+02 -0.24433271154E+02  0.83004861896E+02  0.12859795196E+03  0.91127858819E+02 0.  0.
          5    1    3    3  502    0 -0.45438090038E+02  0.30101578591E+02  0.65434631522E+02  0.85263640917E+02  0.41800000000E+01 0. -1.
         -5    1    3    3    0  502  0.18118595943E+02 -0.56683074364E+01 -0.42827417785E+02  0.47032683767E+02  0.41800000000E+01 0. -1.
        -11    1    4    4    0    0  0.23933445504E+02  0.30678999509E+02  0.53019237729E+02  0.65765115327E+02  0.00000000000E+00 0. -1.
         11    1    4    4    0    0  0.33860485912E+01 -0.55112270663E+02  0.29985624167E+02  0.62832836633E+02  0.00000000000E+00 0.  1.
</event>
<event>
 8    1  0.7224195E-009  0.1148803E+03  0.7561462E-02  0.1251790E+00
         -2   -1    0    0    0  501 -0.00000000000E+00  0.00000000000E+00  0.36970211751E+02  0.36970211751E+02  0.00000000000E+00 0.  1.
          2   -1    0    0  501    0  0.00000000000E+00 -0.00000000000E+00 -0.55652024731E+03  0.55652024731E+03  0.00000000000E+00 0. -1.
         25    2    1    2    0    0 -0.67134349762E+02  0.60465352349E+02 -0.34120835560E+03  0.37447791465E+03  0.12508991518E+03 0.  0.
         23    2    1    2    0    0  0.67134349762E+02 -0.60465352349E+02 -0.17834167996E+03  0.21901254441E+03  0.89429637395E+02 0.  0.
          5    1    3    3  502    0  0.17908668799E+02  0.36434999192E+02 -0.29237829239E+02  0.50205105745E+02  0.41800000000E+01 0. -1.
         -5    1    3    3    0  502 -0.85043018561E+02  0.24030353156E+02 -0.31197052636E+03  0.32427280891E+03  0.41800000000E+01 0. -1.
        -11    1    4    4    0    0  0.10149179258E+02 -0.37816582964E+02 -0.10822976902E+02  0.40623104457E+02  0.00000000000E+00 0.  1.
         11    1    4    4    0    0  0.56985170504E+02 -0.22648769385E+02 -0.16751870306E+03  0.17838943995E+03  0.00000000000E+00 0. -1.
</event>
<event>
 8    1  0.7224195E-009  0.1111721E+03  0.7561462E-02  0.1258415E+00
         -2   -1    0    0    0  501 -0.00000000000E+00  0.00000000000E+00  0.19928384126E+02  0.19928384126E+02  0.00000000000E+00 0.  1.
          2   -1    0    0  501    0  0.00000000000E+00 -0.00000000000E+00 -0.90592268922E+03  0.90592268922E+03  0.00000000000E+00 0. -1.
         25    2    1    2    0    0  0.53725263862E+02  0.42833915620E+02 -0.62211896224E+03  0.63827951466E+03  0.12509031678E+03 0.  0.
         23    2    1    2    0    0 -0.53725263862E+02 -0.42833915620E+02 -0.26387534285E+03  0.28757155868E+03  0.91356753961E+02 0.  0.
          5    1    3    3  502    0  0.58504768371E+02  0.64726481366E+02 -0.60064425453E+03  0.60696236969E+03  0.41800000000E+01 0. -1.
         -5    1    3    3    0  502 -0.47795045092E+01 -0.21892565746E+02 -0.21474707711E+02  0.31317144978E+02  0.41800000000E+01 0. -1.
        -11    1    4    4    0    0 -0.73928170582E+02 -0.51623625244E+02 -0.18704194826E+03  0.20764167091E+03  0.00000000000E+00 0.  1.
         11    1    4    4    0    0  0.20202906720E+02  0.87897096242E+01 -0.76833394586E+02  0.79929887770E+02  0.00000000000E+00 0. -1.
</event>
<event>
 8    1  0.7224195E-009  0.1765730E+03  0.7561462E-02  0.1171162E+00
          1   -1    0    0  501    0  0.00000000000E+00  0.00000000000E+00  0.84777304616E+03  0.84777304616E+03  0.00000000000E+00 0. -1.
         -1   -1    0    0    0  501 -0.00000000000E+00 -0.00000000000E+00 -0.44460999791E+02  0.44460999791E+02  0.00000000000E+00 0.  1.
         25    2    1    2    0    0 -0.13642541847E+03  0.78488764056E+02  0.51083349389E+03  0.54897168226E+03  0.12508664419E+03 0.  0.
         23    2    1    2    0    0  0.13642541847E+03 -0.78488764056E+02  0.29247855247E+03  0.34326236368E+03  0.86677366000E+02 0.  0.
          5    1    3    3  502    0 -0.82028722494E+02  0.10384859222E+03  0.26972140279E+03  0.30046688494E+03  0.41800000000E+01 0. -1.
         -5    1    3    3    0  502 -0.54396695979E+02 -0.25359828168E+02  0.24111209110E+03  0.24850479732E+03  0.41800000000E+01 0. -1.
        -11    1    4    4    0    0  0.18689776626E+02 -0.25126193934E+02  0.13955536016E+03  0.14302563379E+03  0.00000000000E+00 0. -1.
         11    1    4    4    0    0  0.11773564185E+03 -0.53362570122E+02  0.15292319231E+03  0.20023672989E+03  0.00000000000E+00 0.  1.
</event>
<event>
 8    1  0.7224195E-009  0.1617011E+03  0.7561462E-02  0.1186789E+00
          1   -1    0    0  501    0  0.00000000000E+00  0.00000000000E+00  0.12316795832E+04  0.12316795832E+04  0.00000000000E+00 0. -1.
         -1   -1    0    0    0  501 -0.00000000000E+00 -0.00000000000E+00 -0.29060425537E+02  0.29060425537E+02  0.00000000000E+00 0.  1.
         25    2    1    2    0    0  0.10493907719E+03 -0.92626564818E+02  0.85681458988E+03  0.87713744127E+03  0.12508780520E+03 0.  0.
         23    2    1    2    0    0 -0.10493907719E+03  0.92626564818E+02  0.34580456782E+03  0.38360256751E+03  0.89320995525E+02 0.  0.
          5    1    3    3  502    0  0.40011948623E+02  0.18002618913E+02  0.40675578802E+03  0.40913664442E+03  0.41800000000E+01 0.  1.
         -5    1    3    3    0  502  0.64927128567E+02 -0.11062918373E+03  0.45005880186E+03  0.46800079685E+03  0.41800000000E+01 0.  1.
        -11    1    4    4    0    0 -0.74398074046E+02  0.27975906571E+02  0.26017726491E+03  0.27204766852E+03  0.00000000000E+00 0. -1.
         11    1    4    4    0    0 -0.30541003143E+02  0.64650658247E+02  0.85627302910E+02  0.11155489899E+03  0.00000000000E+00 0.  1.
</event>
<event>
 8    1  0.7224195E-009  0.1014231E+03  0.7561462E-02  0.1277332E+00
         -1   -1    0    0    0  501 -0.00000000000E+00  0.00000000000E+00  0.27257129580E+02  0.27257129580E+02  0.00000000000E+00 0.  1.
          1   -1    0    0  501    0  0.00000000000E+00 -0.00000000000E+00 -0.45467232330E+03  0.45467232330E+03  0.00000000000E+00 0. -1.
         25    2    1    2    0    0  0.29260073441E+01  0.21357890229E+02 -0.27653288518E+03  0.30427318664E+03  0.12508802711E+03 0.  0.
         23    2    1    2    0    0 -0.29260073441E+01 -0.21357890229E+02 -0.15088230854E+03  0.17765626624E+03  0.91277362536E+02 0.  0.
          5    1    3    3  502    0  0.20279254549E+01  0.69073442732E+02 -0.10192816375E+03  0.12321556694E+03  0.41800000000E+01 0. -1.
         -5    1    3    3    0  502  0.89808188917E+00 -0.47715552503E+02 -0.17460472143E+03  0.18105761969E+03  0.41800000000E+01 0. -1.
        -11    1    4    4    0    0 -0.34944446062E+02  0.14326051953E+02 -0.32107978623E+02  0.49570882243E+02  0.00000000000E+00 0.  1.
         11    1    4    4    0    0  0.32018438717E+02 -0.35683942182E+02 -0.11877432991E+03  0.12808538400E+03  0.00000000000E+00 0. -1.
</event>
<event>
 8    1  0.7224195E-009  0.1610598E+03  0.7561462E-02  0.1187505E+00
          2   -1    0    0  501    0  0.00000000000E+00  0.00000000000E+00  0.35614507034E+03  0.35614507034E+03  0.00000000000E+00 0. -1.
         -2   -1    0    0    0  501 -0.00000000000E+00 -0.00000000000E+00 -0.83075600938E+02  0.83075600938E+02  0.00000000000E+00 0.  1.
         25    2    1    2    0    0  0.52552008815E+02 -0.11395351312E+03  0.88469794098E+02  0.19804667782E+03  0.12509382617E+03 0.  0.
         23    2    1    2    0    0 -0.52552008815E+02  0.11395351312E+03  0.18459967530E+03  0.24117399345E+03  0.91327642104E+02 0.  0.
          5    1    3    3  502    0  0.61494223358E+02  0.10908774560E+01  0.33551124068E+02  0.70184612603E+02  0.41800000000E+01 0. -1.
         -5    1    3    3    0  502 -0.89422145428E+01 -0.11504439058E+03  0.54918670030E+02  0.12786206522E+03  0.41800000000E+01 0. -1.
        -11    1    4    4    0    0 -0.30473470921E+02  0.11859329505E+03  0.11489908453E+03  0.16791307777E+03  0.00000000000E+00 0.  1.
         11    1    4    4    0    0 -0.22078537894E+02 -0.46397819307E+01  0.69700590774E+02  0.73260915679E+02  0.00000000000E+00 0. -1.
</event>
<event>
 8    1  0.7224195E-009  0.1924678E+03  0.7561462E-02  0.1156254E+00
         -1   -1    0    0    0  501 -0.00000000000E+00  0.00000000000E+00  0.25980851319E+03  0.25980851319E+03  0.00000000000E+00 0.  1.
          1   -1    0    0  501    0  0.00000000000E+00 -0.00000000000E+00 -0.20411830945E+03  0.20411830945E+03  0.00000000000E+00 0. -1.
         25    2    1    2    0    0 -0.56152582132E+02 -0.17140136233E+03 -0.64331348037E+02  0.22873022924E+03  0.12508979151E+03 0.  0.
         23    2    1    2    0    0  0.56152582132E+02  0.17140136233E+03  0.12002155178E+03  0.23519659339E+03  0.91546300658E+02 0.  0.
          5    1    3    3  502    0 -0.32069811437E+02 -0.13692433676E+02  0.27498169558E+02  0.44604677721E+02  0.41800000000E+01 0. -1.
         -5    1    3    3    0  502 -0.24082770695E+02 -0.15770892865E+03 -0.91829517595E+02  0.18412555152E+03  0.41800000000E+01 0. -1.
        -11    1    4    4    0    0  0.25167166626E+02  0.12078360715E+02 -0.73625923301E+01  0.28870068225E+02  0.00000000000E+00 0. -1.
         11    1    4    4    0    0  0.30985415506E+02  0.15932300161E+03  0.12738414411E+03  0.20632652517E+03  0.00000000000E+00 0.  1.
</event>
