<event>
 7    1  0.2749315E-009  0.1231662E+03  0.7561462E-02  0.1237963E+00
          2   -1    0    0  501    0  0.00000000000E+00  0.00000000000E+00  0.17328309003E+03  0.17328309003E+03  0.00000000000E+00 0.  1.
         -2   -1    0    0    0  501 -0.00000000000E+00 -0.00000000000E+00 -0.12814018675E+03  0.12814018675E+03  0.00000000000E+00 0. -1.
         25    2    1    2    0    0  0.10503687973E+03 -0.75046625632E+00  0.46145564565E+02  0.16973720766E+03  0.12509195511E+03 0.  0.
          5    1    3    3  502    0  0.11049825779E+03  0.15794551553E+01 -0.11911125742E+02  0.11122817525E+03  0.41800000000E+01 0.  1.
         -5    1    3    3    0  502 -0.54613780650E+01 -0.23299214116E+01  0.58056690308E+02  0.58509032411E+02  0.41800000000E+01 0.  1.
        -11    1    1    2    0    0 -0.80610132024E+02  0.33780041720E+02  0.12831215609E+02  0.88338693094E+02  0.00000000000E+00 0.  1.
         11    1    1    2    0    0 -0.24426747704E+02 -0.33029575463E+02 -0.13833876891E+02  0.43347376028E+02  0.00000000000E+00 0. -1.
</event>
<event>
 7    1  0.2749315E-009  0.9890271E+02  0.7561462E-02  0.1282620E+00
          2   -1    0    0  501    0  0.00000000000E+00  0.00000000000E+00  0.10847207364E+03  0.10847207364E+03  0.00000000000E+00 0. -1.
         -2   -1    0    0    0  501 -0.00000000000E+00 -0.00000000000E+00 -0.17828084639E+03  0.17828084639E+03  0.00000000000E+00 0.  1.
         25    2    1    2    0    0 -0.62616923709E+02 -0.27897261740E+02  0.15750972215E+02  0.14350872665E+03  0.12509006816E+03 0.  0.
          5    1    3    3  502    0 -0.86333664447E+02 -0.44088522190E+02  0.40718287861E+02  0.10522713895E+03  0.41800000000E+01 0. -1.
         -5    1    3    3    0  502  0.23716740738E+02  0.16191260450E+02 -0.24967315646E+02  0.38281587699E+02  0.41800000000E+01 0. -1.
        -11    1    1    2    0    0  0.18907705592E+02 -0.16773215228E+01 -0.88378927219E+02  0.90394410859E+02  0.00000000000E+00 0.  1.
         11    1    1    2    0    0  0.43709218118E+02  0.29574583263E+02  0.28191822537E+01  0.52849782518E+02  0.00000000000E+00 0. -1.
</event>
<event>
 7    1  0.2749315E-009  0.1079731E+03  0.7561462E-02  0.1264370E+00
          1   -1    0    0  501    0  0.00000000000E+00  0.00000000000E+00  0.11363392749E+03  0.11363392749E+03  0.00000000000E+00 0. -1.
         -1   -1    0    0    0  501 -0.00000000000E+00 -0.00000000000E+00 -0.18652168670E+03  0.18652168670E+03  0.00000000000E+00 0.  1.
         25    2    1    2    0    0 -0.84977287176E+02 -0.17412162166E+02  0.46143096863E+01  0.15229875430E+03  0.12509714617E+03 0.  0.
          5    1    3    3  502    0 -0.73557585653E+02  0.19443850644E+02  0.51096131840E+02  0.91744584712E+02  0.41800000000E+01 0.  1.
         -5    1    3    3    0  502 -0.11419701523E+02 -0.36856012810E+02 -0.46481822154E+02  0.60554169583E+02  0.41800000000E+01 0.  1.
        -11    1    1    2    0    0  0.47649072272E+02  0.35536495744E+02  0.56797472698E+00  0.59444084764E+02  0.00000000000E+00 0. -1.
         11    1    1    2    0    0  0.37328214904E+02 -0.18124333578E+02 -0.78070043620E+02  0.88412775131E+02  0.00000000000E+00 0.  1.
</event>
<event>
 7    1  0.2749315E-009  0.1285531E+03  0.7561462E-02  0.1229619E+00
         -1   -1    0    0    0  501 -0.00000000000E+00  0.00000000000E+00  0.18210703584E+02  0.18210703584E+02  0.00000000000E+00 0.  1.
          1   -1    0    0  501    0  0.00000000000E+00 -0.00000000000E+00 -0.97702477233E+03  0.97702477233E+03  0.00000000000E+00 0. -1.
         25    2    1    2    0    0  0.26142927474E+02  0.68856243966E+02 -0.55706753743E+03  0.57567013954E+03  0.12508890162E+03 0.  0.
          5    1    3    3  502    0  0.70363963336E+02  0.23758441670E+02 -0.20778139166E+03  0.22069465333E+03  0.41800000000E+01 0.  1.
         -5    1    3    3    0  502 -0.44221035863E+02  0.45097802296E+02 -0.34928614577E+03  0.35497548621E+03  0.41800000000E+01 0.  1.
        -11    1    1    2    0    0 -0.50716346610E+02 -0.78138583489E+02 -0.28260480538E+03  0.29756219865E+03  0.00000000000E+00 0.  1.
         11    1    1    2    0    0  0.24573419137E+02  0.92823395229E+01 -0.11914172593E+03  0.12200313772E+03  0.00000000000E+00 0. -1.
</event>
<event>
 7    1  0.2749315E-009  0.1095849E+03  0.7561462E-02  0.1261341E+00
          1   -1    0    0  501    0  0.00000000000E+00  0.00000000000E+00  0.30365255904E+02  0.30365255904E+02  0.00000000000E+00 0. -1.
         -1   -1    0    0    0  501 -0.00000000000E+00 -0.00000000000E+00 -0.49308249168E+03  0.49308249168E+03  0.00000000000E+00 0.  1.
         25    2    1    2    0    0  0.27523865382E+02 -0.48096508439E+02 -0.24439476199E+03  0.28008398272E+03  0.12508956950E+03 0.  0.
          5    1    3    3  502    0 -0.33789955318E+02  0.22662764983E+01 -0.14919113945E+02  0.37241770238E+02  0.41800000000E+01 0. -1.
         -5    1    3    3    0  502  0.61313820700E+02 -0.50362784937E+02 -0.22947564805E+03  0.24284221248E+03  0.41800000000E+01 0. -1.
        -11    1    1    2    0    0  0.24480867261E+02  0.47665092693E+02 -0.13369692479E+03  0.14403520966E+03  0.00000000000E+00 0. -1.
         11    1    1    2    0    0 -0.52004732643E+02  0.43141574621E+00 -0.84625548995E+02  0.99328555207E+02  0.00000000000E+00 0.  1.
</event>
<event>
 7    1  0.2749315E-009  0.9227432E+02  0.7561462E-02  0.1297436E+00
         -4   -1    0    0    0  501 -0.00000000000E+00  0.00000000000E+00  0.59343451198E+02  0.59343451198E+02  0.00000000000E+00 0.  1.
          4   -1    0    0  501    0  0.00000000000E+00 -0.00000000000E+00 -0.26670911294E+03  0.26670911294E+03  0.00000000000E+00 0. -1.
         25    2    1    2    0    0 -0.42094144150E+02 -0.48813796425E+02 -0.11131135206E+03  0.17942218139E+03  0.12508956146E+03 0.  0.
          5    1    3    3  502    0 -0.44190066536E+02  0.30748667755E+01  0.11552261588E+02  0.45968945322E+02  0.41800000000E+01 0. -1.
         -5    1    3    3    0  502  0.20959223868E+01 -0.51888663201E+02 -0.12286361365E+03  0.13345323607E+03  0.41800000000E+01 0. -1.
        -11    1    1    2    0    0  0.54953387236E+02  0.23912992360E+02 -0.10169746340E+03  0.11804270428E+03  0.00000000000E+00 0.  1.
         11    1    1    2    0    0 -0.12859243086E+02  0.24900804065E+02  0.56431537191E+01  0.28587678460E+02  0.00000000000E+00 0. -1.
</event>
<event>
 7    1  0.2749315E-009  0.1076218E+03  0.7561462E-02  0.1265038E+00
          2   -1    0    0  501    0  0.00000000000E+00  0.00000000000E+00  0.10135649967E+04  0.10135649967E+04  0.00000000000E+00 0. -1.
         -2   -1    0    0    0  501 -0.00000000000E+00 -0.00000000000E+00 -0.24230218711E+02  0.24230218711E+02  0.00000000000E+00 0.  1.
         25    2    1    2    0    0  0.67189160620E+02 -0.48813721963E+02  0.79553171442E+03  0.80957850132E+03  0.12509787530E+03 0.  0.
          5    1    3    3  502    0  0.89064262947E+02 -0.59744855207E+02  0.42950511697E+03  0.44271210573E+03  0.41800000000E+01 0.  1.
         -5    1    3    3    0  502 -0.21875102328E+02  0.10931133244E+02  0.36602659745E+03  0.36686639560E+03  0.41800000000E+01 0.  1.
        -11    1    1    2    0    0 -0.20813328277E+02  0.16902967479E+02  0.42960025500E+00  0.26815844196E+02  0.00000000000E+00 0.  1.
         11    1    1    2    0    0 -0.46375832342E+02  0.31910754484E+02  0.19337346330E+03  0.20140086987E+03  0.00000000000E+00 0. -1.
</event>
<event>
 7    1  0.2749315E-009  0.1383728E+03  0.7561462E-02  0.1215535E+00
          1   -1    0    0  501    0  0.00000000000E+00  0.00000000000E+00  0.19985844198E+03  0.19985844198E+03  0.00000000000E+00 0. -1.
         -1   -1    0    0    0  501 -0.00000000000E+00 -0.00000000000E+00 -0.13344708631E+03  0.13344708631E+03  0.00000000000E+00 0.  1.
         25    2    1    2    0    0 -0.15698743180E+02 -0.12321335314E+03  0.40606472003E+02  0.18089960485E+03  0.12509116890E+03 0.  0.
          5    1    3    3  502    0 -0.79048519671E+01 -0.19492229509E+00 -0.35073350294E+02  0.36195814402E+02  0.41800000000E+01 0. -1.
         -5    1    3    3    0  502 -0.77938912131E+01 -0.12301843084E+03  0.75679822297E+02  0.14470379045E+03  0.41800000000E+01 0. -1.
        -11    1    1    2    0    0 -0.27631283374E+01  0.12579385755E+03  0.71402900856E+01  0.12602663694E+03  0.00000000000E+00 0.  1.
         11    1    1    2    0    0  0.18461871518E+02 -0.25805044105E+01  0.18664593580E+02  0.26379286504E+02  0.00000000000E+00 0. -1.
</event>
<event>
 7    1  0.2749315E-009  0.1219314E+03  0.7561462E-02  0.1239944E+00
         -1   -1    0    0    0  501 -0.00000000000E+00  0.00000000000E+00  0.15760743900E+03  0.15760743900E+03  0.00000000000E+00 0.  1.
          1   -1    0    0  501    0  0.00000000000E+00 -0.00000000000E+00 -0.14585286142E+03  0.14585286142E+03  0.00000000000E+00 0. -1.
         25    2    1    2    0    0  0.17156698860E+02 -0.22140807548E+02  0.12836794675E+02  0.12882719766E+03  0.12508835231E+03 0.  0.
          5    1    3    3  502    0 -0.42416937971E+02 -0.26746513612E+02  0.38803565050E+02  0.63543384218E+02  0.41800000000E+01 0.  1.
         -5    1    3    3    0  502  0.59573636831E+02  0.46057060643E+01 -0.25966770375E+02  0.65283813441E+02  0.41800000000E+01 0.  1.
        -11    1    1    2    0    0  0.90024378869E+01  0.74539076882E+02 -0.56530685098E+02  0.93983169919E+02  0.00000000000E+00 0. -1.
         11    1    1    2    0    0 -0.26159136747E+02 -0.52398269334E+02  0.55448468002E+02  0.80649932847E+02  0.00000000000E+00 0.  1.
</event>
<event>
 7    1  0.2749315E-009  0.1311079E+03  0.7561462E-02  0.1225821E+00
         -1   -1    0    0    0  501 -0.00000000000E+00  0.00000000000E+00  0.80487389091E+03  0.80487389091E+03  0.00000000000E+00 0.  1.
          1   -1    0    0  501    0  0.00000000000E+00 -0.00000000000E+00 -0.25406157269E+02  0.25406157269E+02  0.00000000000E+00 0. -1.
         25    2    1    2    0    0 -0.73582008669E+02  0.59835088700E+02  0.49950548891E+03  0.52359125747E+03  0.12509005397E+03 0.  0.
          5    1    3    3  502    0 -0.59350263204E+02 -0.27086317525E+02  0.26809082601E+03  0.27594616455E+03  0.41800000000E+01 0. -1.
         -5    1    3    3    0  502 -0.14231745465E+02  0.86921406225E+02  0.23141466290E+03  0.24764509292E+03  0.41800000000E+01 0. -1.
        -11    1    1    2    0    0  0.17948234164E+01 -0.31400255280E+02  0.16650858692E+03  0.16945296380E+03  0.00000000000E+00 0.  1.
         11    1    1    2    0    0  0.71787185253E+02 -0.28434833420E+02  0.11345365781E+03  0.13723582691E+03  0.00000000000E+00 0. -1.
</event>
<event>
 7    1  0.2749315E-009  0.7952806E+02  0.7561462E-02  0.1330396E+00
         -3   -1    0    0    0  501 -0.00000000000E+00  0.00000000000E+00  0.10220163313E+03  0.10220163313E+03  0.00000000000E+00 0.  1.
          3   -1    0    0  501    0  0.00000000000E+00 -0.00000000000E+00 -0.16187768675E+03  0.16187768675E+03  0.00000000000E+00 0. -1.
         25    2    1    2    0    0  0.15736397063E+02  0.12520916483E+02 -0.10056963023E+03  0.16175879159E+03  0.12508896270E+03 0.  0.
          5    1    3    3  502    0 -0.40894688654E+02 -0.75948864669E+01 -0.91814284851E+02  0.10088306678E+03  0.41800000000E+01 0. -1.
         -5    1    3    3    0  502  0.56631085717E+02  0.20115802950E+02 -0.87553453755E+01  0.60875724805E+02  0.41800000000E+01 0. -1.
        -11    1    1    2    0    0  0.19891371876E+02 -0.28639535499E+01 -0.21748139111E+02  0.29611660876E+02  0.00000000000E+00 0. -1.
         11    1    1    2    0    0 -0.35627768939E+02 -0.96569629331E+01  0.62641715718E+02  0.72708867415E+02  0.00000000000E+00 0.  1.
</event>
<event>
 7    1  0.2749315E-009  0.2175943E+03  0.7561462E-02  0.1135689E+00
          2   -1    0    0  501    0  0.00000000000E+00  0.00000000000E+00  0.40636854395E+03  0.40636854395E+03  0.00000000000E+00 0.  1.
         -2   -1    0    0    0  501 -0.00000000000E+00 -0.00000000000E+00 -0.13913835714E+03  0.13913835714E+03  0.00000000000E+00 0. -1.
         25    2    1    2    0    0  0.11672302421E+03  0.17376009702E+03  0.16666754492E+03  0.29536769511E+03  0.12508864491E+03 0.  0.
          5    1    3    3  502    0 -0.76117244350E+01  0.45024171048E+02  0.89212097510E+02  0.10030645577E+03  0.41800000000E+01 0.  1.
         -5    1    3    3    0  502  0.12433474864E+03  0.12873592598E+03  0.77455447412E+02  0.19506123933E+03  0.41800000000E+01 0.  1.
        -11    1    1    2    0    0 -0.10145318851E+03 -0.13674889941E+03  0.11727669663E+03  0.20675307621E+03  0.00000000000E+00 0.  1.
         11    1    1    2    0    0 -0.15269835694E+02 -0.37011197619E+02 -0.16714054746E+02  0.43386129781E+02  0.00000000000E+00 0. -1.
</event>
<event>
 7    1  0.2749315E-009  0.1213933E+03  0.7561462E-02  0.1240816E+00
          1   -1    0    0  501    0  0.00000000000E+00  0.00000000000E+00  0.20348768915E+04  0.20348768915E+04  0.00000000000E+00 0. -1.
         -1   -1    0    0    0  501 -0.00000000000E+00 -0.00000000000E+00 -0.12998316530E+02  0.12998316530E+02  0.00000000000E+00 0.  1.
         25    2    1    2    0    0 -0.79975685829E+02  0.55834689501E+02  0.15249938532E+04  0.15332215374E+04  0.12509359494E+03 0.  0.
          5    1    3    3  502    0  0.42757635310E+01  0.45509044203E+02  0.18772668024E+03  0.19325665353E+03  0.41800000000E+01 0. -1.
         -5    1    3    3    0  502 -0.84251449360E+02  0.10325645298E+02  0.13372671730E+04  0.13399648839E+04  0.41800000000E+01 0. -1.
        -11    1    1    2    0    0  0.27899188785E+02  0.84683208013E+01  0.35644664032E+02  0.46050182041E+02  0.00000000000E+00 0.  1.
         11    1    1    2    0    0  0.52076497044E+02 -0.64303010302E+02  0.46124005768E+03  0.46860348856E+03  0.00000000000E+00 0. -1.
</event>
<event>
 7    1  0.2749315E-009  0.2072591E+03  0.7561462E-02  0.1143755E+00
          3   -1    0    0  501    0  0.00000000000E+00  0.00000000000E+00  0.81772258518E+02  0.81772258518E+02  0.00000000000E+00 0. -1.
         -3   -1    0    0    0  501 -0.00000000000E+00 -0.00000000000E+00 -0.64521289937E+03  0.64521289937E+03  0.00000000000E+00 0.  1.
         25    2    1    2    0    0  0.17912569541E+03  0.47117810989E+02 -0.41008547137E+03  0.46703668928E+03  0.12508825860E+03 0.  0.
          5    1    3    3  502    0  0.10557460276E+03  0.73603564898E+02 -0.16229129821E+03  0.20717002531E+03  0.41800000000E+01 0. -1.
         -5    1    3    3    0  502  0.73551092649E+02 -0.26485753909E+02 -0.24779417316E+03  0.25986666397E+03  0.41800000000E+01 0. -1.
        -11    1    1    2    0    0 -0.14285908926E+03 -0.75342882562E+02 -0.13486146127E+03  0.21041122374E+03  0.00000000000E+00 0.  1.
         11    1    1    2    0    0 -0.36266606143E+02  0.28225071573E+02 -0.18493708218E+02  0.49537244877E+02  0.00000000000E+00 0. -1.
</event>
<event>
 7    1  0.2749315E-009  0.8690977E+02  0.7561462E-02  0.1310513E+00
         -2   -1    0    0    0  501 -0.00000000000E+00  0.00000000000E+00  0.20634166022E+02  0.20634166022E+02  0.00000000000E+00 0.  1.
          2   -1    0    0  501    0  0.00000000000E+00 -0.00000000000E+00 -0.62084738877E+03  0.62084738877E+03  0.00000000000E+00 0. -1.
         25    2    1    2    0    0 -0.19570231275E+02 -0.25517458578E+02 -0.34433329458E+03  0.36775918090E+03  0.12508901923E+03 0.  0.
          5    1    3    3  502    0 -0.39649262772E+01 -0.59679890744E+02 -0.76123811136E+02  0.96900552225E+02  0.41800000000E+01 0.  1.
         -5    1    3    3    0  502 -0.15605304998E+02  0.34162432166E+02 -0.26820948345E+03  0.27085862867E+03  0.41800000000E+01 0.  1.
        -11    1    1    2    0    0  0.43776276518E+02  0.27642469464E+02 -0.23796797196E+03  0.24353485209E+03  0.00000000000E+00 0. -1.
         11    1    1    2    0    0 -0.24206045242E+02 -0.21250108862E+01 -0.17911956206E+02  0.30187521804E+02  0.00000000000E+00 0.  1.
</event>
<event>
 7    1  0.2749315E-009  0.2175414E+03  0.7561462E-02  0.1135729E+00
          2   -1    0    0  501    0  0.00000000000E+00  0.00000000000E+00  0.60720617499E+03  0.60720617499E+03  0.00000000000E+00 0. -1.
         -2   -1    0    0    0  501 -0.00000000000E+00 -0.00000000000E+00 -0.89191822779E+02  0.89191822779E+02  0.00000000000E+00 0.  1.
         25    2    1    2    0    0 -0.14640014555E+03 -0.12790618286E+03  0.16187331309E+03  0.28221824377E+03  0.12510464977E+03 0.  0.
          5    1    3    3  502    0 -0.10290986557E+03 -0.79064204685E+01  0.77875433380E+02  0.12936385678E+03  0.41800000000E+01 0. -1.
         -5    1    3    3    0  502 -0.43490279984E+02 -0.11999976239E+03  0.83997879706E+02  0.15285438699E+03  0.41800000000E+01 0. -1.
        -11    1    1    2    0    0  0.54537402037E+02  0.11405205161E+02  0.15146808156E+03  0.16139078863E+03  0.00000000000E+00 0.  1.
         11    1    1    2    0    0  0.91862743515E+02  0.11650097770E+03  0.20467295757E+03  0.25278896537E+03  0.00000000000E+00 0. -1.
</event>
<event>
 7    1  0.2749315E-009  0.1406685E+03  0.7561462E-02  0.1212432E+00
          2   -1    0    0  501    0  0.00000000000E+00  0.00000000000E+00  0.36537376911E+03  0.36537376911E+03  0.00000000000E+00 0. -1.
         -2   -1    0    0    0  501 -0.00000000000E+00 -0.00000000000E+00 -0.71600450420E+02  0.71600450420E+02  0.00000000000E+00 0.  1.
         25    2    1    2    0    0  0.49816461881E+02 -0.98059396839E+02  0.21737983550E+03  0.27386011085E+03  0.12509213506E+03 0.  0.
          5    1    3    3  502    0  0.34192230228E+02 -0.11237179482E+03  0.22252621243E+03  0.25165833286E+03  0.41800000000E+01 0.  1.
         -5    1    3    3    0  502  0.15624231652E+02  0.14312397976E+02 -0.51463769361E+01  0.22201777994E+02  0.41800000000E+01 0.  1.
        -11    1    1    2    0    0  0.21871734153E+02  0.53501911432E+02  0.44251025264E+02  0.72794096729E+02  0.00000000000E+00 0. -1.
         11    1    1    2    0    0 -0.71688196033E+02  0.44557485407E+02  0.32142457932E+02  0.90320011948E+02  0.00000000000E+00 0.  1.
</event>
<event>
 7    1  0.2749315E-009  0.2164684E+03  0.7561462E-02  0.1136544E+00
         -1   -1    0    0    0  501 -0.00000000000E+00  0.00000000000E+00  0.10562296772E+04  0.10562296772E+04  0.00000000000E+00 0.  1.
          1   -1    0    0  501    0  0.00000000000E+00 -0.00000000000E+00 -0.53680692107E+02  0.53680692107E+02  0.00000000000E+00 0. -1.
         25    2    1    2    0    0 -0.95958140361E+02 -0.16185587711E+03  0.74289917797E+03  0.77649983646E+03  0.12509003855E+03 0.  0.
          5    1    3    3  502    0 -0.22791946278E+02 -0.14871948088E+03  0.46191137295E+03  0.48581534113E+03  0.41800000000E+01 0. -1.
         -5    1    3    3    0  502 -0.73166194083E+02 -0.13136396225E+02  0.28098780501E+03  0.29068449534E+03  0.41800000000E+01 0. -1.
        -11    1    1    2    0    0  0.90283076347E+02  0.65728909749E+02  0.15697262049E+03  0.19264404230E+03  0.00000000000E+00 0.  1.
         11    1    1    2    0    0  0.56750640143E+01  0.96126967358E+02  0.10267718664E+03  0.14076649055E+03  0.00000000000E+00 0. -1.
</event>
<event>
 7    1  0.2749315E-009  0.1537761E+03  0.7561462E-02  0.1195908E+00
         -1   -1    0    0    0  501 -0.00000000000E+00  0.00000000000E+00  0.56912642375E+02  0.56912642375E+02  0.00000000000E+00 0.  1.
          1   -1    0    0  501    0  0.00000000000E+00 -0.00000000000E+00 -0.71736971224E+03  0.71736971224E+03  0.00000000000E+00 0. -1.
         25    2    1    2    0    0 -0.71281168473E+02 -0.13521586011E+03 -0.48690932514E+03  0.52544488801E+03  0.12508919066E+03 0.  0.
          5    1    3    3  502    0 -0.56568880922E+02 -0.12168568881E+03 -0.48685194721E+03  0.50502449054E+03  0.41800000000E+01 0.  1.
         -5    1    3    3    0  502 -0.14712287551E+02 -0.13530171304E+02 -0.57377937814E-01  0.20420397467E+02  0.41800000000E+01 0.  1.
        -11    1    1    2    0    0  0.49766652730E+02  0.96859570387E+02 -0.54188891940E+02  0.12163441992E+03  0.00000000000E+00 0.  1.
         11    1    1    2    0    0  0.21514515743E+02  0.38356289725E+02 -0.11935885278E+03  0.12720304669E+03  0.00000000000E+00 0. -1.
</event>
<event>
 7    1  0.2749315E-009  0.9228278E+02  0.7561462E-02  0.1297416E+00
         -1   -1    0    0    0  501 -0.00000000000E+00  0.00000000000E+00  0.31157906997E+02  0.31157906997E+02  0.00000000000E+00 0.  1.
          1   -1    0    0  501    0  0.00000000000E+00 -0.00000000000E+00 -0.54751508882E+03  0.54751508882E+03  0.00000000000E+00 0. -1.
         25    2    1    2    0    0  0.26618055679E+02 -0.61269615759E+02 -0.22616899054E+03  0.26694080331E+03  0.12506995437E+03 0.  0.
          5    1    3    3  502    0 -0.80219651520E+01 -0.52241454703E+02 -0.18478809356E+02  0.56146774703E+02  0.41800000000E+01 0.  1.
         -5    1    3    3    0  502  0.34640020831E+02 -0.90281610568E+01 -0.20769018118E+03  0.21079402860E+03  0.41800000000E+01 0.  1.
        -11    1    1    2    0    0 -0.69030823585E+01 -0.15115953159E+02 -0.74799648305E+01  0.18223459052E+02  0.00000000000E+00 0.  1.
         11    1    1    2    0    0 -0.19714973320E+02  0.76385568918E+02 -0.28270822646E+03  0.29350873346E+03  0.00000000000E+00 0. -1.
</event>
<event>
 7    1  0.2749315E-009  0.1491986E+03  0.7561462E-02  0.1201461E+00
         -2   -1    0    0    0  501 -0.00000000000E+00  0.00000000000E+00  0.11091244678E+03  0.11091244678E+03  0.00000000000E+00 0. -1.
          2   -1    0    0  501    0  0.00000000000E+00 -0.00000000000E+00 -0.32237882741E+03  0.32237882741E+03  0.00000000000E+00 0.  1.
         25    2    1    2    0    0 -0.11344564809E+03 -0.28228081572E+02 -0.22515454124E+03  0.28285787666E+03  0.12508905343E+03 0.  0.
          5    1    3    3  502    0 -0.98004619067E+02 -0.71759049842E+02 -0.13622860258E+03  0.18256497789E+03  0.41800000000E+01 0. -1.
         -5    1    3    3    0  502 -0.15441029022E+02  0.43530968270E+02 -0.88925938665E+02  0.10029289877E+03  0.41800000000E+01 0. -1.
        -11    1    1    2    0    0  0.64827536538E+02 -0.13724823206E+02 -0.30026253659E+02  0.72749956525E+02  0.00000000000E+00 0.  1.
         11    1    1    2    0    0  0.48618111551E+02  0.41952904778E+02  0.43714414282E+02  0.77683441003E+02  0.00000000000E+00 0. -1.
</event>
<event>
 7    1  0.2749315E-009  0.1047172E+03  0.7561462E-02  0.1270678E+00
          1   -1    0    0  501    0  0.00000000000E+00  0.00000000000E+00  0.12348076667E+04  0.12348076667E+04  0.00000000000E+00 0. -1.
         -1   -1    0    0    0  501 -0.00000000000E+00 -0.00000000000E+00 -0.19474838973E+02  0.19474838973E+02  0.00000000000E+00 0.  1.
         25    2    1    2    0    0  0.29023067243E+02  0.75727090471E+02  0.96500845526E+03  0.97645577552E+03  0.12509049585E+03 0.  0.
          5    1    3    3  502    0  0.38869500300E+02  0.51725162461E+02  0.18550107820E+03  0.19650560526E+03  0.41800000000E+01 0. -1.
         -5    1    3    3    0  502 -0.98464330564E+01  0.24001928009E+02  0.77950737706E+03  0.77995017026E+03  0.41800000000E+01 0. -1.
        -11    1    1    2    0    0 -0.58846423340E+02 -0.37278251246E+02  0.17259879800E+03  0.18612607186E+03  0.00000000000E+00 0.  1.
         11    1    1    2    0    0  0.29823356097E+02 -0.38448839225E+02  0.77725574514E+02  0.91700658341E+02  0.00000000000E+00 0. -1.
</event>
<event>
 7    1  0.2749315E-009  0.1250745E+03  0.7561462E-02  0.1234953E+00
          2   -1    0    0  501    0  0.00000000000E+00  0.00000000000E+00  0.64584400742E+02  0.64584400742E+02  0.00000000000E+00 0. -1.
         -2   -1    0    0    0  501 -0.00000000000E+00 -0.00000000000E+00 -0.30601680618E+03  0.30601680618E+03  0.00000000000E+00 0.  1.
         25    2    1    2    0    0  0.84555989681E+02 -0.19749232358E+02 -0.14760172495E+03  0.21207070979E+03  0.12509184296E+03 0.  0.
          5    1    3    3  502    0  0.16182023815E+02  0.41363704251E+02 -0.85114875210E+01  0.45417306657E+02  0.41800000000E+01 0.  1.
         -5    1    3    3    0  502  0.68373965866E+02 -0.61112936609E+02 -0.13909023742E+03  0.16665340313E+03  0.41800000000E+01 0.  1.
        -11    1    1    2    0    0 -0.98244547689E+02  0.18691481475E+02 -0.48462553203E+02  0.11113047149E+03  0.00000000000E+00 0. -1.
         11    1    1    2    0    0  0.13688558007E+02  0.10577508826E+01 -0.45368127293E+02  0.47400025647E+02  0.00000000000E+00 0.  1.
</event>
<event>
 7    1  0.2749315E-009  0.4999931E+02  0.7561462E-02  0.1445345E+00
         -1   -1    0    0    0  501 -0.00000000000E+00  0.00000000000E+00  0.27913743431E+02  0.27913743431E+02  0.00000000000E+00 0.  1.
          1   -1    0    0  501    0  0.00000000000E+00 -0.00000000000E+00 -0.45183765996E+03  0.45183765996E+03  0.00000000000E+00 0. -1.
         25    2    1    2    0    0 -0.22678891956E+02 -0.15941312598E+01 -0.22436628937E+03  0.25787683026E+03  0.12507339600E+03 0.  0.
          5    1    3    3  502    0  0.10753278576E+02  0.29685820955E+01  0.13262915608E+02  0.17827585653E+02  0.41800000000E+01 0.  1.
         -5    1    3    3    0  502 -0.33432170532E+02 -0.45627133553E+01 -0.23762920498E+03  0.24004924461E+03  0.41800000000E+01 0.  1.
        -11    1    1    2    0    0 -0.12412133812E+02 -0.11216547105E+02  0.20325499494E+01  0.16852396092E+02  0.00000000000E+00 0.  1.
         11    1    1    2    0    0  0.35091025768E+02  0.12810678365E+02 -0.20159017710E+03  0.20502217703E+03  0.00000000000E+00 0. -1.
</event>
<event>
 7    1  0.2749315E-009  0.7962912E+02  0.7561462E-02  0.1330107E+00
          2   -1    0    0  501    0  0.00000000000E+00  0.00000000000E+00  0.49109274109E+03  0.49109274109E+03  0.00000000000E+00 0. -1.
         -2   -1    0    0    0  501 -0.00000000000E+00 -0.00000000000E+00 -0.50122584360E+02  0.50122584360E+02  0.00000000000E+00 0.  1.
         25    2    1    2    0    0 -0.72840159845E+02 -0.30421090693E+00  0.34489815120E+03  0.37404300894E+03  0.12509059279E+03 0.  0.
          5    1    3    3  502    0 -0.58383807938E+02 -0.19397558301E+02  0.34424419895E+03  0.34972342674E+03  0.41800000000E+01 0.  1.
         -5    1    3    3    0  502 -0.14456351907E+02  0.19093347394E+02  0.65395225301E+00  0.24319582207E+02  0.41800000000E+01 0.  1.
        -11    1    1    2    0    0  0.23705392604E+02 -0.36732358481E+01  0.11264083731E+03  0.11516682043E+03  0.00000000000E+00 0. -1.
         11    1    1    2    0    0  0.49134767241E+02  0.39774467551E+01 -0.16568831783E+02  0.52005496067E+02  0.00000000000E+00 0.  1.
</event>
<event>
 7    1  0.2749315E-009  0.1055434E+03  0.7561462E-02  0.1269053E+00
         -1   -1    0    0    0  501 -0.00000000000E+00  0.00000000000E+00  0.29352847214E+03  0.29352847214E+03  0.00000000000E+00 0.  1.
          1   -1    0    0  501    0  0.00000000000E+00 -0.00000000000E+00 -0.63589027291E+02  0.63589027291E+02  0.00000000000E+00 0. -1.
         25    2    1    2    0    0  0.85844254982E+02 -0.48879198469E+01  0.15230473739E+03  0.21503097794E+03  0.12509380708E+03 0.  0.
          5    1    3    3  502    0  0.84812508306E+01 -0.38574461420E+02  0.11684141591E+03  0.12340708878E+03  0.41800000000E+01 0. -1.
         -5    1    3    3    0  502  0.77363004152E+02  0.33686541573E+02  0.35463321479E+02  0.91623889160E+02  0.41800000000E+01 0. -1.
        -11    1    1    2    0    0 -0.33361231328E+02 -0.41974771136E+01 -0.13738177623E+02  0.36322556274E+02  0.00000000000E+00 0. -1.
         11    1    1    2    0    0 -0.52483023654E+02  0.90853969606E+01  0.91372885081E+02  0.10576396521E+03  0.00000000000E+00 0.  1.
</event>
<event>
 7    1  0.2749315E-009  0.1258416E+03  0.7561462E-02  0.1233760E+00
          1   -1    0    0  501    0  0.00000000000E+00  0.00000000000E+00  0.19011753301E+04  0.19011753301E+04  0.00000000000E+00 0. -1.
         -1   -1    0    0    0  501 -0.00000000000E+00 -0.00000000000E+00 -0.12184639629E+02  0.12184639629E+02  0.00000000000E+00 0.  1.
         25    2    1    2    0    0  0.30765440631E+02  0.57012019669E+02  0.15566650215E+04  0.15630259575E+04  0.12508905611E+03 0.  0.
          5    1    3    3  502    0 -0.24355812313E+02 -0.29323266437E+02  0.41771100514E+03  0.41946753839E+03  0.41800000000E+01 0. -1.
         -5    1    3    3    0  502  0.55121252944E+02  0.86335286106E+02  0.11389540163E+04  0.11435584191E+04  0.41800000000E+01 0. -1.
        -11    1    1    2    0    0 -0.18928813844E+02 -0.81474089048E+02  0.25557788821E+03  0.26891705807E+03  0.00000000000E+00 0.  1.
         11    1    1    2    0    0 -0.11836626787E+02  0.24462069379E+02  0.76747780826E+02  0.81416954215E+02  0.00000000000E+00 0. -1.
</event>
<event>
 7    1  0.2749315E-009  0.1016894E+03  0.7561462E-02  0.1276783E+00
          3   -1    0    0  501    0  0.00000000000E+00  0.00000000000E+00  0.48546905388E+02  0.48546905388E+02  0.00000000000E+00 0. -1.
         -3   -1    0    0    0  501 -0.00000000000E+00 -0.00000000000E+00 -0.25011636618E+03  0.25011636618E+03  0.00000000000E+00 0.  1.
         25    2    1    2    0    0  0.22650046024E+02  0.15022026692E+02 -0.11555811243E+03  0.17244904710E+03  0.12508521346E+03 0.  0.
          5    1    3    3  502    0 -0.42737890453E+02  0.39112250419E+02 -0.48931174521E+02  0.75947532239E+02  0.41800000000E+01 0. -1.
         -5    1    3    3    0  502  0.65387936477E+02 -0.24090223727E+02 -0.66626937909E+02  0.96501514864E+02  0.41800000000E+01 0. -1.
        -11    1    1    2    0    0  0.20471887547E+02  0.12820974588E+02 -0.67428117347E+02  0.71624203857E+02  0.00000000000E+00 0.  1.
         11    1    1    2    0    0 -0.43121933571E+02 -0.27843001280E+02 -0.18583231016E+02  0.54590020610E+02  0.00000000000E+00 0. -1.
</event>
<event>
 7    1  0.2749315E-009  0.2031831E+03  0.7561462E-02  0.1147081E+00
         -1   -1    0    0    0  501 -0.00000000000E+00  0.00000000000E+00  0.20466661174E+03  0.20466661174E+03  0.00000000000E+00 0.  1.
          1   -1    0    0  501    0  0.00000000000E+00 -0.00000000000E+00 -0.27682107905E+03  0.27682107905E+03  0.00000000000E+00 0. -1.
         25    2    1    2    0    0 -0.18496422558E+03  0.12720407929E+02 -0.14072283422E+03  0.26424081146E+03  0.12508683723E+03 0.  0.
          5    1    3    3  502    0 -0.29599491788E+02  0.47409269909E+02 -0.70857265898E+02  0.90343750852E+02  0.41800000000E+01 0.  1.
         -5    1    3    3    0  502 -0.15536473380E+03 -0.34688861980E+02 -0.69865568318E+02  0.17389706061E+03  0.41800000000E+01 0.  1.
        -11    1    1    2    0    0  0.11438632845E+03  0.14761022083E+02  0.80394808549E+02  0.14058963387E+03  0.00000000000E+00 0.  1.
         11    1    1    2    0    0  0.70577897134E+02 -0.27481430012E+02 -0.11826441647E+02  0.76657245459E+02  0.00000000000E+00 0. -1.
</event>
<event>
 7    1  0.2749315E-009  0.1148927E+03  0.7561462E-02  0.1251768E+00
          1   -1    0    0  501    0  0.00000000000E+00  0.00000000000E+00  0.14965886084E+03  0.14965886084E+03  0.00000000000E+00 0. -1.
         -1   -1    0    0    0  501 -0.00000000000E+00 -0.00000000000E+00 -0.95376907723E+02  0.95376907723E+02  0.00000000000E+00 0.  1.
         25    2    1    2    0    0  0.45107667754E+02  0.18687152919E+02  0.23561424497E+02  0.13633245585E+03  0.12508991334E+03 0.  0.
          5    1    3    3  502    0  0.70605138211E+01 -0.51962760123E+02  0.18707306893E+02  0.55833816153E+02  0.41800000000E+01 0. -1.
         -5    1    3    3    0  502  0.38047153933E+02  0.70649913042E+02  0.48541176043E+01  0.80498639696E+02  0.41800000000E+01 0. -1.
        -11    1    1    2    0    0 -0.52129639920E+02  0.21237158371E+02  0.37452925637E+02  0.67610930275E+02  0.00000000000E+00 0.  1.
         11    1    1    2    0    0  0.70219721665E+01 -0.39924311290E+02 -0.67323970157E+01  0.41092382441E+02  0.00000000000E+00 0. -1.
</event>
<event>
 7    1  0.2749315E-009  0.1653328E+03  0.7561462E-02  0.1182804E+00
         -1   -1    0    0    0  501 -0.00000000000E+00  0.00000000000E+00  0.75249830673E+03  0.75249830673E+03  0.00000000000E+00 0.  1.
          1   -1    0    0  501    0  0.00000000000E+00 -0.00000000000E+00 -0.39185816721E+02  0.39185816721E+02  0.00000000000E+00 0. -1.
         25    2    1    2    0    0 -0.79685928048E+02 -0.10113374915E+03  0.30365946297E+03  0.35275383872E+03  0.12509324096E+03 0.  0.
          5    1    3    3  502    0 -0.11272786117E+03 -0.87172148098E+02  0.22770865943E+03  0.26865453666E+03  0.41800000000E+01 0. -1.
         -5    1    3    3    0  502  0.33041933125E+02 -0.13961601057E+02  0.75950803534E+02  0.84099302055E+02  0.41800000000E+01 0. -1.
        -11    1    1    2    0    0  0.20987571664E+02  0.89784044627E+02  0.30234102112E+03  0.31608819321E+03  0.00000000000E+00 0.  1.
         11    1    1    2    0    0  0.58698356384E+02  0.11349704528E+02  0.10731200592E+03  0.12284209152E+03  0.00000000000E+00 0. -1.
</event>
<event>
 7    1  0.2749315E-009  0.1550562E+03  0.7561462E-02  0.1194394E+00
         -1   -1    0    0    0  501 -0.00000000000E+00  0.00000000000E+00  0.73877946139E+02  0.73877946139E+02  0.00000000000E+00 0.  1.
          1   -1    0    0  501    0  0.00000000000E+00 -0.00000000000E+00 -0.50974759383E+03  0.50974759383E+03  0.00000000000E+00 0. -1.
         25    2    1    2    0    0  0.12520374216E+03 -0.84302715335E+02 -0.30953732099E+03  0.36639165662E+03  0.12508624263E+03 0.  0.
          5    1    3    3  502    0  0.62292951210E+02 -0.29718650361E+02 -0.26077677257E+03  0.26978807880E+03  0.41800000000E+01 0. -1.
         -5    1    3    3    0  502  0.62910790948E+02 -0.54584064974E+02 -0.48760548419E+02  0.96603577827E+02  0.41800000000E+01 0. -1.
        -11    1    1    2    0    0 -0.40300408131E+02  0.54092345988E+02 -0.71734554624E+01  0.67834823308E+02  0.00000000000E+00 0. -1.
         11    1    1    2    0    0 -0.84903334026E+02  0.30210369348E+02 -0.11915887124E+03  0.14939906004E+03  0.00000000000E+00 0.  1.
</event>
<event>
 7    1  0.2749315E-009  0.1071595E+03  0.7561462E-02  0.1265922E+00
          2   -1    0    0  501    0  0.00000000000E+00  0.00000000000E+00  0.58067634849E+02  0.58067634849E+02  0.00000000000E+00 0. -1.
         -2   -1    0    0    0  501 -0.00000000000E+00 -0.00000000000E+00 -0.32309828789E+03  0.32309828789E+03  0.00000000000E+00 0.  1.
         25    2    1    2    0    0  0.28379997865E+02 -0.79904086867E+02 -0.10888208930E+03  0.18626882020E+03  0.12510266437E+03 0.  0.
          5    1    3    3  502    0 -0.38136902450E+01  0.15343776559E+02  0.18004841797E+02  0.24323290084E+02  0.41800000000E+01 0.  1.
         -5    1    3    3    0  502  0.32193688110E+02 -0.95247863425E+02 -0.12688693110E+03  0.16194553012E+03  0.41800000000E+01 0.  1.
        -11    1    1    2    0    0 -0.50790490010E+01  0.72800164047E+02 -0.15403256864E+03  0.17044557145E+03  0.00000000000E+00 0.  1.
         11    1    1    2    0    0 -0.23300948864E+02  0.71039228194E+01 -0.21159950968E+01  0.24451531089E+02  0.00000000000E+00 0. -1.
</event>
<event>
 7    1  0.2749315E-009  0.1879150E+03  0.7561462E-02  0.1160355E+00
         -1   -1    0    0    0  501 -0.00000000000E+00  0.00000000000E+00  0.41130483255E+03  0.41130483255E+03  0.00000000000E+00 0.  1.
          1   -1    0    0  501    0  0.00000000000E+00 -0.00000000000E+00 -0.10958080479E+03  0.10958080479E+03  0.00000000000E+00 0. -1.
         25    2    1    2    0    0  0.13075053518E+03 -0.11587187523E+03  0.14431206814E+03  0.25882732450E+03  0.12507444575E+03 0.  0.
          5    1    3    3  502    0  0.14195506331E+03 -0.95160140552E+02  0.77186545009E+02  0.18756846078E+03  0.41800000000E+01 0. -1.
         -5    1    3    3    0  502 -0.11204528129E+02 -0.20711734680E+02  0.67125523127E+02  0.71258863723E+02  0.41800000000E+01 0. -1.
        -11    1    1    2    0    0 -0.37132111872E+00  0.17831246229E+02 -0.16012481489E+02  0.23968537396E+02  0.00000000000E+00 0. -1.
         11    1    1    2    0    0 -0.13037921406E+03  0.98040629003E+02  0.17342444112E+03  0.23808977544E+03  0.00000000000E+00 0.  1.
</event>
<event>
 7    1  0.2749315E-009  0.1125444E+03  0.7561462E-02  0.1255929E+00
          1   -1    0    0  501    0  0.00000000000E+00  0.00000000000E+00  0.39569886271E+03  0.39569886271E+03  0.00000000000E+00 0. -1.
         -1   -1    0    0    0  501 -0.00000000000E+00 -0.00000000000E+00 -0.42709059329E+02  0.42709059329E+02  0.00000000000E+00 0.  1.
         25    2    1    2    0    0  0.14928218474E+02 -0.38816349344E+02  0.29416250075E+03  0.32234997627E+03  0.12509344376E+03 0.  0.
          5    1    3    3  502    0 -0.48629353609E+02  0.55373270369E+01  0.15981096560E+03  0.16718999118E+03  0.41800000000E+01 0. -1.
         -5    1    3    3    0  502  0.63557572082E+02 -0.44353676380E+02  0.13435153514E+03  0.15515998509E+03  0.41800000000E+01 0. -1.
        -11    1    1    2    0    0  0.31229070981E+02  0.41706942107E+02  0.20493131957E+02  0.55988323351E+02  0.00000000000E+00 0. -1.
         11    1    1    2    0    0 -0.46157289455E+02 -0.28905927635E+01  0.38334170678E+02  0.60069622422E+02  0.00000000000E+00 0.  1.
</event>
<event>
 7    1  0.2749315E-009  0.1187045E+03  0.7561462E-02  0.1245250E+00
          1   -1    0    0  501    0  0.00000000000E+00  0.00000000000E+00  0.23153915577E+02  0.23153915577E+02  0.00000000000E+00 0. -1.
         -1   -1    0    0    0  501 -0.00000000000E+00 -0.00000000000E+00 -0.70587424535E+03  0.70587424535E+03  0.00000000000E+00 0.  1.
         25    2    1    2    0    0  0.22100606283E+02  0.56954450964E+02 -0.29975576374E+03  0.33050435926E+03  0.12508943724E+03 0.  0.
          5    1    3    3  502    0  0.54303208995E+02 -0.82531189332E+01 -0.67677689748E+02  0.87262217305E+02  0.41800000000E+01 0.  1.
         -5    1    3    3    0  502 -0.32202602712E+02  0.65207569898E+02 -0.23207807399E+03  0.24324214195E+03  0.41800000000E+01 0.  1.
        -11    1    1    2    0    0 -0.63955908207E+01 -0.80730232879E+02 -0.30293728970E+03  0.31357499194E+03  0.00000000000E+00 0.  1.
         11    1    1    2    0    0 -0.15705015462E+02  0.23775781915E+02 -0.80027276328E+02  0.84948809720E+02  0.00000000000E+00 0. -1.
</event>
<event>
 7    1  0.2749315E-009  0.8089727E+02  0.7561462E-02  0.1326524E+00
          1   -1    0    0  501    0  0.00000000000E+00  0.00000000000E+00  0.12230802599E+03  0.12230802599E+03  0.00000000000E+00 0. -1.
         -1   -1    0    0    0  501 -0.00000000000E+00 -0.00000000000E+00 -0.11760876695E+03  0.11760876695E+03  0.00000000000E+00 0.  1.
         25    2    1    2    0    0  0.25915717283E+01 -0.43506026601E+01  0.52381398824E+02  0.13570919729E+03  0.12509009273E+03 0.  0.
          5    1    3    3  502    0 -0.22446778981E+02  0.23542479048E+02  0.81636554793E+02  0.87977870426E+02  0.41800000000E+01 0.  1.
         -5    1    3    3    0  502  0.25038350709E+02 -0.27893081708E+02 -0.29255155969E+02  0.47731326864E+02  0.41800000000E+01 0.  1.
        -11    1    1    2    0    0 -0.47563053596E+01 -0.43311748490E+02 -0.13857582026E+02  0.45722670280E+02  0.00000000000E+00 0. -1.
         11    1    1    2    0    0  0.21647336314E+01  0.47662351150E+02 -0.33824557754E+02  0.58484925374E+02  0.00000000000E+00 0.  1.
</event>
<event>
 7    1  0.2749315E-009  0.1001789E+03  0.7561462E-02  0.1279920E+00
          1   -1    0    0  501    0  0.00000000000E+00  0.00000000000E+00  0.23690522936E+03  0.23690522936E+03  0.00000000000E+00 0. -1.
         -1   -1    0    0    0  501 -0.00000000000E+00 -0.00000000000E+00 -0.11559671785E+03  0.11559671785E+03  0.00000000000E+00 0.  1.
         25    2    1    2    0    0  0.52985950099E+02  0.36154672242E+02 -0.49747254608E+02  0.14911760761E+03  0.12508637146E+03 0.  0.
          5    1    3    3  502    0  0.48015970144E+02  0.54506853879E+02 -0.83129293722E+02  0.11047389910E+03  0.41800000000E+01 0. -1.
         -5    1    3    3    0  502  0.49699799555E+01 -0.18352181636E+02  0.33382039114E+02  0.38643708504E+02  0.41800000000E+01 0. -1.
        -11    1    1    2    0    0 -0.55380849715E+02  0.14637095547E+02  0.10919208198E+03  0.12330528719E+03  0.00000000000E+00 0. -1.
         11    1    1    2    0    0  0.23948996160E+01 -0.50791767789E+02  0.61863684148E+02  0.80079052415E+02  0.00000000000E+00 0.  1.
</event>
<event>
 7    1  0.2749315E-009  0.9046171E+02  0.7561462E-02  0.1301737E+00
         -1   -1    0    0    0  501 -0.00000000000E+00  0.00000000000E+00  0.35726471676E+03  0.35726471676E+03  0.00000000000E+00 0.  1.
          1   -1    0    0  501    0  0.00000000000E+00 -0.00000000000E+00 -0.64381013469E+02  0.64381013469E+02  0.00000000000E+00 0. -1.
         25    2    1    2    0    0  0.30214068777E+02 -0.73096188440E+02  0.25779783825E+03  0.29726058404E+03  0.12509271242E+03 0.  0.
          5    1    3    3  502    0  0.25076238674E+02 -0.42091920759E+02  0.26081820836E+03  0.26541318308E+03  0.41800000000E+01 0. -1.
         -5    1    3    3    0  502  0.51378301032E+01 -0.31004267682E+02 -0.30203701053E+01  0.31847400965E+02  0.41800000000E+01 0. -1.
        -11    1    1    2    0    0 -0.43309841919E+02  0.75202369830E+02  0.53307516994E+02  0.10184709227E+03  0.00000000000E+00 0.  1.
         11    1    1    2    0    0  0.13095773142E+02 -0.21061813897E+01 -0.18221651960E+02  0.22538053917E+02  0.00000000000E+00 0. -1.
</event>
<event>
 7    1  0.2749315E-009  0.1172444E+03  0.7561462E-02  0.1247713E+00
         -2   -1    0    0    0  501 -0.00000000000E+00  0.00000000000E+00  0.13353245090E+02  0.13353245090E+02  0.00000000000E+00 0.  1.
          2   -1    0    0  501    0  0.00000000000E+00 -0.00000000000E+00 -0.10484950731E+04  0.10484950731E+04  0.00000000000E+00 0. -1.
         25    2    1    2    0    0  0.45521504039E+02  0.98455358813E+01 -0.64438567237E+03  0.65806460841E+03  0.12508793780E+03 0.  0.
          5    1    3    3  502    0  0.22078731014E+02  0.67187997844E+02 -0.37276725558E+03  0.37943984590E+03  0.41800000000E+01 0.  1.
         -5    1    3    3    0  502  0.23442773025E+02 -0.57342461963E+02 -0.27161841679E+03  0.27862476252E+03  0.41800000000E+01 0.  1.
        -11    1    1    2    0    0 -0.27007797708E+02 -0.50283649661E+02 -0.23167742962E+03  0.23860489927E+03  0.00000000000E+00 0. -1.
         11    1    1    2    0    0 -0.18513706331E+02  0.40438113780E+02 -0.15907872600E+03  0.16517881049E+03  0.00000000000E+00 0.  1.
</event>
<event>
 7    1  0.5386822E-009  0.1417375E+03  0.7561462E-02  0.1211010E+00
          2   -1    0    0  501    0  0.00000000000E+00  0.00000000000E+00  0.27924992381E+03  0.27924992381E+03  0.00000000000E+00 0. -1.
         -2   -1    0    0    0  501 -0.00000000000E+00 -0.00000000000E+00 -0.90679977317E+02  0.90679977317E+02  0.00000000000E+00 0.  1.
         25    2    1    2    0    0 -0.40611494739E+02  0.10453225330E+03  0.13588102894E+03  0.21606957379E+03  0.12508445630E+03 0.  0.
          5    1    3    3  502    0  0.27094274361E+02  0.71977767682E+02  0.22949572501E+02  0.80368240130E+02  0.41800000000E+01 0. -1.
         -5    1    3    3    0  502 -0.67705769100E+02  0.32554485616E+02  0.11293145644E+03  0.13570133366E+03  0.41800000000E+01 0. -1.
        -11    1    1    2    0    0  0.58746152875E+02 -0.64384740692E+02  0.64291617623E+02  0.10830474324E+03  0.00000000000E+00 0.  1.
         11    1    1    2    0    0 -0.18134658136E+02 -0.40147512606E+02 -0.11602700067E+02  0.45555584103E+02  0.00000000000E+00 0. -1.
</event>
<event>
 7    1  0.2749315E-009  0.1560489E+03  0.7561462E-02  0.1193231E+00
          1   -1    0    0  501    0  0.00000000000E+00  0.00000000000E+00  0.10847831012E+04  0.10847831012E+04  0.00000000000E+00 0. -1.
         -1   -1    0    0    0  501 -0.00000000000E+00 -0.00000000000E+00 -0.36442051305E+02  0.36442051305E+02  0.00000000000E+00 0.  1.
         25    2    1    2    0    0 -0.12995261705E+03 -0.51989153508E+02  0.79926884740E+03  0.82101702169E+03  0.12509078594E+03 0.  0.
          5    1    3    3  502    0 -0.96894346215E+01  0.15067307816E+02  0.12408924915E+02  0.22189247974E+02  0.41800000000E+01 0. -1.
         -5    1    3    3    0  502 -0.12026318243E+03 -0.67056461325E+02  0.78685992248E+03  0.79882777372E+03  0.41800000000E+01 0. -1.
        -11    1    1    2    0    0  0.14988832564E+02 -0.16367586762E+02  0.88437776022E+02  0.91180059365E+02  0.00000000000E+00 0. -1.
         11    1    1    2    0    0  0.11496378449E+03  0.68356740270E+02  0.16063442647E+03  0.20902807145E+03  0.00000000000E+00 0.  1.
</event>
<event>
 7    1  0.2749315E-009  0.6417192E+02  0.7561462E-02  0.1381114E+00
          2   -1    0    0  501    0  0.00000000000E+00  0.00000000000E+00  0.90729633887E+02  0.90729633887E+02  0.00000000000E+00 0. -1.
         -2   -1    0    0    0  501 -0.00000000000E+00 -0.00000000000E+00 -0.16158444690E+03  0.16158444690E+03  0.00000000000E+00 0.  1.
         25    2    1    2    0    0 -0.19621539230E+02 -0.33528180449E+02 -0.49204593184E+01  0.13107611256E+03  0.12509033807E+03 0.  0.
          5    1    3    3  502    0 -0.14881859587E+02 -0.50176308884E+02  0.50510284157E+02  0.72855287547E+02  0.41800000000E+01 0. -1.
         -5    1    3    3    0  502 -0.47396796433E+01  0.16648128435E+02 -0.55430743475E+02  0.58220825017E+02  0.41800000000E+01 0. -1.
        -11    1    1    2    0    0 -0.13040865723E+02  0.31239443220E+01 -0.74587441654E+02  0.75783307261E+02  0.00000000000E+00 0.  1.
         11    1    1    2    0    0  0.32662404953E+02  0.30404236127E+02  0.86530879598E+01  0.45454660961E+02  0.00000000000E+00 0. -1.
</event>
<event>
 7    1  0.2749315E-009  0.8859391E+02  0.7561462E-02  0.1306293E+00
         -1   -1    0    0    0  501 -0.00000000000E+00  0.00000000000E+00  0.30376472811E+02  0.30376472811E+02  0.00000000000E+00 0.  1.
          1   -1    0    0  501    0  0.00000000000E+00 -0.00000000000E+00 -0.37095621276E+03  0.37095621276E+03  0.00000000000E+00 0. -1.
         25    2    1    2    0    0 -0.14338293463E+01  0.76528517483E+01 -0.22230050126E+03  0.25519608658E+03  0.12508760025E+03 0.  0.
          5    1    3    3  502    0  0.43238994718E+02 -0.20047827240E+02 -0.18375110252E+03  0.18987750293E+03  0.41800000000E+01 0. -1.
         -5    1    3    3    0  502 -0.44672824064E+02  0.27700678989E+02 -0.38549398741E+02  0.65318583647E+02  0.41800000000E+01 0. -1.
        -11    1    1    2    0    0 -0.31795698897E+02  0.16224245262E+02 -0.23056916797E+02  0.42494870453E+02  0.00000000000E+00 0.  1.
         11    1    1    2    0    0  0.33229528243E+02 -0.23877097010E+02 -0.95222321889E+02  0.10364172854E+03  0.00000000000E+00 0. -1.
</event>
<event>
 7    1  0.2749315E-009  0.7813569E+02  0.7561462E-02  0.1334427E+00
         -1   -1    0    0    0  501 -0.00000000000E+00  0.00000000000E+00  0.12450845217E+03  0.12450845217E+03  0.00000000000E+00 0.  1.
          1   -1    0    0  501    0  0.00000000000E+00 -0.00000000000E+00 -0.13050475104E+03  0.13050475104E+03  0.00000000000E+00 0. -1.
         25    2    1    2    0    0  0.80961833787E+01 -0.64247649061E+02  0.21843709168E+02  0.14253995610E+03  0.12508869997E+03 0.  0.
          5    1    3    3  502    0  0.25652130526E+02 -0.66088041521E+02  0.64658398125E+02  0.96040834444E+02  0.41800000000E+01 0.  1.
         -5    1    3    3    0  502 -0.17555947148E+02  0.18403924598E+01 -0.42814688957E+02  0.46499121660E+02  0.41800000000E+01 0.  1.
        -11    1    1    2    0    0  0.18874799981E+00  0.53715398821E+02  0.24069592312E+02  0.58861914430E+02  0.00000000000E+00 0.  1.
         11    1    1    2    0    0 -0.82849313785E+01  0.10532250241E+02 -0.51909600349E+02  0.53611332678E+02  0.00000000000E+00 0. -1.
</event>
<event>
 7    1  0.2749315E-009  0.8604682E+02  0.7561462E-02  0.1312717E+00
         -1   -1    0    0    0  501 -0.00000000000E+00  0.00000000000E+00  0.19095773531E+03  0.19095773531E+03  0.00000000000E+00 0.  1.
          1   -1    0    0  501    0  0.00000000000E+00 -0.00000000000E+00 -0.12814328339E+03  0.12814328339E+03  0.00000000000E+00 0. -1.
         25    2    1    2    0    0  0.12976399245E+01 -0.12728437538E+02  0.14870364882E+03  0.19474256996E+03  0.12509275115E+03 0.  0.
          5    1    3    3  502    0 -0.51291248066E+02 -0.40984719501E+02  0.81970956764E+02  0.10510589666E+03  0.41800000000E+01 0.  1.
         -5    1    3    3    0  502  0.52588887991E+02  0.28256281963E+02  0.66732692056E+02  0.89636673296E+02  0.41800000000E+01 0.  1.
        -11    1    1    2    0    0 -0.12601634534E+02  0.26080884104E+02  0.70300130228E+01  0.29806623285E+02  0.00000000000E+00 0.  1.
         11    1    1    2    0    0  0.11303994609E+02 -0.13352446565E+02 -0.92919209923E+02  0.94551825451E+02  0.00000000000E+00 0. -1.
</event>
<event>
 7    1  0.2749315E-009  0.9292659E+02  0.7561462E-02  0.1295915E+00
          2   -1    0    0  501    0  0.00000000000E+00  0.00000000000E+00  0.11928683514E+04  0.11928683514E+04  0.00000000000E+00 0. -1.
         -2   -1    0    0    0  501 -0.00000000000E+00 -0.00000000000E+00 -0.11495650669E+02  0.11495650669E+02  0.00000000000E+00 0.  1.
         25    2    1    2    0    0 -0.56950250139E+01 -0.21034512010E+02  0.89627824391E+03  0.90522767341E+03  0.12509023224E+03 0.  0.
          5    1    3    3  502    0 -0.46706071253E+02  0.11310222368E+02  0.16065167319E+03  0.16773732655E+03  0.41800000000E+01 0.  1.
         -5    1    3    3    0  502  0.41011046239E+02 -0.32344734377E+02  0.73562657072E+03  0.73749034686E+03  0.41800000000E+01 0.  1.
        -11    1    1    2    0    0 -0.38430318441E+02  0.10841994168E+02  0.84030682038E+02  0.93035443444E+02  0.00000000000E+00 0.  1.
         11    1    1    2    0    0  0.44125343455E+02  0.10192517842E+02  0.20106377474E+03  0.20610088517E+03  0.00000000000E+00 0. -1.
</event>
<event>
 7    1  0.2749315E-009  0.1095666E+03  0.7561462E-02  0.1261375E+00
          4   -1    0    0  501    0  0.00000000000E+00  0.00000000000E+00  0.76745640138E+02  0.76745640138E+02  0.00000000000E+00 0. -1.
         -4   -1    0    0    0  501 -0.00000000000E+00 -0.00000000000E+00 -0.36912158736E+03  0.36912158736E+03  0.00000000000E+00 0.  1.
         25    2    1    2    0    0 -0.49718079650E+02 -0.57382268444E+02 -0.29338885135E+03  0.32785694770E+03  0.12509415606E+03 0.  0.
          5    1    3    3  502    0 -0.66593757811E+02 -0.16979708949E+02 -0.63057666741E+02  0.93363701888E+02  0.41800000000E+01 0. -1.
         -5    1    3    3    0  502  0.16875678161E+02 -0.40402559494E+02 -0.23033118461E+03  0.23449324581E+03  0.41800000000E+01 0. -1.
        -11    1    1    2    0    0 -0.14312234095E+02  0.36082608023E+02  0.25252665455E+02  0.46308657496E+02  0.00000000000E+00 0. -1.
         11    1    1    2    0    0  0.64030313744E+02  0.21299660421E+02 -0.24239761330E+02  0.71701622308E+02  0.00000000000E+00 0.  1.
</event>
<event>
 7    1  0.2749315E-009  0.9124001E+02  0.7561462E-02  0.1299876E+00
         -2   -1    0    0    0  501 -0.00000000000E+00  0.00000000000E+00  0.11094889751E+03  0.11094889751E+03  0.00000000000E+00 0.  1.
          2   -1    0    0  501    0  0.00000000000E+00 -0.00000000000E+00 -0.12271964160E+03  0.12271964160E+03  0.00000000000E+00 0. -1.
         25    2    1    2    0    0  0.24868918965E+02 -0.40334507330E+02 -0.88024148280E+01  0.13407022674E+03  0.12510798367E+03 0.  0.
          5    1    3    3  502    0  0.21084678469E+02  0.41624030969E+02 -0.20414492611E+02  0.51101345665E+02  0.41800000000E+01 0.  1.
         -5    1    3    3    0  502  0.37842404960E+01 -0.81958538299E+02  0.11612077783E+02  0.82968881074E+02  0.41800000000E+01 0.  1.
        -11    1    1    2    0    0 -0.22115234415E+02  0.12287806253E+02 -0.43446571798E+02  0.50276021886E+02  0.00000000000E+00 0. -1.
         11    1    1    2    0    0 -0.27536845506E+01  0.28046701077E+02  0.40478242536E+02  0.49322290485E+02  0.00000000000E+00 0.  1.
</event>
<event>
 7    1  0.2749315E-009  0.1859567E+03  0.7561462E-02  0.1162160E+00
         -2   -1    0    0    0  501 -0.00000000000E+00  0.00000000000E+00  0.41627531146E+02  0.41627531146E+02  0.00000000000E+00 0.  1.
          2   -1    0    0  501    0  0.00000000000E+00 -0.00000000000E+00 -0.14557637682E+04  0.14557637682E+04  0.00000000000E+00 0. -1.
         25    2    1    2    0    0  0.18377709905E+03  0.26503177109E+02 -0.10917558987E+04  0.11144753231E+04  0.12509141816E+03 0.  0.
          5    1    3    3  502    0  0.45168559785E+02  0.51196904776E+01 -0.63537270627E+03  0.63701048523E+03  0.41800000000E+01 0. -1.
         -5    1    3    3    0  502  0.13860853927E+03  0.21383486631E+02 -0.45638319248E+03  0.47746483790E+03  0.41800000000E+01 0. -1.
        -11    1    1    2    0    0 -0.12577167908E+03 -0.22870797037E+02 -0.28871709938E+03  0.31575172539E+03  0.00000000000E+00 0.  1.
         11    1    1    2    0    0 -0.58005419972E+02 -0.36323800720E+01 -0.33663238909E+02  0.67164250796E+02  0.00000000000E+00 0. -1.
</event>
<event>
 7    1  0.2749315E-009  0.7940152E+02  0.7561462E-02  0.1330758E+00
         -2   -1    0    0    0  501 -0.00000000000E+00  0.00000000000E+00  0.11716669056E+03  0.11716669056E+03  0.00000000000E+00 0. -1.
          2   -1    0    0  501    0  0.00000000000E+00 -0.00000000000E+00 -0.10478864965E+03  0.10478864965E+03  0.00000000000E+00 0.  1.
         25    2    1    2    0    0 -0.22584381122E+02 -0.37066416936E+00  0.15545386466E+02  0.12805927807E+03  0.12508928010E+03 0.  0.
          5    1    3    3  502    0  0.16058473913E+02  0.33278223830E+02 -0.38459627171E+02  0.53497010083E+02  0.41800000000E+01 0. -1.
         -5    1    3    3    0  502 -0.38642855035E+02 -0.33648887999E+02  0.54005013636E+02  0.74562267982E+02  0.41800000000E+01 0. -1.
        -11    1    1    2    0    0  0.46388949806E+02  0.87630363551E+00 -0.32105099125E+02  0.56421981195E+02  0.00000000000E+00 0.  1.
         11    1    1    2    0    0 -0.23804568684E+02 -0.50563946615E+00  0.28937753565E+02  0.37474080948E+02  0.00000000000E+00 0. -1.
</event>
<event>
 7    1  0.2749315E-009  0.1373406E+03  0.7561462E-02  0.1216953E+00
         -1   -1    0    0    0  501 -0.00000000000E+00  0.00000000000E+00  0.22618043736E+02  0.22618043736E+02  0.00000000000E+00 0.  1.
          1   -1    0    0  501    0  0.00000000000E+00 -0.00000000000E+00 -0.99288387978E+03  0.99288387978E+03  0.00000000000E+00 0. -1.
         25    2    1    2    0    0 -0.40091785129E+02 -0.86292445247E+02 -0.39210646751E+03  0.42243320505E+03  0.12509433848E+03 0.  0.
          5    1    3    3  502    0  0.42821459547E+02 -0.47943721488E+02 -0.13587588979E+03  0.15037289534E+03  0.41800000000E+01 0.  1.
         -5    1    3    3    0  502 -0.82913244675E+02 -0.38348723759E+02 -0.25623057772E+03  0.27206030971E+03  0.41800000000E+01 0.  1.
        -11    1    1    2    0    0 -0.20654053507E+02  0.17804115702E+02 -0.49249302832E+02  0.56294496104E+02  0.00000000000E+00 0.  1.
         11    1    1    2    0    0  0.60745838635E+02  0.68488329545E+02 -0.52891006570E+03  0.53677422237E+03  0.00000000000E+00 0. -1.
</event>
<event>
 7    1  0.2749315E-009  0.1013880E+03  0.7561462E-02  0.1277404E+00
         -2   -1    0    0    0  501 -0.00000000000E+00  0.00000000000E+00  0.91827253508E+03  0.91827253508E+03  0.00000000000E+00 0. -1.
          2   -1    0    0  501    0  0.00000000000E+00 -0.00000000000E+00 -0.35649039644E+02  0.35649039644E+02  0.00000000000E+00 0.  1.
         25    2    1    2    0    0  0.39198665706E+02 -0.50292773843E+02  0.80505625182E+03  0.81720750047E+03  0.12508649698E+03 0.  0.
          5    1    3    3  502    0  0.69157676389E+02 -0.22498215814E+02  0.70904432884E+03  0.71277646326E+03  0.41800000000E+01 0. -1.
         -5    1    3    3    0  502 -0.29959010684E+02 -0.27794558029E+02  0.96011922981E+02  0.10443103721E+03  0.41800000000E+01 0. -1.
        -11    1    1    2    0    0 -0.50994355884E+02  0.17358056956E+02  0.85301069630E+02  0.10088606917E+03  0.00000000000E+00 0. -1.
         11    1    1    2    0    0  0.11795690179E+02  0.32934716887E+02 -0.77338260187E+01  0.35828005081E+02  0.00000000000E+00 0.  1.
</event>
<event>
 7    1  0.2749315E-009  0.1080277E+03  0.7561462E-02  0.1264267E+00
          2   -1    0    0  501    0  0.00000000000E+00  0.00000000000E+00  0.52876368756E+03  0.52876368756E+03  0.00000000000E+00 0. -1.
         -2   -1    0    0    0  501 -0.00000000000E+00 -0.00000000000E+00 -0.36829677513E+02  0.36829677513E+02  0.00000000000E+00 0.  1.
         25    2    1    2    0    0  0.84436496515E+02 -0.84374286688E+01  0.30580712642E+03  0.34112921845E+03  0.12510169051E+03 0.  0.
          5    1    3    3  502    0  0.24946922043E+02  0.41510181116E+02  0.22001550570E+03  0.22532141310E+03  0.41800000000E+01 0. -1.
         -5    1    3    3    0  502  0.59489574472E+02 -0.49947609785E+02  0.85791620721E+02  0.11580780535E+03  0.41800000000E+01 0. -1.
        -11    1    1    2    0    0 -0.29844219473E+02 -0.10851812062E+02  0.24189177637E+01  0.31847926528E+02  0.00000000000E+00 0.  1.
         11    1    1    2    0    0 -0.54592277042E+02  0.19289240731E+02  0.18370796587E+03  0.19261622009E+03  0.00000000000E+00 0. -1.
</event>
<event>
 7    1  0.2749315E-009  0.1343008E+03  0.7561462E-02  0.1221210E+00
         -1   -1    0    0    0  501 -0.00000000000E+00  0.00000000000E+00  0.88315430771E+03  0.88315430771E+03  0.00000000000E+00 0.  1.
          1   -1    0    0  501    0  0.00000000000E+00 -0.00000000000E+00 -0.33204768354E+02  0.33204768354E+02  0.00000000000E+00 0. -1.
         25    2    1    2    0    0  0.86953395209E+02 -0.82794909852E+02  0.59635137435E+03  0.62104646576E+03  0.12509141019E+03 0.  0.
          5    1    3    3  502    0  0.59571339578E+02 -0.14392242906E+02  0.47544753784E+03  0.47939932706E+03  0.41800000000E+01 0. -1.
         -5    1    3    3    0  502  0.27382055631E+02 -0.68402666946E+02  0.12090383652E+03  0.14164713869E+03  0.41800000000E+01 0. -1.
        -11    1    1    2    0    0 -0.30595215161E+02  0.68814688429E+02  0.70246188667E+02  0.10298570559E+03  0.00000000000E+00 0. -1.
         11    1    1    2    0    0 -0.56358180047E+02  0.13980221422E+02  0.18335197634E+03  0.19232690471E+03  0.00000000000E+00 0.  1.
</event>
<event>
 7    1  0.2749315E-009  0.2586953E+03  0.7561462E-02  0.1107930E+00
         -1   -1    0    0    0  501 -0.00000000000E+00  0.00000000000E+00  0.13603739492E+03  0.13603739492E+03  0.00000000000E+00 0.  1.
          1   -1    0    0  501    0  0.00000000000E+00 -0.00000000000E+00 -0.57117292734E+03  0.57117292734E+03  0.00000000000E+00 0. -1.
         25    2    1    2    0    0 -0.24439069733E+03 -0.78790206470E+02 -0.23340925610E+03  0.36886623139E+03  0.12509079201E+03 0.  0.
          5    1    3    3  502    0 -0.12741263195E+03 -0.23423386016E+02 -0.39135923804E+02  0.13539470715E+03  0.41800000000E+01 0.  1.
         -5    1    3    3    0  502 -0.11697806539E+03 -0.55366820454E+02 -0.19427333229E+03  0.23347152424E+03  0.41800000000E+01 0.  1.
        -11    1    1    2    0    0  0.92965277074E+02  0.15865688392E+02 -0.25647383266E+02  0.97734595093E+02  0.00000000000E+00 0. -1.
         11    1    1    2    0    0  0.15142542026E+03  0.62924518078E+02 -0.17607889306E+03  0.24060949578E+03  0.00000000000E+00 0.  1.
</event>
<event>
 7    1  0.2749315E-009  0.1073286E+03  0.7561462E-02  0.1265598E+00
         -3   -1    0    0    0  501 -0.00000000000E+00  0.00000000000E+00  0.17916394395E+03  0.17916394395E+03  0.00000000000E+00 0.  1.
          3   -1    0    0  501    0  0.00000000000E+00 -0.00000000000E+00 -0.97523656031E+02  0.97523656031E+02  0.00000000000E+00 0. -1.
         25    2    1    2    0    0  0.34423388825E+02  0.57014760824E+02  0.48092767654E+01  0.14179706468E+03  0.12509047030E+03 0.  0.
          5    1    3    3  502    0 -0.33820317319E+02  0.28166918039E+02 -0.36083681862E+02  0.57067448095E+02  0.41800000000E+01 0.  1.
         -5    1    3    3    0  502  0.68243706144E+02  0.28847842785E+02  0.40892958627E+02  0.84729616586E+02  0.41800000000E+01 0.  1.
        -11    1    1    2    0    0 -0.37444466351E+02  0.16634255054E+01  0.64884641962E+02  0.74932448293E+02  0.00000000000E+00 0. -1.
         11    1    1    2    0    0  0.30210775265E+01 -0.58678186329E+02  0.11946369191E+02  0.59958087004E+02  0.00000000000E+00 0.  1.
</event>
<event>
 7    1  0.2749315E-009  0.6068252E+02  0.7561462E-02  0.1394990E+00
          2   -1    0    0  501    0  0.00000000000E+00  0.00000000000E+00  0.16937690271E+03  0.16937690271E+03  0.00000000000E+00 0. -1.
         -2   -1    0    0    0  501 -0.00000000000E+00 -0.00000000000E+00 -0.73944867037E+02  0.73944867037E+02  0.00000000000E+00 0.  1.
         25    2    1    2    0    0  0.10601682222E+02 -0.41890140768E+01  0.84030477875E+02  0.15112218204E+03  0.12508736622E+03 0.  0.
          5    1    3    3  502    0 -0.27516766085E+02  0.92648372663E+00 -0.23755557765E+02  0.36603684413E+02  0.41800000000E+01 0. -1.
         -5    1    3    3    0  502  0.38118448307E+02 -0.51154978034E+01  0.10778603564E+03  0.11451849762E+03  0.41800000000E+01 0. -1.
        -11    1    1    2    0    0  0.18856777016E+02 -0.10849794622E+02  0.41898758939E+02  0.47210190462E+02  0.00000000000E+00 0. -1.
         11    1    1    2    0    0 -0.29458459238E+02  0.15038808699E+02 -0.30497201139E+02  0.44989397252E+02  0.00000000000E+00 0.  1.
</event>
<event>
 7    1  0.2749315E-009  0.1106247E+03  0.7561462E-02  0.1259417E+00
         -2   -1    0    0    0  501 -0.00000000000E+00  0.00000000000E+00  0.56534183560E+03  0.56534183560E+03  0.00000000000E+00 0.  1.
          2   -1    0    0  501    0  0.00000000000E+00 -0.00000000000E+00 -0.37115201174E+02  0.37115201174E+02  0.00000000000E+00 0. -1.
         25    2    1    2    0    0  0.67930802086E+02 -0.45370231284E+02  0.18180790380E+03  0.23531732865E+03  0.12508828689E+03 0.  0.
          5    1    3    3  502    0  0.36078815501E+02 -0.66790648561E+02  0.35328903576E+02  0.83834810735E+02  0.41800000000E+01 0.  1.
         -5    1    3    3    0  502  0.31851986584E+02  0.21420417277E+02  0.14647900023E+03  0.15148251791E+03  0.41800000000E+01 0.  1.
        -11    1    1    2    0    0 -0.14418854862E+02  0.50816067130E+02  0.26028431255E+03  0.26559009660E+03  0.00000000000E+00 0.  1.
         11    1    1    2    0    0 -0.53511947224E+02 -0.54458358463E+01  0.86134418073E+02  0.10154961152E+03  0.00000000000E+00 0. -1.
</event>
<event>
 7    1  0.2749315E-009  0.1000062E+03  0.7561462E-02  0.1280283E+00
          1   -1    0    0  501    0  0.00000000000E+00  0.00000000000E+00  0.34774912127E+02  0.34774912127E+02  0.00000000000E+00 0. -1.
         -1   -1    0    0    0  501 -0.00000000000E+00 -0.00000000000E+00 -0.43746580782E+03  0.43746580782E+03  0.00000000000E+00 0.  1.
         25    2    1    2    0    0  0.28467176311E+02  0.32337181666E+02 -0.30161748859E+03  0.32935720326E+03  0.12508790697E+03 0.  0.
          5    1    3    3  502    0 -0.35574510919E+02  0.40647279589E+02 -0.68008262416E+02  0.86950234744E+02  0.41800000000E+01 0.  1.
         -5    1    3    3    0  502  0.64041687230E+02 -0.83100979230E+01 -0.23360922618E+03  0.24240696852E+03  0.41800000000E+01 0.  1.
        -11    1    1    2    0    0 -0.34808005149E+02  0.11629539349E+02 -0.50011643396E+01  0.37038561698E+02  0.00000000000E+00 0. -1.
         11    1    1    2    0    0  0.63408288377E+01 -0.43966721016E+02 -0.96072242755E+02  0.10584495498E+03  0.00000000000E+00 0.  1.
</event>
<event>
 7    1  0.2749315E-009  0.9845970E+02  0.7561462E-02  0.1283569E+00
          2   -1    0    0  501    0  0.00000000000E+00  0.00000000000E+00  0.59449753118E+03  0.59449753118E+03  0.00000000000E+00 0. -1.
         -2   -1    0    0    0  501 -0.00000000000E+00 -0.00000000000E+00 -0.20143764610E+02  0.20143764610E+02  0.00000000000E+00 0.  1.
         25    2    1    2    0    0  0.47262986040E+01 -0.14627054167E+02  0.32526713272E+03  0.34883077395E+03  0.12509161690E+03 0.  0.
          5    1    3    3  502    0  0.68722705828E+01 -0.65587993826E+02  0.24402194416E+03  0.25281059050E+03  0.41800000000E+01 0.  1.
         -5    1    3    3    0  502 -0.21459719788E+01  0.50960939659E+02  0.81245188558E+02  0.96020183454E+02  0.41800000000E+01 0.  1.
        -11    1    1    2    0    0 -0.40707942826E+02 -0.29699468721E+00  0.58416418022E+02  0.71201844846E+02  0.00000000000E+00 0. -1.
         11    1    1    2    0    0  0.35981644222E+02  0.14924048855E+02  0.19067021583E+03  0.19460867699E+03  0.00000000000E+00 0.  1.
</event>
<event>
 7    1  0.2749315E-009  0.1200381E+03  0.7561462E-02  0.1243034E+00
         -1   -1    0    0    0  501 -0.00000000000E+00  0.00000000000E+00  0.18764373892E+03  0.18764373892E+03  0.00000000000E+00 0.  1.
          1   -1    0    0  501    0  0.00000000000E+00 -0.00000000000E+00 -0.88969850512E+02  0.88969850512E+02  0.00000000000E+00 0. -1.
         25    2    1    2    0    0  0.13942574170E+02  0.61733452495E+02  0.89378884551E+02  0.16625794438E+03  0.12509078518E+03 0.  0.
          5    1    3    3  502    0 -0.42894388113E+02  0.66324387465E+02  0.70757035511E+02  0.10612673263E+03  0.41800000000E+01 0. -1.
         -5    1    3    3    0  502  0.56836962283E+02 -0.45909349698E+01  0.18621849039E+02  0.60131211755E+02  0.41800000000E+01 0. -1.
        -11    1    1    2    0    0  0.34538619968E+02 -0.20533401092E+02  0.21501370679E+02  0.45572423359E+02  0.00000000000E+00 0.  1.
         11    1    1    2    0    0 -0.48481194138E+02 -0.41200051403E+02 -0.12206366826E+02  0.64783221684E+02  0.00000000000E+00 0. -1.
</event>
<event>
 7    1  0.2749315E-009  0.1653133E+03  0.7561462E-02  0.1182825E+00
          1   -1    0    0  501    0  0.00000000000E+00  0.00000000000E+00  0.98873808080E+03  0.98873808080E+03  0.00000000000E+00 0. -1.
         -1   -1    0    0    0  501 -0.00000000000E+00 -0.00000000000E+00 -0.43742323782E+02  0.43742323782E+02  0.00000000000E+00 0.  1.
         25    2    1    2    0    0 -0.99492887348E+02  0.10060286565E+03  0.22907638898E+03  0.29689191168E+03  0.12509613913E+03 0.  0.
          5    1    3    3  502    0 -0.11095944611E+02  0.65332523393E+02  0.17539528049E+03  0.18754315615E+03  0.41800000000E+01 0.  1.
         -5    1    3    3    0  502 -0.88396942737E+02  0.35270342258E+02  0.53681108490E+02  0.10934875554E+03  0.41800000000E+01 0.  1.
        -11    1    1    2    0    0  0.70676749762E+02 -0.11634178312E+03  0.57437893302E+03  0.59028956636E+03  0.00000000000E+00 0.  1.
         11    1    1    2    0    0  0.28816137586E+02  0.15738917468E+02  0.14154043502E+03  0.14529892655E+03  0.00000000000E+00 0. -1.
</event>
<event>
 7    1  0.2749315E-009  0.7561891E+02  0.7561462E-02  0.1341965E+00
         -1   -1    0    0    0  501 -0.00000000000E+00  0.00000000000E+00  0.58921896838E+02  0.58921896838E+02  0.00000000000E+00 0.  1.
          1   -1    0    0  501    0  0.00000000000E+00 -0.00000000000E+00 -0.19065170759E+03  0.19065170759E+03  0.00000000000E+00 0. -1.
         25    2    1    2    0    0  0.73361748418E+01 -0.37020951891E+01 -0.39509367590E+02  0.13143877532E+03  0.12509051347E+03 0.  0.
          5    1    3    3  502    0 -0.36708975005E+02 -0.25353295571E+02  0.24186326648E+02  0.50919438714E+02  0.41800000000E+01 0.  1.
         -5    1    3    3    0  502  0.44045149846E+02  0.21651200382E+02 -0.63695694238E+02  0.80519336606E+02  0.41800000000E+01 0.  1.
        -11    1    1    2    0    0 -0.29759590261E+02  0.13528830937E+02 -0.12936498457E+02  0.35157011695E+02  0.00000000000E+00 0.  1.
         11    1    1    2    0    0  0.22423415419E+02 -0.98267357483E+01 -0.79283944706E+02  0.82977817413E+02  0.00000000000E+00 0. -1.
</event>
<event>
 7    1  0.2749315E-009  0.1344562E+03  0.7561462E-02  0.1220989E+00
          1   -1    0    0  501    0  0.00000000000E+00  0.00000000000E+00  0.33384122178E+03  0.33384122178E+03  0.00000000000E+00 0. -1.
         -1   -1    0    0    0  501 -0.00000000000E+00 -0.00000000000E+00 -0.67102235164E+02  0.67102235164E+02  0.00000000000E+00 0.  1.
         25    2    1    2    0    0  0.65545783692E+02 -0.77486520879E+02  0.16550650611E+03  0.23096055987E+03  0.12509982403E+03 0.  0.
          5    1    3    3  502    0 -0.59326039883E-01 -0.87684075677E+02  0.60346862682E+02  0.10652566302E+03  0.41800000000E+01 0.  1.
         -5    1    3    3    0  502  0.65605109732E+02  0.10197554798E+02  0.10515964343E+03  0.12443489685E+03  0.41800000000E+01 0.  1.
        -11    1    1    2    0    0 -0.50827404246E+02  0.18948811777E+02  0.94877426787E+02  0.10928956311E+03  0.00000000000E+00 0. -1.
         11    1    1    2    0    0 -0.14718379447E+02  0.58537709102E+02  0.63550537159E+01  0.60693333968E+02  0.00000000000E+00 0.  1.
</event>
<event>
 7    1  0.2749315E-009  0.8198188E+02  0.7561462E-02  0.1323519E+00
          3   -1    0    0  501    0  0.00000000000E+00  0.00000000000E+00  0.16644762895E+03  0.16644762895E+03  0.00000000000E+00 0. -1.
         -3   -1    0    0    0  501 -0.00000000000E+00 -0.00000000000E+00 -0.73989180846E+02  0.73989180846E+02  0.00000000000E+00 0.  1.
         25    2    1    2    0    0 -0.21759778808E+02 -0.85329920975E+01  0.58191986306E+02  0.13992552493E+03  0.12508615163E+03 0.  0.
          5    1    3    3  502    0  0.35238977924E+02  0.10793319161E+02  0.69279850724E+02  0.78584040492E+02  0.41800000000E+01 0. -1.
         -5    1    3    3    0  502 -0.56998756732E+02 -0.19326311259E+02 -0.11087864418E+02  0.61341484440E+02  0.41800000000E+01 0. -1.
        -11    1    1    2    0    0  0.22920841786E+02  0.34023862197E+02 -0.16083535215E+02  0.44064365330E+02  0.00000000000E+00 0.  1.
         11    1    1    2    0    0 -0.11610629771E+01 -0.25490870099E+02  0.50349997009E+02  0.56446919530E+02  0.00000000000E+00 0. -1.
</event>
<event>
 7    1  0.2749315E-009  0.1865972E+03  0.7561462E-02  0.1161567E+00
          1   -1    0    0  501    0  0.00000000000E+00  0.00000000000E+00  0.82187427959E+02  0.82187427959E+02  0.00000000000E+00 0. -1.
         -1   -1    0    0    0  501 -0.00000000000E+00 -0.00000000000E+00 -0.43047883711E+03  0.43047883711E+03  0.00000000000E+00 0.  1.
         25    2    1    2    0    0 -0.46414865460E+02  0.14631315303E+03 -0.18227043016E+03  0.26913162872E+03  0.12508974931E+03 0.  0.
          5    1    3    3  502    0 -0.79274137376E+02  0.14330590597E+03 -0.16073212437E+03  0.22950655709E+03  0.41800000000E+01 0.  1.
         -5    1    3    3    0  502  0.32859271917E+02  0.30072470632E+01 -0.21538305789E+02  0.39625071635E+02  0.41800000000E+01 0.  1.
        -11    1    1    2    0    0  0.26602967887E+01 -0.12904240502E+03 -0.10437582839E+03  0.16599196675E+03  0.00000000000E+00 0. -1.
         11    1    1    2    0    0  0.43754568671E+02 -0.17270748015E+02 -0.61645150601E+02  0.77542669604E+02  0.00000000000E+00 0.  1.
</event>
<event>
 7    1  0.2749315E-009  0.1055617E+03  0.7561462E-02  0.1269017E+00
         -1   -1    0    0    0  501 -0.00000000000E+00  0.00000000000E+00  0.23823226704E+03  0.23823226704E+03  0.00000000000E+00 0.  1.
          1   -1    0    0  501    0  0.00000000000E+00 -0.00000000000E+00 -0.63462270739E+02  0.63462270739E+02  0.00000000000E+00 0. -1.
         25    2    1    2    0    0 -0.50857053303E+02 -0.99843643136E+01  0.67936165498E+02  0.15148798717E+03  0.12508860968E+03 0.  0.
          5    1    3    3  502    0  0.31942272695E+02  0.11505219128E+02  0.55145387458E+02  0.64893489735E+02  0.41800000000E+01 0.  1.
         -5    1    3    3    0  502 -0.82799325998E+02 -0.21489583441E+02  0.12790778040E+02  0.86594497430E+02  0.41800000000E+01 0.  1.
        -11    1    1    2    0    0  0.37109022701E+02 -0.30804053670E+02  0.93398492534E+02  0.10511540180E+03  0.00000000000E+00 0.  1.
         11    1    1    2    0    0  0.13748030602E+02  0.40788417983E+02  0.13435338272E+02  0.45091148815E+02  0.00000000000E+00 0. -1.
</event>
<event>
 7    1  0.2749315E-009  0.2197015E+03  0.7561462E-02  0.1134106E+00
          1   -1    0    0  501    0  0.00000000000E+00  0.00000000000E+00  0.66731813976E+03  0.66731813976E+03  0.00000000000E+00 0. -1.
         -1   -1    0    0    0  501 -0.00000000000E+00 -0.00000000000E+00 -0.81639946628E+02  0.81639946628E+02  0.00000000000E+00 0.  1.
         25    2    1    2    0    0  0.16211846156E+02 -0.20008653496E+03  0.37697759707E+03  0.44503112301E+03  0.12507256423E+03 0.  0.
          5    1    3    3  502    0  0.70707017400E+02 -0.10190428377E+03  0.19348295050E+03  0.22986319822E+03  0.41800000000E+01 0.  1.
         -5    1    3    3    0  502 -0.54495171245E+02 -0.98182251190E+02  0.18349464657E+03  0.21516792479E+03  0.41800000000E+01 0.  1.
        -11    1    1    2    0    0  0.85956372079E+01  0.67306145298E+02  0.17940183569E+02  0.70184416792E+02  0.00000000000E+00 0.  1.
         11    1    1    2    0    0 -0.24807483364E+02  0.13278038967E+03  0.19076041248E+03  0.23374254658E+03  0.00000000000E+00 0. -1.
</event>
<event>
 7    1  0.2749315E-009  0.9597899E+02  0.7561462E-02  0.1288986E+00
         -4   -1    0    0    0  501 -0.00000000000E+00  0.00000000000E+00  0.14060578404E+03  0.14060578404E+03  0.00000000000E+00 0.  1.
          4   -1    0    0  501    0  0.00000000000E+00 -0.00000000000E+00 -0.10069936594E+03  0.10069936594E+03  0.00000000000E+00 0. -1.
         25    2    1    2    0    0 -0.46850616691E+00 -0.42383036086E+02  0.12356906770E+01  0.13208134370E+03  0.12508962057E+03 0.  0.
          5    1    3    3  502    0 -0.59867544081E+02 -0.19401261944E+02 -0.17694224920E+02  0.65506410334E+02  0.41800000000E+01 0.  1.
         -5    1    3    3    0  502  0.59399037914E+02 -0.22981774142E+02  0.18929915597E+02  0.66574933363E+02  0.41800000000E+01 0.  1.
        -11    1    1    2    0    0  0.24907172531E+02  0.20607950772E+02 -0.22815578329E+02  0.39567732978E+02  0.00000000000E+00 0. -1.
         11    1    1    2    0    0 -0.24438666364E+02  0.21775085314E+02  0.61486305747E+02  0.69656073307E+02  0.00000000000E+00 0.  1.
</event>
<event>
 7    1  0.2749315E-009  0.1083100E+03  0.7561462E-02  0.1263732E+00
         -1   -1    0    0    0  501 -0.00000000000E+00  0.00000000000E+00  0.39667969330E+02  0.39667969330E+02  0.00000000000E+00 0.  1.
          1   -1    0    0  501    0  0.00000000000E+00 -0.00000000000E+00 -0.47818340481E+03  0.47818340481E+03  0.00000000000E+00 0. -1.
         25    2    1    2    0    0  0.67761372473E+02 -0.35363737472E+02 -0.17891373494E+03  0.23129688342E+03  0.12508367680E+03 0.  0.
          5    1    3    3  502    0  0.51441030577E+01  0.17393251491E+02  0.12933349654E+02  0.22665633169E+02  0.41800000000E+01 0. -1.
         -5    1    3    3    0  502  0.62617269415E+02 -0.52756988962E+02 -0.19184708459E+03  0.20863125025E+03  0.41800000000E+01 0. -1.
        -11    1    1    2    0    0 -0.79275624452E+01  0.53040998021E+02 -0.79035802271E+02  0.95513620798E+02  0.00000000000E+00 0.  1.
         11    1    1    2    0    0 -0.59833810028E+02 -0.17677260549E+02 -0.18056589827E+03  0.19104086992E+03  0.00000000000E+00 0. -1.
</event>
<event>
 7    1  0.2749315E-009  0.2186852E+03  0.7561462E-02  0.1134867E+00
          1   -1    0    0  501    0  0.00000000000E+00  0.00000000000E+00  0.17859676148E+04  0.17859676148E+04  0.00000000000E+00 0. -1.
         -1   -1    0    0    0  501 -0.00000000000E+00 -0.00000000000E+00 -0.41470491417E+02  0.41470491417E+02  0.00000000000E+00 0.  1.
         25    2    1    2    0    0  0.29567849011E+02  0.21033515231E+03  0.13412607733E+04  0.13637245064E+04  0.12509569663E+03 0.  0.
          5    1    3    3  502    0 -0.19287925277E+02  0.83089501770E+02  0.25461624638E+03  0.26855687421E+03  0.41800000000E+01 0. -1.
         -5    1    3    3    0  502  0.48855774288E+02  0.12724565054E+03  0.10866445269E+04  0.10951676322E+04  0.41800000000E+01 0. -1.
        -11    1    1    2    0    0 -0.37304096767E+02 -0.14151719539E+03  0.19201857312E+03  0.24143289886E+03  0.00000000000E+00 0.  1.
         11    1    1    2    0    0  0.77362477559E+01 -0.68817956921E+02  0.21121777698E+03  0.22228070100E+03  0.00000000000E+00 0. -1.
</event>
<event>
 7    1  0.3013530E-009  0.2329394E+03  0.7561462E-02  0.1124588E+00
          1   -1    0    0  501    0  0.00000000000E+00  0.00000000000E+00  0.11433179244E+04  0.11433179244E+04  0.00000000000E+00 0. -1.
         -1   -1    0    0    0  501 -0.00000000000E+00 -0.00000000000E+00 -0.57468457672E+02  0.57468457672E+02  0.00000000000E+00 0.  1.
         25    2    1    2    0    0  0.24704223660E+02 -0.22926736740E+03  0.50237627337E+03  0.56674792970E+03  0.12508985309E+03 0.  0.
          5    1    3    3  502    0  0.17008703986E+02 -0.57913319137E+02  0.27679114543E+03  0.28332677094E+03  0.41800000000E+01 0.  1.
         -5    1    3    3    0  502  0.76955196736E+01 -0.17135404827E+03  0.22558512794E+03  0.28342115875E+03  0.41800000000E+01 0.  1.
        -11    1    1    2    0    0 -0.23764761924E+02  0.60111264696E+02  0.27221236813E+03  0.27978152444E+03  0.00000000000E+00 0. -1.
         11    1    1    2    0    0 -0.93946173565E+00  0.16915610271E+03  0.31126082522E+03  0.35425692793E+03  0.00000000000E+00 0.  1.
</event>
<event>
 7    1  0.2749315E-009  0.1250347E+03  0.7561462E-02  0.1235015E+00
         -1   -1    0    0    0  501 -0.00000000000E+00  0.00000000000E+00  0.19976213761E+03  0.19976213761E+03  0.00000000000E+00 0.  1.
          1   -1    0    0  501    0  0.00000000000E+00 -0.00000000000E+00 -0.10611634370E+03  0.10611634370E+03  0.00000000000E+00 0. -1.
         25    2    1    2    0    0 -0.69469067159E+02 -0.19158650122E+01  0.11795028873E+03  0.18544750019E+03  0.12509549506E+03 0.  0.
          5    1    3    3  502    0 -0.72491507452E+02 -0.47676242188E+02  0.41665042514E+02  0.96340494547E+02  0.41800000000E+01 0. -1.
         -5    1    3    3    0  502  0.30224402935E+01  0.45760377176E+02  0.76285246218E+02  0.89107005646E+02  0.41800000000E+01 0. -1.
        -11    1    1    2    0    0  0.92983726026E+02  0.64472597478E+01 -0.13576712710E+02  0.94190591844E+02  0.00000000000E+00 0. -1.
         11    1    1    2    0    0 -0.23514658867E+02 -0.45313947356E+01 -0.10727782114E+02  0.26240389268E+02  0.00000000000E+00 0.  1.
</event>
<event>
 7    1  0.2749315E-009  0.7868071E+02  0.7561462E-02  0.1332838E+00
          1   -1    0    0  501    0  0.00000000000E+00  0.00000000000E+00  0.40488488641E+03  0.40488488641E+03  0.00000000000E+00 0. -1.
         -1   -1    0    0    0  501 -0.00000000000E+00 -0.00000000000E+00 -0.31236429643E+02  0.31236429643E+02  0.00000000000E+00 0.  1.
         25    2    1    2    0    0 -0.28514353824E+02  0.27871532874E+01  0.24099065814E+03  0.27302793464E+03  0.12508764601E+03 0.  0.
          5    1    3    3  502    0  0.36389805726E+02 -0.11478755665E+02  0.17544349697E+03  0.17959363247E+03  0.41800000000E+01 0. -1.
         -5    1    3    3    0  502 -0.64904159550E+02  0.14265908952E+02  0.65547161166E+02  0.93434302170E+02  0.41800000000E+01 0. -1.
        -11    1    1    2    0    0  0.26272152633E+02  0.17766436306E+02  0.13811510120E+03  0.14170975070E+03  0.00000000000E+00 0. -1.
         11    1    1    2    0    0  0.22422011911E+01 -0.20553589594E+02 -0.54573025718E+01  0.21383630719E+02  0.00000000000E+00 0.  1.
</event>
<event>
 7    1  0.2749315E-009  0.1649317E+03  0.7561462E-02  0.1183239E+00
         -1   -1    0    0    0  501 -0.00000000000E+00  0.00000000000E+00  0.10151736339E+03  0.10151736339E+03  0.00000000000E+00 0.  1.
          1   -1    0    0  501    0  0.00000000000E+00 -0.00000000000E+00 -0.31692310615E+03  0.31692310615E+03  0.00000000000E+00 0. -1.
         25    2    1    2    0    0  0.11456566875E+03  0.84383977944E+02 -0.12904951671E+03  0.22923053413E+03  0.12508761658E+03 0.  0.
          5    1    3    3  502    0  0.79021811989E+02  0.11535227299E+03 -0.80339757067E+02  0.16131504152E+03  0.41800000000E+01 0. -1.
         -5    1    3    3    0  502  0.35543856765E+02 -0.30968295047E+02 -0.48709759642E+02  0.67915492608E+02  0.41800000000E+01 0. -1.
        -11    1    1    2    0    0 -0.37586694045E+02 -0.33714689184E+02 -0.82802814594E+02  0.96983225048E+02  0.00000000000E+00 0. -1.
         11    1    1    2    0    0 -0.76978974709E+02 -0.50669288761E+02 -0.35534114600E+01  0.92226710360E+02  0.00000000000E+00 0.  1.
</event>
<event>
 7    1  0.2749315E-009  0.9047656E+02  0.7561462E-02  0.1301702E+00
         -2   -1    0    0    0  501 -0.00000000000E+00  0.00000000000E+00  0.10384779351E+04  0.10384779351E+04  0.00000000000E+00 0. -1.
          2   -1    0    0  501    0  0.00000000000E+00 -0.00000000000E+00 -0.13223817340E+02  0.13223817340E+02  0.00000000000E+00 0.  1.
         25    2    1    2    0    0 -0.25829062918E+01 -0.11897346388E+02  0.77868649702E+03  0.78876388184E+03  0.12509029694E+03 0.  0.
          5    1    3    3  502    0  0.34502899176E+02  0.39724213392E+02  0.50555133969E+03  0.50829921566E+03  0.41800000000E+01 0.  1.
         -5    1    3    3    0  502 -0.37085805468E+02 -0.51621559780E+02  0.27313515734E+03  0.28046466618E+03  0.41800000000E+01 0.  1.
        -11    1    1    2    0    0 -0.16202259977E+02 -0.21039128860E+02  0.20063871199E+02  0.33282384216E+02  0.00000000000E+00 0.  1.
         11    1    1    2    0    0  0.18785166269E+02  0.32936475248E+02  0.22650374958E+03  0.22965548643E+03  0.00000000000E+00 0. -1.
</event>
<event>
 7    1  0.2749315E-009  0.1799099E+03  0.7561462E-02  0.1167890E+00
          2   -1    0    0  501    0  0.00000000000E+00  0.00000000000E+00  0.20407286655E+03  0.20407286655E+03  0.00000000000E+00 0. -1.
         -2   -1    0    0    0  501 -0.00000000000E+00 -0.00000000000E+00 -0.16483198309E+03  0.16483198309E+03  0.00000000000E+00 0.  1.
         25    2    1    2    0    0 -0.10574258296E+03 -0.10216543689E+03  0.31018864816E+02  0.19552382784E+03  0.12509247352E+03 0.  0.
          5    1    3    3  502    0 -0.63636170714E+02  0.14141561581E+02 -0.78657485216E+01  0.65794288406E+02  0.41800000000E+01 0.  1.
         -5    1    3    3    0  502 -0.42106412249E+02 -0.11630699848E+03  0.38884613337E+02  0.12972953943E+03  0.41800000000E+01 0.  1.
        -11    1    1    2    0    0 -0.11338768923E+01  0.53133475910E+02  0.16099023565E+02  0.55530446593E+02  0.00000000000E+00 0. -1.
         11    1    1    2    0    0  0.10687645985E+03  0.49031960985E+02 -0.78770049176E+01  0.11785057520E+03  0.00000000000E+00 0.  1.
</event>
<event>
 7    1  0.2749315E-009  0.1260168E+03  0.7561462E-02  0.1233489E+00
          2   -1    0    0  501    0  0.00000000000E+00  0.00000000000E+00  0.84094731419E+03  0.84094731419E+03  0.00000000000E+00 0. -1.
         -2   -1    0    0    0  501 -0.00000000000E+00 -0.00000000000E+00 -0.27585127906E+02  0.27585127906E+02  0.00000000000E+00 0.  1.
         25    2    1    2    0    0  0.28655093178E+02 -0.84784309414E+02  0.60414408974E+03  0.62341565895E+03  0.12509000430E+03 0.  0.
          5    1    3    3  502    0  0.68923895138E+02 -0.40067693392E+02  0.46434718476E+03  0.47115995561E+03  0.41800000000E+01 0.  1.
         -5    1    3    3    0  502 -0.40268801960E+02 -0.44716616022E+02  0.13979690497E+03  0.15225570334E+03  0.41800000000E+01 0.  1.
        -11    1    1    2    0    0  0.19966393745E+02  0.44365827385E+02  0.35432663585E+02  0.60186852114E+02  0.00000000000E+00 0.  1.
         11    1    1    2    0    0 -0.48621486923E+02  0.40418482029E+02  0.17378543296E+03  0.18492993102E+03  0.00000000000E+00 0. -1.
</event>
<event>
 7    1  0.2749315E-009  0.1956342E+03  0.7561462E-02  0.1153476E+00
         -2   -1    0    0    0  501 -0.00000000000E+00  0.00000000000E+00  0.28438485991E+02  0.28438485991E+02  0.00000000000E+00 0.  1.
          2   -1    0    0  501    0  0.00000000000E+00 -0.00000000000E+00 -0.15358239847E+04  0.15358239847E+04  0.00000000000E+00 0. -1.
         25    2    1    2    0    0  0.17159804398E+02 -0.17323500067E+03 -0.99420900061E+03  0.10170556844E+04  0.12508358758E+03 0.  0.
          5    1    3    3  502    0  0.30120957049E+01  0.17938385463E+02 -0.16051529475E+03  0.16159669131E+03  0.41800000000E+01 0.  1.
         -5    1    3    3    0  502  0.14147708693E+02 -0.19117338613E+03 -0.83369370587E+03  0.85545899307E+03  0.41800000000E+01 0.  1.
        -11    1    1    2    0    0  0.99067516763E+01  0.12626123651E+03 -0.27240634881E+03  0.30040849263E+03  0.00000000000E+00 0.  1.
         11    1    1    2    0    0 -0.27066556074E+02  0.46973764157E+02 -0.24077014932E+03  0.24679829372E+03  0.00000000000E+00 0. -1.
</event>
<event>
 7    1  0.2749315E-009  0.1171791E+03  0.7561462E-02  0.1247825E+00
          1   -1    0    0  501    0  0.00000000000E+00  0.00000000000E+00  0.53343381449E+03  0.53343381449E+03  0.00000000000E+00 0. -1.
         -1   -1    0    0    0  501 -0.00000000000E+00 -0.00000000000E+00 -0.34966337508E+02  0.34966337508E+02  0.00000000000E+00 0.  1.
         25    2    1    2    0    0 -0.77944053977E+02 -0.30032656657E+02  0.26005718518E+03  0.30042321243E+03  0.12508849263E+03 0.  0.
          5    1    3    3  502    0 -0.94378799860E+02  0.18692174546E+02  0.19417444207E+03  0.21674395402E+03  0.41800000000E+01 0.  1.
         -5    1    3    3    0  502  0.16434745883E+02 -0.48724831204E+02  0.65882743105E+02  0.83679258404E+02  0.41800000000E+01 0.  1.
        -11    1    1    2    0    0  0.21408336183E+02 -0.19702047945E+01  0.65824745069E+00  0.21508878510E+02  0.00000000000E+00 0.  1.
         11    1    1    2    0    0  0.56535717794E+02  0.32002861452E+02  0.23775204436E+03  0.24646806106E+03  0.00000000000E+00 0. -1.
</event>
<event>
 7    1  0.2749315E-009  0.1120975E+03  0.7561462E-02  0.1256734E+00
         -2   -1    0    0    0  501 -0.00000000000E+00  0.00000000000E+00  0.31444562954E+02  0.31444562954E+02  0.00000000000E+00 0.  1.
          2   -1    0    0  501    0  0.00000000000E+00 -0.00000000000E+00 -0.54718624564E+03  0.54718624564E+03  0.00000000000E+00 0. -1.
         25    2    1    2    0    0 -0.42608839776E+02  0.25489876394E+02 -0.16410454136E+03  0.21223340593E+03  0.12508985200E+03 0.  0.
          5    1    3    3  502    0  0.27720709166E+02  0.44797956072E+02 -0.10760754297E+03  0.11988390338E+03  0.41800000000E+01 0.  1.
         -5    1    3    3    0  502 -0.70329548942E+02 -0.19308079678E+02 -0.56496998384E+02  0.92349502552E+02  0.41800000000E+01 0.  1.
        -11    1    1    2    0    0  0.68280673822E+02 -0.24706212319E+02 -0.20388415198E+03  0.21642872909E+03  0.00000000000E+00 0.  1.
         11    1    1    2    0    0 -0.25671834046E+02 -0.78366407541E+00 -0.14775298934E+03  0.14996867357E+03  0.00000000000E+00 0. -1.
</event>
<event>
 7    1  0.2749315E-009  0.1887383E+03  0.7561462E-02  0.1159604E+00
         -2   -1    0    0    0  501 -0.00000000000E+00  0.00000000000E+00  0.51922394822E+02  0.51922394822E+02  0.00000000000E+00 0.  1.
          2   -1    0    0  501    0  0.00000000000E+00 -0.00000000000E+00 -0.10239148105E+04  0.10239148105E+04  0.00000000000E+00 0. -1.
         25    2    1    2    0    0  0.13898371033E+03  0.12533725181E+03 -0.68548464094E+03  0.72150051603E+03  0.12509157940E+03 0.  0.
          5    1    3    3  502    0  0.77179239711E+02  0.57746374044E+02 -0.15087772580E+03  0.17908891451E+03  0.41800000000E+01 0.  1.
         -5    1    3    3    0  502  0.61804470618E+02  0.67590877766E+02 -0.53460691515E+03  0.54241160153E+03  0.41800000000E+01 0.  1.
        -11    1    1    2    0    0 -0.81782364600E+02 -0.92039711527E+02 -0.25017805290E+03  0.27883457786E+03  0.00000000000E+00 0.  1.
         11    1    1    2    0    0 -0.57201345728E+02 -0.33297540283E+02 -0.36329721837E+02  0.75502111433E+02  0.00000000000E+00 0. -1.
</event>
<event>
 7    1  0.2749315E-009  0.7736766E+02  0.7561462E-02  0.1336692E+00
         -1   -1    0    0    0  501 -0.00000000000E+00  0.00000000000E+00  0.89008814043E+02  0.89008814043E+02  0.00000000000E+00 0.  1.
          1   -1    0    0  501    0  0.00000000000E+00 -0.00000000000E+00 -0.13264050737E+03  0.13264050737E+03  0.00000000000E+00 0. -1.
         25    2    1    2    0    0  0.13922199879E+01  0.40795125951E+01 -0.31454079468E+02  0.12905167136E+03  0.12508554699E+03 0.  0.
          5    1    3    3  502    0 -0.25593382542E+02  0.47359455899E+02  0.18949224045E+02  0.57223114079E+02  0.41800000000E+01 0.  1.
         -5    1    3    3    0  502  0.26985602530E+02 -0.43279943303E+02 -0.50403303513E+02  0.71828557283E+02  0.41800000000E+01 0.  1.
        -11    1    1    2    0    0  0.23975906525E+02 -0.31391390432E+01 -0.45011152706E+02  0.51095030634E+02  0.00000000000E+00 0. -1.
         11    1    1    2    0    0 -0.25368126513E+02 -0.94037355196E+00  0.32833538848E+02  0.41502619416E+02  0.00000000000E+00 0.  1.
</event>
<event>
 7    1  0.2749315E-009  0.1215281E+03  0.7561462E-02  0.1240597E+00
          4   -1    0    0  501    0  0.00000000000E+00  0.00000000000E+00  0.60954870146E+03  0.60954870146E+03  0.00000000000E+00 0. -1.
         -4   -1    0    0    0  501 -0.00000000000E+00 -0.00000000000E+00 -0.31632220417E+02  0.31632220417E+02  0.00000000000E+00 0.  1.
         25    2    1    2    0    0  0.67016451098E+02  0.59848460360E+02  0.35824516616E+03  0.38994627831E+03  0.12508180507E+03 0.  0.
          5    1    3    3  502    0  0.59709679658E+02  0.96918832009E+02  0.29400481966E+03  0.31530114530E+03  0.41800000000E+01 0. -1.
         -5    1    3    3    0  502  0.73067714404E+01 -0.37070371649E+02  0.64240346502E+02  0.74645133008E+02  0.41800000000E+01 0. -1.
        -11    1    1    2    0    0 -0.35924027173E+02 -0.42041224101E+02  0.20532035022E+03  0.21263688877E+03  0.00000000000E+00 0. -1.
         11    1    1    2    0    0 -0.31092423926E+02 -0.17807236259E+02  0.14350964660E+02  0.38597754798E+02  0.00000000000E+00 0.  1.
</event>
<event>
 7    1  0.2749315E-009  0.9228685E+02  0.7561462E-02  0.1297406E+00
          2   -1    0    0  501    0  0.00000000000E+00  0.00000000000E+00  0.65368483988E+03  0.65368483988E+03  0.00000000000E+00 0. -1.
         -2   -1    0    0    0  501 -0.00000000000E+00 -0.00000000000E+00 -0.28698879095E+02  0.28698879095E+02  0.00000000000E+00 0.  1.
         25    2    1    2    0    0 -0.19199150318E+02 -0.49364687198E+02  0.17808586726E+03  0.22398065789E+03  0.12508908537E+03 0.  0.
          5    1    3    3  502    0 -0.19684798012E+01  0.22039590715E+02 -0.79849363982E+01  0.23892469125E+02  0.41800000000E+01 0.  1.
         -5    1    3    3    0  502 -0.17230670517E+02 -0.71404277913E+02  0.18607080366E+03  0.20008818877E+03  0.41800000000E+01 0.  1.
        -11    1    1    2    0    0 -0.14976268099E+01 -0.17973243739E+02  0.25968039645E+02  0.31616759157E+02  0.00000000000E+00 0.  1.
         11    1    1    2    0    0  0.20696777128E+02  0.67337930937E+02  0.42093205388E+03  0.42678630193E+03  0.00000000000E+00 0. -1.
</event>
<event>
 7    1  0.4391671E-009  0.1394100E+03  0.7561462E-02  0.1214125E+00
         -2   -1    0    0    0  501 -0.00000000000E+00  0.00000000000E+00  0.90949689573E+02  0.90949689573E+02  0.00000000000E+00 0.  1.
          2   -1    0    0  501    0  0.00000000000E+00 -0.00000000000E+00 -0.26214847208E+03  0.26214847208E+03  0.00000000000E+00 0. -1.
         25    2    1    2    0    0  0.84556100685E+02  0.70015123411E+02 -0.97460243657E+02  0.19286498527E+03  0.12508617741E+03 0.  0.
          5    1    3    3  502    0 -0.26213964617E+02  0.45577718710E+02 -0.35052386248E+02  0.63329634181E+02  0.41800000000E+01 0. -1.
         -5    1    3    3    0  502  0.11077006530E+03  0.24437404701E+02 -0.62407857409E+02  0.12953535109E+03  0.41800000000E+01 0. -1.
        -11    1    1    2    0    0 -0.39459834464E+02 -0.17005469009E+02  0.16714010498E+02  0.46104475477E+02  0.00000000000E+00 0.  1.
         11    1    1    2    0    0 -0.45096266221E+02 -0.53009654402E+02 -0.90452549345E+02  0.11412870090E+03  0.00000000000E+00 0. -1.
</event>
<event>
 7    1  0.2749315E-009  0.1003684E+03  0.7561462E-02  0.1279523E+00
         -2   -1    0    0    0  501 -0.00000000000E+00  0.00000000000E+00  0.86428690221E+02  0.86428690221E+02  0.00000000000E+00 0.  1.
          2   -1    0    0  501    0  0.00000000000E+00 -0.00000000000E+00 -0.19982435237E+03  0.19982435237E+03  0.00000000000E+00 0. -1.
         25    2    1    2    0    0  0.42439814780E+02  0.25658453423E+02 -0.70218558217E+01  0.13474506675E+03  0.12508969760E+03 0.  0.
          5    1    3    3  502    0  0.67026188772E+02  0.20536071584E+02 -0.49012844294E+02  0.85638610003E+02  0.41800000000E+01 0.  1.
         -5    1    3    3    0  502 -0.24586373992E+02  0.51223818387E+01  0.41990988472E+02  0.49106456751E+02  0.41800000000E+01 0.  1.
        -11    1    1    2    0    0 -0.67945532488E+02  0.12743484712E+01 -0.51472832331E+02  0.85250641155E+02  0.00000000000E+00 0. -1.
         11    1    1    2    0    0  0.25505717708E+02 -0.26932801894E+02 -0.54900973994E+02  0.66257334682E+02  0.00000000000E+00 0.  1.
</event>
<event>
 7    1  0.2749315E-009  0.1094698E+03  0.7561462E-02  0.1261555E+00
          1   -1    0    0  501    0  0.00000000000E+00  0.00000000000E+00  0.48536892027E+03  0.48536892027E+03  0.00000000000E+00 0. -1.
         -1   -1    0    0    0  501 -0.00000000000E+00 -0.00000000000E+00 -0.39961772495E+02  0.39961772495E+02  0.00000000000E+00 0.  1.
         25    2    1    2    0    0 -0.79830768584E+02  0.13124268968E+02  0.30164918717E+03  0.33642954113E+03  0.12508959180E+03 0.  0.
          5    1    3    3  502    0 -0.18885639465E+02  0.33287415857E+02  0.12902750595E+02  0.40603852100E+02  0.41800000000E+01 0. -1.
         -5    1    3    3    0  502 -0.60945129119E+02 -0.20163146888E+02  0.28874643658E+03  0.29582568903E+03  0.41800000000E+01 0. -1.
        -11    1    1    2    0    0  0.62279572374E+02 -0.46955665540E+02  0.65485669326E+02  0.10184278349E+03  0.00000000000E+00 0. -1.
         11    1    1    2    0    0  0.17551196211E+02  0.33831396572E+02  0.78272291276E+02  0.87058368145E+02  0.00000000000E+00 0.  1.
</event>
<event>
 7    1  0.2749315E-009  0.7242533E+02  0.7561462E-02  0.1352035E+00
          2   -1    0    0  501    0  0.00000000000E+00  0.00000000000E+00  0.85475497572E+03  0.85475497572E+03  0.00000000000E+00 0. -1.
         -2   -1    0    0    0  501 -0.00000000000E+00 -0.00000000000E+00 -0.15171337282E+02  0.15171337282E+02  0.00000000000E+00 0.  1.
         25    2    1    2    0    0 -0.31347730623E+01 -0.11372016534E+02  0.61567235022E+03  0.62836196140E+03  0.12508861717E+03 0.  0.
          5    1    3    3  502    0 -0.36199277614E+01  0.21502682200E+02  0.57701496592E+03  0.57744195597E+03  0.41800000000E+01 0.  1.
         -5    1    3    3    0  502  0.48515469913E+00 -0.32874698734E+02  0.38657384301E+02  0.50920005430E+02  0.41800000000E+01 0.  1.
        -11    1    1    2    0    0 -0.41237115311E+02  0.17339048340E+02  0.92793402912E+02  0.10301338700E+03  0.00000000000E+00 0.  1.
         11    1    1    2    0    0  0.44371888373E+02 -0.59670318067E+01  0.13111788530E+03  0.13855096460E+03  0.00000000000E+00 0. -1.
</event>
<event>
 7    1  0.2749315E-009  0.1076624E+03  0.7561462E-02  0.1264961E+00
         -2   -1    0    0    0  501 -0.00000000000E+00  0.00000000000E+00  0.71720178114E+02  0.71720178114E+02  0.00000000000E+00 0.  1.
          2   -1    0    0  501    0  0.00000000000E+00 -0.00000000000E+00 -0.22329764459E+03  0.22329764459E+03  0.00000000000E+00 0. -1.
         25    2    1    2    0    0 -0.21301411608E+02  0.31957078753E+02 -0.14090462023E+03  0.19229314383E+03  0.12509011209E+03 0.  0.
          5    1    3    3  502    0 -0.10550832500E+02 -0.45290081474E+02 -0.82395372435E+02  0.94704706034E+02  0.41800000000E+01 0. -1.
         -5    1    3    3    0  502 -0.10750579108E+02  0.77247160227E+02 -0.58509247797E+02  0.97588437799E+02  0.41800000000E+01 0. -1.
        -11    1    1    2    0    0 -0.30788077449E+02 -0.21093169088E+02  0.18916192793E+02  0.41840767739E+02  0.00000000000E+00 0.  1.
         11    1    1    2    0    0  0.52089489058E+02 -0.10863909665E+02 -0.29589039035E+02  0.60883911130E+02  0.00000000000E+00 0. -1.
</event>
<event>
 7    1  0.2749315E-009  0.1614570E+03  0.7561462E-02  0.1187062E+00
         -1   -1    0    0    0  501 -0.00000000000E+00  0.00000000000E+00  0.13417270099E+03  0.13417270099E+03  0.00000000000E+00 0.  1.
          1   -1    0    0  501    0  0.00000000000E+00 -0.00000000000E+00 -0.21309425252E+03  0.21309425252E+03  0.00000000000E+00 0. -1.
         25    2    1    2    0    0  0.59102357083E+02 -0.11427181220E+03 -0.43492308040E+02  0.18462794431E+03  0.12507902017E+03 0.  0.
          5    1    3    3  502    0  0.61320757607E+02  0.34453849809E+01 -0.17203821497E+02  0.63918306183E+02  0.41800000000E+01 0. -1.
         -5    1    3    3    0  502 -0.22184005246E+01 -0.11771719718E+03 -0.26288486543E+02  0.12070963813E+03  0.41800000000E+01 0. -1.
        -11    1    1    2    0    0 -0.60363305417E+02  0.47638951137E+02  0.15893609622E+02  0.78522640895E+02  0.00000000000E+00 0.  1.
         11    1    1    2    0    0  0.12609483342E+01  0.66632861062E+02 -0.51322853116E+02  0.84116368300E+02  0.00000000000E+00 0. -1.
</event>
<event>
 7    1  0.2749315E-009  0.1607716E+03  0.7561462E-02  0.1187828E+00
          2   -1    0    0  501    0  0.00000000000E+00  0.00000000000E+00  0.14720819410E+04  0.14720819410E+04  0.00000000000E+00 0. -1.
         -2   -1    0    0    0  501 -0.00000000000E+00 -0.00000000000E+00 -0.22113442854E+02  0.22113442854E+02  0.00000000000E+00 0.  1.
         25    2    1    2    0    0  0.14217887241E+03  0.14487359983E+02  0.87010178700E+03  0.89058888874E+03  0.12508690438E+03 0.  0.
          5    1    3    3  502    0  0.32628670734E+02  0.35874305070E+02  0.88108144623E+02  0.10065839988E+03  0.41800000000E+01 0.  1.
         -5    1    3    3    0  502  0.10955020168E+03 -0.21386945087E+02  0.78199364238E+03  0.78993048886E+03  0.41800000000E+01 0.  1.
        -11    1    1    2    0    0 -0.11931112589E+03  0.18805041672E+02  0.49636856387E+03  0.51085274351E+03  0.00000000000E+00 0.  1.
         11    1    1    2    0    0 -0.22867746523E+02 -0.33292401655E+02  0.83498147322E+02  0.92753751650E+02  0.00000000000E+00 0. -1.
</event>
<event>
 7    1  0.2749315E-009  0.9131147E+02  0.7561462E-02  0.1299707E+00
          2   -1    0    0  501    0  0.00000000000E+00  0.00000000000E+00  0.26602227703E+03  0.26602227703E+03  0.00000000000E+00 0. -1.
         -2   -1    0    0    0  501 -0.00000000000E+00 -0.00000000000E+00 -0.48393608073E+02  0.48393608073E+02  0.00000000000E+00 0.  1.
         25    2    1    2    0    0 -0.11878356540E+02 -0.99902260855E+00  0.16863186838E+03  0.21031083327E+03  0.12510733855E+03 0.  0.
          5    1    3    3  502    0  0.42708414852E+02  0.14454785599E+02  0.17013790327E+02  0.48372419695E+02  0.41800000000E+01 0. -1.
         -5    1    3    3    0  502 -0.54586771392E+02 -0.15453808208E+02  0.15161807805E+03  0.16193841357E+03  0.41800000000E+01 0. -1.
        -11    1    1    2    0    0  0.44586618550E+02  0.11602224885E+02  0.23183417907E+01  0.46129739698E+02  0.00000000000E+00 0.  1.
         11    1    1    2    0    0 -0.32708262010E+02 -0.10603202277E+02  0.46678458793E+02  0.57975312138E+02  0.00000000000E+00 0. -1.
</event>
<event>
 7    1  0.2749315E-009  0.1047389E+03  0.7561462E-02  0.1270635E+00
         -3   -1    0    0    0  501 -0.00000000000E+00  0.00000000000E+00  0.28475264166E+02  0.28475264166E+02  0.00000000000E+00 0.  1.
          3   -1    0    0  501    0  0.00000000000E+00 -0.00000000000E+00 -0.56288704920E+03  0.56288704920E+03  0.00000000000E+00 0. -1.
         25    2    1    2    0    0 -0.11925543193E+02 -0.87436880344E+01 -0.44600889463E+03  0.46345436122E+03  0.12508932880E+03 0.  0.
          5    1    3    3  502    0  0.44674426567E+02  0.27558109519E+02 -0.12838285645E+03  0.13876196892E+03  0.41800000000E+01 0.  1.
         -5    1    3    3    0  502 -0.56599969760E+02 -0.36301797554E+02 -0.31762603818E+03  0.32469239229E+03  0.41800000000E+01 0.  1.
        -11    1    1    2    0    0 -0.16412245325E+01 -0.39398621476E+02 -0.23273445364E+02  0.45788625785E+02  0.00000000000E+00 0.  1.
         11    1    1    2    0    0  0.13566767725E+02  0.48142309510E+02 -0.65129445041E+02  0.82119326366E+02  0.00000000000E+00 0. -1.
</event>
<event>
 7    1  0.2749315E-009  0.1164384E+03  0.7561462E-02  0.1249091E+00
         -1   -1    0    0    0  501 -0.00000000000E+00  0.00000000000E+00  0.14473336281E+03  0.14473336281E+03  0.00000000000E+00 0.  1.
          1   -1    0    0  501    0  0.00000000000E+00 -0.00000000000E+00 -0.10601741586E+03  0.10601741586E+03  0.00000000000E+00 0. -1.
         25    2    1    2    0    0  0.71063641288E+01  0.49097670435E+02 -0.10936792733E+02  0.13501182794E+03  0.12508996200E+03 0.  0.
          5    1    3    3  502    0 -0.56345589980E+02  0.36481476349E+02  0.73446254289E+01  0.67654560449E+02  0.41800000000E+01 0. -1.
         -5    1    3    3    0  502  0.63451954109E+02  0.12616194087E+02 -0.18281418162E+02  0.67357267489E+02  0.41800000000E+01 0. -1.
        -11    1    1    2    0    0 -0.10830255529E+02 -0.74417207018E+02  0.49711769092E+02  0.90146964017E+02  0.00000000000E+00 0.  1.
         11    1    1    2    0    0  0.37238913999E+01  0.25319536583E+02 -0.59029408557E-01  0.25591986722E+02  0.00000000000E+00 0. -1.
</event>
<event>
 7    1  0.2749315E-009  0.1348885E+03  0.7561462E-02  0.1220377E+00
          2   -1    0    0  501    0  0.00000000000E+00  0.00000000000E+00  0.57928363254E+02  0.57928363254E+02  0.00000000000E+00 0. -1.
         -2   -1    0    0    0  501 -0.00000000000E+00 -0.00000000000E+00 -0.32806664792E+03  0.32806664792E+03  0.00000000000E+00 0.  1.
         25    2    1    2    0    0  0.60988135570E+02 -0.55062303646E+02 -0.12732710135E+03  0.19650403729E+03  0.12510090315E+03 0.  0.
          5    1    3    3  502    0  0.42555274716E+02 -0.95380761009E+02 -0.97236008353E+02  0.14276118064E+03  0.41800000000E+01 0. -1.
         -5    1    3    3    0  502  0.18432860854E+02  0.40318457362E+02 -0.30091092998E+02  0.53742856653E+02  0.41800000000E+01 0. -1.
        -11    1    1    2    0    0 -0.46393654818E+02 -0.15307547803E+02 -0.81516425132E+02  0.95034834632E+02  0.00000000000E+00 0.  1.
         11    1    1    2    0    0 -0.14594480752E+02  0.70369851450E+02 -0.61294758181E+02  0.94456139250E+02  0.00000000000E+00 0. -1.
</event>
<event>
 7    1  0.2749315E-009  0.1071175E+03  0.7561462E-02  0.1266003E+00
         -3   -1    0    0    0  501 -0.00000000000E+00  0.00000000000E+00  0.12575837727E+03  0.12575837727E+03  0.00000000000E+00 0.  1.
          3   -1    0    0  501    0  0.00000000000E+00 -0.00000000000E+00 -0.29174450522E+03  0.29174450522E+03  0.00000000000E+00 0. -1.
         25    2    1    2    0    0 -0.51334442935E+02 -0.31156997393E+02 -0.24532188823E+03  0.28184333807E+03  0.12508738887E+03 0.  0.
          5    1    3    3  502    0 -0.21210960746E+02  0.36058710624E+02 -0.23696453563E+02  0.48261058620E+02  0.41800000000E+01 0. -1.
         -5    1    3    3    0  502 -0.30123482189E+02 -0.67215708018E+02 -0.22162543466E+03  0.23358227945E+03  0.41800000000E+01 0. -1.
        -11    1    1    2    0    0  0.65452028857E+02  0.13849161659E+01  0.21161192728E+02  0.68801759802E+02  0.00000000000E+00 0. -1.
         11    1    1    2    0    0 -0.14117585922E+02  0.29772081228E+02  0.58174567551E+02  0.66857784608E+02  0.00000000000E+00 0.  1.
</event>
<event>
 7    1  0.2749315E-009  0.1034174E+03  0.7561462E-02  0.1273269E+00
         -1   -1    0    0    0  501 -0.00000000000E+00  0.00000000000E+00  0.20142018156E+02  0.20142018156E+02  0.00000000000E+00 0.  1.
          1   -1    0    0  501    0  0.00000000000E+00 -0.00000000000E+00 -0.86130567098E+03  0.86130567098E+03  0.00000000000E+00 0. -1.
         25    2    1    2    0    0 -0.43649002697E+02 -0.41100163985E+01 -0.65241955001E+03  0.66574874623E+03  0.12509195098E+03 0.  0.
          5    1    3    3  502    0 -0.27343079623E+02  0.55265503039E+02 -0.20561119157E+03  0.21469828674E+03  0.41800000000E+01 0.  1.
         -5    1    3    3    0  502 -0.16305923074E+02 -0.59375519438E+02 -0.44680835844E+03  0.45105045949E+03  0.41800000000E+01 0.  1.
        -11    1    1    2    0    0  0.12165695520E+02 -0.32694685448E+02 -0.20150541047E+02  0.40286361322E+02  0.00000000000E+00 0.  1.
         11    1    1    2    0    0  0.31483307177E+02  0.36804701847E+02 -0.16859356177E+03  0.17541258159E+03  0.00000000000E+00 0. -1.
</event>
<event>
 7    1  0.2749315E-009  0.6376220E+02  0.7561462E-02  0.1382689E+00
         -1   -1    0    0    0  501 -0.00000000000E+00  0.00000000000E+00  0.41569926814E+03  0.41569926814E+03  0.00000000000E+00 0.  1.
          1   -1    0    0  501    0  0.00000000000E+00 -0.00000000000E+00 -0.41370644112E+02  0.41370644112E+02  0.00000000000E+00 0. -1.
         25    2    1    2    0    0 -0.14766721270E+02  0.33076568499E+02  0.92155098000E+02  0.15954346303E+03  0.12509771807E+03 0.  0.
          5    1    3    3  502    0 -0.12226377634E+02  0.37433132704E+02 -0.21932198798E+02  0.45268283358E+02  0.41800000000E+01 0.  1.
         -5    1    3    3    0  502 -0.25403436354E+01 -0.43565642057E+01  0.11408729680E+03  0.11427517967E+03  0.41800000000E+01 0.  1.
        -11    1    1    2    0    0 -0.26371663971E+02 -0.30260161424E+02  0.21493699786E+03  0.21865281860E+03  0.00000000000E+00 0.  1.
         11    1    1    2    0    0  0.41138385241E+02 -0.28164070742E+01  0.67236528169E+02  0.78873630633E+02  0.00000000000E+00 0. -1.
</event>
<event>
 7    1  0.2749315E-009  0.1421626E+03  0.7561462E-02  0.1210448E+00
          1   -1    0    0  501    0  0.00000000000E+00  0.00000000000E+00  0.24521363420E+03  0.24521363420E+03  0.00000000000E+00 0.  1.
         -1   -1    0    0    0  501 -0.00000000000E+00 -0.00000000000E+00 -0.12139235833E+03  0.12139235833E+03  0.00000000000E+00 0. -1.
         25    2    1    2    0    0 -0.12508966038E+03 -0.18872361352E+02  0.18952551167E+02  0.17891360150E+03  0.12508912204E+03 0.  0.
          5    1    3    3  502    0 -0.90832333604E+02  0.66934915320E+01  0.67984637994E+02  0.11373081843E+03  0.41800000000E+01 0.  1.
         -5    1    3    3    0  502 -0.34257326771E+02 -0.25565852884E+02 -0.49032086827E+02  0.65182783078E+02  0.41800000000E+01 0.  1.
        -11    1    1    2    0    0  0.10932582252E+03 -0.17353272436E+02  0.97485502940E+02  0.14750150785E+03  0.00000000000E+00 0.  1.
         11    1    1    2    0    0  0.15763837851E+02  0.36225633788E+02  0.73832217580E+01  0.40190883178E+02  0.00000000000E+00 0. -1.
</event>
<event>
 7    1  0.2749315E-009  0.6904668E+02  0.7561462E-02  0.1363365E+00
         -2   -1    0    0    0  501 -0.00000000000E+00  0.00000000000E+00  0.26419190294E+02  0.26419190294E+02  0.00000000000E+00 0.  1.
          2   -1    0    0  501    0  0.00000000000E+00 -0.00000000000E+00 -0.43779668170E+03  0.43779668170E+03  0.00000000000E+00 0. -1.
         25    2    1    2    0    0 -0.68150268572E+01  0.21054727752E+02 -0.26060345803E+03  0.28991744962E+03  0.12509284194E+03 0.  0.
          5    1    3    3  502    0 -0.38733983268E+02  0.34105701827E+01 -0.24805992900E+03  0.25112378267E+03  0.41800000000E+01 0. -1.
         -5    1    3    3    0  502  0.31918956411E+02  0.17644157569E+02 -0.12543529034E+02  0.38793666948E+02  0.41800000000E+01 0. -1.
        -11    1    1    2    0    0  0.66646173124E+01 -0.41398418372E+02 -0.14792795831E+03  0.15375606335E+03  0.00000000000E+00 0. -1.
         11    1    1    2    0    0  0.15040954478E+00  0.20343690620E+02 -0.28460750673E+01  0.20542359026E+02  0.00000000000E+00 0.  1.
</event>
<event>
 7    1  0.2749315E-009  0.1148702E+03  0.7561462E-02  0.1251808E+00
         -2   -1    0    0    0  501 -0.00000000000E+00  0.00000000000E+00  0.28043812059E+02  0.28043812059E+02  0.00000000000E+00 0.  1.
          2   -1    0    0  501    0  0.00000000000E+00 -0.00000000000E+00 -0.73318521522E+03  0.73318521522E+03  0.00000000000E+00 0. -1.
         25    2    1    2    0    0  0.91194482016E+02  0.12940515074E+02 -0.42249264067E+03  0.45014600817E+03  0.12508999470E+03 0.  0.
          5    1    3    3  502    0  0.12356468355E+02  0.37953491050E+02 -0.29757778770E+03  0.30027181341E+03  0.41800000000E+01 0. -1.
         -5    1    3    3    0  502  0.78838013661E+02 -0.25012975976E+02 -0.12491485297E+03  0.14987419477E+03  0.41800000000E+01 0. -1.
        -11    1    1    2    0    0 -0.19658527486E+02 -0.27485218368E+02 -0.21803441558E+02  0.40215482036E+02  0.00000000000E+00 0.  1.
         11    1    1    2    0    0 -0.71535954531E+02  0.14544703294E+02 -0.26084532093E+03  0.27086753707E+03  0.00000000000E+00 0. -1.
</event>
<event>
 7    1  0.2749315E-009  0.1208478E+03  0.7561462E-02  0.1241705E+00
         -2   -1    0    0    0  501 -0.00000000000E+00  0.00000000000E+00  0.75678246877E+02  0.75678246877E+02  0.00000000000E+00 0.  1.
          2   -1    0    0  501    0  0.00000000000E+00 -0.00000000000E+00 -0.28202924548E+03  0.28202924548E+03  0.00000000000E+00 0. -1.
         25    2    1    2    0    0  0.95138223155E+02 -0.20801632710E+02 -0.12603568998E+03  0.20252224963E+03  0.12508507911E+03 0.  0.
          5    1    3    3  502    0  0.48886609770E+02  0.26650485064E+02 -0.12411801473E+03  0.13609887196E+03  0.41800000000E+01 0.  1.
         -5    1    3    3    0  502  0.46251613385E+02 -0.47452117774E+02 -0.19176752475E+01  0.66423377664E+02  0.41800000000E+01 0.  1.
        -11    1    1    2    0    0 -0.14189547895E+02  0.34555597966E+02 -0.59871940490E+02  0.70569695183E+02  0.00000000000E+00 0. -1.
         11    1    1    2    0    0 -0.80948675260E+02 -0.13753965256E+02 -0.20443368141E+02  0.84615547553E+02  0.00000000000E+00 0.  1.
</event>
<event>
 7    1  0.2749315E-009  0.1147885E+03  0.7561462E-02  0.1251951E+00
         -2   -1    0    0    0  501 -0.00000000000E+00  0.00000000000E+00  0.11815119286E+03  0.11815119286E+03  0.00000000000E+00 0.  1.
          2   -1    0    0  501    0  0.00000000000E+00 -0.00000000000E+00 -0.14571497914E+03  0.14571497914E+03  0.00000000000E+00 0. -1.
         25    2    1    2    0    0 -0.39516413499E+02  0.56024093509E+02  0.12552335227E+02  0.14319721850E+03  0.12509051234E+03 0.  0.
          5    1    3    3  502    0  0.31818118169E+02  0.19629989299E+02  0.43258687732E+02  0.57328139583E+02  0.41800000000E+01 0.  1.
         -5    1    3    3    0  502 -0.71334531669E+02  0.36394104210E+02 -0.30706352505E+02  0.85869078916E+02  0.41800000000E+01 0.  1.
        -11    1    1    2    0    0  0.48113432832E+02  0.65921952283E+01 -0.62489278025E+01  0.48963338892E+02  0.00000000000E+00 0. -1.
         11    1    1    2    0    0 -0.85970193328E+01 -0.62616288737E+02 -0.33867193705E+02  0.71705614606E+02  0.00000000000E+00 0.  1.
</event>
<event>
 7    1  0.2749315E-009  0.7226282E+02  0.7561462E-02  0.1352563E+00
         -1   -1    0    0    0  501 -0.00000000000E+00  0.00000000000E+00  0.26648666234E+03  0.26648666234E+03  0.00000000000E+00 0.  1.
          1   -1    0    0  501    0  0.00000000000E+00 -0.00000000000E+00 -0.48503421613E+02  0.48503421613E+02  0.00000000000E+00 0. -1.
         25    2    1    2    0    0  0.68087741202E+01 -0.28745970612E+02  0.14162672568E+03  0.19125169788E+03  0.12508553987E+03 0.  0.
          5    1    3    3  502    0  0.16029869458E+02  0.22433669856E+01  0.15508384700E+03  0.15598224710E+03  0.41800000000E+01 0.  1.
         -5    1    3    3    0  502 -0.92210953374E+01 -0.30989337598E+02 -0.13457121320E+02  0.35269450778E+02  0.41800000000E+01 0.  1.
        -11    1    1    2    0    0  0.41974354533E+02  0.13862562380E+02  0.48506673904E+02  0.65627086538E+02  0.00000000000E+00 0.  1.
         11    1    1    2    0    0 -0.48783128654E+02  0.14883408232E+02  0.27849841142E+02  0.58111299534E+02  0.00000000000E+00 0. -1.
</event>
<event>
 7    1  0.2749315E-009  0.1255722E+03  0.7561462E-02  0.1234178E+00
          1   -1    0    0  501    0  0.00000000000E+00  0.00000000000E+00  0.37455940467E+03  0.37455940467E+03  0.00000000000E+00 0. -1.
         -1   -1    0    0    0  501 -0.00000000000E+00 -0.00000000000E+00 -0.56596599496E+02  0.56596599496E+02  0.00000000000E+00 0.  1.
         25    2    1    2    0    0 -0.31758272999E+00  0.91797709552E+02  0.12860219578E+03  0.20152777040E+03  0.12509195476E+03 0.  0.
          5    1    3    3  502    0 -0.27418697968E+01 -0.28962430319E+02  0.72753606915E+01  0.30277772262E+02  0.41800000000E+01 0. -1.
         -5    1    3    3    0  502  0.24242870668E+01  0.12076013987E+03  0.12132683509E+03  0.17124999814E+03  0.41800000000E+01 0. -1.
        -11    1    1    2    0    0  0.10425346383E+02 -0.90034957573E+02  0.19699078597E+03  0.21684176533E+03  0.00000000000E+00 0. -1.
         11    1    1    2    0    0 -0.10107763653E+02 -0.17627519793E+01 -0.76301765772E+01  0.12786468441E+02  0.00000000000E+00 0.  1.
</event>
<event>
 7    1  0.2749315E-009  0.1129168E+03  0.7561462E-02  0.1255262E+00
         -1   -1    0    0    0  501 -0.00000000000E+00  0.00000000000E+00  0.11960414705E+03  0.11960414705E+03  0.00000000000E+00 0.  1.
          1   -1    0    0  501    0  0.00000000000E+00 -0.00000000000E+00 -0.13476899582E+03  0.13476899582E+03  0.00000000000E+00 0. -1.
         25    2    1    2    0    0 -0.52005061878E+02 -0.29032798872E+02  0.18674857738E+02  0.13979904283E+03  0.12509033613E+03 0.  0.
          5    1    3    3  502    0 -0.21577093593E+02  0.47782888320E+02 -0.72757711542E+01  0.53095994481E+02  0.41800000000E+01 0.  1.
         -5    1    3    3    0  502 -0.30427968285E+02 -0.76815687192E+02  0.25950628892E+02  0.86703048346E+02  0.41800000000E+01 0.  1.
        -11    1    1    2    0    0 -0.10552792434E+02 -0.11780530240E+02 -0.36555908102E+02  0.39830600523E+02  0.00000000000E+00 0. -1.
         11    1    1    2    0    0  0.62557854311E+02  0.40813329112E+02  0.27162015847E+01  0.74743499519E+02  0.00000000000E+00 0.  1.
</event>
<event>
 7    1  0.3330446E-009  0.1308133E+03  0.7561462E-02  0.1226254E+00
          2   -1    0    0  501    0  0.00000000000E+00  0.00000000000E+00  0.17835687860E+03  0.17835687860E+03  0.00000000000E+00 0. -1.
         -2   -1    0    0    0  501 -0.00000000000E+00 -0.00000000000E+00 -0.12003566816E+03  0.12003566816E+03  0.00000000000E+00 0.  1.
         25    2    1    2    0    0 -0.22441456967E+02 -0.91164690992E+02  0.61661543308E+02  0.16811845950E+03  0.12508817141E+03 0.  0.
          5    1    3    3  502    0 -0.60218232286E+02 -0.99872941117E+02  0.53034281990E+02  0.12818325684E+03  0.41800000000E+01 0.  1.
         -5    1    3    3    0  502  0.37776775319E+02  0.87082501247E+01  0.86272613181E+01  0.39935202661E+02  0.41800000000E+01 0.  1.
        -11    1    1    2    0    0  0.13470719227E+02 -0.83903753815E+00  0.29285088789E+02  0.32245630493E+02  0.00000000000E+00 0. -1.
         11    1    1    2    0    0  0.89707377402E+01  0.92003728531E+02 -0.32625421656E+02  0.98028456773E+02  0.00000000000E+00 0.  1.
</event>
<event>
 7    1  0.2749315E-009  0.7463690E+02  0.7561462E-02  0.1344999E+00
          3   -1    0    0  501    0  0.00000000000E+00  0.00000000000E+00  0.29184348102E+03  0.29184348102E+03  0.00000000000E+00 0. -1.
         -3   -1    0    0    0  501 -0.00000000000E+00 -0.00000000000E+00 -0.50653314515E+02  0.50653314515E+02  0.00000000000E+00 0.  1.
         25    2    1    2    0    0  0.12200576208E+02  0.53921191897E+02  0.14064290553E+03  0.19617612799E+03  0.12509315457E+03 0.  0.
          5    1    3    3  502    0  0.24936584275E+02 -0.35835497536E+00  0.13789937015E+03  0.14019868167E+03  0.41800000000E+01 0.  1.
         -5    1    3    3    0  502 -0.12736008067E+02  0.54279546872E+02  0.27435353854E+01  0.55977446320E+02  0.41800000000E+01 0.  1.
        -11    1    1    2    0    0  0.11475862063E+02 -0.29107642672E+01 -0.14227249646E+02  0.18508986769E+02  0.00000000000E+00 0.  1.
         11    1    1    2    0    0 -0.23676438271E+02 -0.51010427630E+02  0.11477451061E+03  0.12781168077E+03  0.00000000000E+00 0. -1.
</event>
<event>
 7    1  0.2749315E-009  0.9178628E+02  0.7561462E-02  0.1298583E+00
         -1   -1    0    0    0  501 -0.00000000000E+00  0.00000000000E+00  0.60530459874E+02  0.60530459874E+02  0.00000000000E+00 0.  1.
          1   -1    0    0  501    0  0.00000000000E+00 -0.00000000000E+00 -0.25580349545E+03  0.25580349545E+03  0.00000000000E+00 0. -1.
         25    2    1    2    0    0 -0.11304671873E+02 -0.38068701671E+01 -0.30158203667E+02  0.12922358564E+03  0.12508768913E+03 0.  0.
          5    1    3    3  502    0  0.36667121147E+02 -0.33471830090E+02 -0.48733025161E+02  0.69693768188E+02  0.41800000000E+01 0. -1.
         -5    1    3    3    0  502 -0.47971793020E+02  0.29664959923E+02  0.18574821494E+02  0.59529817456E+02  0.41800000000E+01 0. -1.
        -11    1    1    2    0    0 -0.25752327838E+02  0.23817050956E+02 -0.31958950753E+02  0.47453227904E+02  0.00000000000E+00 0.  1.
         11    1    1    2    0    0  0.37056999711E+02 -0.20010180789E+02 -0.13315588116E+03  0.13965714178E+03  0.00000000000E+00 0. -1.
</event>
<event>
 7    1  0.2749315E-009  0.1073604E+03  0.7561462E-02  0.1265537E+00
          2   -1    0    0  501    0  0.00000000000E+00  0.00000000000E+00  0.18203837829E+03  0.18203837829E+03  0.00000000000E+00 0. -1.
         -2   -1    0    0    0  501 -0.00000000000E+00 -0.00000000000E+00 -0.11615342247E+03  0.11615342247E+03  0.00000000000E+00 0.  1.
         25    2    1    2    0    0 -0.22003108220E+02 -0.89127858323E+02  0.27540741545E+01  0.15518503490E+03  0.12508756226E+03 0.  0.
          5    1    3    3  502    0 -0.22735347991E+02 -0.83511827703E+02  0.54891099752E+02  0.10257498061E+03  0.41800000000E+01 0. -1.
         -5    1    3    3    0  502  0.73223977140E+00 -0.56160306199E+01 -0.52137025597E+02  0.52610054297E+02  0.41800000000E+01 0. -1.
        -11    1    1    2    0    0  0.25397085899E+01 -0.14941545876E+02 -0.62832300224E+01  0.16406672191E+02  0.00000000000E+00 0.  1.
         11    1    1    2    0    0  0.19463399630E+02  0.10406940420E+03  0.69414111684E+02  0.12660009367E+03  0.00000000000E+00 0. -1.
</event>
<event>
 7    1  0.2749315E-009  0.1678271E+03  0.7561462E-02  0.1180133E+00
          4   -1    0    0  501    0  0.00000000000E+00  0.00000000000E+00  0.46086008407E+03  0.46086008407E+03  0.00000000000E+00 0. -1.
         -4   -1    0    0    0  501 -0.00000000000E+00 -0.00000000000E+00 -0.72986455412E+02  0.72986455412E+02  0.00000000000E+00 0.  1.
         25    2    1    2    0    0 -0.95183847176E+02 -0.11194544170E+03  0.22334150184E+03  0.29516179255E+03  0.12508921080E+03 0.  0.
          5    1    3    3  502    0 -0.11034311195E+03 -0.44141908490E+02  0.10907656936E+03  0.16136691366E+03  0.41800000000E+01 0. -1.
         -5    1    3    3    0  502  0.15159264773E+02 -0.67803533210E+02  0.11426493248E+03  0.13379487889E+03  0.41800000000E+01 0. -1.
        -11    1    1    2    0    0  0.89901739652E+02  0.10274820628E+03  0.17620869055E+03  0.22291033917E+03  0.00000000000E+00 0. -1.
         11    1    1    2    0    0  0.52821075243E+01  0.91972354210E+01 -0.11676563734E+02  0.15774407752E+02  0.00000000000E+00 0.  1.
</event>
<event>
 7    1  0.2749315E-009  0.1120250E+03  0.7561462E-02  0.1256865E+00
         -1   -1    0    0    0  501 -0.00000000000E+00  0.00000000000E+00  0.27009578203E+03  0.27009578203E+03  0.00000000000E+00 0.  1.
          1   -1    0    0  501    0  0.00000000000E+00 -0.00000000000E+00 -0.58960484336E+02  0.58960484336E+02  0.00000000000E+00 0. -1.
         25    2    1    2    0    0  0.57654105485E+02  0.28236569630E+02  0.10568643201E+03  0.17589421895E+03  0.12509138502E+03 0.  0.
          5    1    3    3  502    0  0.49594662645E+02  0.75054327885E+02  0.85258929193E+02  0.12401346743E+03  0.41800000000E+01 0. -1.
         -5    1    3    3    0  502  0.80594428396E+01 -0.46817758255E+02  0.20427502813E+02  0.51880751518E+02  0.41800000000E+01 0. -1.
        -11    1    1    2    0    0 -0.22758684828E+02  0.17546703137E+02  0.88655700873E+02  0.93196983982E+02  0.00000000000E+00 0.  1.
         11    1    1    2    0    0 -0.34895420657E+02 -0.45783272767E+02  0.16793164813E+02  0.59965063433E+02  0.00000000000E+00 0. -1.
</event>
<event>
 7    1  0.5978255E-009  0.1611930E+03  0.7561462E-02  0.1187356E+00
         -2   -1    0    0    0  501 -0.00000000000E+00  0.00000000000E+00  0.40330126871E+02  0.40330126871E+02  0.00000000000E+00 0.  1.
          2   -1    0    0  501    0  0.00000000000E+00 -0.00000000000E+00 -0.68053024578E+03  0.68053024578E+03  0.00000000000E+00 0. -1.
         25    2    1    2    0    0  0.33638499396E+02  0.11966670819E+03 -0.35527737314E+03  0.39663687966E+03  0.12508849968E+03 0.  0.
          5    1    3    3  502    0 -0.50872050578E+01 -0.25090625317E+02 -0.63759548234E+02  0.68834377495E+02  0.41800000000E+01 0.  1.
         -5    1    3    3    0  502  0.38725704454E+02  0.14475733351E+03 -0.29151782490E+03  0.32780250217E+03  0.41800000000E+01 0.  1.
        -11    1    1    2    0    0 -0.54613347699E+02 -0.50936595192E+02 -0.19694225627E+03  0.21062622530E+03  0.00000000000E+00 0. -1.
         11    1    1    2    0    0  0.20974848303E+02 -0.68730113001E+02 -0.87980489495E+02  0.11359726769E+03  0.00000000000E+00 0.  1.
</event>
<event>
 7    1  0.2749315E-009  0.1820540E+03  0.7561462E-02  0.1165830E+00
          1   -1    0    0  501    0  0.00000000000E+00  0.00000000000E+00  0.63519246939E+03  0.63519246939E+03  0.00000000000E+00 0. -1.
         -1   -1    0    0    0  501 -0.00000000000E+00 -0.00000000000E+00 -0.57737431536E+02  0.57737431536E+02  0.00000000000E+00 0.  1.
         25    2    1    2    0    0 -0.14160958413E+03 -0.66218151487E+02  0.32501757961E+03  0.38173456355E+03  0.12508689799E+03 0.  0.
          5    1    3    3  502    0 -0.38819484862E+02  0.30733070236E+02  0.40759475068E+02  0.64267263975E+02  0.41800000000E+01 0.  1.
         -5    1    3    3    0  502 -0.10279009927E+03 -0.96951221722E+02  0.28425810454E+03  0.31746729957E+03  0.41800000000E+01 0.  1.
        -11    1    1    2    0    0  0.11648929901E+03  0.82836461766E+02  0.16286700003E+03  0.21669632180E+03  0.00000000000E+00 0.  1.
         11    1    1    2    0    0  0.25120285123E+02 -0.16618310280E+02  0.89570458218E+02  0.94499015585E+02  0.00000000000E+00 0. -1.
</event>
<event>
 7    1  0.2749315E-009  0.1161712E+03  0.7561462E-02  0.1249550E+00
         -1   -1    0    0    0  501 -0.00000000000E+00  0.00000000000E+00  0.20825652713E+02  0.20825652713E+02  0.00000000000E+00 0.  1.
          1   -1    0    0  501    0  0.00000000000E+00 -0.00000000000E+00 -0.76060780430E+03  0.76060780430E+03  0.00000000000E+00 0. -1.
         25    2    1    2    0    0  0.48265690384E+01  0.54473022799E+02 -0.51147036456E+03  0.52937677680E+03  0.12508889646E+03 0.  0.
          5    1    3    3  502    0  0.62284965135E+02  0.13851420981E+02 -0.28969274485E+03  0.29666586855E+03  0.41800000000E+01 0.  1.
         -5    1    3    3    0  502 -0.57458396096E+02  0.40621601819E+02 -0.22177761971E+03  0.23271090825E+03  0.41800000000E+01 0.  1.
        -11    1    1    2    0    0 -0.35088801548E+02  0.57063280005E+00 -0.13561560666E+03  0.14008262700E+03  0.00000000000E+00 0. -1.
         11    1    1    2    0    0  0.30262232510E+02 -0.55043655599E+02 -0.92696180364E+02  0.11197405321E+03  0.00000000000E+00 0.  1.
</event>
<event>
 7    1  0.2749315E-009  0.1306675E+03  0.7561462E-02  0.1226469E+00
          1   -1    0    0  501    0  0.00000000000E+00  0.00000000000E+00  0.68720745177E+02  0.68720745177E+02  0.00000000000E+00 0. -1.
         -1   -1    0    0    0  501 -0.00000000000E+00 -0.00000000000E+00 -0.28882779481E+03  0.28882779481E+03  0.00000000000E+00 0.  1.
         25    2    1    2    0    0  0.84609232434E+02  0.89625923988E+01 -0.90816009976E+02  0.17644457078E+03  0.12508432602E+03 0.  0.
          5    1    3    3  502    0 -0.16862450307E+02  0.41171656243E+02 -0.28885576399E+02  0.53209927946E+02  0.41800000000E+01 0.  1.
         -5    1    3    3    0  502  0.10147168274E+03 -0.32209063844E+02 -0.61930433577E+02  0.12323464284E+03  0.41800000000E+01 0.  1.
        -11    1    1    2    0    0 -0.59664152011E+02  0.27684238983E+02 -0.11841839968E+03  0.13545901781E+03  0.00000000000E+00 0.  1.
         11    1    1    2    0    0 -0.24945080424E+02 -0.36646831382E+02 -0.10872639976E+02  0.45644951393E+02  0.00000000000E+00 0. -1.
</event>
<event>
 7    1  0.2749315E-009  0.1075287E+03  0.7561462E-02  0.1265216E+00
          1   -1    0    0  501    0  0.00000000000E+00  0.00000000000E+00  0.58915385795E+02  0.58915385795E+02  0.00000000000E+00 0. -1.
         -1   -1    0    0    0  501 -0.00000000000E+00 -0.00000000000E+00 -0.23719259653E+03  0.23719259653E+03  0.00000000000E+00 0.  1.
         25    2    1    2    0    0  0.21740325053E+02 -0.29071553262E+02 -0.13482927104E+03  0.18746765058E+03  0.12508953091E+03 0.  0.
          5    1    3    3  502    0 -0.27238724817E+02 -0.53910049512E+02 -0.11304946913E+03  0.12824155503E+03  0.41800000000E+01 0.  1.
         -5    1    3    3    0  502  0.48979049869E+02  0.24838496250E+02 -0.21779801912E+02  0.59226095544E+02  0.41800000000E+01 0.  1.
        -11    1    1    2    0    0  0.31423773844E+01 -0.32695185601E+02 -0.17060427298E+02  0.37012266571E+02  0.00000000000E+00 0.  1.
         11    1    1    2    0    0 -0.24882702437E+02  0.61766738863E+02 -0.26387512400E+02  0.71628065177E+02  0.00000000000E+00 0. -1.
</event>
<event>
 7    1  0.2749315E-009  0.9752843E+02  0.7561462E-02  0.1285581E+00
          1   -1    0    0  501    0  0.00000000000E+00  0.00000000000E+00  0.42365399661E+03  0.42365399661E+03  0.00000000000E+00 0. -1.
         -1   -1    0    0    0  501 -0.00000000000E+00 -0.00000000000E+00 -0.33061077123E+02  0.33061077123E+02  0.00000000000E+00 0.  1.
         25    2    1    2    0    0  0.27114017317E+02  0.43905385470E+02  0.21412881865E+03  0.25329912516E+03  0.12508574268E+03 0.  0.
          5    1    3    3  502    0  0.64349414566E+02  0.63528777640E+02  0.16712939385E+03  0.19006961733E+03  0.41800000000E+01 0.  1.
         -5    1    3    3    0  502 -0.37235397249E+02 -0.19623392170E+02  0.46999424803E+02  0.63229507829E+02  0.41800000000E+01 0.  1.
        -11    1    1    2    0    0  0.84614092542E+01 -0.70476887668E+01 -0.69238316049E+01  0.13007874831E+02  0.00000000000E+00 0.  1.
         11    1    1    2    0    0 -0.35575426571E+02 -0.36857696703E+02  0.18338793244E+03  0.19040807374E+03  0.00000000000E+00 0. -1.
</event>
<event>
 7    1  0.2749315E-009  0.1324426E+03  0.7561462E-02  0.1223876E+00
         -1   -1    0    0    0  501 -0.00000000000E+00  0.00000000000E+00  0.77191302038E+02  0.77191302038E+02  0.00000000000E+00 0.  1.
          1   -1    0    0  501    0  0.00000000000E+00 -0.00000000000E+00 -0.32501670972E+03  0.32501670972E+03  0.00000000000E+00 0. -1.
         25    2    1    2    0    0 -0.86849515204E+02 -0.16555315695E+02 -0.39361424453E+02  0.15815008008E+03  0.12508081118E+03 0.  0.
          5    1    3    3  502    0 -0.22362173580E+02  0.43963150949E+02 -0.48304613600E+02  0.69163816722E+02  0.41800000000E+01 0.  1.
         -5    1    3    3    0  502 -0.64487341624E+02 -0.60518466644E+02  0.89431891468E+01  0.88986263361E+02  0.41800000000E+01 0.  1.
        -11    1    1    2    0    0 -0.14981803685E+02 -0.14028178036E+02 -0.30935617514E+02  0.37124879146E+02  0.00000000000E+00 0. -1.
         11    1    1    2    0    0  0.10183131889E+03  0.30583493732E+02 -0.17752836572E+03  0.20693305253E+03  0.00000000000E+00 0.  1.
</event>
<event>
 7    1  0.2749315E-009  0.8972718E+02  0.7561462E-02  0.1303514E+00
          3   -1    0    0  501    0  0.00000000000E+00  0.00000000000E+00  0.20875191990E+03  0.20875191990E+03  0.00000000000E+00 0. -1.
         -3   -1    0    0    0  501 -0.00000000000E+00 -0.00000000000E+00 -0.81711583349E+02  0.81711583349E+02  0.00000000000E+00 0.  1.
         25    2    1    2    0    0  0.36098134712E+02 -0.56578982319E+02  0.91358526142E+02  0.16881175945E+03  0.12508706272E+03 0.  0.
          5    1    3    3  502    0  0.46644121129E+02 -0.12014588420E+01 -0.14301668572E+02  0.48980890796E+02  0.41800000000E+01 0. -1.
         -5    1    3    3    0  502 -0.10545986417E+02 -0.55377523477E+02  0.10566019471E+03  0.11983086866E+03  0.41800000000E+01 0. -1.
        -11    1    1    2    0    0 -0.26551856012E+02  0.97454392317E+01  0.61236289083E+02  0.67452633338E+02  0.00000000000E+00 0. -1.
         11    1    1    2    0    0 -0.95462787002E+01  0.46833543087E+02 -0.25554478669E+02  0.54199110465E+02  0.00000000000E+00 0.  1.
</event>
<event>
 7    1  0.2749315E-009  0.1568659E+03  0.7561462E-02  0.1192281E+00
          2   -1    0    0  501    0  0.00000000000E+00  0.00000000000E+00  0.19964089561E+03  0.19964089561E+03  0.00000000000E+00 0. -1.
         -2   -1    0    0    0  501 -0.00000000000E+00 -0.00000000000E+00 -0.19969793017E+03  0.19969793017E+03  0.00000000000E+00 0.  1.
         25    2    1    2    0    0 -0.14535826952E+03  0.67167074248E+01 -0.82556377837E+02  0.20889678415E+03  0.12509264659E+03 0.  0.
          5    1    3    3  502    0 -0.14516290297E+03 -0.13232505904E+02 -0.25148127417E+02  0.14797725611E+03  0.41800000000E+01 0. -1.
         -5    1    3    3    0  502 -0.19536654435E+00  0.19949213329E+02 -0.57408250420E+02  0.60919528042E+02  0.41800000000E+01 0. -1.
        -11    1    1    2    0    0  0.89626820314E+02 -0.15943154899E+02  0.70486916875E+00  0.91036519860E+02  0.00000000000E+00 0.  1.
         11    1    1    2    0    0  0.55731449205E+02  0.92264474746E+01  0.81794474112E+02  0.99405521772E+02  0.00000000000E+00 0. -1.
</event>
<event>
 7    1  0.2749315E-009  0.1912840E+03  0.7561462E-02  0.1157308E+00
         -1   -1    0    0    0  501 -0.00000000000E+00  0.00000000000E+00  0.27793805231E+02  0.27793805231E+02  0.00000000000E+00 0.  1.
          1   -1    0    0  501    0  0.00000000000E+00 -0.00000000000E+00 -0.15407940428E+04  0.15407940428E+04  0.00000000000E+00 0. -1.
         25    2    1    2    0    0 -0.81807132238E+02  0.13573497235E+03 -0.10442674774E+04  0.10636062585E+04  0.12508924485E+03 0.  0.
          5    1    3    3  502    0 -0.25582134545E+02  0.13800013672E+03 -0.62628775111E+03  0.64183510572E+03  0.41800000000E+01 0. -1.
         -5    1    3    3    0  502 -0.56224997693E+02 -0.22651643747E+01 -0.41797972624E+03  0.42177115274E+03  0.41800000000E+01 0. -1.
        -11    1    1    2    0    0  0.97089319339E+02 -0.73848260736E+02 -0.34234555052E+03  0.36342864155E+03  0.00000000000E+00 0. -1.
         11    1    1    2    0    0 -0.15282187101E+02 -0.61886711611E+02 -0.12638720972E+03  0.14155294804E+03  0.00000000000E+00 0.  1.
</event>
<event>
 7    1  0.2749315E-009  0.1139364E+03  0.7561462E-02  0.1253449E+00
         -2   -1    0    0    0  501 -0.00000000000E+00  0.00000000000E+00  0.11223958468E+02  0.11223958468E+02  0.00000000000E+00 0.  1.
          2   -1    0    0  501    0  0.00000000000E+00 -0.00000000000E+00 -0.12815548594E+04  0.12815548594E+04  0.00000000000E+00 0. -1.
         25    2    1    2    0    0  0.38677680875E+02 -0.23619100908E+02 -0.89085879224E+03  0.90073934896E+03  0.12509261417E+03 0.  0.
          5    1    3    3  502    0  0.64301631677E+02 -0.58389543483E+02 -0.67357550779E+03  0.67916527865E+03  0.41800000000E+01 0. -1.
         -5    1    3    3    0  502 -0.25623950802E+02  0.34770442576E+02 -0.21728328445E+03  0.22157407031E+03  0.41800000000E+01 0. -1.
        -11    1    1    2    0    0 -0.57848954388E+02  0.41587659752E+02 -0.25144721833E+03  0.26134601312E+03  0.00000000000E+00 0.  1.
         11    1    1    2    0    0  0.19171273513E+02 -0.17968558844E+02 -0.12802489033E+03  0.13069345576E+03  0.00000000000E+00 0. -1.
</event>
<event>
 7    1  0.2749315E-009  0.2221931E+03  0.7561462E-02  0.1132258E+00
         -2   -1    0    0    0  501 -0.00000000000E+00  0.00000000000E+00  0.61079366774E+02  0.61079366774E+02  0.00000000000E+00 0.  1.
          2   -1    0    0  501    0  0.00000000000E+00 -0.00000000000E+00 -0.97889388554E+03  0.97889388554E+03  0.00000000000E+00 0. -1.
         25    2    1    2    0    0  0.15020556439E+02 -0.20688157306E+03 -0.32391012089E+03  0.40446325946E+03  0.12508860640E+03 0.  0.
          5    1    3    3  502    0  0.28032040900E+02 -0.20176164797E+03 -0.22124607883E+03  0.30076711540E+03  0.41800000000E+01 0.  1.
         -5    1    3    3    0  502 -0.13011484462E+02 -0.51199250926E+01 -0.10266404206E+03  0.10369614406E+03  0.41800000000E+01 0.  1.
        -11    1    1    2    0    0 -0.46763843281E+02  0.61594431765E+02 -0.21290021849E+03  0.22651100215E+03  0.00000000000E+00 0.  1.
         11    1    1    2    0    0  0.31743286842E+02  0.14528714130E+03 -0.38100417939E+03  0.40899899070E+03  0.00000000000E+00 0. -1.
</event>
<event>
 7    1  0.2749315E-009  0.9170414E+02  0.7561462E-02  0.1298777E+00
          1   -1    0    0  501    0  0.00000000000E+00  0.00000000000E+00  0.12109342376E+04  0.12109342376E+04  0.00000000000E+00 0. -1.
         -1   -1    0    0    0  501 -0.00000000000E+00 -0.00000000000E+00 -0.14198595538E+02  0.14198595538E+02  0.00000000000E+00 0.  1.
         25    2    1    2    0    0 -0.37140474357E+02 -0.43769184893E+01  0.95407682038E+03  0.96296840125E+03  0.12508793060E+03 0.  0.
          5    1    3    3  502    0 -0.30687627103E+02 -0.40544057214E+02  0.15799684581E+03  0.16603019821E+03  0.41800000000E+01 0.  1.
         -5    1    3    3    0  502 -0.64528472537E+01  0.36167138725E+02  0.79607997456E+03  0.79693820304E+03  0.41800000000E+01 0.  1.
        -11    1    1    2    0    0 -0.22041971597E+02  0.24450334378E+02  0.12093568380E+03  0.12533597639E+03  0.00000000000E+00 0. -1.
         11    1    1    2    0    0  0.59182445954E+02 -0.20073415889E+02  0.12172313788E+03  0.13682845549E+03  0.00000000000E+00 0.  1.
</event>
<event>
 7    1  0.2749315E-009  0.1273835E+03  0.7561462E-02  0.1231391E+00
         -2   -1    0    0    0  501 -0.00000000000E+00  0.00000000000E+00  0.70947707624E+02  0.70947707624E+02  0.00000000000E+00 0.  1.
          2   -1    0    0  501    0  0.00000000000E+00 -0.00000000000E+00 -0.42915925939E+03  0.42915925939E+03  0.00000000000E+00 0. -1.
         25    2    1    2    0    0  0.55260121442E+01 -0.83666953100E+02 -0.34307005797E+03  0.37466692966E+03  0.12509015810E+03 0.  0.
          5    1    3    3  502    0 -0.33013930337E+02 -0.94295621187E+02 -0.29773272300E+03  0.31407615401E+03  0.41800000000E+01 0. -1.
         -5    1    3    3    0  502  0.38539942481E+02  0.10628668087E+02 -0.45337334968E+02  0.60590775649E+02  0.41800000000E+01 0. -1.
        -11    1    1    2    0    0 -0.38944490621E+02  0.22773925138E+02 -0.30299282656E+02  0.54344931184E+02  0.00000000000E+00 0. -1.
         11    1    1    2    0    0  0.33418478477E+02  0.60893027962E+02  0.15157788862E+02  0.71095106169E+02  0.00000000000E+00 0.  1.
</event>
<event>
 7    1  0.2749315E-009  0.2872396E+03  0.7561462E-02  0.1091799E+00
          1   -1    0    0  501    0  0.00000000000E+00  0.00000000000E+00  0.10796403131E+04  0.10796403131E+04  0.00000000000E+00 0. -1.
         -1   -1    0    0    0  501 -0.00000000000E+00 -0.00000000000E+00 -0.91218594575E+02  0.91218594575E+02  0.00000000000E+00 0.  1.
         25    2    1    2    0    0  0.20168736630E+03 -0.18402289558E+03  0.29829005733E+03  0.42328239454E+03  0.12509519336E+03 0.  0.
          5    1    3    3  502    0  0.54475041110E+02  0.66872220825E+01  0.86236841376E+02  0.10230598347E+03  0.41800000000E+01 0.  1.
         -5    1    3    3    0  502  0.14721232519E+03 -0.19071011767E+03  0.21205321596E+03  0.32097641107E+03  0.41800000000E+01 0.  1.
        -11    1    1    2    0    0 -0.93519062051E+02  0.49331933292E+02  0.17732571098E+03  0.20645547313E+03  0.00000000000E+00 0.  1.
         11    1    1    2    0    0 -0.10816830425E+03  0.13469096229E+03  0.51280595023E+03  0.54112104003E+03  0.00000000000E+00 0. -1.
</event>
<event>
 7    1  0.2749315E-009  0.2699186E+03  0.7561462E-02  0.1101326E+00
         -2   -1    0    0    0  501 -0.00000000000E+00  0.00000000000E+00  0.61227986580E+03  0.61227986580E+03  0.00000000000E+00 0.  1.
          2   -1    0    0  501    0  0.00000000000E+00 -0.00000000000E+00 -0.17314649193E+03  0.17314649193E+03  0.00000000000E+00 0. -1.
         25    2    1    2    0    0 -0.23491604362E+02  0.25654408011E+03  0.42362605477E+03  0.51134442121E+03  0.12508941724E+03 0.  0.
          5    1    3    3  502    0 -0.26627283130E+01 -0.44826454357E+01 -0.54741728356E+01  0.86384721106E+01  0.41800000000E+01 0. -1.
         -5    1    3    3    0  502 -0.20828876049E+02  0.26102672554E+03  0.42910022761E+03  0.50270594910E+03  0.41800000000E+01 0. -1.
        -11    1    1    2    0    0 -0.29873624330E+01 -0.24005046637E+03  0.25267225724E+02  0.24139507748E+03  0.00000000000E+00 0.  1.
         11    1    1    2    0    0  0.26478966795E+02 -0.16493613739E+02 -0.97599066244E+01  0.32686859041E+02  0.00000000000E+00 0. -1.
</event>
<event>
 7    1  0.2749315E-009  0.9631368E+02  0.7561462E-02  0.1288244E+00
         -3   -1    0    0    0  501 -0.00000000000E+00  0.00000000000E+00  0.96786392687E+02  0.96786392687E+02  0.00000000000E+00 0.  1.
          3   -1    0    0  501    0  0.00000000000E+00 -0.00000000000E+00 -0.14588555372E+03  0.14588555372E+03  0.00000000000E+00 0. -1.
         25    2    1    2    0    0  0.12310623271E+02  0.24145213042E+02 -0.75047665694E+02  0.14837328551E+03  0.12509171423E+03 0.  0.
          5    1    3    3  502    0 -0.49048246523E+02  0.38956173479E+02 -0.50314029454E+02  0.80450530756E+02  0.41800000000E+01 0. -1.
         -5    1    3    3    0  502  0.61358869794E+02 -0.14810960436E+02 -0.24733636240E+02  0.67922754752E+02  0.41800000000E+01 0. -1.
        -11    1    1    2    0    0  0.11187737297E+02 -0.37795730353E+02  0.45961849726E+02  0.60548941600E+02  0.00000000000E+00 0.  1.
         11    1    1    2    0    0 -0.23498360568E+02  0.13650517310E+02 -0.20013345069E+02  0.33749719303E+02  0.00000000000E+00 0. -1.
</event>
<event>
 7    1  0.2749315E-009  0.1814253E+03  0.7561462E-02  0.1166431E+00
          1   -1    0    0  501    0  0.00000000000E+00  0.00000000000E+00  0.58866176763E+02  0.58866176763E+02  0.00000000000E+00 0. -1.
         -1   -1    0    0    0  501 -0.00000000000E+00 -0.00000000000E+00 -0.66619250250E+03  0.66619250250E+03  0.00000000000E+00 0.  1.
         25    2    1    2    0    0 -0.15835952766E+03  0.54695958982E+00 -0.40944250227E+03  0.45647446365E+03  0.12509090347E+03 0.  0.
          5    1    3    3  502    0 -0.17797743736E+03 -0.45311328006E+01 -0.38665459107E+03  0.42569442629E+03  0.41800000000E+01 0. -1.
         -5    1    3    3    0  502  0.19617909699E+02  0.50780923904E+01 -0.22787911199E+02  0.30780037363E+02  0.41800000000E+01 0. -1.
        -11    1    1    2    0    0  0.58209902460E+02 -0.20956173136E+02 -0.13520635505E+03  0.14868864241E+03  0.00000000000E+00 0.  1.
         11    1    1    2    0    0  0.10014962520E+03  0.20409213546E+02 -0.62677468412E+02  0.11989557320E+03  0.00000000000E+00 0. -1.
</event>
<event>
 7    1  0.2749315E-009  0.7909641E+02  0.7561462E-02  0.1331635E+00
         -1   -1    0    0    0  501 -0.00000000000E+00  0.00000000000E+00  0.11735007149E+03  0.11735007149E+03  0.00000000000E+00 0.  1.
          1   -1    0    0  501    0  0.00000000000E+00 -0.00000000000E+00 -0.10720992554E+03  0.10720992554E+03  0.00000000000E+00 0. -1.
         25    2    1    2    0    0  0.60123757016E+01  0.20509645687E+02  0.24150649709E+02  0.12918060563E+03  0.12509029044E+03 0.  0.
          5    1    3    3  502    0  0.25510992619E+02 -0.10731801927E+02 -0.43683365379E+02  0.51881510462E+02  0.41800000000E+01 0.  1.
         -5    1    3    3    0  502 -0.19498616917E+02  0.31241447614E+02  0.67834015087E+02  0.77299095166E+02  0.41800000000E+01 0.  1.
        -11    1    1    2    0    0 -0.38529979814E+02 -0.39747319759E+02 -0.82692963716E+00  0.55363278309E+02  0.00000000000E+00 0.  1.
         11    1    1    2    0    0  0.32517604112E+02  0.19237674072E+02 -0.13183574119E+02  0.40016113098E+02  0.00000000000E+00 0. -1.
</event>
<event>
 7    1  0.2749315E-009  0.2238770E+03  0.7561462E-02  0.1131025E+00
         -2   -1    0    0    0  501 -0.00000000000E+00  0.00000000000E+00  0.81615724428E+02  0.81615724428E+02  0.00000000000E+00 0.  1.
          2   -1    0    0  501    0  0.00000000000E+00 -0.00000000000E+00 -0.13393269899E+04  0.13393269899E+04  0.00000000000E+00 0. -1.
         25    2    1    2    0    0  0.13434925592E+03 -0.16491919125E+03 -0.14865104112E+03  0.28808438109E+03  0.12508963345E+03 0.  0.
          5    1    3    3  502    0  0.10881229760E+03 -0.99576790849E+02 -0.15914453311E+03  0.21702559343E+03  0.41800000000E+01 0. -1.
         -5    1    3    3    0  502  0.25536958322E+02 -0.65342400402E+02  0.10493491991E+02  0.71058787667E+02  0.41800000000E+01 0. -1.
        -11    1    1    2    0    0 -0.10957561631E+03  0.65943613743E+02 -0.67035271429E+03  0.68244277228E+03  0.00000000000E+00 0. -1.
         11    1    1    2    0    0 -0.24773639607E+02  0.98975577508E+02 -0.43870751011E+03  0.45041556100E+03  0.00000000000E+00 0.  1.
</event>
<event>
 7    1  0.2749315E-009  0.1009115E+03  0.7561462E-02  0.1278391E+00
          2   -1    0    0  501    0  0.00000000000E+00  0.00000000000E+00  0.22821205128E+03  0.22821205128E+03  0.00000000000E+00 0. -1.
         -2   -1    0    0    0  501 -0.00000000000E+00 -0.00000000000E+00 -0.54387249419E+02  0.54387249419E+02  0.00000000000E+00 0.  1.
         25    2    1    2    0    0 -0.21370399651E+02 -0.18547821884E+02  0.90830495776E+02  0.15715116298E+03  0.12508234641E+03 0.  0.
          5    1    3    3  502    0 -0.13966528906E+02  0.50851354335E+02  0.17230790223E+02  0.55635390707E+02  0.41800000000E+01 0.  1.
         -5    1    3    3    0  502 -0.74038707448E+01 -0.69399176219E+02  0.73599705552E+02  0.10151577227E+03  0.41800000000E+01 0.  1.
        -11    1    1    2    0    0  0.26699678047E+02 -0.24134753180E+02  0.49428452351E+01  0.36328925636E+02  0.00000000000E+00 0.  1.
         11    1    1    2    0    0 -0.53292783954E+01  0.42682575064E+02  0.78051460849E+02  0.89119212087E+02  0.00000000000E+00 0. -1.
</event>
<event>
 7    1  0.2749315E-009  0.1127526E+03  0.7561462E-02  0.1255556E+00
         -1   -1    0    0    0  501 -0.00000000000E+00  0.00000000000E+00  0.18794143682E+02  0.18794143682E+02  0.00000000000E+00 0.  1.
          1   -1    0    0  501    0  0.00000000000E+00 -0.00000000000E+00 -0.10426407549E+04  0.10426407549E+04  0.00000000000E+00 0. -1.
         25    2    1    2    0    0 -0.24477866906E+02  0.74198731213E+02 -0.74272531906E+03  0.75722835999E+03  0.12509705000E+03 0.  0.
          5    1    3    3  502    0 -0.10034794738E+02  0.89698515282E+02 -0.72084750855E+03  0.72648821307E+03  0.41800000000E+01 0. -1.
         -5    1    3    3    0  502 -0.14443072168E+02 -0.15499784069E+02 -0.21877810509E+02  0.30740146918E+02  0.41800000000E+01 0. -1.
        -11    1    1    2    0    0  0.35874202379E+02  0.25510401936E+01 -0.12174774051E+03  0.12694872399E+03  0.00000000000E+00 0. -1.
         11    1    1    2    0    0 -0.11396335474E+02 -0.76749771407E+02 -0.15937355163E+03  0.17725781459E+03  0.00000000000E+00 0.  1.
</event>
<event>
 7    1  0.2749315E-009  0.8411694E+02  0.7561462E-02  0.1317758E+00
         -1   -1    0    0    0  501 -0.00000000000E+00  0.00000000000E+00  0.35375206035E+02  0.35375206035E+02  0.00000000000E+00 0.  1.
          1   -1    0    0  501    0  0.00000000000E+00 -0.00000000000E+00 -0.56237531029E+03  0.56237531029E+03  0.00000000000E+00 0. -1.
         25    2    1    2    0    0 -0.27493863120E+02  0.55211910283E+02 -0.42339828759E+03  0.44577811923E+03  0.12509098330E+03 0.  0.
          5    1    3    3  502    0 -0.15508986174E+02  0.10642674457E+02 -0.38531350872E+03  0.38579498128E+03  0.41800000000E+01 0. -1.
         -5    1    3    3    0  502 -0.11984876945E+02  0.44569235826E+02 -0.38084778866E+02  0.59983137954E+02  0.41800000000E+01 0. -1.
        -11    1    1    2    0    0  0.32265302789E+02 -0.75329405917E+02 -0.10254873851E+03  0.13127000011E+03  0.00000000000E+00 0. -1.
         11    1    1    2    0    0 -0.47714396692E+01  0.20117495634E+02 -0.10530781513E+01  0.20702396979E+02  0.00000000000E+00 0.  1.
</event>
<event>
 7    1  0.2749315E-009  0.1161183E+03  0.7561462E-02  0.1249642E+00
         -4   -1    0    0    0  501 -0.00000000000E+00  0.00000000000E+00  0.19371168277E+03  0.19371168277E+03  0.00000000000E+00 0. -1.
          4   -1    0    0  501    0  0.00000000000E+00 -0.00000000000E+00 -0.11630340210E+03  0.11630340210E+03  0.00000000000E+00 0.  1.
         25    2    1    2    0    0  0.76914443417E+02 -0.71809778370E+02  0.26420888555E+02  0.16558396150E+03  0.12509000391E+03 0.  0.
          5    1    3    3  502    0  0.45143546358E+02 -0.12160472413E+02  0.70566729562E+02  0.84752301374E+02  0.41800000000E+01 0. -1.
         -5    1    3    3    0  502  0.31770897059E+02 -0.59649305956E+02 -0.44145841007E+02  0.80831660129E+02  0.41800000000E+01 0. -1.
        -11    1    1    2    0    0 -0.54728538924E+02  0.15225046697E+02  0.60412760440E+02  0.82925970863E+02  0.00000000000E+00 0. -1.
         11    1    1    2    0    0 -0.22185904493E+02  0.56584731673E+02 -0.94253683240E+01  0.61505152505E+02  0.00000000000E+00 0.  1.
</event>
<event>
 7    1  0.2749315E-009  0.8095974E+02  0.7561462E-02  0.1326350E+00
          2   -1    0    0  501    0  0.00000000000E+00  0.00000000000E+00  0.30033706995E+03  0.30033706995E+03  0.00000000000E+00 0. -1.
         -2   -1    0    0    0  501 -0.00000000000E+00 -0.00000000000E+00 -0.50766424092E+02  0.50766424092E+02  0.00000000000E+00 0.  1.
         25    2    1    2    0    0 -0.36020267726E+02 -0.71206886831E+01  0.73899060315E+02  0.14985753349E+03  0.12509214737E+03 0.  0.
          5    1    3    3  502    0  0.13274998814E+02 -0.59911873877E+01 -0.30648804637E+02  0.34189787152E+02  0.41800000000E+01 0.  1.
         -5    1    3    3    0  502 -0.49295266540E+02 -0.11295012954E+01  0.10454786495E+03  0.11566774634E+03  0.41800000000E+01 0.  1.
        -11    1    1    2    0    0  0.63790545289E+02 -0.10130197513E+02  0.10326634700E+03  0.12180227007E+03  0.00000000000E+00 0.  1.
         11    1    1    2    0    0 -0.27770277562E+02  0.17250886196E+02  0.72405238540E+02  0.79443690488E+02  0.00000000000E+00 0. -1.
</event>
<event>
 7    1  0.2749315E-009  0.8715581E+02  0.7561462E-02  0.1309889E+00
         -1   -1    0    0    0  501 -0.00000000000E+00  0.00000000000E+00  0.19721077466E+03  0.19721077466E+03  0.00000000000E+00 0.  1.
          1   -1    0    0  501    0  0.00000000000E+00 -0.00000000000E+00 -0.10253163713E+03  0.10253163713E+03  0.00000000000E+00 0. -1.
         25    2    1    2    0    0  0.69917548389E+02 -0.87187851109E+01  0.11214428518E+03  0.18218356717E+03  0.12510008258E+03 0.  0.
          5    1    3    3  502    0  0.19453755382E+02 -0.26473311837E+02  0.12304903407E+03  0.12742771294E+03  0.41800000000E+01 0.  1.
         -5    1    3    3    0  502  0.50463793007E+02  0.17754526726E+02 -0.10904748895E+02  0.54755854229E+02  0.41800000000E+01 0.  1.
        -11    1    1    2    0    0 -0.55867504588E+02  0.28935217443E+02  0.25622810757E+02  0.67933447641E+02  0.00000000000E+00 0.  1.
         11    1    1    2    0    0 -0.14050043801E+02 -0.20216432332E+02 -0.43087958399E+02  0.49625396986E+02  0.00000000000E+00 0. -1.
</event>
<event>
 7    1  0.2749315E-009  0.1175464E+03  0.7561462E-02  0.1247200E+00
         -1   -1    0    0    0  501 -0.00000000000E+00  0.00000000000E+00  0.66865020402E+02  0.66865020402E+02  0.00000000000E+00 0.  1.
          1   -1    0    0  501    0  0.00000000000E+00 -0.00000000000E+00 -0.35650632201E+03  0.35650632201E+03  0.00000000000E+00 0. -1.
         25    2    1    2    0    0 -0.81970960281E+02  0.31446831943E+02 -0.24662894424E+03  0.29013897713E+03  0.12508656340E+03 0.  0.
          5    1    3    3  502    0 -0.95306416932E+02  0.55968399922E+02 -0.13262072620E+03  0.17268903936E+03  0.41800000000E+01 0.  1.
         -5    1    3    3    0  502  0.13335456651E+02 -0.24521567979E+02 -0.11400821804E+03  0.11744993776E+03  0.41800000000E+01 0.  1.
        -11    1    1    2    0    0  0.61082503277E+02 -0.40719068711E+02 -0.67507417283E+02  0.99731470216E+02  0.00000000000E+00 0. -1.
         11    1    1    2    0    0  0.20888457004E+02  0.92722367677E+01  0.24495059911E+02  0.33500895073E+02  0.00000000000E+00 0.  1.
</event>
<event>
 7    1  0.2749315E-009  0.8708071E+02  0.7561462E-02  0.1310079E+00
          1   -1    0    0  501    0  0.00000000000E+00  0.00000000000E+00  0.30761883518E+03  0.30761883518E+03  0.00000000000E+00 0. -1.
         -1   -1    0    0    0  501 -0.00000000000E+00 -0.00000000000E+00 -0.56603085174E+02  0.56603085174E+02  0.00000000000E+00 0.  1.
         25    2    1    2    0    0  0.28089113531E+02  0.21011717358E+02  0.23599502286E+03  0.26939121825E+03  0.12508991601E+03 0.  0.
          5    1    3    3  502    0 -0.41864431368E+02  0.27019530850E+00  0.32480779493E+02  0.53152394638E+02  0.41800000000E+01 0.  1.
         -5    1    3    3    0  502  0.69953544899E+02  0.20741522049E+02  0.20351424337E+03  0.21623882361E+03  0.41800000000E+01 0.  1.
        -11    1    1    2    0    0  0.36477493239E+01 -0.26540273565E+02  0.43990489082E+02  0.51505876613E+02  0.00000000000E+00 0. -1.
         11    1    1    2    0    0 -0.31736862855E+02  0.55285562078E+01 -0.28969761938E+02  0.43324825497E+02  0.00000000000E+00 0.  1.
</event>
<event>
 7    1  0.2749315E-009  0.9394530E+02  0.7561462E-02  0.1293569E+00
          2   -1    0    0  501    0  0.00000000000E+00  0.00000000000E+00  0.83773034240E+02  0.83773034240E+02  0.00000000000E+00 0. -1.
         -2   -1    0    0    0  501 -0.00000000000E+00 -0.00000000000E+00 -0.16961035953E+03  0.16961035953E+03  0.00000000000E+00 0.  1.
         25    2    1    2    0    0  0.33728985393E+02  0.76947425904E+01 -0.83656425033E+02  0.15441306858E+03  0.12509254487E+03 0.  0.
          5    1    3    3  502    0  0.48121912084E+02  0.51489748603E+02 -0.81846666300E+02  0.10808913830E+03  0.41800000000E+01 0.  1.
         -5    1    3    3    0  502 -0.14392926691E+02 -0.43795006013E+02 -0.18097587325E+01  0.46323930285E+02  0.41800000000E+01 0.  1.
        -11    1    1    2    0    0 -0.45059779050E+02 -0.24072275755E+02  0.31373300777E+02  0.59951164706E+02  0.00000000000E+00 0. -1.
         11    1    1    2    0    0  0.11330793657E+02  0.16377533164E+02 -0.33554201029E+02  0.39019160475E+02  0.00000000000E+00 0.  1.
</event>
<event>
 7    1  0.2749315E-009  0.1355345E+03  0.7561462E-02  0.1219467E+00
          1   -1    0    0  501    0  0.00000000000E+00  0.00000000000E+00  0.66001864720E+03  0.66001864720E+03  0.00000000000E+00 0. -1.
         -1   -1    0    0    0  501 -0.00000000000E+00 -0.00000000000E+00 -0.47014751905E+02  0.47014751905E+02  0.00000000000E+00 0.  1.
         25    2    1    2    0    0  0.83764360888E+02  0.70258909791E+02  0.49467756170E+03  0.52182905294E+03  0.12508752090E+03 0.  0.
          5    1    3    3  502    0  0.17870709818E+02 -0.14807615831E+02  0.10486725160E+02  0.25808362222E+02  0.41800000000E+01 0.  1.
         -5    1    3    3    0  502  0.65893651069E+02  0.85066525622E+02  0.48419083654E+03  0.49602069072E+03  0.41800000000E+01 0.  1.
        -11    1    1    2    0    0  0.80940991188E+01 -0.43329597157E+02  0.54758531981E+02  0.70295556438E+02  0.00000000000E+00 0. -1.
         11    1    1    2    0    0 -0.91858460006E+02 -0.26929312635E+02  0.63567801614E+02  0.11490878972E+03  0.00000000000E+00 0.  1.
</event>
<event>
 7    1  0.2749315E-009  0.1212268E+03  0.7561462E-02  0.1241087E+00
         -1   -1    0    0    0  501 -0.00000000000E+00  0.00000000000E+00  0.12618977639E+02  0.12618977639E+02  0.00000000000E+00 0.  1.
          1   -1    0    0  501    0  0.00000000000E+00 -0.00000000000E+00 -0.13055038764E+04  0.13055038764E+04  0.00000000000E+00 0. -1.
         25    2    1    2    0    0 -0.28623414601E+02  0.61512644530E+02 -0.66154081698E+03  0.67667211460E+03  0.12508314376E+03 0.  0.
          5    1    3    3  502    0  0.24595551962E+02  0.70943446913E+02 -0.23599470150E+03  0.24768707147E+03  0.41800000000E+01 0.  1.
         -5    1    3    3    0  502 -0.53218966563E+02 -0.94308023832E+01 -0.42554611547E+03  0.42898504313E+03  0.41800000000E+01 0.  1.
        -11    1    1    2    0    0  0.41909243543E+02 -0.79978206861E+02 -0.52401746724E+03  0.53173978997E+03  0.00000000000E+00 0.  1.
         11    1    1    2    0    0 -0.13285828942E+02  0.18465562331E+02 -0.10732661452E+03  0.10971094944E+03  0.00000000000E+00 0. -1.
</event>
<event>
 7    1  0.3437609E-009  0.1152529E+03  0.7561462E-02  0.1251140E+00
          2   -1    0    0  501    0  0.00000000000E+00  0.00000000000E+00  0.82676021011E+03  0.82676021011E+03  0.00000000000E+00 0. -1.
         -2   -1    0    0    0  501 -0.00000000000E+00 -0.00000000000E+00 -0.25909077275E+02  0.25909077275E+02  0.00000000000E+00 0.  1.
         25    2    1    2    0    0 -0.13807881264E+02 -0.96121538083E+02  0.46480815325E+03  0.49104377462E+03  0.12508941441E+03 0.  0.
          5    1    3    3  502    0 -0.24591497099E+02 -0.93729952982E+02  0.46868327117E+03  0.47861417331E+03  0.41800000000E+01 0.  1.
         -5    1    3    3    0  502  0.10783615835E+02 -0.23915851008E+01 -0.38751179255E+01  0.12429601309E+02  0.41800000000E+01 0.  1.
        -11    1    1    2    0    0 -0.19412543157E+02  0.84199750205E+02  0.29548709252E+03  0.30786209025E+03  0.00000000000E+00 0.  1.
         11    1    1    2    0    0  0.33220424420E+02  0.11921787878E+02  0.40555887067E+02  0.53763422516E+02  0.00000000000E+00 0. -1.
</event>
<event>
 7    1  0.2749315E-009  0.1057169E+03  0.7561462E-02  0.1268713E+00
          2   -1    0    0  501    0  0.00000000000E+00  0.00000000000E+00  0.39829301060E+03  0.39829301060E+03  0.00000000000E+00 0.  1.
         -2   -1    0    0    0  501 -0.00000000000E+00 -0.00000000000E+00 -0.40524358250E+02  0.40524358250E+02  0.00000000000E+00 0. -1.
         25    2    1    2    0    0 -0.39629382112E+01 -0.66768053724E+02  0.23648985070E+03  0.27576839951E+03  0.12508830005E+03 0.  0.
          5    1    3    3  502    0 -0.37771413443E+02 -0.10016267915E+02  0.19208108990E+03  0.19606025297E+03  0.41800000000E+01 0. -1.
         -5    1    3    3    0  502  0.33808475232E+02 -0.56751785809E+02  0.44408760802E+02  0.79708146547E+02  0.41800000000E+01 0. -1.
        -11    1    1    2    0    0 -0.20562490542E+01  0.85880512756E+02  0.81045398657E+02  0.11810185128E+03  0.00000000000E+00 0.  1.
         11    1    1    2    0    0  0.60191872654E+01 -0.19112459032E+02  0.40233402994E+02  0.44947118062E+02  0.00000000000E+00 0. -1.
</event>
<event>
 7    1  0.2749315E-009  0.1268192E+03  0.7561462E-02  0.1232253E+00
          1   -1    0    0  501    0  0.00000000000E+00  0.00000000000E+00  0.19801059132E+02  0.19801059132E+02  0.00000000000E+00 0. -1.
         -1   -1    0    0    0  501 -0.00000000000E+00 -0.00000000000E+00 -0.87522593431E+03  0.87522593431E+03  0.00000000000E+00 0.  1.
         25    2    1    2    0    0  0.46780088191E+02 -0.55219136569E+02 -0.50816784219E+03  0.52831628373E+03  0.12508401227E+03 0.  0.
          5    1    3    3  502    0  0.73882140510E+02 -0.78427011794E+02 -0.35639354858E+03  0.37234822510E+03  0.41800000000E+01 0. -1.
         -5    1    3    3    0  502 -0.27102052319E+02  0.23207875225E+02 -0.15177429361E+03  0.15596805863E+03  0.41800000000E+01 0. -1.
        -11    1    1    2    0    0 -0.67387002086E+01 -0.21942125658E+02 -0.30087438063E+02  0.37843373107E+02  0.00000000000E+00 0. -1.
         11    1    1    2    0    0 -0.40041387983E+02  0.77161262227E+02 -0.31716959493E+03  0.32886733661E+03  0.00000000000E+00 0.  1.
</event>
<event>
 7    1  0.3263536E-009  0.1451240E+03  0.7561462E-02  0.1206596E+00
          1   -1    0    0  501    0  0.00000000000E+00  0.00000000000E+00  0.80691978665E+03  0.80691978665E+03  0.00000000000E+00 0. -1.
         -1   -1    0    0    0  501 -0.00000000000E+00 -0.00000000000E+00 -0.37177061402E+02  0.37177061402E+02  0.00000000000E+00 0.  1.
         25    2    1    2    0    0 -0.54179677549E+02  0.11486873178E+03  0.30111600484E+03  0.34992662331E+03  0.12509008885E+03 0.  0.
          5    1    3    3  502    0 -0.72659221579E+02  0.67742999067E+02  0.94545890521E+02  0.13720376896E+03  0.41800000000E+01 0.  1.
         -5    1    3    3    0  502  0.18479544030E+02  0.47125732717E+02  0.20657011432E+03  0.21272285435E+03  0.41800000000E+01 0.  1.
        -11    1    1    2    0    0  0.62209569940E+02 -0.66752296512E+02  0.39805646438E+03  0.40838076414E+03  0.00000000000E+00 0.  1.
         11    1    1    2    0    0 -0.80298923917E+01 -0.48116435272E+02  0.70570256019E+02  0.85789460598E+02  0.00000000000E+00 0. -1.
</event>
<event>
 7    1  0.2749315E-009  0.6294791E+02  0.7561462E-02  0.1385861E+00
         -2   -1    0    0    0  501 -0.00000000000E+00  0.00000000000E+00  0.38338302733E+02  0.38338302733E+02  0.00000000000E+00 0.  1.
          2   -1    0    0  501    0  0.00000000000E+00 -0.00000000000E+00 -0.39780281226E+03  0.39780281226E+03  0.00000000000E+00 0. -1.
         25    2    1    2    0    0  0.39310520944E+02  0.19128683273E+01 -0.28072990359E+03  0.30984713407E+03  0.12508793546E+03 0.  0.
          5    1    3    3  502    0  0.45345179142E+02  0.19211605494E+02 -0.28770970183E+02  0.57188392025E+02  0.41800000000E+01 0. -1.
         -5    1    3    3    0  502 -0.60346581981E+01 -0.17298737167E+02 -0.25195893341E+03  0.25265874204E+03  0.41800000000E+01 0. -1.
        -11    1    1    2    0    0 -0.26763495655E+02 -0.21560441557E+02  0.89905449835E+01  0.35524178229E+02  0.00000000000E+00 0.  1.
         11    1    1    2    0    0 -0.12547025289E+02  0.19647573229E+02 -0.87725150917E+02  0.90769802692E+02  0.00000000000E+00 0. -1.
</event>
<event>
 7    1  0.2749315E-009  0.8067931E+02  0.7561462E-02  0.1327135E+00
         -4   -1    0    0    0  501 -0.00000000000E+00  0.00000000000E+00  0.15317338503E+03  0.15317338503E+03  0.00000000000E+00 0.  1.
          4   -1    0    0  501    0  0.00000000000E+00 -0.00000000000E+00 -0.88339355353E+02  0.88339355353E+02  0.00000000000E+00 0. -1.
         25    2    1    2    0    0 -0.39879007277E+02 -0.16516672164E+02  0.60135991857E+02  0.14535338568E+03  0.12509249991E+03 0.  0.
          5    1    3    3  502    0 -0.42434673551E+02  0.12822220759E+02  0.91726794983E+02  0.10196268034E+03  0.41800000000E+01 0. -1.
         -5    1    3    3    0  502  0.25556662740E+01 -0.29338892923E+02 -0.31590803126E+02  0.43390705343E+02  0.41800000000E+01 0. -1.
        -11    1    1    2    0    0  0.25176088545E+02 -0.29497793933E+02  0.22312711669E+02  0.44741618023E+02  0.00000000000E+00 0.  1.
         11    1    1    2    0    0  0.14702918732E+02  0.46014466096E+02 -0.17614673854E+02  0.51417736671E+02  0.00000000000E+00 0. -1.
</event>
<event>
 7    1  0.2749315E-009  0.9669977E+02  0.7561462E-02  0.1287393E+00
         -2   -1    0    0    0  501 -0.00000000000E+00  0.00000000000E+00  0.23730521256E+02  0.23730521256E+02  0.00000000000E+00 0.  1.
          2   -1    0    0  501    0  0.00000000000E+00 -0.00000000000E+00 -0.76919355448E+03  0.76919355448E+03  0.00000000000E+00 0. -1.
         25    2    1    2    0    0 -0.22995197138E+02 -0.68620440840E+02 -0.52595287195E+03  0.54544654775E+03  0.12509184205E+03 0.  0.
          5    1    3    3  502    0 -0.29647095268E+02  0.35375942294E+01 -0.39144184722E+03  0.39260114236E+03  0.41800000000E+01 0. -1.
         -5    1    3    3    0  502  0.66518981299E+01 -0.72158035069E+02 -0.13451102473E+03  0.15284540539E+03  0.41800000000E+01 0. -1.
        -11    1    1    2    0    0  0.40088327872E+02  0.36190781555E+02 -0.48520100161E+02  0.72601975323E+02  0.00000000000E+00 0.  1.
         11    1    1    2    0    0 -0.17093130734E+02  0.32429659285E+02 -0.17099006111E+03  0.17487555266E+03  0.00000000000E+00 0. -1.
</event>
<event>
 7    1  0.2749315E-009  0.9453520E+02  0.7561462E-02  0.1292226E+00
          2   -1    0    0  501    0  0.00000000000E+00  0.00000000000E+00  0.82145300288E+03  0.82145300288E+03  0.00000000000E+00 0. -1.
         -2   -1    0    0    0  501 -0.00000000000E+00 -0.00000000000E+00 -0.17894692058E+02  0.17894692058E+02  0.00000000000E+00 0.  1.
         25    2    1    2    0    0 -0.21449625570E+02  0.44363478374E+02  0.37542670295E+03  0.39877370462E+03  0.12508818315E+03 0.  0.
          5    1    3    3  502    0  0.20702357187E+02 -0.74370522520E+01  0.57881541231E+01  0.23127309992E+02  0.41800000000E+01 0. -1.
         -5    1    3    3    0  502 -0.42151982758E+02  0.51800530626E+02  0.36963854882E+03  0.37564639463E+03  0.41800000000E+01 0. -1.
        -11    1    1    2    0    0  0.29817687365E+02  0.19322601912E+02  0.97779020135E+02  0.10403458176E+03  0.00000000000E+00 0.  1.
         11    1    1    2    0    0 -0.83680617948E+01 -0.63686080285E+02  0.33035258774E+03  0.33653940854E+03  0.00000000000E+00 0. -1.
</event>
<event>
 7    1  0.2749315E-009  0.9108743E+02  0.7561462E-02  0.1300239E+00
         -1   -1    0    0    0  501 -0.00000000000E+00  0.00000000000E+00  0.10411798375E+03  0.10411798375E+03  0.00000000000E+00 0.  1.
          1   -1    0    0  501    0  0.00000000000E+00 -0.00000000000E+00 -0.20052779353E+03  0.20052779353E+03  0.00000000000E+00 0. -1.
         25    2    1    2    0    0 -0.73934140010E+02 -0.47980290021E+02 -0.86535150336E+02  0.17579549777E+03  0.12508940604E+03 0.  0.
          5    1    3    3  502    0 -0.25310698755E+02 -0.11859388570E+01 -0.10304480026E+03  0.10619670985E+03  0.41800000000E+01 0. -1.
         -5    1    3    3    0  502 -0.48623441255E+02 -0.46794351164E+02  0.16509649921E+02  0.69598787927E+02  0.41800000000E+01 0. -1.
        -11    1    1    2    0    0  0.57172706443E+02  0.42528678745E+02  0.35907851889E+02  0.79792109291E+02  0.00000000000E+00 0.  1.
         11    1    1    2    0    0  0.16761433567E+02  0.54516112768E+01 -0.45782511334E+02  0.49058170215E+02  0.00000000000E+00 0. -1.
</event>
<event>
 7    1  0.2749315E-009  0.1066618E+03  0.7561462E-02  0.1266880E+00
          1   -1    0    0  501    0  0.00000000000E+00  0.00000000000E+00  0.56971193094E+02  0.56971193094E+02  0.00000000000E+00 0. -1.
         -1   -1    0    0    0  501 -0.00000000000E+00 -0.00000000000E+00 -0.36829645417E+03  0.36829645417E+03  0.00000000000E+00 0.  1.
         25    2    1    2    0    0 -0.32952108697E+02 -0.76086804109E+02 -0.97928633141E+02  0.17919941921E+03  0.12508945371E+03 0.  0.
          5    1    3    3  502    0  0.34292653016E+02 -0.12104182136E+02  0.88448656934E+01  0.37659013863E+02  0.41800000000E+01 0. -1.
         -5    1    3    3    0  502 -0.67244761712E+02 -0.63982621973E+02 -0.10677349883E+03  0.14154040535E+03  0.41800000000E+01 0. -1.
        -11    1    1    2    0    0  0.19261217752E+02  0.29374661984E+02 -0.94252534491E+01  0.36368952123E+02  0.00000000000E+00 0. -1.
         11    1    1    2    0    0  0.13690890945E+02  0.46712142125E+02 -0.20397137449E+03  0.20969927594E+03  0.00000000000E+00 0.  1.
</event>
<event>
 7    1  0.2749315E-009  0.1033176E+03  0.7561462E-02  0.1273470E+00
          1   -1    0    0  501    0  0.00000000000E+00  0.00000000000E+00  0.40785573804E+03  0.40785573804E+03  0.00000000000E+00 0.  1.
         -1   -1    0    0    0  501 -0.00000000000E+00 -0.00000000000E+00 -0.45509087365E+02  0.45509087365E+02  0.00000000000E+00 0. -1.
         25    2    1    2    0    0 -0.75901256091E+02 -0.11470284820E+02  0.16793664440E+03  0.22303443986E+03  0.12509626982E+03 0.  0.
          5    1    3    3  502    0 -0.29945832971E+02  0.10501153047E+02  0.16891036176E+03  0.17191628730E+03  0.41800000000E+01 0. -1.
         -5    1    3    3    0  502 -0.45955423120E+02 -0.21971437868E+02 -0.97371736348E+00  0.51118152564E+02  0.41800000000E+01 0. -1.
        -11    1    1    2    0    0  0.28656691120E+02  0.53236475779E+02  0.95058695754E+02  0.11265648644E+03  0.00000000000E+00 0.  1.
         11    1    1    2    0    0  0.47244564972E+02 -0.41766190958E+02  0.99351310520E+02  0.11767389910E+03  0.00000000000E+00 0. -1.
</event>
<event>
 7    1  0.2749315E-009  0.1604592E+03  0.7561462E-02  0.1188179E+00
          1   -1    0    0  501    0  0.00000000000E+00  0.00000000000E+00  0.37926377929E+03  0.37926377929E+03  0.00000000000E+00 0. -1.
         -1   -1    0    0    0  501 -0.00000000000E+00 -0.00000000000E+00 -0.92646013733E+02  0.92646013733E+02  0.00000000000E+00 0.  1.
         25    2    1    2    0    0 -0.72179347202E+02 -0.10266014181E+03  0.26068335677E+03  0.31520223944E+03  0.12509067259E+03 0.  0.
          5    1    3    3  502    0 -0.98451243434E+02 -0.99138173078E+02  0.16713957407E+03  0.21788559914E+03  0.41800000000E+01 0. -1.
         -5    1    3    3    0  502  0.26271896232E+02 -0.35219687307E+01  0.93543782708E+02  0.97316640297E+02  0.41800000000E+01 0. -1.
        -11    1    1    2    0    0  0.99431204982E+01  0.90307854162E+02  0.19584184863E+02  0.92940381241E+02  0.00000000000E+00 0.  1.
         11    1    1    2    0    0  0.62236226704E+02  0.12352287647E+02  0.63502239186E+01  0.63767172341E+02  0.00000000000E+00 0. -1.
</event>
<event>
 7    1  0.2749315E-009  0.1906304E+03  0.7561462E-02  0.1157894E+00
         -1   -1    0    0    0  501 -0.00000000000E+00  0.00000000000E+00  0.10999379167E+03  0.10999379167E+03  0.00000000000E+00 0.  1.
          1   -1    0    0  501    0  0.00000000000E+00 -0.00000000000E+00 -0.41436793614E+03  0.41436793614E+03  0.00000000000E+00 0. -1.
         25    2    1    2    0    0  0.95814291298E+02  0.15091577092E+03 -0.10682746793E+03  0.24293086450E+03  0.12508936283E+03 0.  0.
          5    1    3    3  502    0  0.49122746495E+02  0.13370496944E+02  0.15071734550E+02  0.53258276297E+02  0.41800000000E+01 0. -1.
         -5    1    3    3    0  502  0.46691544802E+02  0.13754527398E+03 -0.12189920248E+03  0.18967258821E+03  0.41800000000E+01 0. -1.
        -11    1    1    2    0    0 -0.33439265121E+02 -0.17849486703E+02 -0.35730813656E+01  0.38073029008E+02  0.00000000000E+00 0.  1.
         11    1    1    2    0    0 -0.62375026176E+02 -0.13306628422E+03 -0.19397359517E+03  0.24335783429E+03  0.00000000000E+00 0. -1.
</event>
<event>
 7    1  0.2749315E-009  0.1952157E+03  0.7561462E-02  0.1153839E+00
         -2   -1    0    0    0  501 -0.00000000000E+00  0.00000000000E+00  0.57597014394E+02  0.57597014394E+02  0.00000000000E+00 0.  1.
          2   -1    0    0  501    0  0.00000000000E+00 -0.00000000000E+00 -0.89340076333E+03  0.89340076333E+03  0.00000000000E+00 0. -1.
         25    2    1    2    0    0 -0.99914125485E+02 -0.13834475017E+03 -0.64838949934E+03  0.68203998645E+03  0.12508995919E+03 0.  0.
          5    1    3    3  502    0 -0.45298282852E+02  0.15671444070E+02 -0.14510708645E+03  0.15287598741E+03  0.41800000000E+01 0. -1.
         -5    1    3    3    0  502 -0.54615842633E+02 -0.15401619424E+03 -0.50328241289E+03  0.52916399904E+03  0.41800000000E+01 0. -1.
        -11    1    1    2    0    0  0.26241010560E+02  0.53024609495E+01  0.10437776836E+01  0.26791718854E+02  0.00000000000E+00 0.  1.
         11    1    1    2    0    0  0.73673114925E+02  0.13304228922E+03 -0.18845802727E+03  0.24216607241E+03  0.00000000000E+00 0. -1.
</event>
<event>
 7    1  0.2749315E-009  0.9863910E+02  0.7561462E-02  0.1283184E+00
          2   -1    0    0  501    0  0.00000000000E+00  0.00000000000E+00  0.36047642139E+03  0.36047642139E+03  0.00000000000E+00 0. -1.
         -2   -1    0    0    0  501 -0.00000000000E+00 -0.00000000000E+00 -0.37091374276E+02  0.37091374276E+02  0.00000000000E+00 0.  1.
         25    2    1    2    0    0 -0.56485411388E+01  0.18259698636E+02  0.12816421979E+03  0.18011459733E+03  0.12509947372E+03 0.  0.
          5    1    3    3  502    0  0.37031825054E+02  0.53980648892E+02  0.43497476923E+02  0.78706857518E+02  0.41800000000E+01 0.  1.
         -5    1    3    3    0  502 -0.42680366193E+02 -0.35720950256E+02  0.84666742871E+02  0.10140773981E+03  0.41800000000E+01 0.  1.
        -11    1    1    2    0    0 -0.63766742217E+01  0.27668465690E+02  0.14724410693E+03  0.14995677041E+03  0.00000000000E+00 0. -1.
         11    1    1    2    0    0  0.12025215360E+02 -0.45928164326E+02  0.47976720395E+02  0.67496427926E+02  0.00000000000E+00 0.  1.
</event>
<event>
 7    1  0.2749315E-009  0.6941699E+02  0.7561462E-02  0.1362087E+00
         -1   -1    0    0    0  501 -0.00000000000E+00  0.00000000000E+00  0.15332319843E+03  0.15332319843E+03  0.00000000000E+00 0.  1.
          1   -1    0    0  501    0  0.00000000000E+00 -0.00000000000E+00 -0.81079333264E+02  0.81079333264E+02  0.00000000000E+00 0. -1.
         25    2    1    2    0    0 -0.12959747617E+02  0.10960520601E+02  0.10628722543E+02  0.12668182109E+03  0.12508887233E+03 0.  0.
          5    1    3    3  502    0 -0.26250276738E+01  0.40563060445E+02  0.57253303166E+02  0.70339645765E+02  0.41800000000E+01 0.  1.
         -5    1    3    3    0  502 -0.10334719943E+02 -0.29602539844E+02 -0.46624580624E+02  0.56342175321E+02  0.41800000000E+01 0.  1.
        -11    1    1    2    0    0 -0.17239859756E+02 -0.27083998854E+02 -0.53159977214E+01  0.32542519726E+02  0.00000000000E+00 0. -1.
         11    1    1    2    0    0  0.30199607373E+02  0.16123478253E+02  0.66931140348E+02  0.75178190885E+02  0.00000000000E+00 0.  1.
</event>
<event>
 7    1  0.2749315E-009  0.1346057E+03  0.7561462E-02  0.1220777E+00
         -1   -1    0    0    0  501 -0.00000000000E+00  0.00000000000E+00  0.30565213649E+03  0.30565213649E+03  0.00000000000E+00 0.  1.
          1   -1    0    0  501    0  0.00000000000E+00 -0.00000000000E+00 -0.72132231341E+02  0.72132231341E+02  0.00000000000E+00 0. -1.
         25    2    1    2    0    0  0.97966242116E+02  0.17849493676E+02  0.14063806107E+03  0.21293780849E+03  0.12508979593E+03 0.  0.
          5    1    3    3  502    0 -0.18753612837E+02  0.15290284361E+02 -0.61721029060E+01  0.25319124088E+02  0.41800000000E+01 0.  1.
         -5    1    3    3    0  502  0.11671985495E+03  0.25592093147E+01  0.14681016397E+03  0.18761868441E+03  0.41800000000E+01 0.  1.
        -11    1    1    2    0    0 -0.25642847919E+02  0.31245387142E+02  0.47197203501E+01  0.40695277702E+02  0.00000000000E+00 0.  1.
         11    1    1    2    0    0 -0.72323394198E+02 -0.49094880819E+02  0.88162123735E+02  0.12415128164E+03  0.00000000000E+00 0. -1.
</event>
<event>
 7    1  0.2749315E-009  0.8644654E+02  0.7561462E-02  0.1311692E+00
          1   -1    0    0  501    0  0.00000000000E+00  0.00000000000E+00  0.27001414839E+03  0.27001414839E+03  0.00000000000E+00 0. -1.
         -1   -1    0    0    0  501 -0.00000000000E+00 -0.00000000000E+00 -0.37912824111E+03  0.37912824111E+03  0.00000000000E+00 0.  1.
         25    2    1    2    0    0 -0.21417670621E+02  0.26111096030E+02 -0.35852679853E+03  0.38121949289E+03  0.12508529307E+03 0.  0.
          5    1    3    3  502    0 -0.54379810887E+01 -0.24874193109E+02 -0.85786821135E+01  0.27191235867E+02  0.41800000000E+01 0.  1.
         -5    1    3    3    0  502 -0.15979689533E+02  0.50985289139E+02 -0.34994811642E+03  0.35402825702E+03  0.41800000000E+01 0.  1.
        -11    1    1    2    0    0  0.13455662039E+02 -0.58559521007E+02  0.19523060885E+03  0.20426762585E+03  0.00000000000E+00 0.  1.
         11    1    1    2    0    0  0.79620085823E+01  0.32448424977E+02  0.54182096963E+02  0.63655270760E+02  0.00000000000E+00 0. -1.
</event>
<event>
 7    1  0.2749315E-009  0.1264631E+03  0.7561462E-02  0.1232800E+00
         -4   -1    0    0    0  501 -0.00000000000E+00  0.00000000000E+00  0.26992290738E+03  0.26992290738E+03  0.00000000000E+00 0.  1.
          4   -1    0    0  501    0  0.00000000000E+00 -0.00000000000E+00 -0.77202235246E+02  0.77202235246E+02  0.00000000000E+00 0. -1.
         25    2    1    2    0    0  0.92912031308E+02 -0.10765612375E+02  0.10115945048E+03  0.18608857172E+03  0.12508868107E+03 0.  0.
          5    1    3    3  502    0 -0.17794794572E+02 -0.34855781744E+02  0.44288381567E+02  0.59249585456E+02  0.41800000000E+01 0.  1.
         -5    1    3    3    0  502  0.11070682588E+03  0.24090169369E+02  0.56871068912E+02  0.12683898626E+03  0.41800000000E+01 0.  1.
        -11    1    1    2    0    0 -0.74349726060E+02  0.23160266857E+02  0.10811993549E+03  0.13324488799E+03  0.00000000000E+00 0.  1.
         11    1    1    2    0    0 -0.18562305248E+02 -0.12394654482E+02 -0.16558713830E+02  0.27791682920E+02  0.00000000000E+00 0. -1.
</event>
<event>
 7    1  0.2749315E-009  0.1087690E+03  0.7561462E-02  0.1262867E+00
         -2   -1    0    0    0  501 -0.00000000000E+00  0.00000000000E+00  0.26904704428E+03  0.26904704428E+03  0.00000000000E+00 0. -1.
          2   -1    0    0  501    0  0.00000000000E+00 -0.00000000000E+00 -0.79732988611E+02  0.79732988611E+02  0.00000000000E+00 0.  1.
         25    2    1    2    0    0  0.17479094505E+02  0.80771338517E+02  0.16208694364E+03  0.22079406355E+03  0.12509321856E+03 0.  0.
          5    1    3    3  502    0  0.18525355425E+02  0.96042341740E+02  0.17487520995E+03  0.20041489879E+03  0.41800000000E+01 0. -1.
         -5    1    3    3    0  502 -0.10462609203E+01 -0.15271003223E+02 -0.12788266310E+02  0.20379164766E+02  0.41800000000E+01 0. -1.
        -11    1    1    2    0    0  0.21233412829E+02 -0.10847450335E+02 -0.23373924294E+02  0.33389599219E+02  0.00000000000E+00 0.  1.
         11    1    1    2    0    0 -0.38712507333E+02 -0.69923888182E+02  0.50601036320E+02  0.94596370117E+02  0.00000000000E+00 0. -1.
</event>
<event>
 7    1  0.2749315E-009  0.1382599E+03  0.7561462E-02  0.1215690E+00
          1   -1    0    0  501    0  0.00000000000E+00  0.00000000000E+00  0.12571782232E+03  0.12571782232E+03  0.00000000000E+00 0. -1.
         -1   -1    0    0    0  501 -0.00000000000E+00 -0.00000000000E+00 -0.18008096588E+03  0.18008096588E+03  0.00000000000E+00 0.  1.
         25    2    1    2    0    0 -0.39686980759E+02 -0.80858497836E+02  0.23083713271E+02  0.15586306604E+03  0.12508910593E+03 0.  0.
          5    1    3    3  502    0 -0.64279593180E+02 -0.10040238605E+03  0.50385889064E+01  0.11939583327E+03  0.41800000000E+01 0. -1.
         -5    1    3    3    0  502  0.24592612422E+02  0.19543888217E+02  0.18045124364E+02  0.36467232767E+02  0.41800000000E+01 0. -1.
        -11    1    1    2    0    0  0.55663483396E+02  0.14827719191E+02 -0.20034197495E+02  0.60988963834E+02  0.00000000000E+00 0.  1.
         11    1    1    2    0    0 -0.15976502638E+02  0.66030778645E+02 -0.57412659336E+02  0.88946758328E+02  0.00000000000E+00 0. -1.
</event>
<event>
 7    1  0.2749315E-009  0.1084392E+03  0.7561462E-02  0.1263488E+00
          1   -1    0    0  501    0  0.00000000000E+00  0.00000000000E+00  0.89660060999E+03  0.89660060999E+03  0.00000000000E+00 0. -1.
         -1   -1    0    0    0  501 -0.00000000000E+00 -0.00000000000E+00 -0.21396710534E+02  0.21396710534E+02  0.00000000000E+00 0.  1.
         25    2    1    2    0    0 -0.40484838888E+02 -0.56164366243E+02  0.64713788148E+03  0.66274284376E+03  0.12508869289E+03 0.  0.
          5    1    3    3  502    0 -0.65609970361E+02 -0.72977194095E+02  0.33461764475E+03  0.34873597412E+03  0.41800000000E+01 0. -1.
         -5    1    3    3    0  502  0.25125131473E+02  0.16812827852E+02  0.31252023673E+03  0.31400686964E+03  0.41800000000E+01 0. -1.
        -11    1    1    2    0    0  0.41879496984E+02  0.11472517411E+02  0.31442701510E+02  0.53611140649E+02  0.00000000000E+00 0.  1.
         11    1    1    2    0    0 -0.13946580966E+01  0.44691848832E+02  0.19662331646E+03  0.20164333611E+03  0.00000000000E+00 0. -1.
</event>
<event>
 7    1  0.2749315E-009  0.8325361E+02  0.7561462E-02  0.1320064E+00
          2   -1    0    0  501    0  0.00000000000E+00  0.00000000000E+00  0.91887806668E+02  0.91887806668E+02  0.00000000000E+00 0. -1.
         -2   -1    0    0    0  501 -0.00000000000E+00 -0.00000000000E+00 -0.14537220798E+03  0.14537220798E+03  0.00000000000E+00 0.  1.
         25    2    1    2    0    0  0.87620961618E+01 -0.15312506186E+02  0.10802869430E+02  0.12679348083E+03  0.12509451474E+03 0.  0.
          5    1    3    3  502    0  0.66375879506E+02 -0.77930762522E+01 -0.26230207115E+01  0.67013745271E+02  0.41800000000E+01 0. -1.
         -5    1    3    3    0  502 -0.57613783344E+02 -0.75194299334E+01  0.13425890141E+02  0.59779735561E+02  0.41800000000E+01 0. -1.
        -11    1    1    2    0    0 -0.23003166298E+02  0.14143223856E+02 -0.82793523900E+02  0.87085842939E+02  0.00000000000E+00 0.  1.
         11    1    1    2    0    0  0.14241070136E+02  0.11692823299E+01  0.18506253160E+02  0.23380690875E+02  0.00000000000E+00 0. -1.
</event>
<event>
 7    1  0.2749315E-009  0.9577390E+02  0.7561462E-02  0.1289443E+00
         -2   -1    0    0    0  501 -0.00000000000E+00  0.00000000000E+00  0.13240131344E+02  0.13240131344E+02  0.00000000000E+00 0.  1.
          2   -1    0    0  501    0  0.00000000000E+00 -0.00000000000E+00 -0.13309391204E+04  0.13309391204E+04  0.00000000000E+00 0. -1.
         25    2    1    2    0    0  0.46627014130E+02  0.19438323344E+01 -0.10239973111E+04  0.10326651970E+04  0.12509619909E+03 0.  0.
          5    1    3    3  502    0  0.66301556656E+02 -0.48337218005E+01 -0.99220899767E+03  0.99444227019E+03  0.41800000000E+01 0.  1.
         -5    1    3    3    0  502 -0.19674542526E+02  0.67775541349E+01 -0.31788313451E+02  0.38222926834E+02  0.41800000000E+01 0.  1.
        -11    1    1    2    0    0 -0.95436672138E+00  0.41007113962E+02 -0.12336885576E+03  0.13000911039E+03  0.00000000000E+00 0. -1.
         11    1    1    2    0    0 -0.45672647409E+02 -0.42950946296E+02 -0.17033282217E+03  0.18150494433E+03  0.00000000000E+00 0.  1.
</event>
<event>
 7    1  0.2749315E-009  0.1113096E+03  0.7561462E-02  0.1258164E+00
          2   -1    0    0  501    0  0.00000000000E+00  0.00000000000E+00  0.25673230420E+03  0.25673230420E+03  0.00000000000E+00 0. -1.
         -2   -1    0    0    0  501 -0.00000000000E+00 -0.00000000000E+00 -0.52259328131E+02  0.52259328131E+02  0.00000000000E+00 0.  1.
         25    2    1    2    0    0 -0.78230109023E+01  0.13439804201E+02  0.14863385629E+03  0.19488735372E+03  0.12508888666E+03 0.  0.
          5    1    3    3  502    0  0.12664660490E+02 -0.52599262259E+02  0.84887056130E+02  0.10074899858E+03  0.41800000000E+01 0.  1.
         -5    1    3    3    0  502 -0.20487671392E+02  0.66039066460E+02  0.63746800161E+02  0.94138355141E+02  0.41800000000E+01 0.  1.
        -11    1    1    2    0    0 -0.26309754541E+02  0.32524414420E+02  0.28800425941E+02  0.50788829990E+02  0.00000000000E+00 0. -1.
         11    1    1    2    0    0  0.34132765444E+02 -0.45964218621E+02  0.27038693838E+02  0.63315448626E+02  0.00000000000E+00 0.  1.
</event>
<event>
 7    1  0.2749315E-009  0.4887143E+02  0.7561462E-02  0.1451526E+00
          1   -1    0    0  501    0  0.00000000000E+00  0.00000000000E+00  0.37711107260E+03  0.37711107260E+03  0.00000000000E+00 0. -1.
         -1   -1    0    0    0  501 -0.00000000000E+00 -0.00000000000E+00 -0.35134668740E+02  0.35134668740E+02  0.00000000000E+00 0.  1.
         25    2    1    2    0    0  0.87438531287E+01 -0.22584846140E+02  0.11990042465E+03  0.17495788941E+03  0.12509045125E+03 0.  0.
          5    1    3    3  502    0  0.89350346377E+01 -0.14048411300E+02  0.14609059776E+03  0.14709564187E+03  0.41800000000E+01 0. -1.
         -5    1    3    3    0  502 -0.19118150901E+00 -0.85364348404E+01 -0.26190173114E+02  0.27862247539E+02  0.41800000000E+01 0. -1.
        -11    1    1    2    0    0 -0.23800077273E+02 -0.16649829858E+02  0.15808595180E+03  0.16073216439E+03  0.00000000000E+00 0. -1.
         11    1    1    2    0    0  0.15056224144E+02  0.39234675999E+02  0.63990027405E+02  0.76555687532E+02  0.00000000000E+00 0.  1.
</event>
<event>
 7    1  0.2749315E-009  0.8997641E+02  0.7561462E-02  0.1302909E+00
         -2   -1    0    0    0  501 -0.00000000000E+00  0.00000000000E+00  0.79882763051E+02  0.79882763051E+02  0.00000000000E+00 0.  1.
          2   -1    0    0  501    0  0.00000000000E+00 -0.00000000000E+00 -0.19053073950E+03  0.19053073950E+03  0.00000000000E+00 0. -1.
         25    2    1    2    0    0 -0.20095227162E+02 -0.65771223716E+01 -0.12177139142E+03  0.17584849622E+03  0.12508934872E+03 0.  0.
          5    1    3    3  502    0 -0.50269570473E+02 -0.23614916901E+02 -0.72991531283E+01  0.56173339336E+02  0.41800000000E+01 0.  1.
         -5    1    3    3    0  502  0.30174343311E+02  0.17037794529E+02 -0.11447223829E+03  0.11967515689E+03  0.41800000000E+01 0.  1.
        -11    1    1    2    0    0 -0.25688801473E+02  0.28688069501E+02 -0.95563185400E+01  0.39676732184E+02  0.00000000000E+00 0. -1.
         11    1    1    2    0    0  0.45784028635E+02 -0.22110947129E+02  0.20679733506E+02  0.54888274147E+02  0.00000000000E+00 0.  1.
</event>
<event>
 7    1  0.2749315E-009  0.1228133E+03  0.7561462E-02  0.1238527E+00
          2   -1    0    0  501    0  0.00000000000E+00  0.00000000000E+00  0.37725740441E+02  0.37725740441E+02  0.00000000000E+00 0. -1.
         -2   -1    0    0    0  501 -0.00000000000E+00 -0.00000000000E+00 -0.60189016703E+03  0.60189016703E+03  0.00000000000E+00 0.  1.
         25    2    1    2    0    0 -0.93254693229E+02  0.46755280771E+02 -0.31461964589E+03  0.35428126002E+03  0.12508875062E+03 0.  0.
          5    1    3    3  502    0 -0.69932357128E+02  0.57209912211E+02 -0.88025677653E+02  0.12621212681E+03  0.41800000000E+01 0. -1.
         -5    1    3    3    0  502 -0.23322336101E+02 -0.10454631439E+02 -0.22659396824E+03  0.22806913321E+03  0.41800000000E+01 0. -1.
        -11    1    1    2    0    0  0.10687366667E+03 -0.40454566487E+02 -0.17301047067E+03  0.20734313477E+03  0.00000000000E+00 0. -1.
         11    1    1    2    0    0 -0.13618973438E+02 -0.63007142841E+01 -0.76534310032E+02  0.77991512679E+02  0.00000000000E+00 0.  1.
</event>
<event>
 7    1  0.2749315E-009  0.1518258E+03  0.7561462E-02  0.1198247E+00
         -1   -1    0    0    0  501 -0.00000000000E+00  0.00000000000E+00  0.52898350844E+02  0.52898350844E+02  0.00000000000E+00 0.  1.
          1   -1    0    0  501    0  0.00000000000E+00 -0.00000000000E+00 -0.61232140598E+03  0.61232140598E+03  0.00000000000E+00 0. -1.
         25    2    1    2    0    0 -0.90214530456E+02 -0.11109091360E+03 -0.27958481605E+03  0.33807457829E+03  0.12508756345E+03 0.  0.
          5    1    3    3  502    0 -0.64872560628E+02 -0.62799325381E+02 -0.52567827872E+02  0.10456124195E+03  0.41800000000E+01 0. -1.
         -5    1    3    3    0  502 -0.25341969828E+02 -0.48291588224E+02 -0.22701698818E+03  0.23351333634E+03  0.41800000000E+01 0. -1.
        -11    1    1    2    0    0  0.74138789642E+02  0.37198816683E+02 -0.20320759459E+03  0.21948493933E+03  0.00000000000E+00 0. -1.
         11    1    1    2    0    0  0.16075740814E+02  0.73892096922E+02 -0.76630644494E+02  0.10766023921E+03  0.00000000000E+00 0.  1.
</event>
<event>
 7    1  0.2749315E-009  0.9616065E+02  0.7561462E-02  0.1288583E+00
          1   -1    0    0  501    0  0.00000000000E+00  0.00000000000E+00  0.37438383027E+02  0.37438383027E+02  0.00000000000E+00 0. -1.
         -1   -1    0    0    0  501 -0.00000000000E+00 -0.00000000000E+00 -0.45150982190E+03  0.45150982190E+03  0.00000000000E+00 0.  1.
         25    2    1    2    0    0 -0.22913868392E+02  0.14206917502E+02 -0.38405713727E+03  0.40481362624E+03  0.12508918989E+03 0.  0.
          5    1    3    3  502    0 -0.31399382301E+02 -0.48288771440E+02 -0.25026999771E+03  0.25684678470E+03  0.41800000000E+01 0. -1.
         -5    1    3    3    0  502  0.84855139095E+01  0.62495688943E+02 -0.13378713956E+03  0.14796684154E+03  0.41800000000E+01 0. -1.
        -11    1    1    2    0    0 -0.20132716636E+02  0.94539146646E+01  0.62202844209E+01  0.23095339788E+02  0.00000000000E+00 0. -1.
         11    1    1    2    0    0  0.43046585028E+02 -0.23660832167E+02 -0.36234586019E+02  0.61039238899E+02  0.00000000000E+00 0.  1.
</event>
<event>
 7    1  0.2749315E-009  0.1033036E+03  0.7561462E-02  0.1273498E+00
          3   -1    0    0  501    0  0.00000000000E+00  0.00000000000E+00  0.22956659585E+03  0.22956659585E+03  0.00000000000E+00 0. -1.
         -3   -1    0    0    0  501 -0.00000000000E+00 -0.00000000000E+00 -0.11133852929E+03  0.11133852929E+03  0.00000000000E+00 0.  1.
         25    2    1    2    0    0  0.86285499243E+01 -0.11153781123E+02 -0.59579956813E+02  0.13927676712E+03  0.12509751356E+03 0.  0.
          5    1    3    3  502    0  0.42253612036E+02 -0.49983253734E+02 -0.75029036463E+01  0.66011054734E+02  0.41800000000E+01 0.  1.
         -5    1    3    3    0  502 -0.33625062111E+02  0.38829472611E+02 -0.52077053166E+02  0.73265712388E+02  0.41800000000E+01 0.  1.
        -11    1    1    2    0    0 -0.44516259853E+02 -0.12825915485E+02  0.57676114842E+02  0.73977940784E+02  0.00000000000E+00 0.  1.
         11    1    1    2    0    0  0.35887709929E+02  0.23979696608E+02  0.12013190853E+03  0.12765041723E+03  0.00000000000E+00 0. -1.
</event>
<event>
 7    1  0.2749315E-009  0.1809042E+03  0.7561462E-02  0.1166931E+00
          4   -1    0    0  501    0  0.00000000000E+00  0.00000000000E+00  0.14823646945E+03  0.14823646945E+03  0.00000000000E+00 0. -1.
         -4   -1    0    0    0  501 -0.00000000000E+00 -0.00000000000E+00 -0.45499749191E+03  0.45499749191E+03  0.00000000000E+00 0.  1.
         25    2    1    2    0    0 -0.29142924150E+02 -0.16675716469E+03 -0.34776636850E+03  0.40650535996E+03  0.12509156091E+03 0.  0.
          5    1    3    3  502    0 -0.39783256935E+02 -0.99985577581E+02 -0.31165909843E+03  0.32974033616E+03  0.41800000000E+01 0.  1.
         -5    1    3    3    0  502  0.10640332785E+02 -0.66771587105E+02 -0.36107270066E+02  0.76765023793E+02  0.41800000000E+01 0.  1.
        -11    1    1    2    0    0  0.54804699383E+02  0.13391565096E+03  0.10495030191E+02  0.14507619483E+03  0.00000000000E+00 0.  1.
         11    1    1    2    0    0 -0.25661775233E+02  0.32841513723E+02  0.30510315844E+02  0.51652406571E+02  0.00000000000E+00 0. -1.
</event>
<event>
 7    1  0.2749315E-009  0.1296938E+03  0.7561462E-02  0.1227911E+00
          1   -1    0    0  501    0  0.00000000000E+00  0.00000000000E+00  0.52163667635E+03  0.52163667635E+03  0.00000000000E+00 0. -1.
         -1   -1    0    0    0  501 -0.00000000000E+00 -0.00000000000E+00 -0.67112422050E+02  0.67112422050E+02  0.00000000000E+00 0.  1.
         25    2    1    2    0    0  0.77887230750E+02  0.48976815198E+02  0.47877157250E+02  0.16249529100E+03  0.12508936114E+03 0.  0.
          5    1    3    3  502    0 -0.20408386309E+02 -0.23100334469E+02  0.21219003684E+02  0.37654298582E+02  0.41800000000E+01 0.  1.
         -5    1    3    3    0  502  0.98295617059E+02  0.72077149668E+02  0.26658153565E+02  0.12484099242E+03  0.41800000000E+01 0.  1.
        -11    1    1    2    0    0 -0.63837360223E+02 -0.60648979039E+02  0.39475844750E+03  0.40445981146E+03  0.00000000000E+00 0. -1.
         11    1    1    2    0    0 -0.14049870528E+02  0.11672163841E+02  0.11888649556E+02  0.21793995935E+02  0.00000000000E+00 0.  1.
</event>
<event>
 7    1  0.2749315E-009  0.3606044E+03  0.7561462E-02  0.1058345E+00
         -2   -1    0    0    0  501 -0.00000000000E+00  0.00000000000E+00  0.16512267760E+03  0.16512267760E+03  0.00000000000E+00 0.  1.
          2   -1    0    0  501    0  0.00000000000E+00 -0.00000000000E+00 -0.93629641782E+03  0.93629641782E+03  0.00000000000E+00 0. -1.
         25    2    1    2    0    0 -0.35067496397E+03 -0.15678228540E+02 -0.19513661269E+03  0.42064883464E+03  0.12509359403E+03 0.  0.
          5    1    3    3  502    0 -0.21194366949E+03  0.27082616232E+02 -0.59276811691E+02  0.22177646391E+03  0.41800000000E+01 0.  1.
         -5    1    3    3    0  502 -0.13873129448E+03 -0.42760844772E+02 -0.13585980100E+03  0.19887237073E+03  0.41800000000E+01 0.  1.
        -11    1    1    2    0    0  0.29747893769E+03  0.46036289079E+02 -0.46416509116E+03  0.55322896719E+03  0.00000000000E+00 0. -1.
         11    1    1    2    0    0  0.53196026279E+02 -0.30358060538E+02 -0.11187203636E+03  0.12754129359E+03  0.00000000000E+00 0.  1.
</event>
<event>
 7    1  0.2749315E-009  0.9524499E+02  0.7561462E-02  0.1290625E+00
         -1   -1    0    0    0  501 -0.00000000000E+00  0.00000000000E+00  0.26464328887E+03  0.26464328887E+03  0.00000000000E+00 0. -1.
          1   -1    0    0  501    0  0.00000000000E+00 -0.00000000000E+00 -0.62977651571E+02  0.62977651571E+02  0.00000000000E+00 0.  1.
         25    2    1    2    0    0  0.49968182493E+02 -0.18044212906E+02  0.56878153293E+02  0.14733360098E+03  0.12509857223E+03 0.  0.
          5    1    3    3  502    0  0.55538490514E+02 -0.40394271450E+02  0.85893676417E+02  0.11005188387E+03  0.41800000000E+01 0.  1.
         -5    1    3    3    0  502 -0.55703080202E+01  0.22350058544E+02 -0.29015523125E+02  0.37281717109E+02  0.41800000000E+01 0.  1.
        -11    1    1    2    0    0 -0.27736891097E+02  0.51275251429E+02  0.47819688311E+02  0.75400325775E+02  0.00000000000E+00 0.  1.
         11    1    1    2    0    0 -0.22231291397E+02 -0.33231038523E+02  0.96967795696E+02  0.10488701369E+03  0.00000000000E+00 0. -1.
</event>
<event>
 7    1  0.2749315E-009  0.1040546E+03  0.7561462E-02  0.1271994E+00
          1   -1    0    0  501    0  0.00000000000E+00  0.00000000000E+00  0.53764277064E+02  0.53764277064E+02  0.00000000000E+00 0. -1.
         -1   -1    0    0    0  501 -0.00000000000E+00 -0.00000000000E+00 -0.33208034882E+03  0.33208034882E+03  0.00000000000E+00 0.  1.
         25    2    1    2    0    0 -0.71580973405E+02 -0.21469695516E+02 -0.15148546368E+03  0.21019045435E+03  0.12508955919E+03 0.  0.
          5    1    3    3  502    0 -0.55890854435E+02  0.28277938583E+02 -0.15757899326E+02  0.64724131598E+02  0.41800000000E+01 0.  1.
         -5    1    3    3    0  502 -0.15690118970E+02 -0.49747634099E+02 -0.13572756435E+03  0.14546632276E+03  0.41800000000E+01 0.  1.
        -11    1    1    2    0    0  0.33626391382E+02 -0.18086642918E+02 -0.11277141161E+03  0.11905986782E+03  0.00000000000E+00 0.  1.
         11    1    1    2    0    0  0.37954582023E+02  0.39556338435E+02 -0.14059196473E+02  0.56594303709E+02  0.00000000000E+00 0. -1.
</event>
<event>
 7    1  0.2749315E-009  0.4389344E+02  0.7561462E-02  0.1481370E+00
          2   -1    0    0  501    0  0.00000000000E+00  0.00000000000E+00  0.12586645871E+03  0.12586645871E+03  0.00000000000E+00 0. -1.
         -2   -1    0    0    0  501 -0.00000000000E+00 -0.00000000000E+00 -0.89522477406E+02  0.89522477406E+02  0.00000000000E+00 0.  1.
         25    2    1    2    0    0 -0.21665937515E+02 -0.11910677161E+02  0.20179782864E+02  0.12908761847E+03  0.12508042424E+03 0.  0.
          5    1    3    3  502    0  0.80603564033E+01  0.95788333538E+01 -0.48960579700E+02  0.50708324349E+02  0.41800000000E+01 0. -1.
         -5    1    3    3    0  502 -0.29726293918E+02 -0.21489510514E+02  0.69140362563E+02  0.78379294126E+02  0.41800000000E+01 0. -1.
        -11    1    1    2    0    0  0.18404196390E+02 -0.60833123356E+01 -0.30524525925E+02  0.36158924440E+02  0.00000000000E+00 0.  1.
         11    1    1    2    0    0  0.32617411253E+01  0.17993989496E+02  0.46688724365E+02  0.50142393201E+02  0.00000000000E+00 0. -1.
</event>
<event>
 7    1  0.2749315E-009  0.1406754E+03  0.7561462E-02  0.1212423E+00
          2   -1    0    0  501    0  0.00000000000E+00  0.00000000000E+00  0.55441337548E+03  0.55441337548E+03  0.00000000000E+00 0. -1.
         -2   -1    0    0    0  501 -0.00000000000E+00 -0.00000000000E+00 -0.46489231085E+02  0.46489231085E+02  0.00000000000E+00 0.  1.
         25    2    1    2    0    0 -0.73336505284E+02  0.65552493085E+02  0.14905931228E+03  0.21804179220E+03  0.12509265450E+03 0.  0.
          5    1    3    3  502    0 -0.14166894455E+02 -0.37452227422E+02  0.38819046156E+02  0.55926388958E+02  0.41800000000E+01 0.  1.
         -5    1    3    3    0  502 -0.59169610829E+02  0.10300472051E+03  0.11024026613E+03  0.16211540324E+03  0.41800000000E+01 0.  1.
        -11    1    1    2    0    0  0.13297529002E+01 -0.48123414915E+02  0.22271900782E+03  0.22786265106E+03  0.00000000000E+00 0. -1.
         11    1    1    2    0    0  0.72006752384E+02 -0.17429078170E+02  0.13614582429E+03  0.15499816330E+03  0.00000000000E+00 0.  1.
</event>
<event>
 7    1  0.2935315E-009  0.8497703E+02  0.7561462E-02  0.1315493E+00
          1   -1    0    0  501    0  0.00000000000E+00  0.00000000000E+00  0.12576822967E+04  0.12576822967E+04  0.00000000000E+00 0. -1.
         -1   -1    0    0    0  501 -0.00000000000E+00 -0.00000000000E+00 -0.12531287277E+02  0.12531287277E+02  0.00000000000E+00 0.  1.
         25    2    1    2    0    0 -0.20639397870E+02  0.57178473526E+02  0.77299349933E+03  0.78540548066E+03  0.12508979362E+03 0.  0.
          5    1    3    3  502    0  0.35640586799E+00  0.65003332483E+01 -0.23710283713E+01  0.80916953118E+01  0.41800000000E+01 0.  1.
         -5    1    3    3    0  502 -0.20995803738E+02  0.50678140278E+02  0.77536452770E+03  0.77731378535E+03  0.41800000000E+01 0.  1.
        -11    1    1    2    0    0 -0.20713133126E+02 -0.62189524374E+02  0.23275570881E+03  0.24180941009E+03  0.00000000000E+00 0. -1.
         11    1    1    2    0    0  0.41352530997E+02  0.50110508482E+01  0.23940180125E+03  0.24299869319E+03  0.00000000000E+00 0.  1.
</event>
<event>
 7    1  0.2749315E-009  0.2029190E+03  0.7561462E-02  0.1147299E+00
          1   -1    0    0  501    0  0.00000000000E+00  0.00000000000E+00  0.40760706875E+02  0.40760706875E+02  0.00000000000E+00 0. -1.
         -1   -1    0    0    0  501 -0.00000000000E+00 -0.00000000000E+00 -0.11529614909E+04  0.11529614909E+04  0.00000000000E+00 0.  1.
         25    2    1    2    0    0 -0.18153207027E+03 -0.39515354603E+02 -0.66283586821E+03  0.69965317633E+03  0.12509125940E+03 0.  0.
          5    1    3    3  502    0 -0.14120152350E+03 -0.77141238791E+02 -0.40215676168E+03  0.43316991392E+03  0.41800000000E+01 0. -1.
         -5    1    3    3    0  502 -0.40330546773E+02  0.37625884188E+02 -0.26067910653E+03  0.26648326241E+03  0.41800000000E+01 0. -1.
        -11    1    1    2    0    0  0.11869169369E+03  0.72078853177E+01 -0.36576431337E+03  0.38460785834E+03  0.00000000000E+00 0. -1.
         11    1    1    2    0    0  0.62840376575E+02  0.32307469285E+02 -0.83600602465E+02  0.10946116312E+03  0.00000000000E+00 0.  1.
</event>
<event>
 7    1  0.2749315E-009  0.1033421E+03  0.7561462E-02  0.1273421E+00
          3   -1    0    0  501    0  0.00000000000E+00  0.00000000000E+00  0.29809474138E+03  0.29809474138E+03  0.00000000000E+00 0. -1.
         -3   -1    0    0    0  501 -0.00000000000E+00 -0.00000000000E+00 -0.47697244677E+02  0.47697244677E+02  0.00000000000E+00 0.  1.
         25    2    1    2    0    0  0.11093380418E+02  0.38369873919E+02  0.18140308850E+03  0.22394043502E+03  0.12508767968E+03 0.  0.
          5    1    3    3  502    0  0.36224753492E+02 -0.32606253549E+02  0.10866093877E+03  0.11916405729E+03  0.41800000000E+01 0. -1.
         -5    1    3    3    0  502 -0.25131373075E+02  0.70976127468E+02  0.72742149732E+02  0.10477637773E+03  0.41800000000E+01 0. -1.
        -11    1    1    2    0    0  0.20797821788E+02  0.11042090762E+02 -0.80869432244E+01  0.24897305281E+02  0.00000000000E+00 0.  1.
         11    1    1    2    0    0 -0.31891202206E+02 -0.49411964681E+02  0.77081351430E+02  0.96954245755E+02  0.00000000000E+00 0. -1.
</event>
<event>
 7    1  0.2749315E-009  0.8773396E+02  0.7561462E-02  0.1308434E+00
         -1   -1    0    0    0  501 -0.00000000000E+00  0.00000000000E+00  0.15657002028E+02  0.15657002028E+02  0.00000000000E+00 0.  1.
          1   -1    0    0  501    0  0.00000000000E+00 -0.00000000000E+00 -0.13843511289E+04  0.13843511289E+04  0.00000000000E+00 0. -1.
         25    2    1    2    0    0 -0.18868892780E+02  0.21854960847E+02 -0.11839716278E+04  0.11909122387E+04  0.12509784311E+03 0.  0.
          5    1    3    3  502    0 -0.43769675730E+02  0.59820463633E+02 -0.50698903722E+03  0.51239596861E+03  0.41800000000E+01 0. -1.
         -5    1    3    3    0  502  0.24900782950E+02 -0.37965502786E+02 -0.67698259058E+03  0.67851627006E+03  0.41800000000E+01 0. -1.
        -11    1    1    2    0    0  0.18060232103E+02 -0.36627038305E+02 -0.18926451496E+03  0.19362016563E+03  0.00000000000E+00 0. -1.
         11    1    1    2    0    0  0.80866067663E+00  0.14772077457E+02  0.45420159281E+01  0.15475726580E+02  0.00000000000E+00 0.  1.
</event>
<event>
 7    1  0.2777249E-009  0.1437993E+03  0.7561462E-02  0.1208306E+00
          2   -1    0    0  501    0  0.00000000000E+00  0.00000000000E+00  0.96917001838E+03  0.96917001838E+03  0.00000000000E+00 0. -1.
         -2   -1    0    0    0  501 -0.00000000000E+00 -0.00000000000E+00 -0.43817771258E+02  0.43817771258E+02  0.00000000000E+00 0.  1.
         25    2    1    2    0    0 -0.73800607465E+02  0.10344351226E+03  0.77709442526E+03  0.79728966750E+03  0.12509187919E+03 0.  0.
          5    1    3    3  502    0 -0.33076589434E+02  0.79884944978E+02  0.19582155135E+03  0.21410095183E+03  0.41800000000E+01 0. -1.
         -5    1    3    3    0  502 -0.40724018031E+02  0.23558567283E+02  0.58127287391E+03  0.58318871566E+03  0.41800000000E+01 0. -1.
        -11    1    1    2    0    0 -0.68597419698E+01 -0.63363334888E+02  0.82139279041E+02  0.10396552039E+03  0.00000000000E+00 0.  1.
         11    1    1    2    0    0  0.80660349435E+02 -0.40080177373E+02  0.66118542819E+02  0.11173260175E+03  0.00000000000E+00 0. -1.
</event>
<event>
 7    1  0.2749315E-009  0.1120072E+03  0.7561462E-02  0.1256897E+00
          1   -1    0    0  501    0  0.00000000000E+00  0.00000000000E+00  0.81880130984E+03  0.81880130984E+03  0.00000000000E+00 0. -1.
         -1   -1    0    0    0  501 -0.00000000000E+00 -0.00000000000E+00 -0.29322134566E+02  0.29322134566E+02  0.00000000000E+00 0.  1.
         25    2    1    2    0    0 -0.93762980592E+02  0.53773587524E+02  0.49794144067E+03  0.52466851395E+03  0.12509306918E+03 0.  0.
          5    1    3    3  502    0 -0.67378878303E+00 -0.43569117634E+01  0.28506922318E+03  0.28513395286E+03  0.41800000000E+01 0. -1.
         -5    1    3    3    0  502 -0.93089191809E+02  0.58130499287E+02  0.21287221749E+03  0.23953456109E+03  0.41800000000E+01 0. -1.
        -11    1    1    2    0    0  0.42221849632E+02 -0.22950025937E+02  0.33647815105E+02  0.58664842437E+02  0.00000000000E+00 0.  1.
         11    1    1    2    0    0  0.51541130960E+02 -0.30823561587E+02  0.25788991950E+03  0.26479008801E+03  0.00000000000E+00 0. -1.
</event>
<event>
 7    1  0.2749315E-009  0.8827240E+02  0.7561462E-02  0.1307090E+00
          1   -1    0    0  501    0  0.00000000000E+00  0.00000000000E+00  0.53106620011E+02  0.53106620011E+02  0.00000000000E+00 0. -1.
         -1   -1    0    0    0  501 -0.00000000000E+00 -0.00000000000E+00 -0.28935583803E+03  0.28935583803E+03  0.00000000000E+00 0.  1.
         25    2    1    2    0    0  0.12796268208E+02  0.36650076838E+02 -0.72856511684E+02  0.14987630244E+03  0.12509141508E+03 0.  0.
          5    1    3    3  502    0 -0.26032524883E+02  0.47918152351E+02 -0.90358689265E+02  0.10562199961E+03  0.41800000000E+01 0.  1.
         -5    1    3    3    0  502  0.38828793091E+02 -0.11268075513E+02  0.17502177581E+02  0.44254302827E+02  0.41800000000E+01 0.  1.
        -11    1    1    2    0    0  0.27712937214E+02 -0.18047524600E+01 -0.12165128220E+03  0.12478100208E+03  0.00000000000E+00 0.  1.
         11    1    1    2    0    0 -0.40509205421E+02 -0.34845324378E+02 -0.41741424143E+02  0.67805153524E+02  0.00000000000E+00 0. -1.
</event>
<event>
 7    1  0.2749315E-009  0.5604554E+02  0.7561462E-02  0.1415218E+00
          2   -1    0    0  501    0  0.00000000000E+00  0.00000000000E+00  0.86272761198E+03  0.86272761198E+03  0.00000000000E+00 0. -1.
         -2   -1    0    0    0  501 -0.00000000000E+00 -0.00000000000E+00 -0.15021724423E+02  0.15021724423E+02  0.00000000000E+00 0.  1.
         25    2    1    2    0    0 -0.11185769418E+02  0.88538271623E+01  0.60534982685E+03  0.61830411888E+03  0.12509220144E+03 0.  0.
          5    1    3    3  502    0 -0.38048572154E+01 -0.19695433339E+01  0.60449685131E+03  0.60452648551E+03  0.41800000000E+01 0. -1.
         -5    1    3    3    0  502 -0.73809122027E+01  0.10823370496E+02  0.85297553661E+00  0.13777633364E+02  0.41800000000E+01 0. -1.
        -11    1    1    2    0    0  0.44039227895E+02 -0.29997356776E+02  0.13033552639E+03  0.14080711789E+03  0.00000000000E+00 0.  1.
         11    1    1    2    0    0 -0.32853458477E+02  0.21143529614E+02  0.11202053431E+03  0.11863809964E+03  0.00000000000E+00 0. -1.
</event>
<event>
 7    1  0.2749315E-009  0.1216745E+03  0.7561462E-02  0.1240360E+00
         -2   -1    0    0    0  501 -0.00000000000E+00  0.00000000000E+00  0.41392255540E+03  0.41392255540E+03  0.00000000000E+00 0.  1.
          2   -1    0    0  501    0  0.00000000000E+00 -0.00000000000E+00 -0.37668830564E+02  0.37668830564E+02  0.00000000000E+00 0. -1.
         25    2    1    2    0    0  0.12041580771E+02  0.58417517605E+02  0.24273292248E+03  0.27950707381E+03  0.12508927463E+03 0.  0.
          5    1    3    3  502    0  0.56074086658E+02  0.72785357275E+02  0.15612370106E+03  0.18120180425E+03  0.41800000000E+01 0. -1.
         -5    1    3    3    0  502 -0.44032505887E+02 -0.14367839670E+02  0.86609221412E+02  0.98305269569E+02  0.41800000000E+01 0. -1.
        -11    1    1    2    0    0 -0.49032768999E+02 -0.41298391461E+02  0.58902626331E+02  0.87059111882E+02  0.00000000000E+00 0.  1.
         11    1    1    2    0    0  0.36991188228E+02 -0.17119126144E+02  0.74618176030E+02  0.85025200267E+02  0.00000000000E+00 0. -1.
</event>
<event>
 7    1  0.2749315E-009  0.1325322E+03  0.7561462E-02  0.1223746E+00
         -2   -1    0    0    0  501 -0.00000000000E+00  0.00000000000E+00  0.28857199968E+03  0.28857199968E+03  0.00000000000E+00 0. -1.
          2   -1    0    0  501    0  0.00000000000E+00 -0.00000000000E+00 -0.70673176162E+02  0.70673176162E+02  0.00000000000E+00 0.  1.
         25    2    1    2    0    0  0.74729084109E+02  0.14359741782E+02  0.53238060168E+02  0.15579052100E+03  0.12508300119E+03 0.  0.
          5    1    3    3  502    0  0.10671211625E+03 -0.67645952935E+01  0.31596246832E+02  0.11157522448E+03  0.41800000000E+01 0.  1.
         -5    1    3    3    0  502 -0.31983032142E+02  0.21124337076E+02  0.21641813337E+02  0.44215296520E+02  0.41800000000E+01 0.  1.
        -11    1    1    2    0    0 -0.84872863953E+02 -0.38588224061E+02  0.12797754043E+03  0.15833731375E+03  0.00000000000E+00 0. -1.
         11    1    1    2    0    0  0.10143779843E+02  0.24228482279E+02  0.36683222917E+02  0.45117341086E+02  0.00000000000E+00 0.  1.
</event>
<event>
 7    1  0.2749315E-009  0.1610561E+03  0.7561462E-02  0.1187510E+00
          2   -1    0    0  501    0  0.00000000000E+00  0.00000000000E+00  0.69603993009E+03  0.69603993009E+03  0.00000000000E+00 0. -1.
         -2   -1    0    0    0  501 -0.00000000000E+00 -0.00000000000E+00 -0.42604968256E+02  0.42604968256E+02  0.00000000000E+00 0.  1.
         25    2    1    2    0    0  0.12245952662E+03 -0.17648871132E+02  0.44406786891E+03  0.47765219696E+03  0.12509009053E+03 0.  0.
          5    1    3    3  502    0 -0.15356987331E+02  0.18357961720E+02  0.24333376086E+02  0.34386587649E+02  0.41800000000E+01 0.  1.
         -5    1    3    3    0  502  0.13781651395E+03 -0.36006832853E+02  0.41973449283E+03  0.44326560931E+03  0.41800000000E+01 0.  1.
        -11    1    1    2    0    0 -0.87999770279E+02  0.55566454283E+02  0.13006983398E+03  0.16658256848E+03  0.00000000000E+00 0. -1.
         11    1    1    2    0    0 -0.34459756339E+02 -0.37917583150E+02  0.79297258944E+02  0.94410132904E+02  0.00000000000E+00 0.  1.
</event>
<event>
 7    1  0.2749315E-009  0.1088104E+03  0.7561462E-02  0.1262789E+00
          3   -1    0    0  501    0  0.00000000000E+00  0.00000000000E+00  0.65258814006E+02  0.65258814006E+02  0.00000000000E+00 0. -1.
         -3   -1    0    0    0  501 -0.00000000000E+00 -0.00000000000E+00 -0.23950070452E+03  0.23950070452E+03  0.00000000000E+00 0.  1.
         25    2    1    2    0    0  0.48580646116E+02 -0.41847458111E+02 -0.92687741429E+02  0.16837443755E+03  0.12509054673E+03 0.  0.
          5    1    3    3  502    0  0.46043101802E+02 -0.83361955297E+02 -0.80676912988E+02  0.12488162196E+03  0.41800000000E+01 0.  1.
         -5    1    3    3    0  502  0.25375443140E+01  0.41514497186E+02 -0.12010828441E+02  0.43492815586E+02  0.41800000000E+01 0.  1.
        -11    1    1    2    0    0  0.31033547028E+00  0.30244889172E+02  0.10076584094E+02  0.31880827720E+02  0.00000000000E+00 0. -1.
         11    1    1    2    0    0 -0.48890981586E+02  0.11602568939E+02 -0.91630733176E+02  0.10450425326E+03  0.00000000000E+00 0.  1.
</event>
<event>
 7    1  0.2749315E-009  0.1129495E+03  0.7561462E-02  0.1255203E+00
          2   -1    0    0  501    0  0.00000000000E+00  0.00000000000E+00  0.73122739240E+02  0.73122739240E+02  0.00000000000E+00 0. -1.
         -2   -1    0    0    0  501 -0.00000000000E+00 -0.00000000000E+00 -0.27242744959E+03  0.27242744959E+03  0.00000000000E+00 0.  1.
         25    2    1    2    0    0 -0.45758295897E+02  0.73973070661E+02 -0.71779741126E+02  0.16843000155E+03  0.12510194786E+03 0.  0.
          5    1    3    3  502    0  0.93155337771E+01 -0.13846959768E+02 -0.61864952801E+02  0.64212633098E+02  0.41800000000E+01 0.  1.
         -5    1    3    3    0  502 -0.55073829674E+02  0.87820030429E+02 -0.99147883259E+01  0.10421736845E+03  0.41800000000E+01 0.  1.
        -11    1    1    2    0    0  0.33101101617E+02 -0.83030863893E+02 -0.13332022499E+03  0.16051196117E+03  0.00000000000E+00 0.  1.
         11    1    1    2    0    0  0.12657194280E+02  0.90577932321E+01  0.57952557635E+01  0.16608226114E+02  0.00000000000E+00 0. -1.
</event>
<event>
 7    1  0.2749315E-009  0.1125002E+03  0.7561462E-02  0.1256009E+00
          2   -1    0    0  501    0  0.00000000000E+00  0.00000000000E+00  0.45143657668E+03  0.45143657668E+03  0.00000000000E+00 0. -1.
         -2   -1    0    0    0  501 -0.00000000000E+00 -0.00000000000E+00 -0.31913641702E+02  0.31913641702E+02  0.00000000000E+00 0.  1.
         25    2    1    2    0    0 -0.25093950464E+01 -0.47336174149E+02  0.28996094546E+03  0.31933000732E+03  0.12508914116E+03 0.  0.
          5    1    3    3  502    0 -0.39281867480E+02  0.23267146984E+02  0.57252205295E+02  0.73346524476E+02  0.41800000000E+01 0. -1.
         -5    1    3    3    0  502  0.36772472434E+02 -0.70603321133E+02  0.23270874016E+03  0.24598348284E+03  0.41800000000E+01 0. -1.
        -11    1    1    2    0    0  0.98205923169E-01  0.73331671497E+02  0.83975983363E+02  0.11148770995E+03  0.00000000000E+00 0.  1.
         11    1    1    2    0    0  0.24111891233E+01 -0.25995497347E+02  0.45586006159E+02  0.52532501110E+02  0.00000000000E+00 0. -1.
</event>
<event>
 7    1  0.2749315E-009  0.1044388E+03  0.7561462E-02  0.1271229E+00
         -3   -1    0    0    0  501 -0.00000000000E+00  0.00000000000E+00  0.26017082014E+03  0.26017082014E+03  0.00000000000E+00 0.  1.
          3   -1    0    0  501    0  0.00000000000E+00 -0.00000000000E+00 -0.53388518963E+02  0.53388518963E+02  0.00000000000E+00 0. -1.
         25    2    1    2    0    0 -0.40879467008E+02 -0.20718226576E+02  0.11510502590E+03  0.17605935492E+03  0.12508938297E+03 0.  0.
          5    1    3    3  502    0 -0.68166354899E+02  0.60307547341E+01  0.16918585460E+02  0.70616803078E+02  0.41800000000E+01 0.  1.
         -5    1    3    3    0  502  0.27286887891E+02 -0.26748981310E+02  0.98186440442E+02  0.10544255184E+03  0.41800000000E+01 0.  1.
        -11    1    1    2    0    0 -0.18470257243E+02 -0.22020972142E+02  0.32782568011E+02  0.43597825429E+02  0.00000000000E+00 0.  1.
         11    1    1    2    0    0  0.59349724252E+02  0.42739198718E+02  0.58894707267E+02  0.93902158761E+02  0.00000000000E+00 0. -1.
</event>
<event>
 7    1  0.2749315E-009  0.9737604E+02  0.7561462E-02  0.1285913E+00
         -2   -1    0    0    0  501 -0.00000000000E+00  0.00000000000E+00  0.13378504723E+02  0.13378504723E+02  0.00000000000E+00 0.  1.
          2   -1    0    0  501    0  0.00000000000E+00 -0.00000000000E+00 -0.96027502795E+03  0.96027502795E+03  0.00000000000E+00 0. -1.
         25    2    1    2    0    0  0.28889854225E+02 -0.13612644041E+01 -0.63813577253E+03  0.65092346800E+03  0.12509044844E+03 0.  0.
          5    1    3    3  502    0  0.40459957746E+02 -0.45992741780E+02 -0.17458975351E+03  0.18507132384E+03  0.41800000000E+01 0.  1.
         -5    1    3    3    0  502 -0.11570103521E+02  0.44631477376E+02 -0.46354601901E+03  0.46585214415E+03  0.41800000000E+01 0.  1.
        -11    1    1    2    0    0  0.29070189470E+02 -0.34519401036E+00 -0.52710889889E+02  0.60196619404E+02  0.00000000000E+00 0.  1.
         11    1    1    2    0    0 -0.57960043696E+02  0.17064584145E+01 -0.25604986081E+03  0.26253344527E+03  0.00000000000E+00 0. -1.
</event>
<event>
 7    1  0.2749315E-009  0.8580318E+02  0.7561462E-02  0.1313345E+00
         -4   -1    0    0    0  501 -0.00000000000E+00  0.00000000000E+00  0.12818351607E+03  0.12818351607E+03  0.00000000000E+00 0.  1.
          4   -1    0    0  501    0  0.00000000000E+00 -0.00000000000E+00 -0.20565323472E+03  0.20565323472E+03  0.00000000000E+00 0. -1.
         25    2    1    2    0    0 -0.39365417893E+02 -0.43223997302E+02 -0.14971303791E+03  0.20365693575E+03  0.12507679118E+03 0.  0.
          5    1    3    3  502    0 -0.42321464042E+02 -0.58348984740E+02 -0.16589296185E+03  0.18092445255E+03  0.41800000000E+01 0. -1.
         -5    1    3    3    0  502  0.29560461495E+01  0.15124987438E+02  0.16179923942E+02  0.22732483203E+02  0.41800000000E+01 0. -1.
        -11    1    1    2    0    0  0.52432381173E+02  0.46370512359E+02  0.86042038594E+02  0.11091713762E+03  0.00000000000E+00 0.  1.
         11    1    1    2    0    0 -0.13066963280E+02 -0.31465150570E+01 -0.13798719331E+02  0.19262677424E+02  0.00000000000E+00 0. -1.
</event>
<event>
 7    1  0.2749315E-009  0.1667005E+03  0.7561462E-02  0.1181333E+00
          2   -1    0    0  501    0  0.00000000000E+00  0.00000000000E+00  0.33110333806E+03  0.33110333806E+03  0.00000000000E+00 0. -1.
         -2   -1    0    0    0  501 -0.00000000000E+00 -0.00000000000E+00 -0.90304809335E+02  0.90304809335E+02  0.00000000000E+00 0.  1.
         25    2    1    2    0    0  0.20412347438E+02  0.13122215884E+03  0.15117764785E+03  0.23693577288E+03  0.12509180775E+03 0.  0.
          5    1    3    3  502    0 -0.51794916090E+02  0.41849423476E+02  0.45360569297E+02  0.80679249036E+02  0.41800000000E+01 0. -1.
         -5    1    3    3    0  502  0.72207263528E+02  0.89372735360E+02  0.10581707855E+03  0.15625652385E+03  0.41800000000E+01 0. -1.
        -11    1    1    2    0    0  0.51587951844E+01 -0.12536911849E+03  0.46137026423E+02  0.13368864666E+03  0.00000000000E+00 0.  1.
         11    1    1    2    0    0 -0.25571142622E+02 -0.58530403456E+01  0.43483854448E+02  0.50783727846E+02  0.00000000000E+00 0. -1.
</event>
<event>
 7    1  0.2749315E-009  0.1068965E+03  0.7561462E-02  0.1266427E+00
         -4   -1    0    0    0  501 -0.00000000000E+00  0.00000000000E+00  0.36319921589E+03  0.36319921589E+03  0.00000000000E+00 0.  1.
          4   -1    0    0  501    0  0.00000000000E+00 -0.00000000000E+00 -0.47146880613E+02  0.47146880613E+02  0.00000000000E+00 0. -1.
         25    2    1    2    0    0 -0.40462913516E+02  0.34676318289E+02  0.96579494859E+02  0.16677940335E+03  0.12509227048E+03 0.  0.
          5    1    3    3  502    0 -0.12317400895E+02  0.65577697779E+02  0.62332999755E+01  0.67145210100E+02  0.41800000000E+01 0.  1.
         -5    1    3    3    0  502 -0.28145512621E+02 -0.30901379490E+02  0.90346194884E+02  0.99634193252E+02  0.41800000000E+01 0.  1.
        -11    1    1    2    0    0  0.27536002011E+02  0.28979930729E+02  0.97481899045E+02  0.10536027920E+03  0.00000000000E+00 0.  1.
         11    1    1    2    0    0  0.12926911505E+02 -0.63656249017E+02  0.12199094137E+03  0.13820641395E+03  0.00000000000E+00 0. -1.
</event>
<event>
 7    1  0.2749315E-009  0.2950903E+03  0.7561462E-02  0.1087721E+00
          2   -1    0    0  501    0  0.00000000000E+00  0.00000000000E+00  0.14513316604E+04  0.14513316604E+04  0.00000000000E+00 0. -1.
         -2   -1    0    0    0  501 -0.00000000000E+00 -0.00000000000E+00 -0.64781337764E+02  0.64781337764E+02  0.00000000000E+00 0.  1.
         25    2    1    2    0    0 -0.26472136721E+03 -0.86884834139E+02  0.82077820239E+03  0.87575733938E+03  0.12509070026E+03 0.  0.
          5    1    3    3  502    0 -0.98867701003E+02  0.28753303598E+02  0.26513662715E+03  0.28445821877E+03  0.41800000000E+01 0.  1.
         -5    1    3    3    0  502 -0.16585366620E+03 -0.11563813774E+03  0.55564157524E+03  0.59129912061E+03  0.41800000000E+01 0.  1.
        -11    1    1    2    0    0  0.21314794768E+03  0.93785513588E+02  0.52474017489E+03  0.57409060374E+03  0.00000000000E+00 0. -1.
         11    1    1    2    0    0  0.51573419524E+02 -0.69006794492E+01  0.41031945303E+02  0.66265054995E+02  0.00000000000E+00 0.  1.
</event>
<event>
 7    1  0.2749315E-009  0.1218958E+03  0.7561462E-02  0.1240002E+00
          3   -1    0    0  501    0  0.00000000000E+00  0.00000000000E+00  0.83047269781E+02  0.83047269781E+02  0.00000000000E+00 0. -1.
         -3   -1    0    0    0  501 -0.00000000000E+00 -0.00000000000E+00 -0.21246052327E+03  0.21246052327E+03  0.00000000000E+00 0.  1.
         25    2    1    2    0    0 -0.15107029836E+02  0.52253463328E+02 -0.13347904989E+02  0.13706330181E+03  0.12509810292E+03 0.  0.
          5    1    3    3  502    0 -0.70086789496E+02  0.34924748298E+02 -0.11316913312E+02  0.79230303751E+02  0.41800000000E+01 0.  1.
         -5    1    3    3    0  502  0.54979759659E+02  0.17328715029E+02 -0.20309916771E+01  0.57832998055E+02  0.41800000000E+01 0.  1.
        -11    1    1    2    0    0 -0.38279139970E+02 -0.33874105467E+02 -0.49442926492E+02  0.71115051558E+02  0.00000000000E+00 0.  1.
         11    1    1    2    0    0  0.53386169806E+02 -0.18379357861E+02 -0.66622422009E+02  0.87329439688E+02  0.00000000000E+00 0. -1.
</event>
<event>
 7    1  0.2749315E-009  0.1206796E+03  0.7561462E-02  0.1241980E+00
          1   -1    0    0  501    0  0.00000000000E+00  0.00000000000E+00  0.12666145511E+04  0.12666145511E+04  0.00000000000E+00 0. -1.
         -1   -1    0    0    0  501 -0.00000000000E+00 -0.00000000000E+00 -0.14198738305E+02  0.14198738305E+02  0.00000000000E+00 0.  1.
         25    2    1    2    0    0  0.73637086001E+02 -0.15455308879E+02  0.80710120807E+03  0.82019568354E+03  0.12508921711E+03 0.  0.
          5    1    3    3  502    0  0.31385769563E+02  0.42159520174E+02  0.57244557759E+03  0.57486859661E+03  0.41800000000E+01 0. -1.
         -5    1    3    3    0  502  0.42251316438E+02 -0.57614829054E+02  0.23465563048E+03  0.24532708693E+03  0.41800000000E+01 0. -1.
        -11    1    1    2    0    0 -0.82970253402E+02 -0.15786529819E+02  0.34231234672E+03  0.35257767965E+03  0.00000000000E+00 0.  1.
         11    1    1    2    0    0  0.93331674013E+01  0.31241838699E+02  0.10300225797E+03  0.10803992617E+03  0.00000000000E+00 0. -1.
</event>
<event>
 7    1  0.2749315E-009  0.1828857E+03  0.7561462E-02  0.1165039E+00
          1   -1    0    0  501    0  0.00000000000E+00  0.00000000000E+00  0.75010419148E+03  0.75010419148E+03  0.00000000000E+00 0. -1.
         -1   -1    0    0    0  501 -0.00000000000E+00 -0.00000000000E+00 -0.50247275158E+02  0.50247275158E+02  0.00000000000E+00 0.  1.
         25    2    1    2    0    0 -0.10741725010E+03 -0.11582317824E+03  0.41653848782E+03  0.46271438012E+03  0.12508721556E+03 0.  0.
          5    1    3    3  502    0 -0.91106593081E+02 -0.14017152002E+03  0.31109379373E+03  0.35319298864E+03  0.41800000000E+01 0. -1.
         -5    1    3    3    0  502 -0.16310657018E+02  0.24348341777E+02  0.10544469409E+03  0.10952139148E+03  0.41800000000E+01 0. -1.
        -11    1    1    2    0    0  0.46830308471E+02  0.11378906586E+02  0.29350469443E+02  0.56427009164E+02  0.00000000000E+00 0.  1.
         11    1    1    2    0    0  0.60586941627E+02  0.10444427166E+03  0.25396795906E+03  0.28121007736E+03  0.00000000000E+00 0. -1.
</event>
<event>
 7    1  0.2749315E-009  0.9013233E+02  0.7561462E-02  0.1302532E+00
          2   -1    0    0  501    0  0.00000000000E+00  0.00000000000E+00  0.41358737743E+02  0.41358737743E+02  0.00000000000E+00 0. -1.
         -2   -1    0    0    0  501 -0.00000000000E+00 -0.00000000000E+00 -0.41726709850E+03  0.41726709850E+03  0.00000000000E+00 0.  1.
         25    2    1    2    0    0  0.29391278555E+02  0.24633958658E+02 -0.31855752815E+03  0.34437850339E+03  0.12508787184E+03 0.  0.
          5    1    3    3  502    0  0.65764401436E+02 -0.68612550336E+01 -0.96009329404E+02  0.11665031954E+03  0.41800000000E+01 0. -1.
         -5    1    3    3    0  502 -0.36373122881E+02  0.31495213691E+02 -0.22254819875E+03  0.22772818385E+03  0.41800000000E+01 0. -1.
        -11    1    1    2    0    0  0.15363487157E+02 -0.17871210345E+01 -0.61890228982E+02  0.63793659424E+02  0.00000000000E+00 0.  1.
         11    1    1    2    0    0 -0.44754765712E+02 -0.22846837623E+02  0.45393963730E+01  0.50453673431E+02  0.00000000000E+00 0. -1.
</event>
<event>
 7    1  0.2749315E-009  0.1097092E+03  0.7561462E-02  0.1261109E+00
         -2   -1    0    0    0  501 -0.00000000000E+00  0.00000000000E+00  0.11028547886E+03  0.11028547886E+03  0.00000000000E+00 0.  1.
          2   -1    0    0  501    0  0.00000000000E+00 -0.00000000000E+00 -0.14360952678E+03  0.14360952678E+03  0.00000000000E+00 0. -1.
         25    2    1    2    0    0  0.12712796619E+02 -0.43263897601E+02  0.21030490498E+02  0.13462634481E+03  0.12509432902E+03 0.  0.
          5    1    3    3  502    0  0.60896818947E+02  0.40017360564E+01 -0.66980926674E+01  0.61536763766E+02  0.41800000000E+01 0. -1.
         -5    1    3    3    0  502 -0.48184022328E+02 -0.47265633658E+02  0.27728583165E+02  0.73089581044E+02  0.41800000000E+01 0. -1.
        -11    1    1    2    0    0  0.33430831000E+02  0.16548543866E+02  0.70315272629E+01  0.37959414394E+02  0.00000000000E+00 0.  1.
         11    1    1    2    0    0 -0.46143627619E+02  0.26715353735E+02 -0.61386065686E+02  0.81309246433E+02  0.00000000000E+00 0. -1.
</event>
<event>
 7    1  0.2749315E-009  0.1134594E+03  0.7561462E-02  0.1254294E+00
         -2   -1    0    0    0  501 -0.00000000000E+00  0.00000000000E+00  0.15077180352E+02  0.15077180352E+02  0.00000000000E+00 0.  1.
          2   -1    0    0  501    0  0.00000000000E+00 -0.00000000000E+00 -0.19376410226E+04  0.19376410226E+04  0.00000000000E+00 0. -1.
         25    2    1    2    0    0  0.68685056343E+02 -0.72984648369E+02 -0.15079998638E+04  0.15164945392E+04  0.12509077580E+03 0.  0.
          5    1    3    3  502    0  0.28300105686E+02 -0.20214290912E+02 -0.84957317570E+02  0.91895221571E+02  0.41800000000E+01 0. -1.
         -5    1    3    3    0  502  0.40384950657E+02 -0.52770357457E+02 -0.14230425463E+04  0.14245993176E+04  0.41800000000E+01 0. -1.
        -11    1    1    2    0    0  0.89054707663E+01 -0.88381612551E+01 -0.94456797002E+01  0.15704819927E+02  0.00000000000E+00 0.  1.
         11    1    1    2    0    0 -0.77590527109E+02  0.81822809624E+02 -0.40511829870E+03  0.42051884383E+03  0.00000000000E+00 0. -1.
</event>
<event>
 7    1  0.2749315E-009  0.9826169E+02  0.7561462E-02  0.1283994E+00
         -3   -1    0    0    0  501 -0.00000000000E+00  0.00000000000E+00  0.15130132255E+03  0.15130132255E+03  0.00000000000E+00 0.  1.
          3   -1    0    0  501    0  0.00000000000E+00 -0.00000000000E+00 -0.11775094951E+03  0.11775094951E+03  0.00000000000E+00 0. -1.
         25    2    1    2    0    0 -0.44488959027E+02 -0.75732073063E+01  0.81041438164E+02  0.15572565715E+03  0.12508455000E+03 0.  0.
          5    1    3    3  502    0 -0.70031508323E+02 -0.16886653853E+02  0.99270977419E+02  0.12272640545E+03  0.41800000000E+01 0.  1.
         -5    1    3    3    0  502  0.25542549296E+02  0.93134465464E+01 -0.18229539256E+02  0.32999251697E+02  0.41800000000E+01 0.  1.
        -11    1    1    2    0    0  0.59102263810E+02 -0.22643721479E+02 -0.11891935413E+02  0.64399020472E+02  0.00000000000E+00 0.  1.
         11    1    1    2    0    0 -0.14613304783E+02  0.30216928785E+02 -0.35599129714E+02  0.48927594446E+02  0.00000000000E+00 0. -1.
</event>
<event>
 7    1  0.2749315E-009  0.9328544E+02  0.7561462E-02  0.1295085E+00
         -1   -1    0    0    0  501 -0.00000000000E+00  0.00000000000E+00  0.61101818771E+03  0.61101818771E+03  0.00000000000E+00 0.  1.
          1   -1    0    0  501    0  0.00000000000E+00 -0.00000000000E+00 -0.21702268729E+02  0.21702268729E+02  0.00000000000E+00 0. -1.
         25    2    1    2    0    0 -0.35122195337E+02 -0.17105389764E+02  0.36596326499E+03  0.38871922927E+03  0.12508942770E+03 0.  0.
          5    1    3    3  502    0  0.25426297231E+02 -0.17579159888E+01  0.28600567011E+03  0.28716946668E+03  0.41800000000E+01 0.  1.
         -5    1    3    3    0  502 -0.60548492568E+02 -0.15347473775E+02  0.79957594877E+02  0.10154976259E+03  0.41800000000E+01 0.  1.
        -11    1    1    2    0    0 -0.30593047630E+02  0.92290103829E+01  0.67771419148E+02  0.74927127593E+02  0.00000000000E+00 0. -1.
         11    1    1    2    0    0  0.65715242967E+02  0.78763793814E+01  0.15558123484E+03  0.16907409957E+03  0.00000000000E+00 0.  1.
</event>
<event>
 7    1  0.2749315E-009  0.1089931E+03  0.7561462E-02  0.1262446E+00
         -1   -1    0    0    0  501 -0.00000000000E+00  0.00000000000E+00  0.36054736128E+02  0.36054736128E+02  0.00000000000E+00 0.  1.
          1   -1    0    0  501    0  0.00000000000E+00 -0.00000000000E+00 -0.49117187477E+03  0.49117187477E+03  0.00000000000E+00 0. -1.
         25    2    1    2    0    0 -0.42393021388E+02  0.61746569249E+02 -0.28409171785E+03  0.31932267215E+03  0.12509619387E+03 0.  0.
          5    1    3    3  502    0 -0.61741254266E+02  0.24021516568E+02 -0.26400377262E+03  0.27222138067E+03  0.41800000000E+01 0.  1.
         -5    1    3    3    0  502  0.19348232877E+02  0.37725052680E+02 -0.20087945227E+02  0.47101291475E+02  0.41800000000E+01 0.  1.
        -11    1    1    2    0    0 -0.32158200632E+01 -0.63285499877E+02 -0.13711466025E+03  0.15104908490E+03  0.00000000000E+00 0. -1.
         11    1    1    2    0    0  0.45608841452E+02  0.15389306278E+01 -0.33910760547E+02  0.56854853856E+02  0.00000000000E+00 0.  1.
</event>
<event>
 7    1  0.2749315E-009  0.5798877E+02  0.7561462E-02  0.1406471E+00
          2   -1    0    0  501    0  0.00000000000E+00  0.00000000000E+00  0.33540410299E+03  0.33540410299E+03  0.00000000000E+00 0. -1.
         -2   -1    0    0    0  501 -0.00000000000E+00 -0.00000000000E+00 -0.42060553922E+02  0.42060553922E+02  0.00000000000E+00 0.  1.
         25    2    1    2    0    0 -0.15857401637E+02 -0.32719238425E+02  0.10689756922E+03  0.16851527401E+03  0.12509317135E+03 0.  0.
          5    1    3    3  502    0  0.13612765750E+02  0.78774290905E+01  0.11619110119E+03  0.11732521330E+03  0.41800000000E+01 0.  1.
         -5    1    3    3    0  502 -0.29470167387E+02 -0.40596667515E+02 -0.92935319625E+01  0.51190060710E+02  0.41800000000E+01 0.  1.
        -11    1    1    2    0    0  0.26327919056E+02  0.21241798751E+02  0.19002000403E+03  0.19300770779E+03  0.00000000000E+00 0. -1.
         11    1    1    2    0    0 -0.10470517419E+02  0.11477439674E+02 -0.35740241847E+01  0.15941675112E+02  0.00000000000E+00 0.  1.
</event>
<event>
 7    1  0.2749315E-009  0.1946779E+03  0.7561462E-02  0.1154309E+00
         -1   -1    0    0    0  501 -0.00000000000E+00  0.00000000000E+00  0.71944791526E+03  0.71944791526E+03  0.00000000000E+00 0.  1.
          1   -1    0    0  501    0  0.00000000000E+00 -0.00000000000E+00 -0.59616397741E+02  0.59616397741E+02  0.00000000000E+00 0. -1.
         25    2    1    2    0    0  0.16462499457E+03 -0.20011426189E+02  0.45646234946E+03  0.50150509493E+03  0.12509051824E+03 0.  0.
          5    1    3    3  502    0  0.17085073421E+03  0.15172277248E+02  0.38492152127E+03  0.42142878558E+03  0.41800000000E+01 0.  1.
         -5    1    3    3    0  502 -0.62257396399E+01 -0.35183703438E+02  0.71540828190E+02  0.80076309354E+02  0.41800000000E+01 0.  1.
        -11    1    1    2    0    0 -0.14278609391E+03 -0.11743425829E+02  0.18728083336E+03  0.23579628328E+03  0.00000000000E+00 0.  1.
         11    1    1    2    0    0 -0.21838900654E+02  0.31754852018E+02  0.16088334694E+02  0.41762934783E+02  0.00000000000E+00 0. -1.
</event>
<event>
 7    1  0.2749315E-009  0.1142848E+03  0.7561462E-02  0.1252835E+00
          1   -1    0    0  501    0  0.00000000000E+00  0.00000000000E+00  0.68453297630E+03  0.68453297630E+03  0.00000000000E+00 0. -1.
         -1   -1    0    0    0  501 -0.00000000000E+00 -0.00000000000E+00 -0.20009034928E+02  0.20009034928E+02  0.00000000000E+00 0.  1.
         25    2    1    2    0    0 -0.34199369208E+02  0.19597603182E+02  0.32575244486E+03  0.35116148220E+03  0.12508424500E+03 0.  0.
          5    1    3    3  502    0 -0.67659750403E+02  0.49704054675E+02  0.23876412476E+03  0.25312865217E+03  0.41800000000E+01 0.  1.
         -5    1    3    3    0  502  0.33460381195E+02 -0.30106451493E+02  0.86988320100E+02  0.98032830037E+02  0.41800000000E+01 0.  1.
        -11    1    1    2    0    0  0.64584552243E+02 -0.23381326548E+02  0.25842051317E+03  0.26739299252E+03  0.00000000000E+00 0.  1.
         11    1    1    2    0    0 -0.30385183035E+02  0.37837233660E+01  0.80350983339E+02  0.85987536505E+02  0.00000000000E+00 0. -1.
</event>
<event>
 7    1  0.2749315E-009  0.1040953E+03  0.7561462E-02  0.1271912E+00
         -2   -1    0    0    0  501 -0.00000000000E+00  0.00000000000E+00  0.38919530371E+02  0.38919530371E+02  0.00000000000E+00 0. -1.
          2   -1    0    0  501    0  0.00000000000E+00 -0.00000000000E+00 -0.32522981377E+03  0.32522981377E+03  0.00000000000E+00 0.  1.
         25    2    1    2    0    0 -0.17980024340E+02 -0.43670832418E+01 -0.19463599081E+03  0.23210720762E+03  0.12509290235E+03 0.  0.
          5    1    3    3  502    0  0.39601401262E+02  0.33572054107E+02 -0.11768534111E+03  0.12869602058E+03  0.41800000000E+01 0. -1.
         -5    1    3    3    0  502 -0.57581425602E+02 -0.37939137349E+02 -0.76950649696E+02  0.10341118704E+03  0.41800000000E+01 0. -1.
        -11    1    1    2    0    0  0.17024354538E+02 -0.39569145694E+02 -0.71978949404E+02  0.83883938247E+02  0.00000000000E+00 0.  1.
         11    1    1    2    0    0  0.95566980161E+00  0.43936228936E+02 -0.19695343183E+02  0.48158198274E+02  0.00000000000E+00 0. -1.
</event>
<event>
 7    1  0.2749315E-009  0.2027258E+03  0.7561462E-02  0.1147459E+00
          1   -1    0    0  501    0  0.00000000000E+00  0.00000000000E+00  0.12281400969E+04  0.12281400969E+04  0.00000000000E+00 0. -1.
         -1   -1    0    0    0  501 -0.00000000000E+00 -0.00000000000E+00 -0.42165707982E+02  0.42165707982E+02  0.00000000000E+00 0.  1.
         25    2    1    2    0    0  0.97284114035E+02  0.17427061171E+03  0.62931009234E+03  0.67194762842E+03  0.12509187850E+03 0.  0.
          5    1    3    3  502    0  0.54728668525E+02  0.12136407894E+03  0.22120856795E+03  0.25821535537E+03  0.41800000000E+01 0.  1.
         -5    1    3    3    0  502  0.42555445510E+02  0.52906532778E+02  0.40810152439E+03  0.41373227305E+03  0.41800000000E+01 0.  1.
        -11    1    1    2    0    0  0.35563579512E+01 -0.17258681190E+02  0.90222813788E+01  0.19796750228E+02  0.00000000000E+00 0.  1.
         11    1    1    2    0    0 -0.10084047199E+03 -0.15701193052E+03  0.54764201522E+03  0.57856142626E+03  0.00000000000E+00 0. -1.
</event>
<event>
 7    1  0.2749315E-009  0.1061874E+03  0.7561462E-02  0.1267798E+00
          2   -1    0    0  501    0  0.00000000000E+00  0.00000000000E+00  0.82436439802E+03  0.82436439802E+03  0.00000000000E+00 0. -1.
         -2   -1    0    0    0  501 -0.00000000000E+00 -0.00000000000E+00 -0.21044212101E+02  0.21044212101E+02  0.00000000000E+00 0.  1.
         25    2    1    2    0    0 -0.10465710276E+02  0.73544075339E+02  0.43064216364E+03  0.45455320720E+03  0.12509069898E+03 0.  0.
          5    1    3    3  502    0 -0.16600987557E+02 -0.12601784657E+02  0.73068875820E+01  0.22478006374E+02  0.41800000000E+01 0.  1.
         -5    1    3    3    0  502  0.61352772807E+01  0.86145859996E+02  0.42333527605E+03  0.43207520083E+03  0.41800000000E+01 0.  1.
        -11    1    1    2    0    0  0.36624869777E+02 -0.13284482129E+02  0.61373414390E+02  0.72694941677E+02  0.00000000000E+00 0.  1.
         11    1    1    2    0    0 -0.26159159501E+02 -0.60259593210E+02  0.31130460789E+03  0.31816046124E+03  0.00000000000E+00 0. -1.
</event>
<event>
 7    1  0.2749315E-009  0.2520363E+03  0.7561462E-02  0.1112025E+00
          1   -1    0    0  501    0  0.00000000000E+00  0.00000000000E+00  0.54452027105E+03  0.54452027105E+03  0.00000000000E+00 0. -1.
         -1   -1    0    0    0  501 -0.00000000000E+00 -0.00000000000E+00 -0.12929086198E+03  0.12929086198E+03  0.00000000000E+00 0.  1.
         25    2    1    2    0    0 -0.23331570242E+03 -0.43115551340E+02  0.15131175890E+03  0.30795748788E+03  0.12508956069E+03 0.  0.
          5    1    3    3  502    0 -0.22620036600E+03 -0.62790951414E+02  0.10546665688E+03  0.25739074822E+03  0.41800000000E+01 0. -1.
         -5    1    3    3    0  502 -0.71153364266E+01  0.19675400075E+02  0.45845102013E+02  0.50566739653E+02  0.41800000000E+01 0. -1.
        -11    1    1    2    0    0  0.17143629184E+03  0.63464486551E+02  0.15858695420E+03  0.24200819254E+03  0.00000000000E+00 0. -1.
         11    1    1    2    0    0  0.61879410585E+02 -0.20348935211E+02  0.10533069597E+03  0.12384545261E+03  0.00000000000E+00 0.  1.
</event>
<event>
 7    1  0.2965957E-009  0.1295977E+03  0.7561462E-02  0.1228054E+00
          4   -1    0    0  501    0  0.00000000000E+00  0.00000000000E+00  0.52928692604E+02  0.52928692604E+02  0.00000000000E+00 0. -1.
         -4   -1    0    0    0  501 -0.00000000000E+00 -0.00000000000E+00 -0.49857362959E+03  0.49857362959E+03  0.00000000000E+00 0.  1.
         25    2    1    2    0    0  0.62382660789E+02 -0.47229478749E+02 -0.82404742544E+02  0.16899869149E+03  0.12509115117E+03 0.  0.
          5    1    3    3  502    0 -0.37495055419E+02 -0.18642325831E+02 -0.34976465484E+02  0.54719658543E+02  0.41800000000E+01 0. -1.
         -5    1    3    3    0  502  0.99877716208E+02 -0.28587152919E+02 -0.47428277060E+02  0.11427903295E+03  0.41800000000E+01 0. -1.
        -11    1    1    2    0    0  0.16544024591E+02  0.26996085903E+02 -0.16777001050E+03  0.17073157244E+03  0.00000000000E+00 0.  1.
         11    1    1    2    0    0 -0.78926685380E+02  0.20233392846E+02 -0.19547018394E+03  0.21177205827E+03  0.00000000000E+00 0. -1.
</event>
<event>
 7    1  0.2749315E-009  0.1416542E+03  0.7561462E-02  0.1211120E+00
         -2   -1    0    0    0  501 -0.00000000000E+00  0.00000000000E+00  0.51989709654E+02  0.51989709654E+02  0.00000000000E+00 0.  1.
          2   -1    0    0  501    0  0.00000000000E+00 -0.00000000000E+00 -0.58227495562E+03  0.58227495562E+03  0.00000000000E+00 0. -1.
         25    2    1    2    0    0  0.67328555459E+02 -0.81645175925E+02 -0.43579616932E+03  0.46558161795E+03  0.12509545415E+03 0.  0.
          5    1    3    3  502    0 -0.21767078088E+02 -0.38923884582E+02 -0.49197222665E+02  0.66533552418E+02  0.41800000000E+01 0. -1.
         -5    1    3    3    0  502  0.89095633546E+02 -0.42721291343E+02 -0.38659894665E+03  0.39904806553E+03  0.41800000000E+01 0. -1.
        -11    1    1    2    0    0  0.47176946520E+00  0.70984254710E+02 -0.44611174215E+02  0.83839989552E+02  0.00000000000E+00 0.  1.
         11    1    1    2    0    0 -0.67800324924E+02  0.10660921214E+02 -0.49877902432E+02  0.84843057771E+02  0.00000000000E+00 0. -1.
</event>
<event>
 7    1  0.2749315E-009  0.8655758E+02  0.7561462E-02  0.1311409E+00
         -1   -1    0    0    0  501 -0.00000000000E+00  0.00000000000E+00  0.22429681128E+02  0.22429681128E+02  0.00000000000E+00 0.  1.
          1   -1    0    0  501    0  0.00000000000E+00 -0.00000000000E+00 -0.14423169419E+04  0.14423169419E+04  0.00000000000E+00 0. -1.
         25    2    1    2    0    0  0.30117377757E+02  0.18721078401E+00 -0.13220508233E+04  0.13282977680E+04  0.12509792010E+03 0.  0.
          5    1    3    3  502    0  0.39476795428E+02 -0.55869298619E+02 -0.57345085047E+03  0.57753194388E+03  0.41800000000E+01 0.  1.
         -5    1    3    3    0  502 -0.93594176710E+01  0.56056509403E+02 -0.74859997287E+03  0.75076582416E+03  0.41800000000E+01 0.  1.
        -11    1    1    2    0    0 -0.21420355265E+02 -0.17864188590E+02 -0.10987583043E+03  0.11336074703E+03  0.00000000000E+00 0. -1.
         11    1    1    2    0    0 -0.86970224926E+01  0.17676977806E+02  0.12039393006E+02  0.23088107946E+02  0.00000000000E+00 0.  1.
</event>
<event>
 7    1  0.2749315E-009  0.1460951E+03  0.7561462E-02  0.1205355E+00
          2   -1    0    0  501    0  0.00000000000E+00  0.00000000000E+00  0.28712601698E+03  0.28712601698E+03  0.00000000000E+00 0. -1.
         -2   -1    0    0    0  501 -0.00000000000E+00 -0.00000000000E+00 -0.88842286293E+02  0.88842286293E+02  0.00000000000E+00 0.  1.
         25    2    1    2    0    0  0.10621790071E+03 -0.18952575092E+02  0.15748635978E+03  0.22823001822E+03  0.12508215366E+03 0.  0.
          5    1    3    3  502    0 -0.19288268739E+02  0.10875008680E+02 -0.24985051685E+01  0.22671966232E+02  0.41800000000E+01 0. -1.
         -5    1    3    3    0  502  0.12550616945E+03 -0.29827583772E+02  0.15998486495E+03  0.20555805199E+03  0.41800000000E+01 0. -1.
        -11    1    1    2    0    0 -0.32603272423E+01  0.36069044311E+02  0.16050923859E+01  0.36251648415E+02  0.00000000000E+00 0.  1.
         11    1    1    2    0    0 -0.10295757347E+03 -0.17116469219E+02  0.39192278520E+02  0.11148663664E+03  0.00000000000E+00 0. -1.
</event>
<event>
 7    1  0.2749315E-009  0.1189623E+03  0.7561462E-02  0.1244819E+00
          2   -1    0    0  501    0  0.00000000000E+00  0.00000000000E+00  0.11313650837E+03  0.11313650837E+03  0.00000000000E+00 0. -1.
         -2   -1    0    0    0  501 -0.00000000000E+00 -0.00000000000E+00 -0.20579546649E+03  0.20579546649E+03  0.00000000000E+00 0.  1.
         25    2    1    2    0    0 -0.10537573301E+03  0.22266569051E+02 -0.63391382760E+02  0.17681848725E+03  0.12508582982E+03 0.  0.
          5    1    3    3  502    0 -0.24183200981E+02  0.38308783562E+02  0.28023593844E+02  0.53433924801E+02  0.41800000000E+01 0.  1.
         -5    1    3    3    0  502 -0.81192532026E+02 -0.16042214511E+02 -0.91414976604E+02  0.12338456245E+03  0.41800000000E+01 0.  1.
        -11    1    1    2    0    0  0.89799691575E+02 -0.11291076117E+02 -0.58102374294E+02  0.10755165692E+03  0.00000000000E+00 0.  1.
         11    1    1    2    0    0  0.15576041432E+02 -0.10975492935E+02  0.28834798925E+02  0.34561830694E+02  0.00000000000E+00 0. -1.
</event>
<event>
 7    1  0.2749315E-009  0.1226801E+03  0.7561462E-02  0.1238740E+00
         -2   -1    0    0    0  501 -0.00000000000E+00  0.00000000000E+00  0.21998525072E+02  0.21998525072E+02  0.00000000000E+00 0. -1.
          2   -1    0    0  501    0  0.00000000000E+00 -0.00000000000E+00 -0.75778046744E+03  0.75778046744E+03  0.00000000000E+00 0.  1.
         25    2    1    2    0    0 -0.68403282786E+02 -0.13047790673E+02 -0.41773355905E+03  0.44158493634E+03  0.12508667278E+03 0.  0.
          5    1    3    3  502    0 -0.60178234268E+02 -0.65887455587E+02 -0.24974768059E+03  0.26524319603E+03  0.41800000000E+01 0. -1.
         -5    1    3    3    0  502 -0.82250485171E+01  0.52839664913E+02 -0.16798587846E+03  0.17634174030E+03  0.41800000000E+01 0. -1.
        -11    1    1    2    0    0  0.70695723435E+02 -0.16628651682E+02 -0.28320255955E+03  0.29236635768E+03  0.00000000000E+00 0.  1.
         11    1    1    2    0    0 -0.22924406494E+01  0.29676442355E+02 -0.34845823773E+02  0.45827698495E+02  0.00000000000E+00 0. -1.
</event>
<event>
 7    1  0.3067748E-009  0.1157470E+03  0.7561462E-02  0.1250283E+00
         -1   -1    0    0    0  501 -0.00000000000E+00  0.00000000000E+00  0.22677958135E+03  0.22677958135E+03  0.00000000000E+00 0.  1.
          1   -1    0    0  501    0  0.00000000000E+00 -0.00000000000E+00 -0.91219651816E+02  0.91219651816E+02  0.00000000000E+00 0. -1.
         25    2    1    2    0    0 -0.29171800256E+01  0.88985558371E+02  0.39460938418E+02  0.15853066179E+03  0.12509142868E+03 0.  0.
          5    1    3    3  502    0  0.82469927927E+01 -0.25619629096E+02  0.33469362349E+02  0.43151464647E+02  0.41800000000E+01 0. -1.
         -5    1    3    3    0  502 -0.11164172818E+02  0.11460518747E+03  0.59915760682E+01  0.11537919714E+03  0.41800000000E+01 0. -1.
        -11    1    1    2    0    0  0.20657458792E+01 -0.60116902028E+02  0.11153465101E+03  0.12672129888E+03  0.00000000000E+00 0.  1.
         11    1    1    2    0    0  0.85143414635E+00 -0.28868656343E+02 -0.15435659895E+02  0.32747272490E+02  0.00000000000E+00 0. -1.
</event>
<event>
 7    1  0.2749315E-009  0.2007737E+03  0.7561462E-02  0.1149088E+00
          1   -1    0    0  501    0  0.00000000000E+00  0.00000000000E+00  0.27579153070E+04  0.27579153070E+04  0.00000000000E+00 0. -1.
         -1   -1    0    0    0  501 -0.00000000000E+00 -0.00000000000E+00 -0.16748717824E+02  0.16748717824E+02  0.00000000000E+00 0.  1.
         25    2    1    2    0    0  0.16043142493E+03  0.82464647579E+02  0.17198531721E+04  0.17338054767E+04  0.12509131648E+03 0.  0.
          5    1    3    3  502    0  0.58311226244E+02 -0.14235507474E+02  0.89648400134E+03  0.89850091031E+03  0.41800000000E+01 0. -1.
         -5    1    3    3    0  502  0.10212019869E+03  0.96700155052E+02  0.82336917073E+03  0.83530456642E+03  0.41800000000E+01 0. -1.
        -11    1    1    2    0    0 -0.11901812956E+03 -0.12896230557E+02  0.62408295135E+03  0.63546137419E+03  0.00000000000E+00 0.  1.
         11    1    1    2    0    0 -0.41413295373E+02 -0.69568417022E+02  0.39723046577E+03  0.40539717391E+03  0.00000000000E+00 0. -1.
</event>
<event>
 7    1  0.2749315E-009  0.1370458E+03  0.7561462E-02  0.1217360E+00
         -1   -1    0    0    0  501 -0.00000000000E+00  0.00000000000E+00  0.88323687090E+02  0.88323687090E+02  0.00000000000E+00 0.  1.
          1   -1    0    0  501    0  0.00000000000E+00 -0.00000000000E+00 -0.23852552856E+03  0.23852552856E+03  0.00000000000E+00 0. -1.
         25    2    1    2    0    0  0.93822106498E+02 -0.31039700630E+01 -0.11171085613E+03  0.19219502083E+03  0.12508952137E+03 0.  0.
          5    1    3    3  502    0  0.11630004500E+03  0.23573164515E+02 -0.70703433815E+02  0.13819494385E+03  0.41800000000E+01 0.  1.
         -5    1    3    3    0  502 -0.22477938502E+02 -0.26677134578E+02 -0.41007422315E+02  0.54000076977E+02  0.41800000000E+01 0.  1.
        -11    1    1    2    0    0 -0.48871000054E+02 -0.35952244449E+02  0.50574877887E+01  0.60881168763E+02  0.00000000000E+00 0.  1.
         11    1    1    2    0    0 -0.44951106444E+02  0.39056214512E+02 -0.43548473132E+02  0.73773026064E+02  0.00000000000E+00 0. -1.
</event>
<event>
 7    1  0.2749315E-009  0.1193570E+03  0.7561462E-02  0.1244162E+00
          2   -1    0    0  501    0  0.00000000000E+00  0.00000000000E+00  0.27932479619E+03  0.27932479619E+03  0.00000000000E+00 0. -1.
         -2   -1    0    0    0  501 -0.00000000000E+00 -0.00000000000E+00 -0.86027069565E+02  0.86027069565E+02  0.00000000000E+00 0.  1.
         25    2    1    2    0    0 -0.60128148275E+02 -0.28047751584E+02 -0.36457956477E+00  0.14161280256E+03  0.12510788283E+03 0.  0.
          5    1    3    3  502    0 -0.95716989197E+02 -0.96901266358E+01  0.16964232840E+02  0.97779845423E+02  0.41800000000E+01 0.  1.
         -5    1    3    3    0  502  0.35588840922E+02 -0.18357624949E+02 -0.17328812405E+02  0.43832957136E+02  0.41800000000E+01 0.  1.
        -11    1    1    2    0    0  0.30987028207E+02  0.54568186269E+02  0.16017539789E+03  0.17202918636E+03  0.00000000000E+00 0. -1.
         11    1    1    2    0    0  0.29141120068E+02 -0.26520434685E+02  0.33486908292E+02  0.51709876829E+02  0.00000000000E+00 0.  1.
</event>
<event>
 7    1  0.2749315E-009  0.1084321E+03  0.7561462E-02  0.1263501E+00
         -1   -1    0    0    0  501 -0.00000000000E+00  0.00000000000E+00  0.19337448797E+03  0.19337448797E+03  0.00000000000E+00 0.  1.
          1   -1    0    0  501    0  0.00000000000E+00 -0.00000000000E+00 -0.70703137281E+02  0.70703137281E+02  0.00000000000E+00 0. -1.
         25    2    1    2    0    0  0.24245394767E+02  0.29439499462E+02  0.47489518348E+02  0.13913186189E+03  0.12509155584E+03 0.  0.
          5    1    3    3  502    0  0.31847905903E+02  0.74517027520E+02  0.14083116091E+02  0.82358260422E+02  0.41800000000E+01 0.  1.
         -5    1    3    3    0  502 -0.76025111362E+01 -0.45077528058E+02  0.33406402257E+02  0.56773601464E+02  0.41800000000E+01 0.  1.
        -11    1    1    2    0    0 -0.54184926524E+02 -0.13265888932E+02  0.71545092580E+02  0.90723152193E+02  0.00000000000E+00 0.  1.
         11    1    1    2    0    0  0.29939531757E+02 -0.16173610530E+02  0.36367397614E+01  0.34222611173E+02  0.00000000000E+00 0. -1.
</event>
<event>
 7    1  0.2749315E-009  0.9127774E+02  0.7561462E-02  0.1299787E+00
         -1   -1    0    0    0  501 -0.00000000000E+00  0.00000000000E+00  0.48000059350E+02  0.48000059350E+02  0.00000000000E+00 0.  1.
          1   -1    0    0  501    0  0.00000000000E+00 -0.00000000000E+00 -0.32835494333E+03  0.32835494333E+03  0.00000000000E+00 0. -1.
         25    2    1    2    0    0  0.53724169926E+02  0.17288542888E+02 -0.12591550308E+03  0.18624519243E+03  0.12508947851E+03 0.  0.
          5    1    3    3  502    0  0.86763741342E+02  0.38090948769E+01 -0.12241011886E+03  0.15014714654E+03  0.41800000000E+01 0. -1.
         -5    1    3    3    0  502 -0.33039571416E+02  0.13479448011E+02 -0.35053842261E+01  0.36098045884E+02  0.41800000000E+01 0. -1.
        -11    1    1    2    0    0 -0.29758763941E+02  0.61590278970E+00 -0.15726928626E+03  0.16006121256E+03  0.00000000000E+00 0. -1.
         11    1    1    2    0    0 -0.23965405984E+02 -0.17904445678E+02  0.28299053590E+01  0.30048597694E+02  0.00000000000E+00 0.  1.
</event>
<event>
 7    1  0.2749315E-009  0.8502266E+02  0.7561462E-02  0.1315373E+00
          3   -1    0    0  501    0  0.00000000000E+00  0.00000000000E+00  0.19907025115E+02  0.19907025115E+02  0.00000000000E+00 0. -1.
         -3   -1    0    0    0  501 -0.00000000000E+00 -0.00000000000E+00 -0.62345157540E+03  0.62345157540E+03  0.00000000000E+00 0.  1.
         25    2    1    2    0    0  0.35408615389E+02  0.79665337835E+00 -0.46972545505E+03  0.48738377372E+03  0.12508611056E+03 0.  0.
          5    1    3    3  502    0 -0.19959804922E+02  0.25116314114E+02 -0.36460535586E+03  0.36603792286E+03  0.41800000000E+01 0.  1.
         -5    1    3    3    0  502  0.55368420311E+02 -0.24319660735E+02 -0.10512009919E+03  0.12134585086E+03  0.41800000000E+01 0.  1.
        -11    1    1    2    0    0 -0.18059819759E+02 -0.34627739659E+02 -0.89065148171E+02  0.97251416763E+02  0.00000000000E+00 0.  1.
         11    1    1    2    0    0 -0.17348795630E+02  0.33831086281E+02 -0.44753947057E+02  0.58723410033E+02  0.00000000000E+00 0. -1.
</event>
<event>
 7    1  0.2749315E-009  0.1054733E+03  0.7561462E-02  0.1269190E+00
         -3   -1    0    0    0  501 -0.00000000000E+00  0.00000000000E+00  0.17938948528E+03  0.17938948528E+03  0.00000000000E+00 0.  1.
          3   -1    0    0  501    0  0.00000000000E+00 -0.00000000000E+00 -0.10666440601E+03  0.10666440601E+03  0.00000000000E+00 0. -1.
         25    2    1    2    0    0 -0.71937493700E+02 -0.28671176917E+02  0.10682472507E+02  0.14750769165E+03  0.12508942598E+03 0.  0.
          5    1    3    3  502    0 -0.64329925881E+02 -0.12924371744E+01  0.61519147467E+02  0.89118391271E+02  0.41800000000E+01 0. -1.
         -5    1    3    3    0  502 -0.76075678195E+01 -0.27378739742E+02 -0.50836674960E+02  0.58389300381E+02  0.41800000000E+01 0. -1.
        -11    1    1    2    0    0  0.92483754839E+02  0.16738538315E+02  0.65468370672E+02  0.11454052179E+03  0.00000000000E+00 0.  1.
         11    1    1    2    0    0 -0.20546261139E+02  0.11932638602E+02 -0.34257639104E+01  0.24005677853E+02  0.00000000000E+00 0. -1.
</event>
<event>
 7    1  0.2749315E-009  0.9882119E+02  0.7561462E-02  0.1282795E+00
         -3   -1    0    0    0  501 -0.00000000000E+00  0.00000000000E+00  0.75294506438E+02  0.75294506438E+02  0.00000000000E+00 0.  1.
          3   -1    0    0  501    0  0.00000000000E+00 -0.00000000000E+00 -0.24238198960E+03  0.24238198960E+03  0.00000000000E+00 0. -1.
         25    2    1    2    0    0 -0.43266855973E+01  0.83476158522E+01 -0.18811647344E+03  0.22611062015E+03  0.12509916894E+03 0.  0.
          5    1    3    3  502    0 -0.39134779922E+02 -0.40091271242E+02 -0.13464048913E+03  0.14589165412E+03  0.41800000000E+01 0. -1.
         -5    1    3    3    0  502  0.34808094325E+02  0.48438887094E+02 -0.53475984314E+02  0.80218966036E+02  0.41800000000E+01 0. -1.
        -11    1    1    2    0    0  0.24331988202E+02  0.29872126080E+02 -0.82864871967E+01  0.39408824348E+02  0.00000000000E+00 0.  1.
         11    1    1    2    0    0 -0.20005302605E+02 -0.38219741932E+02  0.29315477474E+02  0.52157051538E+02  0.00000000000E+00 0. -1.
</event>
<event>
 7    1  0.2749315E-009  0.7070271E+02  0.7561462E-02  0.1357720E+00
         -1   -1    0    0    0  501 -0.00000000000E+00  0.00000000000E+00  0.20857352546E+03  0.20857352546E+03  0.00000000000E+00 0.  1.
          1   -1    0    0  501    0  0.00000000000E+00 -0.00000000000E+00 -0.86557319567E+02  0.86557319567E+02  0.00000000000E+00 0. -1.
         25    2    1    2    0    0  0.94932189991E+01  0.63895768385E+01  0.15236299206E+03  0.19746955161E+03  0.12509514206E+03 0.  0.
          5    1    3    3  502    0  0.23892225589E+02  0.17541372623E+02 -0.11852311222E+02  0.32194531809E+02  0.41800000000E+01 0.  1.
         -5    1    3    3    0  502 -0.14399006590E+02 -0.11151795785E+02  0.16421530328E+03  0.16527501981E+03  0.41800000000E+01 0.  1.
        -11    1    1    2    0    0  0.19822014198E+02  0.36088702027E+02 -0.12030718243E+02  0.42895743872E+02  0.00000000000E+00 0.  1.
         11    1    1    2    0    0 -0.29315233197E+02 -0.42478278866E+02 -0.18316067919E+02  0.54765549544E+02  0.00000000000E+00 0. -1.
</event>
<event>
 7    1  0.2749315E-009  0.1212791E+03  0.7561462E-02  0.1241002E+00
         -2   -1    0    0    0  501 -0.00000000000E+00  0.00000000000E+00  0.16498305051E+03  0.16498305051E+03  0.00000000000E+00 0.  1.
          2   -1    0    0  501    0  0.00000000000E+00 -0.00000000000E+00 -0.10000189628E+03  0.10000189628E+03  0.00000000000E+00 0. -1.
         25    2    1    2    0    0 -0.63668454191E+02 -0.25998240404E+02  0.40292821080E+02  0.14832911832E+03  0.12509370626E+03 0.  0.
          5    1    3    3  502    0 -0.38882506908E+02 -0.73403903542E+02  0.34539843854E+01  0.83242926467E+02  0.41800000000E+01 0. -1.
         -5    1    3    3    0  502 -0.24785947283E+02  0.47405663138E+02  0.36838836694E+02  0.65086191848E+02  0.41800000000E+01 0. -1.
        -11    1    1    2    0    0  0.70747524920E+02 -0.78199581871E+01  0.36691706774E+02  0.80078994589E+02  0.00000000000E+00 0. -1.
         11    1    1    2    0    0 -0.70790707295E+01  0.33818198591E+02 -0.12003373628E+02  0.36576833882E+02  0.00000000000E+00 0.  1.
</event>
<event>
 7    1  0.2749315E-009  0.1462284E+03  0.7561462E-02  0.1205186E+00
          2   -1    0    0  501    0  0.00000000000E+00  0.00000000000E+00  0.61952054669E+03  0.61952054669E+03  0.00000000000E+00 0. -1.
         -2   -1    0    0    0  501 -0.00000000000E+00 -0.00000000000E+00 -0.40268474377E+02  0.40268474377E+02  0.00000000000E+00 0.  1.
         25    2    1    2    0    0 -0.52482842618E+02  0.96898183569E+02  0.36601252379E+03  0.40218951018E+03  0.12509007867E+03 0.  0.
          5    1    3    3  502    0  0.26104568884E+02  0.37778111096E+01  0.15053706001E+02  0.30656269143E+02  0.41800000000E+01 0.  1.
         -5    1    3    3    0  502 -0.78587411502E+02  0.93120372460E+02  0.35095881779E+03  0.37153324104E+03  0.41800000000E+01 0.  1.
        -11    1    1    2    0    0  0.48448730727E+01 -0.96062281952E+02  0.13040332813E+03  0.16203846085E+03  0.00000000000E+00 0.  1.
         11    1    1    2    0    0  0.47637969545E+02 -0.83590161706E+00  0.82836220396E+02  0.95561050032E+02  0.00000000000E+00 0. -1.
</event>
<event>
 7    1  0.2749315E-009  0.8860526E+02  0.7561462E-02  0.1306265E+00
          2   -1    0    0  501    0  0.00000000000E+00  0.00000000000E+00  0.60580405510E+02  0.60580405510E+02  0.00000000000E+00 0. -1.
         -2   -1    0    0    0  501 -0.00000000000E+00 -0.00000000000E+00 -0.25098639973E+03  0.25098639973E+03  0.00000000000E+00 0.  1.
         25    2    1    2    0    0 -0.10837966281E+02 -0.56772524106E+02 -0.96699766644E+02  0.16834058384E+03  0.12508847385E+03 0.  0.
          5    1    3    3  502    0 -0.19732626654E+02 -0.33050453498E+01 -0.11040120931E+03  0.11227733207E+03  0.41800000000E+01 0. -1.
         -5    1    3    3    0  502  0.88946603733E+01 -0.53467478756E+02  0.13701442666E+02  0.56063251768E+02  0.41800000000E+01 0. -1.
        -11    1    1    2    0    0 -0.36792199065E+02  0.17833345536E+02 -0.15508959528E+02  0.43728960091E+02  0.00000000000E+00 0. -1.
         11    1    1    2    0    0  0.47630165345E+02  0.38939178570E+02 -0.78197268051E+02  0.99497261314E+02  0.00000000000E+00 0.  1.
</event>
<event>
 7    1  0.2749315E-009  0.8966142E+02  0.7561462E-02  0.1303674E+00
         -2   -1    0    0    0  501 -0.00000000000E+00  0.00000000000E+00  0.14163871940E+03  0.14163871940E+03  0.00000000000E+00 0.  1.
          2   -1    0    0  501    0  0.00000000000E+00 -0.00000000000E+00 -0.85696790463E+02  0.85696790463E+02  0.00000000000E+00 0. -1.
         25    2    1    2    0    0 -0.10507487679E+02  0.56644466239E+02  0.38014996574E+02  0.14287383713E+03  0.12509512588E+03 0.  0.
          5    1    3    3  502    0  0.26612483329E+00  0.82847207430E+02 -0.13393117112E+02  0.84027249077E+02  0.41800000000E+01 0. -1.
         -5    1    3    3    0  502 -0.10773612512E+02 -0.26202741192E+02  0.51408113686E+02  0.58846588051E+02  0.41800000000E+01 0. -1.
        -11    1    1    2    0    0  0.20513425809E+02 -0.16402974580E+02  0.31329509942E+02  0.40882715256E+02  0.00000000000E+00 0.  1.
         11    1    1    2    0    0 -0.10005938130E+02 -0.40241491659E+02 -0.13402577583E+02  0.43578957476E+02  0.00000000000E+00 0. -1.
</event>
<event>
 7    1  0.2749315E-009  0.8680494E+02  0.7561462E-02  0.1310779E+00
         -1   -1    0    0    0  501 -0.00000000000E+00  0.00000000000E+00  0.13876367365E+03  0.13876367365E+03  0.00000000000E+00 0.  1.
          1   -1    0    0  501    0  0.00000000000E+00 -0.00000000000E+00 -0.11777862638E+03  0.11777862638E+03  0.00000000000E+00 0. -1.
         25    2    1    2    0    0  0.62398932880E+02 -0.43199657517E+01 -0.98186563578E+01  0.14020033296E+03  0.12508972148E+03 0.  0.
          5    1    3    3  502    0  0.74000099544E+02 -0.31385480219E+02  0.33889204387E+02  0.87332775491E+02  0.41800000000E+01 0.  1.
         -5    1    3    3    0  502 -0.11601166664E+02  0.27065514467E+02 -0.43707860744E+02  0.52867557464E+02  0.41800000000E+01 0.  1.
        -11    1    1    2    0    0 -0.41682871830E+02  0.77004918243E+01  0.64179767877E+02  0.76914250845E+02  0.00000000000E+00 0.  1.
         11    1    1    2    0    0 -0.20716061050E+02 -0.33805260726E+01 -0.33376064250E+02  0.39427716226E+02  0.00000000000E+00 0. -1.
</event>
<event>
 7    1  0.2749315E-009  0.4901848E+03  0.7561462E-02  0.1016373E+00
          1   -1    0    0  501    0  0.00000000000E+00  0.00000000000E+00  0.30765398045E+03  0.30765398045E+03  0.00000000000E+00 0. -1.
         -1   -1    0    0    0  501 -0.00000000000E+00 -0.00000000000E+00 -0.13083376624E+04  0.13083376624E+04  0.00000000000E+00 0.  1.
         25    2    1    2    0    0  0.13952323303E+02  0.48319809561E+03  0.18851058008E+01  0.49932454840E+03  0.12508550710E+03 0.  0.
          5    1    3    3  502    0  0.59158710670E+02  0.25429848355E+03 -0.33629816560E+02  0.26327914605E+03  0.41800000000E+01 0. -1.
         -5    1    3    3    0  502 -0.45206387367E+02  0.22889961206E+03  0.35514922361E+02  0.23604540235E+03  0.41800000000E+01 0. -1.
        -11    1    1    2    0    0  0.15004341030E+02 -0.65874046093E+02 -0.87805941492E+02  0.11078990730E+03  0.00000000000E+00 0. -1.
         11    1    1    2    0    0 -0.28956664334E+02 -0.41732404952E+03 -0.91476284623E+03  0.10058771871E+04  0.00000000000E+00 0.  1.
</event>
<event>
 7    1  0.2749315E-009  0.9241298E+02  0.7561462E-02  0.1297111E+00
         -1   -1    0    0    0  501 -0.00000000000E+00  0.00000000000E+00  0.47931891728E+02  0.47931891728E+02  0.00000000000E+00 0.  1.
          1   -1    0    0  501    0  0.00000000000E+00 -0.00000000000E+00 -0.33592704680E+03  0.33592704680E+03  0.00000000000E+00 0. -1.
         25    2    1    2    0    0  0.19128406664E+02 -0.14846931446E+02 -0.68084896955E+02  0.14446287004E+03  0.12509052847E+03 0.  0.
          5    1    3    3  502    0  0.29066698959E+02  0.38934756649E+02  0.92634898962E+01  0.49639428973E+02  0.41800000000E+01 0. -1.
         -5    1    3    3    0  502 -0.99382922944E+01 -0.53781688095E+02 -0.77348386851E+02  0.94823441071E+02  0.41800000000E+01 0. -1.
        -11    1    1    2    0    0  0.10657227169E+02 -0.27466265532E+02 -0.28044941467E+02  0.40675434541E+02  0.00000000000E+00 0.  1.
         11    1    1    2    0    0 -0.29785633833E+02  0.42313196978E+02 -0.19186531665E+03  0.19872063394E+03  0.00000000000E+00 0. -1.
</event>
<event>
 7    1  0.2749315E-009  0.1196001E+03  0.7561462E-02  0.1243758E+00
         -2   -1    0    0    0  501 -0.00000000000E+00  0.00000000000E+00  0.34760078737E+02  0.34760078737E+02  0.00000000000E+00 0. -1.
          2   -1    0    0  501    0  0.00000000000E+00 -0.00000000000E+00 -0.56938416841E+03  0.56938416841E+03  0.00000000000E+00 0.  1.
         25    2    1    2    0    0 -0.39802925332E+02 -0.80064304871E+02 -0.28562954250E+03  0.32438561019E+03  0.12508885948E+03 0.  0.
          5    1    3    3  502    0 -0.67566231992E+02 -0.78889379218E+02 -0.13105257277E+03  0.16727515981E+03  0.41800000000E+01 0.  1.
         -5    1    3    3    0  502  0.27763306660E+02 -0.11749256537E+01 -0.15457696973E+03  0.15711045038E+03  0.41800000000E+01 0.  1.
        -11    1    1    2    0    0  0.21825680475E+02  0.85598142653E+02 -0.24512308300E+03  0.26055465487E+03  0.00000000000E+00 0.  1.
         11    1    1    2    0    0  0.17977244858E+02 -0.55338377818E+01 -0.38714641689E+01  0.19203982089E+02  0.00000000000E+00 0. -1.
</event>
<event>
 7    1  0.2749315E-009  0.1344121E+03  0.7561462E-02  0.1221052E+00
         -2   -1    0    0    0  501 -0.00000000000E+00  0.00000000000E+00  0.30232720111E+03  0.30232720111E+03  0.00000000000E+00 0.  1.
          2   -1    0    0  501    0  0.00000000000E+00 -0.00000000000E+00 -0.65521701890E+02  0.65521701890E+02  0.00000000000E+00 0. -1.
         25    2    1    2    0    0 -0.52486240255E+02 -0.90032774633E+01  0.72533815311E+02  0.15409435414E+03  0.12509217079E+03 0.  0.
          5    1    3    3  502    0 -0.17648020202E+02  0.55707328154E+02  0.50251319815E+02  0.77184367395E+02  0.41800000000E+01 0. -1.
         -5    1    3    3    0  502 -0.34838220053E+02 -0.64710605618E+02  0.22282495496E+02  0.76909986747E+02  0.41800000000E+01 0. -1.
        -11    1    1    2    0    0 -0.39804017623E+02  0.18417246933E+02  0.57335886930E+02  0.72186970663E+02  0.00000000000E+00 0.  1.
         11    1    1    2    0    0  0.92290257878E+02 -0.94139694693E+01  0.10693579698E+03  0.14156757820E+03  0.00000000000E+00 0. -1.
</event>
<event>
 7    1  0.2749315E-009  0.1157416E+03  0.7561462E-02  0.1250292E+00
         -2   -1    0    0    0  501 -0.00000000000E+00  0.00000000000E+00  0.94071786052E+02  0.94071786052E+02  0.00000000000E+00 0.  1.
          2   -1    0    0  501    0  0.00000000000E+00 -0.00000000000E+00 -0.18013516410E+03  0.18013516410E+03  0.00000000000E+00 0. -1.
         25    2    1    2    0    0  0.46269637080E+02 -0.36835440162E+02 -0.41515241836E+01  0.13842926322E+03  0.12509075424E+03 0.  0.
          5    1    3    3  502    0 -0.98993035115E+01  0.40731961708E+02 -0.60051899476E+01  0.42551423253E+02  0.41800000000E+01 0.  1.
         -5    1    3    3    0  502  0.56168940592E+02 -0.77567401870E+02  0.18536657640E+01  0.95877839967E+02  0.41800000000E+01 0.  1.
        -11    1    1    2    0    0 -0.61455712548E+02  0.94422754580E+01 -0.83860587192E+02  0.10439616494E+03  0.00000000000E+00 0. -1.
         11    1    1    2    0    0  0.15186075468E+02  0.27393164704E+02  0.19487333299E+01  0.31381521986E+02  0.00000000000E+00 0.  1.
</event>
<event>
 7    1  0.2749315E-009  0.1536175E+03  0.7561462E-02  0.1196097E+00
          1   -1    0    0  501    0  0.00000000000E+00  0.00000000000E+00  0.10983013864E+03  0.10983013864E+03  0.00000000000E+00 0. -1.
         -1   -1    0    0    0  501 -0.00000000000E+00 -0.00000000000E+00 -0.30980462975E+03  0.30980462975E+03  0.00000000000E+00 0.  1.
         25    2    1    2    0    0  0.12847581572E+02  0.12354007754E+03 -0.10291133647E+02  0.17658033976E+03  0.12508995902E+03 0.  0.
          5    1    3    3  502    0  0.49864199559E+02  0.12895934440E+03 -0.12368272383E+02  0.13887907498E+03  0.41800000000E+01 0.  1.
         -5    1    3    3    0  502 -0.37016617987E+02 -0.54192668655E+01  0.20771387359E+01  0.37701264778E+02  0.41800000000E+01 0.  1.
        -11    1    1    2    0    0  0.15620617902E+02 -0.50955262464E+02 -0.21111434280E+02  0.57324821272E+02  0.00000000000E+00 0. -1.
         11    1    1    2    0    0 -0.28468199474E+02 -0.72584815072E+02 -0.16857192318E+03  0.18572960735E+03  0.00000000000E+00 0.  1.
</event>
<event>
 7    1  0.2749315E-009  0.5990628E+02  0.7561462E-02  0.1398225E+00
          1   -1    0    0  501    0  0.00000000000E+00  0.00000000000E+00  0.46034185719E+03  0.46034185719E+03  0.00000000000E+00 0. -1.
         -1   -1    0    0    0  501 -0.00000000000E+00 -0.00000000000E+00 -0.28291632033E+02  0.28291632033E+02  0.00000000000E+00 0.  1.
         25    2    1    2    0    0 -0.28182404746E+02  0.24326862425E+02  0.21695947437E+03  0.25319110641E+03  0.12509308004E+03 0.  0.
          5    1    3    3  502    0 -0.44085104192E+02  0.15628655328E+02  0.22716886771E+03  0.23197180461E+03  0.41800000000E+01 0. -1.
         -5    1    3    3    0  502  0.15902699446E+02  0.86982070972E+01 -0.10209393342E+02  0.21219301798E+02  0.41800000000E+01 0. -1.
        -11    1    1    2    0    0 -0.88856032277E+01 -0.12510906837E+02 -0.14691926209E+01  0.15415422847E+02  0.00000000000E+00 0.  1.
         11    1    1    2    0    0  0.37068007974E+02 -0.11815955589E+02  0.21655994341E+03  0.22002695997E+03  0.00000000000E+00 0. -1.
</event>
<event>
 7    1  0.2749315E-009  0.1417655E+03  0.7561462E-02  0.1210973E+00
          4   -1    0    0  501    0  0.00000000000E+00  0.00000000000E+00  0.53423860195E+03  0.53423860195E+03  0.00000000000E+00 0.  1.
         -4   -1    0    0    0  501 -0.00000000000E+00 -0.00000000000E+00 -0.46720469527E+02  0.46720469527E+02  0.00000000000E+00 0. -1.
         25    2    1    2    0    0  0.98687827286E+02 -0.42214469493E+02  0.21188022297E+03  0.26844450681E+03  0.12509146918E+03 0.  0.
          5    1    3    3  502    0  0.11037380885E+03  0.56653728183E+01  0.17386761879E+03  0.20606284331E+03  0.41800000000E+01 0. -1.
         -5    1    3    3    0  502 -0.11685981563E+02 -0.47879842312E+02  0.38012604182E+02  0.62381663504E+02  0.41800000000E+01 0. -1.
        -11    1    1    2    0    0 -0.99003718469E+02  0.53260129613E+02  0.27913589425E+03  0.30092395242E+03  0.00000000000E+00 0.  1.
         11    1    1    2    0    0  0.31589118337E+00 -0.11045660120E+02 -0.34979847975E+01  0.11590612252E+02  0.00000000000E+00 0. -1.
</event>
<event>
 7    1  0.2749315E-009  0.1361416E+03  0.7561462E-02  0.1218617E+00
          1   -1    0    0  501    0  0.00000000000E+00  0.00000000000E+00  0.71077609608E+03  0.71077609608E+03  0.00000000000E+00 0. -1.
         -1   -1    0    0    0  501 -0.00000000000E+00 -0.00000000000E+00 -0.34477424260E+02  0.34477424260E+02  0.00000000000E+00 0.  1.
         25    2    1    2    0    0  0.98922880419E+02 -0.43338275620E+02  0.43551078650E+03  0.46581246693E+03  0.12509063431E+03 0.  0.
          5    1    3    3  502    0 -0.10592372989E+02 -0.38414236229E+02  0.22387945478E+03  0.22743644076E+03  0.41800000000E+01 0.  1.
         -5    1    3    3    0  502  0.10951525341E+03 -0.49240393909E+01  0.21163133171E+03  0.23837602618E+03  0.41800000000E+01 0.  1.
        -11    1    1    2    0    0 -0.95118406498E+02  0.17897685669E+02  0.23340796767E+03  0.25267987213E+03  0.00000000000E+00 0. -1.
         11    1    1    2    0    0 -0.38044739210E+01  0.25440589951E+02  0.73799176565E+01  0.26761181280E+02  0.00000000000E+00 0.  1.
</event>
<event>
 7    1  0.2749315E-009  0.1011734E+03  0.7561462E-02  0.1277848E+00
         -1   -1    0    0    0  501 -0.00000000000E+00  0.00000000000E+00  0.15746414599E+03  0.15746414599E+03  0.00000000000E+00 0.  1.
          1   -1    0    0  501    0  0.00000000000E+00 -0.00000000000E+00 -0.12875018642E+03  0.12875018642E+03  0.00000000000E+00 0. -1.
         25    2    1    2    0    0 -0.66657565659E+02 -0.46819702269E+02  0.59592956084E+02  0.16073209510E+03  0.12509264727E+03 0.  0.
          5    1    3    3  502    0 -0.47415212306E+02  0.18038274785E+02  0.75549822153E+02  0.91097912943E+02  0.41800000000E+01 0.  1.
         -5    1    3    3    0  502 -0.19242353353E+02 -0.64857977054E+02 -0.15956866069E+02  0.69634182158E+02  0.41800000000E+01 0.  1.
        -11    1    1    2    0    0  0.61432957199E+01  0.12906531122E+02  0.29971921743E+02  0.33205944059E+02  0.00000000000E+00 0.  1.
         11    1    1    2    0    0  0.60514269939E+02  0.33913171147E+02 -0.60850918254E+02  0.92276293250E+02  0.00000000000E+00 0. -1.
</event>
<event>
 7    1  0.2749315E-009  0.1534807E+03  0.7561462E-02  0.1196260E+00
         -2   -1    0    0    0  501 -0.00000000000E+00  0.00000000000E+00  0.86684286619E+02  0.86684286619E+02  0.00000000000E+00 0.  1.
          2   -1    0    0  501    0  0.00000000000E+00 -0.00000000000E+00 -0.36462897978E+03  0.36462897978E+03  0.00000000000E+00 0. -1.
         25    2    1    2    0    0 -0.22760794827E+02  0.11479295938E+03 -0.24307493748E+03  0.29737211697E+03  0.12509705600E+03 0.  0.
          5    1    3    3  502    0  0.41358758029E+02  0.89315690506E+02 -0.11180604639E+03  0.14901645495E+03  0.41800000000E+01 0. -1.
         -5    1    3    3    0  502 -0.64119552856E+02  0.25477268875E+02 -0.13126889108E+03  0.14835566202E+03  0.41800000000E+01 0. -1.
        -11    1    1    2    0    0 -0.15793045962E+02  0.23795397872E+01 -0.25687158661E+02  0.30247522715E+02  0.00000000000E+00 0. -1.
         11    1    1    2    0    0  0.38553840788E+02 -0.11717249917E+03 -0.91825970252E+01  0.12369362671E+03  0.00000000000E+00 0.  1.
</event>
<event>
 7    1  0.2749315E-009  0.9124106E+02  0.7561462E-02  0.1299874E+00
         -1   -1    0    0    0  501 -0.00000000000E+00  0.00000000000E+00  0.33260574004E+03  0.33260574004E+03  0.00000000000E+00 0.  1.
          1   -1    0    0  501    0  0.00000000000E+00 -0.00000000000E+00 -0.73604062208E+02  0.73604062208E+02  0.00000000000E+00 0. -1.
         25    2    1    2    0    0 -0.36721901966E+01  0.17497817152E+02  0.28118075814E+03  0.30826911378E+03  0.12509024412E+03 0.  0.
          5    1    3    3  502    0 -0.17679271362E+02 -0.33686996533E+02  0.22988250176E+02  0.44646415505E+02  0.41800000000E+01 0.  1.
         -5    1    3    3    0  502  0.14007081166E+02  0.51184813685E+02  0.25819250797E+03  0.26362269828E+03  0.41800000000E+01 0.  1.
        -11    1    1    2    0    0 -0.19362191942E+02 -0.48576716820E+02  0.19823233855E+01  0.52330884761E+02  0.00000000000E+00 0.  1.
         11    1    1    2    0    0  0.23034382138E+02  0.31078899668E+02 -0.24161403702E+02  0.45609803704E+02  0.00000000000E+00 0. -1.
</event>
<event>
 7    1  0.2749315E-009  0.1302372E+03  0.7561462E-02  0.1227104E+00
          4   -1    0    0  501    0  0.00000000000E+00  0.00000000000E+00  0.66551943781E+02  0.66551943781E+02  0.00000000000E+00 0. -1.
         -4   -1    0    0    0  501 -0.00000000000E+00 -0.00000000000E+00 -0.44044893472E+03  0.44044893472E+03  0.00000000000E+00 0.  1.
         25    2    1    2    0    0 -0.86420748760E+02 -0.66701581090E+02 -0.30763473317E+03  0.34958053300E+03  0.12509905382E+03 0.  0.
          5    1    3    3  502    0 -0.55213818057E+02 -0.13569477844E+02 -0.28579726305E+02  0.63772796622E+02  0.41800000000E+01 0.  1.
         -5    1    3    3    0  502 -0.31206930703E+02 -0.53132103247E+02 -0.27905500686E+03  0.28580773638E+03  0.41800000000E+01 0.  1.
        -11    1    1    2    0    0  0.72853253368E+02 -0.79435898416E+00 -0.24344811699E+02  0.76817298762E+02  0.00000000000E+00 0.  1.
         11    1    1    2    0    0  0.13567495392E+02  0.67495940075E+02 -0.41917446070E+02  0.80603046734E+02  0.00000000000E+00 0. -1.
</event>
<event>
 7    1  0.2749315E-009  0.1393707E+03  0.7561462E-02  0.1214178E+00
          2   -1    0    0  501    0  0.00000000000E+00  0.00000000000E+00  0.15195089059E+03  0.15195089059E+03  0.00000000000E+00 0. -1.
         -2   -1    0    0    0  501 -0.00000000000E+00 -0.00000000000E+00 -0.15605571010E+03  0.15605571010E+03  0.00000000000E+00 0.  1.
         25    2    1    2    0    0 -0.21732036893E+02 -0.96509552386E+02 -0.48844362661E+02  0.16679262679E+03  0.12509050108E+03 0.  0.
          5    1    3    3  502    0 -0.65996307115E+02 -0.48613729717E+02 -0.58420384032E+02  0.10074334192E+03  0.41800000000E+01 0.  1.
         -5    1    3    3    0  502  0.44264270222E+02 -0.47895822668E+02  0.95760213714E+01  0.66049284876E+02  0.41800000000E+01 0.  1.
        -11    1    1    2    0    0  0.48815044609E+02  0.24990721231E+02  0.32552663082E+02  0.63773980600E+02  0.00000000000E+00 0. -1.
         11    1    1    2    0    0 -0.27083007717E+02  0.71518831154E+02  0.12186880066E+02  0.77439993301E+02  0.00000000000E+00 0.  1.
</event>
<event>
 7    1  0.2749315E-009  0.7804921E+02  0.7561462E-02  0.1334680E+00
         -1   -1    0    0    0  501 -0.00000000000E+00  0.00000000000E+00  0.20466018763E+03  0.20466018763E+03  0.00000000000E+00 0.  1.
          1   -1    0    0  501    0  0.00000000000E+00 -0.00000000000E+00 -0.62784044143E+02  0.62784044143E+02  0.00000000000E+00 0. -1.
         25    2    1    2    0    0 -0.13552314974E+02  0.49023426837E+00  0.13406513244E+03  0.18386640057E+03  0.12509791346E+03 0.  0.
          5    1    3    3  502    0 -0.39188344366E+02 -0.16384476852E+02 -0.35313184595E+01  0.42826627534E+02  0.41800000000E+01 0. -1.
         -5    1    3    3    0  502  0.25636029393E+02  0.16874711121E+02  0.13759645090E+03  0.14103977303E+03  0.41800000000E+01 0. -1.
        -11    1    1    2    0    0 -0.30008278103E+01 -0.39735943426E+02  0.94434166806E+01  0.40952756758E+02  0.00000000000E+00 0.  1.
         11    1    1    2    0    0  0.16553142784E+02  0.39245709158E+02 -0.16324056317E+01  0.42625074445E+02  0.00000000000E+00 0. -1.
</event>
<event>
 7    1  0.2749315E-009  0.1223659E+03  0.7561462E-02  0.1239244E+00
          4   -1    0    0  501    0  0.00000000000E+00  0.00000000000E+00  0.17937044680E+03  0.17937044680E+03  0.00000000000E+00 0. -1.
         -4   -1    0    0    0  501 -0.00000000000E+00 -0.00000000000E+00 -0.14139655464E+03  0.14139655464E+03  0.00000000000E+00 0.  1.
         25    2    1    2    0    0  0.10218368455E+03 -0.69099361393E+01  0.75925867526E+02  0.17861011566E+03  0.12509030118E+03 0.  0.
          5    1    3    3  502    0  0.94571751040E+02  0.27891177857E+02  0.95855286472E+02  0.13757704111E+03  0.41800000000E+01 0.  1.
         -5    1    3    3    0  502  0.76119335102E+01 -0.34801113997E+02 -0.19929418945E+02  0.41033074546E+02  0.41800000000E+01 0.  1.
        -11    1    1    2    0    0 -0.29152375095E+02 -0.16483116513E+02  0.25925063994E+02  0.42351659315E+02  0.00000000000E+00 0. -1.
         11    1    1    2    0    0 -0.73031309455E+02  0.23393052652E+02 -0.63877039363E+02  0.99805226471E+02  0.00000000000E+00 0.  1.
</event>
<event>
 7    1  0.2749315E-009  0.1339810E+03  0.7561462E-02  0.1221665E+00
          1   -1    0    0  501    0  0.00000000000E+00  0.00000000000E+00  0.32295109685E+03  0.32295109685E+03  0.00000000000E+00 0. -1.
         -1   -1    0    0    0  501 -0.00000000000E+00 -0.00000000000E+00 -0.89143739668E+02  0.89143739668E+02  0.00000000000E+00 0.  1.
         25    2    1    2    0    0 -0.76910011208E+02  0.57466702212E+02  0.15131337500E+02  0.15841415220E+03  0.12509402286E+03 0.  0.
          5    1    3    3  502    0 -0.59402895297E+02 -0.18156079883E+02  0.43189192052E+02  0.75770217873E+02  0.41800000000E+01 0.  1.
         -5    1    3    3    0  502 -0.17507115912E+02  0.75622782095E+02 -0.28057854552E+02  0.82643934329E+02  0.41800000000E+01 0.  1.
        -11    1    1    2    0    0  0.44759256397E+02 -0.77923388308E+02  0.14177688798E+03  0.16785747360E+03  0.00000000000E+00 0.  1.
         11    1    1    2    0    0  0.32150754811E+02  0.20456686096E+02  0.76899131699E+02  0.85823210713E+02  0.00000000000E+00 0. -1.
</event>
<event>
 7    1  0.2749315E-009  0.1731866E+03  0.7561462E-02  0.1174565E+00
          2   -1    0    0  501    0  0.00000000000E+00  0.00000000000E+00  0.33144186547E+03  0.33144186547E+03  0.00000000000E+00 0. -1.
         -2   -1    0    0    0  501 -0.00000000000E+00 -0.00000000000E+00 -0.10708927236E+03  0.10708927236E+03  0.00000000000E+00 0.  1.
         25    2    1    2    0    0  0.69205162545E+02 -0.12258439531E+03  0.18724632851E+03  0.26556571365E+03  0.12509065605E+03 0.  0.
          5    1    3    3  502    0 -0.18139813046E+02  0.12669174454E+02  0.64252781151E+01  0.23416178116E+02  0.41800000000E+01 0. -1.
         -5    1    3    3    0  502  0.87344975591E+02 -0.13525356976E+03  0.18082105040E+03  0.24214953554E+03  0.41800000000E+01 0. -1.
        -11    1    1    2    0    0 -0.19430534391E+02 -0.95116720889E+01  0.22233131891E+02  0.31021439785E+02  0.00000000000E+00 0. -1.
         11    1    1    2    0    0 -0.49774628154E+02  0.13209606739E+03  0.14873132711E+02  0.14194398439E+03  0.00000000000E+00 0.  1.
</event>
<event>
 7    1  0.2749315E-009  0.1584640E+03  0.7561462E-02  0.1190442E+00
         -2   -1    0    0    0  501 -0.00000000000E+00  0.00000000000E+00  0.75874945362E+02  0.75874945362E+02  0.00000000000E+00 0.  1.
          2   -1    0    0  501    0  0.00000000000E+00 -0.00000000000E+00 -0.40197904126E+03  0.40197904126E+03  0.00000000000E+00 0. -1.
         25    2    1    2    0    0 -0.86259163413E+02  0.99363270104E+02 -0.22544852530E+03  0.28946057445E+03  0.12508670546E+03 0.  0.
          5    1    3    3  502    0 -0.26608537975E+02 -0.28615285082E+02 -0.37256203750E+02  0.54151139889E+02  0.41800000000E+01 0.  1.
         -5    1    3    3    0  502 -0.59650625438E+02  0.12797855519E+03 -0.18819232155E+03  0.23530943456E+03  0.41800000000E+01 0.  1.
        -11    1    1    2    0    0  0.78175003898E+02 -0.66827517690E+02 -0.11288286418E+03  0.15270818374E+03  0.00000000000E+00 0. -1.
         11    1    1    2    0    0  0.80841595145E+01 -0.32535752414E+02  0.12227293581E+02  0.35685228436E+02  0.00000000000E+00 0.  1.
</event>
<event>
 7    1  0.2749315E-009  0.1074246E+03  0.7561462E-02  0.1265415E+00
          1   -1    0    0  501    0  0.00000000000E+00  0.00000000000E+00  0.11790936733E+03  0.11790936733E+03  0.00000000000E+00 0. -1.
         -1   -1    0    0    0  501 -0.00000000000E+00 -0.00000000000E+00 -0.11195110340E+03  0.11195110340E+03  0.00000000000E+00 0.  1.
         25    2    1    2    0    0 -0.15703793049E+01 -0.43287615586E+01  0.48633230403E+01  0.12526888935E+03  0.12508972164E+03 0.  0.
          5    1    3    3  502    0  0.19574132561E+02 -0.60533578333E+02 -0.62259634763E+01  0.64060095165E+02  0.41800000000E+01 0.  1.
         -5    1    3    3    0  502 -0.21144511866E+02  0.56204816774E+02  0.11089286517E+02  0.61208794189E+02  0.41800000000E+01 0.  1.
        -11    1    1    2    0    0  0.31323234104E+02  0.35812596866E+02 -0.25278352188E+02  0.53876545717E+02  0.00000000000E+00 0.  1.
         11    1    1    2    0    0 -0.29752854799E+02 -0.31483835308E+02  0.26373293082E+02  0.50715035664E+02  0.00000000000E+00 0. -1.
</event>
<event>
 7    1  0.2749315E-009  0.1274436E+03  0.7561462E-02  0.1231299E+00
          2   -1    0    0  501    0  0.00000000000E+00  0.00000000000E+00  0.17926850020E+03  0.17926850020E+03  0.00000000000E+00 0. -1.
         -2   -1    0    0    0  501 -0.00000000000E+00 -0.00000000000E+00 -0.11226813614E+03  0.11226813614E+03  0.00000000000E+00 0.  1.
         25    2    1    2    0    0  0.78098492634E+02  0.33935467179E+02  0.70750414461E+02  0.16704595008E+03  0.12509091816E+03 0.  0.
          5    1    3    3  502    0  0.10864857949E+03  0.33346067483E+02  0.33241128486E+02  0.11848594459E+03  0.41800000000E+01 0. -1.
         -5    1    3    3    0  502 -0.30550086855E+02  0.58939969591E+00  0.37509285975E+02  0.48560005491E+02  0.41800000000E+01 0. -1.
        -11    1    1    2    0    0 -0.17526881617E+02  0.21823910183E+02 -0.27053162651E+02  0.38927474158E+02  0.00000000000E+00 0.  1.
         11    1    1    2    0    0 -0.60571611016E+02 -0.55759377362E+02  0.23303112258E+02  0.85563212105E+02  0.00000000000E+00 0. -1.
</event>
<event>
 7    1  0.2749315E-009  0.8824510E+02  0.7561462E-02  0.1307158E+00
          2   -1    0    0  501    0  0.00000000000E+00  0.00000000000E+00  0.67349938141E+03  0.67349938141E+03  0.00000000000E+00 0.  1.
         -2   -1    0    0    0  501 -0.00000000000E+00 -0.00000000000E+00 -0.25621045588E+02  0.25621045588E+02  0.00000000000E+00 0. -1.
         25    2    1    2    0    0  0.44218771272E+02  0.92367575552E+01  0.50055673601E+03  0.51792393832E+03  0.12509013748E+03 0.  0.
          5    1    3    3  502    0 -0.69244171581E+01  0.17715998068E+02  0.42911058244E+03  0.42955228844E+03  0.41800000000E+01 0.  1.
         -5    1    3    3    0  502  0.51143188430E+02 -0.84792405127E+01  0.71446153571E+02  0.88371649880E+02  0.41800000000E+01 0.  1.
        -11    1    1    2    0    0  0.10085138133E+02  0.34080396426E+02  0.58309349847E+02  0.68287361285E+02  0.00000000000E+00 0. -1.
         11    1    1    2    0    0 -0.54303909405E+02 -0.43317153981E+02  0.89012249966E+02  0.11290912740E+03  0.00000000000E+00 0.  1.
</event>
<event>
 7    1  0.2749315E-009  0.1279909E+03  0.7561462E-02  0.1230468E+00
         -2   -1    0    0    0  501 -0.00000000000E+00  0.00000000000E+00  0.30367939658E+02  0.30367939658E+02  0.00000000000E+00 0.  1.
          2   -1    0    0  501    0  0.00000000000E+00 -0.00000000000E+00 -0.65135181182E+03  0.65135181182E+03  0.00000000000E+00 0. -1.
         25    2    1    2    0    0  0.69343790901E+02 -0.53881602524E+02 -0.31515470943E+03  0.35025951214E+03  0.12508975394E+03 0.  0.
          5    1    3    3  502    0  0.64115383448E+02 -0.90303109727E+02 -0.19236472640E+03  0.22200696922E+03  0.41800000000E+01 0.  1.
         -5    1    3    3    0  502  0.52284074523E+01  0.36421507204E+02 -0.12278998303E+03  0.12825254291E+03  0.41800000000E+01 0.  1.
        -11    1    1    2    0    0 -0.63686796136E+02  0.10709759210E+02 -0.87047927090E+02  0.10838841523E+03  0.00000000000E+00 0.  1.
         11    1    1    2    0    0 -0.56569947646E+01  0.43171843314E+02 -0.21878123564E+03  0.22307182412E+03  0.00000000000E+00 0. -1.
</event>
<event>
 7    1  0.2749315E-009  0.1489684E+03  0.7561462E-02  0.1201746E+00
          1   -1    0    0  501    0  0.00000000000E+00  0.00000000000E+00  0.46492786838E+03  0.46492786838E+03  0.00000000000E+00 0. -1.
         -1   -1    0    0    0  501 -0.00000000000E+00 -0.00000000000E+00 -0.56301109878E+02  0.56301109878E+02  0.00000000000E+00 0.  1.
         25    2    1    2    0    0  0.77805837517E+02 -0.79439677378E+02  0.14261058191E+03  0.21988581830E+03  0.12509030467E+03 0.  0.
          5    1    3    3  502    0 -0.23357912269E+02 -0.51370978459E+02  0.78612952925E+02  0.96860922260E+02  0.41800000000E+01 0. -1.
         -5    1    3    3    0  502  0.10116374979E+03 -0.28068698919E+02  0.63997628983E+02  0.12302489604E+03  0.41800000000E+01 0. -1.
        -11    1    1    2    0    0 -0.23596926262E+02 -0.14591362332E+02  0.93451865920E+02  0.97483198694E+02  0.00000000000E+00 0.  1.
         11    1    1    2    0    0 -0.54208911255E+02  0.94031039710E+02  0.17256431067E+03  0.20385996126E+03  0.00000000000E+00 0. -1.
</event>
<event>
 7    1  0.2749315E-009  0.9061007E+02  0.7561462E-02  0.1301381E+00
          1   -1    0    0  501    0  0.00000000000E+00  0.00000000000E+00  0.97086845234E+03  0.97086845234E+03  0.00000000000E+00 0. -1.
         -1   -1    0    0    0  501 -0.00000000000E+00 -0.00000000000E+00 -0.91788176240E+01  0.91788176240E+01  0.00000000000E+00 0.  1.
         25    2    1    2    0    0  0.14123692353E+02 -0.26365168454E+02  0.74530213125E+03  0.75631973201E+03  0.12509863864E+03 0.  0.
          5    1    3    3  502    0 -0.29762083083E+02 -0.61222835101E+02  0.50195724069E+03  0.50656940394E+03  0.41800000000E+01 0. -1.
         -5    1    3    3    0  502  0.43885775437E+02  0.34857666647E+02  0.24334489056E+03  0.24975032807E+03  0.41800000000E+01 0. -1.
        -11    1    1    2    0    0 -0.30996856184E+02  0.82798956990E+01  0.11929165692E+03  0.12353081063E+03  0.00000000000E+00 0.  1.
         11    1    1    2    0    0  0.16873163831E+02  0.18085272755E+02  0.97095846557E+02  0.10019672733E+03  0.00000000000E+00 0. -1.
</event>
<event>
 7    1  0.2749315E-009  0.1253198E+03  0.7561462E-02  0.1234570E+00
          1   -1    0    0  501    0  0.00000000000E+00  0.00000000000E+00  0.49067147214E+03  0.49067147214E+03  0.00000000000E+00 0. -1.
         -1   -1    0    0    0  501 -0.00000000000E+00 -0.00000000000E+00 -0.65685752285E+02  0.65685752285E+02  0.00000000000E+00 0.  1.
         25    2    1    2    0    0  0.11316447946E+03  0.28335085773E+02  0.35430568697E+03  0.39343156333E+03  0.12508716447E+03 0.  0.
          5    1    3    3  502    0  0.10718106394E+03  0.27112368805E+02  0.36445102047E+03  0.38087383703E+03  0.41800000000E+01 0. -1.
         -5    1    3    3    0  502  0.59834155166E+01  0.12227169684E+01 -0.10145333506E+02  0.12557726306E+02  0.41800000000E+01 0. -1.
        -11    1    1    2    0    0 -0.55714375895E+02  0.18262293915E+02 -0.27507644687E+01  0.58695568535E+02  0.00000000000E+00 0.  1.
         11    1    1    2    0    0 -0.57450103563E+02 -0.46597379688E+02  0.73430797353E+02  0.10423009255E+03  0.00000000000E+00 0. -1.
</event>
<event>
 7    1  0.2749315E-009  0.1083875E+03  0.7561462E-02  0.1263585E+00
         -1   -1    0    0    0  501 -0.00000000000E+00  0.00000000000E+00  0.52936060436E+03  0.52936060436E+03  0.00000000000E+00 0.  1.
          1   -1    0    0  501    0  0.00000000000E+00 -0.00000000000E+00 -0.37230152716E+02  0.37230152716E+02  0.00000000000E+00 0. -1.
         25    2    1    2    0    0  0.25056454525E+02 -0.48098139104E+02  0.40607444314E+03  0.42835166276E+03  0.12508971471E+03 0.  0.
          5    1    3    3  502    0 -0.25483400159E+02  0.28524305299E+02  0.69277020420E+02  0.79245300396E+02  0.41800000000E+01 0.  1.
         -5    1    3    3    0  502  0.50539854683E+02 -0.76622444403E+02  0.33679742272E+03  0.34910636237E+03  0.41800000000E+01 0.  1.
        -11    1    1    2    0    0 -0.13803078927E+02  0.64811126951E+02  0.95298035392E+02  0.11607205828E+03  0.00000000000E+00 0.  1.
         11    1    1    2    0    0 -0.11253375598E+02 -0.16712987847E+02 -0.92420268892E+01  0.22167036025E+02  0.00000000000E+00 0. -1.
</event>
<event>
 7    1  0.2749315E-009  0.1360649E+03  0.7561462E-02  0.1218724E+00
         -4   -1    0    0    0  501 -0.00000000000E+00  0.00000000000E+00  0.27069234390E+03  0.27069234390E+03  0.00000000000E+00 0.  1.
          4   -1    0    0  501    0  0.00000000000E+00 -0.00000000000E+00 -0.86768833963E+02  0.86768833963E+02  0.00000000000E+00 0. -1.
         25    2    1    2    0    0 -0.10672816899E+03 -0.12431339108E+02  0.94645191340E+02  0.19013157310E+03  0.12508741982E+03 0.  0.
          5    1    3    3  502    0 -0.23805956696E+01  0.41146248670E+02  0.49075455179E+02  0.64222688486E+02  0.41800000000E+01 0. -1.
         -5    1    3    3    0  502 -0.10434757332E+03 -0.53577587778E+02  0.45569736161E+02  0.12590888461E+03  0.41800000000E+01 0. -1.
        -11    1    1    2    0    0  0.52320173187E+02  0.24228560804E+02 -0.49646936231E+01  0.57871166083E+02  0.00000000000E+00 0. -1.
         11    1    1    2    0    0  0.54407995802E+02 -0.11797221695E+02  0.94243012218E+02  0.10945843868E+03  0.00000000000E+00 0.  1.
</event>
<event>
 7    1  0.2749315E-009  0.1008713E+03  0.7561462E-02  0.1278474E+00
         -2   -1    0    0    0  501 -0.00000000000E+00  0.00000000000E+00  0.13786848584E+03  0.13786848584E+03  0.00000000000E+00 0.  1.
          2   -1    0    0  501    0  0.00000000000E+00 -0.00000000000E+00 -0.89503755925E+02  0.89503755925E+02  0.00000000000E+00 0. -1.
         25    2    1    2    0    0 -0.15391862532E+02  0.47013684914E+01  0.49255505384E+02  0.13539865046E+03  0.12509067687E+03 0.  0.
          5    1    3    3  502    0  0.27704548903E+02 -0.47489433654E+02  0.72087793150E+01  0.55607798355E+02  0.41800000000E+01 0. -1.
         -5    1    3    3    0  502 -0.43096411435E+02  0.52190802145E+02  0.42046726069E+02  0.79790852109E+02  0.41800000000E+01 0. -1.
        -11    1    1    2    0    0 -0.21786798336E+02 -0.27571936731E+02 -0.24028482180E+02  0.42570461974E+02  0.00000000000E+00 0.  1.
         11    1    1    2    0    0  0.37178660869E+02  0.22870568240E+02  0.23137706713E+02  0.49403129329E+02  0.00000000000E+00 0. -1.
</event>
<event>
 7    1  0.2749315E-009  0.1311691E+03  0.7561462E-02  0.1225731E+00
         -3   -1    0    0    0  501 -0.00000000000E+00  0.00000000000E+00  0.52491109079E+03  0.52491109079E+03  0.00000000000E+00 0.  1.
          3   -1    0    0  501    0  0.00000000000E+00 -0.00000000000E+00 -0.51331457267E+02  0.51331457267E+02  0.00000000000E+00 0. -1.
         25    2    1    2    0    0  0.10864639501E+03  0.53719063444E+02  0.28417983250E+03  0.33331331255E+03  0.12509920145E+03 0.  0.
          5    1    3    3  502    0  0.20907248462E+02 -0.50924548741E+01 -0.74213434158E+01  0.23142922740E+02  0.41800000000E+01 0. -1.
         -5    1    3    3    0  502  0.87739146548E+02  0.58811518318E+02  0.29160117591E+03  0.31017038981E+03  0.41800000000E+01 0. -1.
        -11    1    1    2    0    0 -0.46272911136E+02 -0.55562684213E+02  0.43844653840E+02  0.84562094654E+02  0.00000000000E+00 0. -1.
         11    1    1    2    0    0 -0.62373483874E+02  0.18436207688E+01  0.14555514718E+03  0.15836714085E+03  0.00000000000E+00 0.  1.
</event>
<event>
 7    1  0.2749315E-009  0.9551182E+02  0.7561462E-02  0.1290027E+00
          4   -1    0    0  501    0  0.00000000000E+00  0.00000000000E+00  0.67170418634E+02  0.67170418634E+02  0.00000000000E+00 0. -1.
         -4   -1    0    0    0  501 -0.00000000000E+00 -0.00000000000E+00 -0.23370312526E+03  0.23370312526E+03  0.00000000000E+00 0.  1.
         25    2    1    2    0    0 -0.34904374507E-02 -0.47292705459E+02 -0.43558369015E+02  0.14064742436E+03  0.12509103271E+03 0.  0.
          5    1    3    3  502    0 -0.42844103076E+02  0.14404450890E+02 -0.46997670316E+02  0.65340330493E+02  0.41800000000E+01 0. -1.
         -5    1    3    3    0  502  0.42840612638E+02 -0.61697156350E+02  0.34393013002E+01  0.75307093864E+02  0.41800000000E+01 0. -1.
        -11    1    1    2    0    0 -0.26073708571E+02  0.23809203456E+02 -0.32424327555E+01  0.35457436710E+02  0.00000000000E+00 0. -1.
         11    1    1    2    0    0  0.26077199009E+02  0.23483502003E+02 -0.11973190486E+03  0.12476868283E+03  0.00000000000E+00 0.  1.
</event>
<event>
 7    1  0.2749315E-009  0.1050207E+03  0.7561462E-02  0.1270079E+00
         -2   -1    0    0    0  501 -0.00000000000E+00  0.00000000000E+00  0.49000748716E+02  0.49000748716E+02  0.00000000000E+00 0.  1.
          2   -1    0    0  501    0  0.00000000000E+00 -0.00000000000E+00 -0.24570590362E+03  0.24570590362E+03  0.00000000000E+00 0. -1.
         25    2    1    2    0    0  0.28894448586E+01  0.19775692446E+02 -0.11737270359E+03  0.17269360235E+03  0.12508917556E+03 0.  0.
          5    1    3    3  502    0  0.34563707185E+02 -0.41343562179E+02 -0.72437688663E+02  0.90380479789E+02  0.41800000000E+01 0. -1.
         -5    1    3    3    0  502 -0.31674262326E+02  0.61119254625E+02 -0.44935014926E+02  0.82313122563E+02  0.41800000000E+01 0. -1.
        -11    1    1    2    0    0  0.22436234957E+02  0.26225685313E+02 -0.11817032927E+02  0.36480316286E+02  0.00000000000E+00 0. -1.
         11    1    1    2    0    0 -0.25325679815E+02 -0.46001377759E+02 -0.67515418393E+02  0.85532733702E+02  0.00000000000E+00 0.  1.
</event>
<event>
 7    1  0.2749315E-009  0.1059608E+03  0.7561462E-02  0.1268238E+00
         -1   -1    0    0    0  501 -0.00000000000E+00  0.00000000000E+00  0.23591309193E+02  0.23591309193E+02  0.00000000000E+00 0.  1.
          1   -1    0    0  501    0  0.00000000000E+00 -0.00000000000E+00 -0.66641945978E+03  0.66641945978E+03  0.00000000000E+00 0. -1.
         25    2    1    2    0    0 -0.29116327074E+02  0.16467583343E+02 -0.49104434057E+03  0.50783177374E+03  0.12509845809E+03 0.  0.
          5    1    3    3  502    0 -0.16161206534E+02 -0.54345122866E+02 -0.23956784634E+03  0.24622104373E+03  0.41800000000E+01 0. -1.
         -5    1    3    3    0  502 -0.12955120539E+02  0.70812706209E+02 -0.25147649422E+03  0.26161073001E+03  0.41800000000E+01 0. -1.
        -11    1    1    2    0    0  0.53752706393E+02 -0.78786827642E+00 -0.40994781267E+02  0.67605815372E+02  0.00000000000E+00 0.  1.
         11    1    1    2    0    0 -0.24636379319E+02 -0.15679715067E+02 -0.11078902875E+03  0.11457317985E+03  0.00000000000E+00 0. -1.
</event>
<event>
 7    1  0.2749315E-009  0.1111949E+03  0.7561462E-02  0.1258373E+00
         -1   -1    0    0    0  501 -0.00000000000E+00  0.00000000000E+00  0.58227962490E+02  0.58227962490E+02  0.00000000000E+00 0.  1.
          1   -1    0    0  501    0  0.00000000000E+00 -0.00000000000E+00 -0.27079973408E+03  0.27079973408E+03  0.00000000000E+00 0. -1.
         25    2    1    2    0    0 -0.34665156167E+02  0.45978934654E+02 -0.15722909514E+03  0.20900846323E+03  0.12509122215E+03 0.  0.
          5    1    3    3  502    0  0.34306339276E+02  0.50699752511E+02 -0.41289547617E+02  0.73957345555E+02  0.41800000000E+01 0. -1.
         -5    1    3    3    0  502 -0.68971495443E+02 -0.47208178568E+01 -0.11593954752E+03  0.13505111767E+03  0.41800000000E+01 0. -1.
        -11    1    1    2    0    0  0.56640612316E+02 -0.38792992341E+02 -0.65390108411E+02  0.94809922985E+02  0.00000000000E+00 0. -1.
         11    1    1    2    0    0 -0.21975456149E+02 -0.71859423126E+01  0.10047431958E+02  0.25209310360E+02  0.00000000000E+00 0.  1.
</event>
<event>
 7    1  0.2749315E-009  0.1683397E+03  0.7561462E-02  0.1179590E+00
         -2   -1    0    0    0  501 -0.00000000000E+00  0.00000000000E+00  0.50649786146E+03  0.50649786146E+03  0.00000000000E+00 0.  1.
          2   -1    0    0  501    0  0.00000000000E+00 -0.00000000000E+00 -0.56903010821E+02  0.56903010821E+02  0.00000000000E+00 0. -1.
         25    2    1    2    0    0  0.12470166708E+03  0.33293426099E+02  0.21665792444E+03  0.28150718925E+03  0.12508670347E+03 0.  0.
          5    1    3    3  502    0  0.14162611814E+03  0.14698129738E+01  0.18713916346E+03  0.23473103031E+03  0.41800000000E+01 0.  1.
         -5    1    3    3    0  502 -0.16924451055E+02  0.31823613125E+02  0.29518760978E+02  0.46776158944E+02  0.41800000000E+01 0.  1.
        -11    1    1    2    0    0 -0.13718395888E+03 -0.17089959611E+02  0.20546442296E+03  0.24764315940E+03  0.00000000000E+00 0.  1.
         11    1    1    2    0    0  0.12482291797E+02 -0.16203466488E+02  0.27472503239E+02  0.34250523630E+02  0.00000000000E+00 0. -1.
</event>
<event>
 7    1  0.2749315E-009  0.1351096E+03  0.7561462E-02  0.1220065E+00
          4   -1    0    0  501    0  0.00000000000E+00  0.00000000000E+00  0.10139247533E+03  0.10139247533E+03  0.00000000000E+00 0. -1.
         -4   -1    0    0    0  501 -0.00000000000E+00 -0.00000000000E+00 -0.22605866566E+03  0.22605866566E+03  0.00000000000E+00 0.  1.
         25    2    1    2    0    0  0.80194377397E+02  0.26291866652E+02 -0.42208339462E+01  0.15095858219E+03  0.12509307607E+03 0.  0.
          5    1    3    3  502    0  0.26565447904E+02  0.72694091853E+02  0.11058767431E+02  0.78293823191E+02  0.41800000000E+01 0. -1.
         -5    1    3    3    0  502  0.53628929493E+02 -0.46402225201E+02 -0.15279601377E+02  0.72664759000E+02  0.41800000000E+01 0. -1.
        -11    1    1    2    0    0  0.16511474560E+02  0.89033577802E+01 -0.45405867214E+02  0.49128315149E+02  0.00000000000E+00 0.  1.
         11    1    1    2    0    0 -0.96705851957E+02 -0.35195224432E+02 -0.75039489172E+02  0.12736424365E+03  0.00000000000E+00 0. -1.
</event>
<event>
 7    1  0.2749315E-009  0.1595319E+03  0.7561462E-02  0.1189226E+00
         -2   -1    0    0    0  501 -0.00000000000E+00  0.00000000000E+00  0.19784712940E+03  0.19784712940E+03  0.00000000000E+00 0.  1.
          2   -1    0    0  501    0  0.00000000000E+00 -0.00000000000E+00 -0.13258685813E+03  0.13258685813E+03  0.00000000000E+00 0. -1.
         25    2    1    2    0    0  0.80022272609E+02 -0.94697025474E+02  0.45195105752E+02  0.18182706288E+03  0.12508953779E+03 0.  0.
          5    1    3    3  502    0  0.99730143698E+02 -0.10974123403E+03  0.49355585807E+02  0.15634156920E+03  0.41800000000E+01 0. -1.
         -5    1    3    3    0  502 -0.19707871089E+02  0.15044208556E+02 -0.41604800554E+01  0.25485493682E+02  0.41800000000E+01 0. -1.
        -11    1    1    2    0    0  0.11780668331E+02 -0.23198744030E+01 -0.44577069464E+01  0.12807697482E+02  0.00000000000E+00 0.  1.
         11    1    1    2    0    0 -0.91802940940E+02  0.97016899877E+02  0.24522872462E+02  0.13579922717E+03  0.00000000000E+00 0. -1.
</event>
<event>
 7    1  0.2749315E-009  0.7431924E+02  0.7561462E-02  0.1345992E+00
          2   -1    0    0  501    0  0.00000000000E+00  0.00000000000E+00  0.59669632110E+02  0.59669632110E+02  0.00000000000E+00 0. -1.
         -2   -1    0    0    0  501 -0.00000000000E+00 -0.00000000000E+00 -0.22914553160E+03  0.22914553160E+03  0.00000000000E+00 0.  1.
         25    2    1    2    0    0  0.30274016237E+02 -0.28295652943E+02 -0.11890021616E+03  0.17748845634E+03  0.12509088974E+03 0.  0.
          5    1    3    3  502    0  0.60140663443E+01 -0.33740967162E+02 -0.14025833933E+03  0.14444547764E+03  0.41800000000E+01 0. -1.
         -5    1    3    3    0  502  0.24259949893E+02  0.54453142182E+01  0.21358123173E+02  0.33042978697E+02  0.41800000000E+01 0. -1.
        -11    1    1    2    0    0 -0.56363287367E+02  0.27702537219E+02 -0.56599588143E+02  0.84544450493E+02  0.00000000000E+00 0.  1.
         11    1    1    2    0    0  0.26089271130E+02  0.59311572427E+00  0.60239048125E+01  0.26782256879E+02  0.00000000000E+00 0. -1.
</event>
<event>
 7    1  0.2749315E-009  0.8478737E+02  0.7561462E-02  0.1315990E+00
         -2   -1    0    0    0  501 -0.00000000000E+00  0.00000000000E+00  0.55657482073E+02  0.55657482073E+02  0.00000000000E+00 0.  1.
          2   -1    0    0  501    0  0.00000000000E+00 -0.00000000000E+00 -0.45826703376E+03  0.45826703376E+03  0.00000000000E+00 0. -1.
         25    2    1    2    0    0  0.52065496325E+01 -0.35886054148E+02 -0.39709070526E+03  0.41790402914E+03  0.12509129598E+03 0.  0.
          5    1    3    3  502    0 -0.56391947249E+02 -0.21860024369E+02 -0.25884680246E+03  0.26585155994E+03  0.41800000000E+01 0. -1.
         -5    1    3    3    0  502  0.61598496882E+02 -0.14026029779E+02 -0.13824390280E+03  0.15205246921E+03  0.41800000000E+01 0. -1.
        -11    1    1    2    0    0 -0.16656319003E+02  0.19480784862E+02  0.39311425739E+02  0.46928905114E+02  0.00000000000E+00 0.  1.
         11    1    1    2    0    0  0.11449769370E+02  0.16405269285E+02 -0.44830272162E+02  0.49091581570E+02  0.00000000000E+00 0. -1.
</event>
<event>
 7    1  0.2749315E-009  0.1526749E+03  0.7561462E-02  0.1197224E+00
         -2   -1    0    0    0  501 -0.00000000000E+00  0.00000000000E+00  0.14812180510E+02  0.14812180510E+02  0.00000000000E+00 0.  1.
          2   -1    0    0  501    0  0.00000000000E+00 -0.00000000000E+00 -0.23001020353E+04  0.23001020353E+04  0.00000000000E+00 0. -1.
         25    2    1    2    0    0  0.13298938683E+01  0.11104418156E+03 -0.18120802998E+04  0.18197848931E+04  0.12509782187E+03 0.  0.
          5    1    3    3  502    0 -0.27458062531E+01 -0.26146733969E+02 -0.18276895093E+03  0.18469746337E+03  0.41800000000E+01 0.  1.
         -5    1    3    3    0  502  0.40757001214E+01  0.13719091553E+03 -0.16293113489E+04  0.16350874297E+04  0.41800000000E+01 0.  1.
        -11    1    1    2    0    0  0.42403466380E+02 -0.41989483032E+02 -0.26068280631E+03  0.26742605736E+03  0.00000000000E+00 0.  1.
         11    1    1    2    0    0 -0.43733360249E+02 -0.69054698524E+02 -0.21252674859E+03  0.22770326536E+03  0.00000000000E+00 0. -1.
</event>
<event>
 7    1  0.2749315E-009  0.8009673E+02  0.7561462E-02  0.1328777E+00
          1   -1    0    0  501    0  0.00000000000E+00  0.00000000000E+00  0.28897471784E+03  0.28897471784E+03  0.00000000000E+00 0. -1.
         -1   -1    0    0    0  501 -0.00000000000E+00 -0.00000000000E+00 -0.58711796146E+02  0.58711796146E+02  0.00000000000E+00 0.  1.
         25    2    1    2    0    0  0.13246581943E+02 -0.58239087346E+02  0.65761121407E+02  0.15342733688E+03  0.12509260323E+03 0.  0.
          5    1    3    3  502    0  0.37484320243E+02 -0.84944490889E+01  0.86054469007E+02  0.94340203336E+02  0.41800000000E+01 0. -1.
         -5    1    3    3    0  502 -0.24237738299E+02 -0.49744638257E+02 -0.20293347600E+02  0.59087133540E+02  0.41800000000E+01 0. -1.
        -11    1    1    2    0    0 -0.19834692533E+02  0.23828026844E+02  0.15484282794E+03  0.15791608929E+03  0.00000000000E+00 0. -1.
         11    1    1    2    0    0  0.65881105900E+01  0.34411060502E+02  0.96589723517E+01  0.36343087828E+02  0.00000000000E+00 0.  1.
</event>
<event>
 7    1  0.2749315E-009  0.1038791E+03  0.7561462E-02  0.1272344E+00
         -1   -1    0    0    0  501 -0.00000000000E+00  0.00000000000E+00  0.68685784137E+02  0.68685784137E+02  0.00000000000E+00 0.  1.
          1   -1    0    0  501    0  0.00000000000E+00 -0.00000000000E+00 -0.27546369363E+03  0.27546369363E+03  0.00000000000E+00 0. -1.
         25    2    1    2    0    0  0.22485621301E+01  0.35896957544E+02 -0.17502895910E+02  0.13133192797E+03  0.12509227133E+03 0.  0.
          5    1    3    3  502    0 -0.52351765510E+02  0.10124826957E+02  0.23300296403E+02  0.58340343549E+02  0.41800000000E+01 0. -1.
         -5    1    3    3    0  502  0.54600327641E+02  0.25772130586E+02 -0.40803192312E+02  0.72991584421E+02  0.41800000000E+01 0. -1.
        -11    1    1    2    0    0  0.36936112554E+02 -0.39888899185E+02 -0.13679169289E+03  0.14719839650E+03  0.00000000000E+00 0.  1.
         11    1    1    2    0    0 -0.39184674685E+02  0.39919416415E+01 -0.52483320695E+02  0.65619153296E+02  0.00000000000E+00 0. -1.
</event>
<event>
 7    1  0.2749315E-009  0.5713800E+02  0.7561462E-02  0.1410250E+00
         -1   -1    0    0    0  501 -0.00000000000E+00  0.00000000000E+00  0.29660858715E+02  0.29660858715E+02  0.00000000000E+00 0.  1.
          1   -1    0    0  501    0  0.00000000000E+00 -0.00000000000E+00 -0.55497487829E+03  0.55497487829E+03  0.00000000000E+00 0. -1.
         25    2    1    2    0    0 -0.15231030585E+02  0.29160995711E+02 -0.42915238162E+03  0.44822046545E+03  0.12508985184E+03 0.  0.
          5    1    3    3  502    0  0.13089493144E+01  0.46517496999E+01 -0.41521818518E+03  0.41526734260E+03  0.41800000000E+01 0. -1.
         -5    1    3    3    0  502 -0.16539979899E+02  0.24509246011E+02 -0.13934196436E+02  0.32953122848E+02  0.41800000000E+01 0. -1.
        -11    1    1    2    0    0  0.42421344716E+02 -0.71026433363E+01 -0.11087326268E+02  0.44417866153E+02  0.00000000000E+00 0.  1.
         11    1    1    2    0    0 -0.27190314131E+02 -0.22058352375E+02 -0.85074311692E+02  0.91997405409E+02  0.00000000000E+00 0. -1.
</event>
<event>
 7    1  0.2749315E-009  0.1335843E+03  0.7561462E-02  0.1222232E+00
          1   -1    0    0  501    0  0.00000000000E+00  0.00000000000E+00  0.50296419144E+03  0.50296419144E+03  0.00000000000E+00 0. -1.
         -1   -1    0    0    0  501 -0.00000000000E+00 -0.00000000000E+00 -0.58938354637E+02  0.58938354637E+02  0.00000000000E+00 0.  1.
         25    2    1    2    0    0  0.62495694611E+02 -0.10079570433E+03  0.13648026764E+03  0.21986531109E+03  0.12509358780E+03 0.  0.
          5    1    3    3  502    0  0.66135409138E+02 -0.33190877833E+02  0.13261923594E+03  0.15192386532E+03  0.41800000000E+01 0.  1.
         -5    1    3    3    0  502 -0.36397145264E+01 -0.67604826496E+02  0.38610317009E+01  0.67941445769E+02  0.41800000000E+01 0.  1.
        -11    1    1    2    0    0 -0.59175773134E+02  0.59931032963E+02  0.10122006656E+03  0.13167764697E+03  0.00000000000E+00 0.  1.
         11    1    1    2    0    0 -0.33199214772E+01  0.40864671367E+02  0.20632550261E+03  0.21035958801E+03  0.00000000000E+00 0. -1.
</event>
<event>
 7    1  0.2749315E-009  0.9657139E+02  0.7561462E-02  0.1287676E+00
         -1   -1    0    0    0  501 -0.00000000000E+00  0.00000000000E+00  0.55482968194E+02  0.55482968194E+02  0.00000000000E+00 0.  1.
          1   -1    0    0  501    0  0.00000000000E+00 -0.00000000000E+00 -0.36228743558E+03  0.36228743558E+03  0.00000000000E+00 0. -1.
         25    2    1    2    0    0 -0.13242281043E+00 -0.16352019812E+02 -0.30059826152E+03  0.32599586562E+03  0.12508630416E+03 0.  0.
          5    1    3    3  502    0  0.54777884881E+02 -0.35981345756E+02 -0.18772769358E+03  0.19888296370E+03  0.41800000000E+01 0. -1.
         -5    1    3    3    0  502 -0.54910307692E+02  0.19629325944E+02 -0.11287056794E+03  0.12711290192E+03  0.41800000000E+01 0. -1.
        -11    1    1    2    0    0  0.28614591451E+02  0.26274001369E+02  0.26699196205E+02  0.47137724487E+02  0.00000000000E+00 0.  1.
         11    1    1    2    0    0 -0.28482168641E+02 -0.99219815568E+01 -0.32905402071E+02  0.44636813663E+02  0.00000000000E+00 0. -1.
</event>
<event>
 7    1  0.2749315E-009  0.2295814E+03  0.7561462E-02  0.1126935E+00
          1   -1    0    0  501    0  0.00000000000E+00  0.00000000000E+00  0.44683461381E+02  0.44683461381E+02  0.00000000000E+00 0. -1.
         -1   -1    0    0    0  501 -0.00000000000E+00 -0.00000000000E+00 -0.12218400275E+04  0.12218400275E+04  0.00000000000E+00 0.  1.
         25    2    1    2    0    0 -0.11292520807E+03 -0.17123849154E+03 -0.66956947725E+03  0.71136909286E+03  0.12509187746E+03 0.  0.
          5    1    3    3  502    0 -0.69345334032E+02 -0.11756636147E+02 -0.14259463740E+03  0.15905249718E+03  0.41800000000E+01 0.  1.
         -5    1    3    3    0  502 -0.43579874034E+02 -0.15948185539E+03 -0.52697483985E+03  0.55231659567E+03  0.41800000000E+01 0.  1.
        -11    1    1    2    0    0 -0.82445827940E+01  0.54317404137E+02 -0.98828044577E+02  0.11307225978E+03  0.00000000000E+00 0. -1.
         11    1    1    2    0    0  0.12116979086E+03  0.11692108740E+03 -0.40875904434E+03  0.44208213629E+03  0.00000000000E+00 0.  1.
</event>
<event>
 7    1  0.2749315E-009  0.1135459E+03  0.7561462E-02  0.1254141E+00
          2   -1    0    0  501    0  0.00000000000E+00  0.00000000000E+00  0.13304489909E+03  0.13304489909E+03  0.00000000000E+00 0. -1.
         -2   -1    0    0    0  501 -0.00000000000E+00 -0.00000000000E+00 -0.13837164715E+03  0.13837164715E+03  0.00000000000E+00 0.  1.
         25    2    1    2    0    0 -0.76590971012E+02  0.21503921105E+02  0.15292662560E+02  0.14902961010E+03  0.12508942279E+03 0.  0.
          5    1    3    3  502    0 -0.69742747295E+02 -0.43320708896E+02  0.12493847193E+01  0.82217808178E+02  0.41800000000E+01 0.  1.
         -5    1    3    3    0  502 -0.68482237173E+01  0.64824630001E+02  0.14043277841E+02  0.66811801917E+02  0.41800000000E+01 0.  1.
        -11    1    1    2    0    0  0.49068849986E+02 -0.13095315334E+02 -0.56775984054E+02  0.76175794633E+02  0.00000000000E+00 0.  1.
         11    1    1    2    0    0  0.27522121026E+02 -0.84086057709E+01  0.36156573441E+02  0.46211141511E+02  0.00000000000E+00 0. -1.
</event>
<event>
 7    1  0.2749315E-009  0.1942296E+03  0.7561462E-02  0.1154701E+00
          1   -1    0    0  501    0  0.00000000000E+00  0.00000000000E+00  0.10101983557E+03  0.10101983557E+03  0.00000000000E+00 0. -1.
         -1   -1    0    0    0  501 -0.00000000000E+00 -0.00000000000E+00 -0.51396216335E+03  0.51396216335E+03  0.00000000000E+00 0.  1.
         25    2    1    2    0    0  0.12268419822E+03 -0.13397217788E+03 -0.32643808713E+03  0.39396320346E+03  0.12508086989E+03 0.  0.
          5    1    3    3  502    0  0.25622025874E+02 -0.99588698894E+02 -0.23355875800E+03  0.25522845256E+03  0.41800000000E+01 0.  1.
         -5    1    3    3    0  502  0.97062172349E+02 -0.34383478991E+02 -0.92879329124E+02  0.13873475090E+03  0.41800000000E+01 0.  1.
        -11    1    1    2    0    0 -0.45914347860E+02  0.38096665683E+02  0.15183433275E+02  0.61563137684E+02  0.00000000000E+00 0. -1.
         11    1    1    2    0    0 -0.76769850363E+02  0.95875512202E+02 -0.10168767393E+03  0.15945565777E+03  0.00000000000E+00 0.  1.
</event>
<event>
 7    1  0.2799120E-009  0.1529330E+03  0.7561462E-02  0.1196915E+00
          1   -1    0    0  501    0  0.00000000000E+00  0.00000000000E+00  0.16571819486E+03  0.16571819486E+03  0.00000000000E+00 0. -1.
         -1   -1    0    0    0  501 -0.00000000000E+00 -0.00000000000E+00 -0.16595648300E+03  0.16595648300E+03  0.00000000000E+00 0.  1.
         25    2    1    2    0    0 -0.99832377294E+02 -0.62621049695E+02  0.41315308810E+02  0.17675799359E+03  0.12509410112E+03 0.  0.
          5    1    3    3  502    0  0.12567752102E+02 -0.45515133589E+02 -0.15123581195E+02  0.49757118955E+02  0.41800000000E+01 0.  1.
         -5    1    3    3    0  502 -0.11240012940E+03 -0.17105916106E+02  0.56438890005E+02  0.12700087464E+03  0.41800000000E+01 0.  1.
        -11    1    1    2    0    0  0.84595293508E+02  0.46184118922E+01 -0.54042165563E+01  0.84893456572E+02  0.00000000000E+00 0. -1.
         11    1    1    2    0    0  0.15237083786E+02  0.58002637803E+02 -0.36149380390E+02  0.70023227696E+02  0.00000000000E+00 0.  1.
</event>
<event>
 7    1  0.2749315E-009  0.9849264E+02  0.7561462E-02  0.1283498E+00
         -2   -1    0    0    0  501 -0.00000000000E+00  0.00000000000E+00  0.17605989151E+03  0.17605989151E+03  0.00000000000E+00 0.  1.
          2   -1    0    0  501    0  0.00000000000E+00 -0.00000000000E+00 -0.72946980262E+02  0.72946980262E+02  0.00000000000E+00 0. -1.
         25    2    1    2    0    0 -0.21310609189E+02  0.13095877973E+02  0.31598986868E+02  0.13141880962E+03  0.12508702357E+03 0.  0.
          5    1    3    3  502    0 -0.63737579483E+02  0.97150040826E+01  0.53028062425E+02  0.83584138132E+02  0.41800000000E+01 0.  1.
         -5    1    3    3    0  502  0.42426970294E+02  0.33808738900E+01 -0.21429075558E+02  0.47834671483E+02  0.41800000000E+01 0.  1.
        -11    1    1    2    0    0  0.37138789119E+02 -0.42362652483E+02  0.28290959629E+02  0.63041751081E+02  0.00000000000E+00 0. -1.
         11    1    1    2    0    0 -0.15828179930E+02  0.29266774510E+02  0.43222964757E+02  0.54546311080E+02  0.00000000000E+00 0.  1.
</event>
<event>
 7    1  0.2749315E-009  0.6962501E+02  0.7561462E-02  0.1361373E+00
         -2   -1    0    0    0  501 -0.00000000000E+00  0.00000000000E+00  0.57848535863E+03  0.57848535863E+03  0.00000000000E+00 0.  1.
          2   -1    0    0  501    0  0.00000000000E+00 -0.00000000000E+00 -0.22723664417E+02  0.22723664417E+02  0.00000000000E+00 0. -1.
         25    2    1    2    0    0  0.37283801243E+02  0.89086711425E+01  0.35276134245E+03  0.37624333344E+03  0.12509610296E+03 0.  0.
          5    1    3    3  502    0  0.23878646465E+02 -0.14937486892E+02  0.69286833604E+01  0.29305243980E+02  0.41800000000E+01 0.  1.
         -5    1    3    3    0  502  0.13405154778E+02  0.23846158034E+02  0.34583265909E+03  0.34693808946E+03  0.41800000000E+01 0.  1.
        -11    1    1    2    0    0 -0.26621457819E+02  0.31539320012E+02  0.15894184792E+03  0.16421309858E+03  0.00000000000E+00 0.  1.
         11    1    1    2    0    0 -0.10662343423E+02 -0.40447991154E+02  0.44058503839E+02  0.60752591025E+02  0.00000000000E+00 0. -1.
</event>
<event>
 7    1  0.2749315E-009  0.8960112E+02  0.7561462E-02  0.1303821E+00
          1   -1    0    0  501    0  0.00000000000E+00  0.00000000000E+00  0.14684898717E+04  0.14684898717E+04  0.00000000000E+00 0. -1.
         -1   -1    0    0    0  501 -0.00000000000E+00 -0.00000000000E+00 -0.11503447222E+02  0.11503447222E+02  0.00000000000E+00 0.  1.
         25    2    1    2    0    0  0.41559351305E+01 -0.67307947054E+02  0.10171913117E+04  0.10270699470E+04  0.12508748911E+03 0.  0.
          5    1    3    3  502    0 -0.44984635062E+01 -0.55120811813E+02  0.10069466609E+04  0.10084729002E+04  0.41800000000E+01 0. -1.
         -5    1    3    3    0  502  0.86543986367E+01 -0.12187135241E+02  0.10244650774E+02  0.18597046825E+02  0.41800000000E+01 0. -1.
        -11    1    1    2    0    0  0.39783475045E+02  0.40377614601E+02  0.23639431172E+03  0.24309534603E+03  0.00000000000E+00 0.  1.
         11    1    1    2    0    0 -0.43939410176E+02  0.26930332453E+02  0.20340080108E+03  0.20982802590E+03  0.00000000000E+00 0. -1.
</event>
<event>
 7    1  0.2749315E-009  0.1063126E+03  0.7561462E-02  0.1267555E+00
         -1   -1    0    0    0  501 -0.00000000000E+00  0.00000000000E+00  0.16124669574E+02  0.16124669574E+02  0.00000000000E+00 0.  1.
          1   -1    0    0  501    0  0.00000000000E+00 -0.00000000000E+00 -0.85639060728E+03  0.85639060728E+03  0.00000000000E+00 0. -1.
         25    2    1    2    0    0  0.15394861246E+02  0.36323151355E+02 -0.52518218714E+03  0.54131323790E+03  0.12508924319E+03 0.  0.
          5    1    3    3  502    0  0.50805641873E+02 -0.11580925115E+02 -0.10921701860E+03  0.12108327971E+03  0.41800000000E+01 0. -1.
         -5    1    3    3    0  502 -0.35410780627E+02  0.47904076470E+02 -0.41596516853E+03  0.42022995819E+03  0.41800000000E+01 0. -1.
        -11    1    1    2    0    0  0.26579823759E+02  0.17911034459E+02 -0.12776419863E+03  0.13172312871E+03  0.00000000000E+00 0. -1.
         11    1    1    2    0    0 -0.41974685004E+02 -0.54234185815E+02 -0.18731955194E+03  0.19947891024E+03  0.00000000000E+00 0.  1.
</event>
<event>
 7    1  0.3509197E-009  0.1001431E+03  0.7561462E-02  0.1279995E+00
          1   -1    0    0  501    0  0.00000000000E+00  0.00000000000E+00  0.69183853633E+02  0.69183853633E+02  0.00000000000E+00 0. -1.
         -1   -1    0    0    0  501 -0.00000000000E+00 -0.00000000000E+00 -0.38233396627E+03  0.38233396627E+03  0.00000000000E+00 0.  1.
         25    2    1    2    0    0  0.33079773125E+02 -0.87279908151E+02 -0.27326712426E+03  0.31469651601E+03  0.12508765819E+03 0.  0.
          5    1    3    3  502    0 -0.88825360984E+01 -0.18489598012E+02 -0.21289931006E+03  0.21392604635E+03  0.41800000000E+01 0. -1.
         -5    1    3    3    0  502  0.41962309223E+02 -0.68790310139E+02 -0.60367814200E+02  0.10077046966E+03  0.41800000000E+01 0. -1.
        -11    1    1    2    0    0 -0.26035394261E+02  0.25358365353E+02 -0.61011534596E+02  0.71016165776E+02  0.00000000000E+00 0.  1.
         11    1    1    2    0    0 -0.70443788638E+01  0.61921542798E+02  0.21128546227E+02  0.65805138110E+02  0.00000000000E+00 0. -1.
</event>
<event>
 7    1  0.2749315E-009  0.2291860E+03  0.7561462E-02  0.1127214E+00
         -1   -1    0    0    0  501 -0.00000000000E+00  0.00000000000E+00  0.10795727442E+03  0.10795727442E+03  0.00000000000E+00 0.  1.
          1   -1    0    0  501    0  0.00000000000E+00 -0.00000000000E+00 -0.56374109337E+03  0.56374109337E+03  0.00000000000E+00 0. -1.
         25    2    1    2    0    0 -0.20218757300E+03 -0.35113325656E+02 -0.12254415134E+03  0.26977314790E+03  0.12509085491E+03 0.  0.
          5    1    3    3  502    0 -0.25866882548E+02 -0.52836786615E+02 -0.10038490748E+02  0.59825290046E+02  0.41800000000E+01 0. -1.
         -5    1    3    3    0  502 -0.17632069045E+03  0.17723460960E+02 -0.11250566059E+03  0.20994785785E+03  0.41800000000E+01 0. -1.
        -11    1    1    2    0    0  0.16106121571E+03 -0.96483465088E+01 -0.21320266407E+03  0.26737460942E+03  0.00000000000E+00 0.  1.
         11    1    1    2    0    0  0.41126357289E+02  0.44761672165E+02 -0.12003700354E+03  0.13455061047E+03  0.00000000000E+00 0. -1.
</event>
<event>
 7    1  0.2749315E-009  0.1235887E+03  0.7561462E-02  0.1237291E+00
         -2   -1    0    0    0  501 -0.00000000000E+00  0.00000000000E+00  0.61951621795E+02  0.61951621795E+02  0.00000000000E+00 0.  1.
          2   -1    0    0  501    0  0.00000000000E+00 -0.00000000000E+00 -0.28109138524E+03  0.28109138524E+03  0.00000000000E+00 0. -1.
         25    2    1    2    0    0  0.31757420554E+02 -0.63737016311E+02 -0.15219268596E+03  0.20947708255E+03  0.12508834256E+03 0.  0.
          5    1    3    3  502    0  0.70615468493E-01  0.31186833178E+02 -0.56400650082E+01  0.31967268941E+02  0.41800000000E+01 0.  1.
         -5    1    3    3    0  502  0.31686805086E+02 -0.94923849489E+02 -0.14655262095E+03  0.17750981361E+03  0.41800000000E+01 0.  1.
        -11    1    1    2    0    0  0.95393131959E+01 -0.20014698874E+02 -0.11758097969E+02  0.25096604055E+02  0.00000000000E+00 0.  1.
         11    1    1    2    0    0 -0.41296733750E+02  0.83751715185E+02 -0.55188979513E+02  0.10846932043E+03  0.00000000000E+00 0. -1.
</event>
<event>
 7    1  0.2749315E-009  0.1414163E+03  0.7561462E-02  0.1211436E+00
          1   -1    0    0  501    0  0.00000000000E+00  0.00000000000E+00  0.18360790454E+03  0.18360790454E+03  0.00000000000E+00 0. -1.
         -1   -1    0    0    0  501 -0.00000000000E+00 -0.00000000000E+00 -0.12906356111E+03  0.12906356111E+03  0.00000000000E+00 0.  1.
         25    2    1    2    0    0  0.37966209050E+02 -0.94087963833E+02 -0.11617351482E+02  0.16147820132E+03  0.12508504579E+03 0.  0.
          5    1    3    3  502    0  0.69548933226E+01 -0.11812052794E+03 -0.22569453295E+02  0.12053083541E+03  0.41800000000E+01 0. -1.
         -5    1    3    3    0  502  0.31011315727E+02  0.24032564112E+02  0.10952101813E+02  0.40947365911E+02  0.41800000000E+01 0. -1.
        -11    1    1    2    0    0 -0.24908436983E+02  0.10502919028E+03  0.75537638222E+02  0.13174784944E+03  0.00000000000E+00 0. -1.
         11    1    1    2    0    0 -0.13057772066E+02 -0.10941226446E+02 -0.93759433117E+01  0.19445414896E+02  0.00000000000E+00 0.  1.
</event>
<event>
 7    1  0.2749315E-009  0.1185746E+03  0.7561462E-02  0.1245467E+00
         -2   -1    0    0    0  501 -0.00000000000E+00  0.00000000000E+00  0.17048197550E+02  0.17048197550E+02  0.00000000000E+00 0.  1.
          2   -1    0    0  501    0  0.00000000000E+00 -0.00000000000E+00 -0.14004038295E+04  0.14004038295E+04  0.00000000000E+00 0. -1.
         25    2    1    2    0    0 -0.44464363220E+02  0.53812281783E+02 -0.11873488308E+04  0.11959593356E+04  0.12509454546E+03 0.  0.
          5    1    3    3  502    0  0.10110369809E+02  0.77111332158E+02 -0.49858694054E+03  0.50463331915E+03  0.41800000000E+01 0.  1.
         -5    1    3    3    0  502 -0.54574733029E+02 -0.23299050375E+02 -0.68876189021E+03  0.69132601647E+03  0.41800000000E+01 0.  1.
        -11    1    1    2    0    0  0.31488892213E+02 -0.71334267331E+02 -0.12606525653E+03  0.14823149778E+03  0.00000000000E+00 0.  1.
         11    1    1    2    0    0  0.12975471007E+02  0.17521985548E+02 -0.69941544711E+02  0.73261193697E+02  0.00000000000E+00 0. -1.
</event>
<event>
 7    1  0.2749315E-009  0.9842858E+02  0.7561462E-02  0.1283636E+00
          2   -1    0    0  501    0  0.00000000000E+00  0.00000000000E+00  0.72599061215E+03  0.72599061215E+03  0.00000000000E+00 0. -1.
         -2   -1    0    0    0  501 -0.00000000000E+00 -0.00000000000E+00 -0.17089465179E+02  0.17089465179E+02  0.00000000000E+00 0.  1.
         25    2    1    2    0    0 -0.18811953450E+02  0.19874397382E+02  0.41957531602E+03  0.43867940602E+03  0.12508914498E+03 0.  0.
          5    1    3    3  502    0 -0.53915785874E+02 -0.11479415509E+02  0.89199317691E+02  0.10494131514E+03  0.41800000000E+01 0.  1.
         -5    1    3    3    0  502  0.35103832424E+02  0.31353812890E+02  0.33037599833E+03  0.33373809088E+03  0.41800000000E+01 0.  1.
        -11    1    1    2    0    0  0.55499357559E+02 -0.12865561761E+02  0.16304107296E+03  0.17270811458E+03  0.00000000000E+00 0. -1.
         11    1    1    2    0    0 -0.36687404109E+02 -0.70088356207E+01  0.12628475799E+03  0.13169255673E+03  0.00000000000E+00 0.  1.
</event>
<event>
 7    1  0.2749315E-009  0.1215066E+03  0.7561462E-02  0.1240632E+00
          2   -1    0    0  501    0  0.00000000000E+00  0.00000000000E+00  0.58251637996E+02  0.58251637996E+02  0.00000000000E+00 0. -1.
         -2   -1    0    0    0  501 -0.00000000000E+00 -0.00000000000E+00 -0.26757041824E+03  0.26757041824E+03  0.00000000000E+00 0.  1.
         25    2    1    2    0    0 -0.56582360841E+02  0.16103279798E+02 -0.92945455851E+02  0.16657409658E+03  0.12508873934E+03 0.  0.
          5    1    3    3  502    0 -0.67076369630E+02 -0.39593346664E+02 -0.71555396291E+02  0.10585140340E+03  0.41800000000E+01 0. -1.
         -5    1    3    3    0  502  0.10494008789E+02  0.55696626461E+02 -0.21390059560E+02  0.60722693185E+02  0.41800000000E+01 0. -1.
        -11    1    1    2    0    0 -0.12397755175E+02  0.24983859533E+02 -0.37132731306E+02  0.46440685878E+02  0.00000000000E+00 0.  1.
         11    1    1    2    0    0  0.68980116016E+02 -0.41087139331E+02 -0.79240593083E+02  0.11280727377E+03  0.00000000000E+00 0. -1.
</event>
<event>
 7    1  0.2749315E-009  0.1699581E+03  0.7561462E-02  0.1177892E+00
          1   -1    0    0  501    0  0.00000000000E+00  0.00000000000E+00  0.39255167178E+03  0.39255167178E+03  0.00000000000E+00 0. -1.
         -1   -1    0    0    0  501 -0.00000000000E+00 -0.00000000000E+00 -0.10190792524E+03  0.10190792524E+03  0.00000000000E+00 0.  1.
         25    2    1    2    0    0  0.15693978151E+03  0.17066560203E+02  0.81109358132E+02  0.21713244914E+03  0.12508561067E+03 0.  0.
          5    1    3    3  502    0  0.65138184154E+02  0.36504567322E+01  0.10274025801E+03  0.12177578530E+03  0.41800000000E+01 0. -1.
         -5    1    3    3    0  502  0.91801597359E+02  0.13416103471E+02 -0.21630899877E+02  0.95356663845E+02  0.41800000000E+01 0. -1.
        -11    1    1    2    0    0 -0.47724540391E+02 -0.48478974484E+02  0.79298934503E+02  0.10448044667E+03  0.00000000000E+00 0.  1.
         11    1    1    2    0    0 -0.10921524112E+03  0.31412414281E+02  0.13023545391E+03  0.17284670121E+03  0.00000000000E+00 0. -1.
</event>
<event>
 7    1  0.2749315E-009  0.7609726E+02  0.7561462E-02  0.1340506E+00
          2   -1    0    0  501    0  0.00000000000E+00  0.00000000000E+00  0.10004788266E+04  0.10004788266E+04  0.00000000000E+00 0.  1.
         -2   -1    0    0    0  501 -0.00000000000E+00 -0.00000000000E+00 -0.19127401324E+02  0.19127401324E+02  0.00000000000E+00 0. -1.
         25    2    1    2    0    0  0.61622065365E+02  0.39994587040E+02  0.69710253387E+03  0.71203665682E+03  0.12508961590E+03 0.  0.
          5    1    3    3  502    0  0.91609258122E+01  0.57800282726E+01 -0.49460739881E+00  0.11621029432E+02  0.41800000000E+01 0. -1.
         -5    1    3    3    0  502  0.52461139552E+02  0.34214558768E+02  0.69759714126E+03  0.70041562739E+03  0.41800000000E+01 0. -1.
        -11    1    1    2    0    0 -0.43059075659E+02 -0.40680511290E+02  0.28280008904E+03  0.28893749905E+03  0.00000000000E+00 0.  1.
         11    1    1    2    0    0 -0.18562989705E+02  0.68592425001E+00  0.14488023198E+01  0.18632072001E+02  0.00000000000E+00 0. -1.
</event>
<event>
 7    1  0.2749315E-009  0.1079482E+03  0.7561462E-02  0.1264417E+00
          2   -1    0    0  501    0  0.00000000000E+00  0.00000000000E+00  0.21978136791E+03  0.21978136791E+03  0.00000000000E+00 0. -1.
         -2   -1    0    0    0  501 -0.00000000000E+00 -0.00000000000E+00 -0.71588856006E+02  0.71588856006E+02  0.00000000000E+00 0.  1.
         25    2    1    2    0    0 -0.66468698197E+02  0.90452590883E+01  0.84797454807E+02  0.16533935307E+03  0.12508632531E+03 0.  0.
          5    1    3    3  502    0 -0.86743638097E+02  0.46120780021E+02  0.49325165940E+02  0.11000922459E+03  0.41800000000E+01 0. -1.
         -5    1    3    3    0  502  0.20274939900E+02 -0.37075520932E+02  0.35472288867E+02  0.55330128482E+02  0.41800000000E+01 0. -1.
        -11    1    1    2    0    0  0.60486645949E+02  0.41344912525E+01  0.82300643220E+02  0.10222095788E+03  0.00000000000E+00 0. -1.
         11    1    1    2    0    0  0.59820522476E+01 -0.13179750341E+02 -0.18905586128E+02  0.23809912956E+02  0.00000000000E+00 0.  1.
</event>
<event>
 7    1  0.3294719E-009  0.9897579E+02  0.7561462E-02  0.1282465E+00
         -3   -1    0    0    0  501 -0.00000000000E+00  0.00000000000E+00  0.85588920557E+02  0.85588920557E+02  0.00000000000E+00 0.  1.
          3   -1    0    0  501    0  0.00000000000E+00 -0.00000000000E+00 -0.19950451637E+03  0.19950451637E+03  0.00000000000E+00 0. -1.
         25    2    1    2    0    0 -0.12097410217E+01  0.62867752369E+02 -0.10224995494E+03  0.17336763060E+03  0.12508982489E+03 0.  0.
          5    1    3    3  502    0 -0.51122752043E+02  0.30540540113E+02 -0.57955458886E+01  0.59977671837E+02  0.41800000000E+01 0.  1.
         -5    1    3    3    0  502  0.49913011022E+02  0.32327212256E+02 -0.96454409053E+02  0.11338995876E+03  0.41800000000E+01 0.  1.
        -11    1    1    2    0    0 -0.22594959860E+02 -0.38041051723E+02  0.33111504123E+02  0.55263238528E+02  0.00000000000E+00 0.  1.
         11    1    1    2    0    0  0.23804700882E+02 -0.24826700646E+02 -0.44777144991E+02  0.56462567800E+02  0.00000000000E+00 0. -1.
</event>
<event>
 7    1  0.2749315E-009  0.8105415E+02  0.7561462E-02  0.1326086E+00
          1   -1    0    0  501    0  0.00000000000E+00  0.00000000000E+00  0.19636400658E+03  0.19636400658E+03  0.00000000000E+00 0. -1.
         -1   -1    0    0    0  501 -0.00000000000E+00 -0.00000000000E+00 -0.73418793667E+02  0.73418793667E+02  0.00000000000E+00 0.  1.
         25    2    1    2    0    0 -0.24034708197E+02 -0.33390415092E+02  0.10384321023E+03  0.16770294165E+03  0.12509307458E+03 0.  0.
          5    1    3    3  502    0  0.14907047838E+02 -0.48525183632E+02  0.11368760617E+03  0.12457631283E+03  0.41800000000E+01 0. -1.
         -5    1    3    3    0  502 -0.38941756035E+02  0.15134768540E+02 -0.98443959393E+01  0.43126628819E+02  0.41800000000E+01 0. -1.
        -11    1    1    2    0    0 -0.10929258961E+02  0.32414658244E+02 -0.27444473518E+02  0.43856104446E+02  0.00000000000E+00 0.  1.
         11    1    1    2    0    0  0.34963967158E+02  0.97575684795E+00  0.46546476202E+02  0.58223754153E+02  0.00000000000E+00 0. -1.
</event>
<event>
 7    1  0.2749315E-009  0.1286480E+03  0.7561462E-02  0.1229476E+00
          3   -1    0    0  501    0  0.00000000000E+00  0.00000000000E+00  0.91199759572E+03  0.91199759572E+03  0.00000000000E+00 0. -1.
         -3   -1    0    0    0  501 -0.00000000000E+00 -0.00000000000E+00 -0.18999298230E+02  0.18999298230E+02  0.00000000000E+00 0.  1.
         25    2    1    2    0    0  0.11978521994E+02  0.68360903361E+02  0.41299216062E+03  0.43706658552E+03  0.12509187564E+03 0.  0.
          5    1    3    3  502    0  0.23709870937E+02  0.10301091987E+03  0.32087246824E+03  0.33786094901E+03  0.41800000000E+01 0. -1.
         -5    1    3    3    0  502 -0.11731348944E+02 -0.34650016508E+02  0.92119692378E+02  0.99205636513E+02  0.41800000000E+01 0. -1.
        -11    1    1    2    0    0 -0.46593830049E+02 -0.64910425787E+02  0.29209814098E+03  0.30282944430E+03  0.00000000000E+00 0.  1.
         11    1    1    2    0    0  0.34615308055E+02 -0.34504775744E+01  0.18790799590E+03  0.19110086413E+03  0.00000000000E+00 0. -1.
</event>
<event>
 7    1  0.2749315E-009  0.1570592E+03  0.7561462E-02  0.1192058E+00
          1   -1    0    0  501    0  0.00000000000E+00  0.00000000000E+00  0.44751005931E+03  0.44751005931E+03  0.00000000000E+00 0. -1.
         -1   -1    0    0    0  501 -0.00000000000E+00 -0.00000000000E+00 -0.84750589703E+02  0.84750589703E+02  0.00000000000E+00 0.  1.
         25    2    1    2    0    0  0.12700483869E+03  0.38280274534E+02  0.66075116783E+02  0.19393022302E+03  0.12508957541E+03 0.  0.
          5    1    3    3  502    0  0.11264697348E+03  0.66986393969E+02  0.13006124332E+02  0.13176930326E+03  0.41800000000E+01 0.  1.
         -5    1    3    3    0  502  0.14357865209E+02 -0.28706119435E+02  0.53068992451E+02  0.62160919766E+02  0.41800000000E+01 0.  1.
        -11    1    1    2    0    0 -0.60410081155E+02  0.18426250238E+02  0.19085614582E+03  0.20103475570E+03  0.00000000000E+00 0. -1.
         11    1    1    2    0    0 -0.66594757530E+02 -0.56706524773E+02  0.10582820700E+03  0.13729567029E+03  0.00000000000E+00 0.  1.
</event>
<event>
 7    1  0.2749315E-009  0.1598691E+03  0.7561462E-02  0.1188845E+00
          1   -1    0    0  501    0  0.00000000000E+00  0.00000000000E+00  0.56851120688E+03  0.56851120688E+03  0.00000000000E+00 0. -1.
         -1   -1    0    0    0  501 -0.00000000000E+00 -0.00000000000E+00 -0.61499227324E+02  0.61499227324E+02  0.00000000000E+00 0.  1.
         25    2    1    2    0    0  0.13520880471E+03 -0.19357504469E+02  0.38230836393E+03  0.42480957354E+03  0.12508938720E+03 0.  0.
          5    1    3    3  502    0  0.24554399694E+02 -0.55602847673E+02  0.19426390237E+03  0.20359403571E+03  0.41800000000E+01 0.  1.
         -5    1    3    3    0  502  0.11065440501E+03  0.36245343204E+02  0.18804446157E+03  0.22121553783E+03  0.41800000000E+01 0.  1.
        -11    1    1    2    0    0 -0.93292644251E+02 -0.56923490121E+01  0.29172249247E+02  0.97912922715E+02  0.00000000000E+00 0.  1.
         11    1    1    2    0    0 -0.41916160457E+02  0.25049853481E+02  0.95531366375E+02  0.10728793794E+03  0.00000000000E+00 0. -1.
</event>
<event>
 7    1  0.2749315E-009  0.9143731E+02  0.7561462E-02  0.1299408E+00
          2   -1    0    0  501    0  0.00000000000E+00  0.00000000000E+00  0.86591436809E+02  0.86591436809E+02  0.00000000000E+00 0. -1.
         -2   -1    0    0    0  501 -0.00000000000E+00 -0.00000000000E+00 -0.17412266095E+03  0.17412266095E+03  0.00000000000E+00 0.  1.
         25    2    1    2    0    0 -0.28948234694E+02  0.53762526639E+01 -0.10415660550E+03  0.16542392916E+03  0.12509825532E+03 0.  0.
          5    1    3    3  502    0  0.11797413256E+02  0.58450420333E+02 -0.62558696495E+02  0.86525681181E+02  0.41800000000E+01 0.  1.
         -5    1    3    3    0  502 -0.40745647949E+02 -0.53074167669E+02 -0.41597909009E+02  0.78898247981E+02  0.41800000000E+01 0.  1.
        -11    1    1    2    0    0  0.39307704771E+02  0.69914637323E+01 -0.27386300270E+02  0.48414725673E+02  0.00000000000E+00 0.  1.
         11    1    1    2    0    0 -0.10359470077E+02 -0.12367716396E+02  0.44011681633E+02  0.46875442924E+02  0.00000000000E+00 0. -1.
</event>
<event>
 7    1  0.2749315E-009  0.1078859E+03  0.7561462E-02  0.1264536E+00
          1   -1    0    0  501    0  0.00000000000E+00  0.00000000000E+00  0.40801939010E+02  0.40801939010E+02  0.00000000000E+00 0. -1.
         -1   -1    0    0    0  501 -0.00000000000E+00 -0.00000000000E+00 -0.43915921111E+03  0.43915921111E+03  0.00000000000E+00 0.  1.
         25    2    1    2    0    0  0.35611306669E+02  0.42834038513E+02 -0.19976871909E+03  0.24219452387E+03  0.12509087196E+03 0.  0.
          5    1    3    3  502    0 -0.17759591206E+02  0.19997317893E+02  0.65273007188E+01  0.27845535681E+02  0.41800000000E+01 0.  1.
         -5    1    3    3    0  502  0.53370897875E+02  0.22836720621E+02 -0.20629601981E+03  0.21434898819E+03  0.41800000000E+01 0.  1.
        -11    1    1    2    0    0 -0.54287060901E+02  0.25271181474E+02 -0.83836207304E+02  0.10302537187E+03  0.00000000000E+00 0. -1.
         11    1    1    2    0    0  0.18675754232E+02 -0.68105219988E+02 -0.11475234570E+03  0.13474125437E+03  0.00000000000E+00 0.  1.
</event>
<event>
 7    1  0.2749315E-009  0.2493845E+03  0.7561462E-02  0.1113694E+00
         -1   -1    0    0    0  501 -0.00000000000E+00  0.00000000000E+00  0.22614755269E+03  0.22614755269E+03  0.00000000000E+00 0.  1.
          1   -1    0    0  501    0  0.00000000000E+00 -0.00000000000E+00 -0.33136358949E+03  0.33136358949E+03  0.00000000000E+00 0. -1.
         25    2    1    2    0    0  0.90964972910E+02  0.22579603755E+03 -0.11630961672E+03  0.29737860563E+03  0.12509049234E+03 0.  0.
          5    1    3    3  502    0  0.65867492091E+02  0.76770262386E+02 -0.10486913483E+03  0.14576421900E+03  0.41800000000E+01 0.  1.
         -5    1    3    3    0  502  0.25097480819E+02  0.14902577516E+03 -0.11440481889E+02  0.15161438662E+03  0.41800000000E+01 0.  1.
        -11    1    1    2    0    0  0.82410905199E-01 -0.34377114980E+02 -0.28308281471E+02  0.44532590602E+02  0.00000000000E+00 0. -1.
         11    1    1    2    0    0 -0.91047383815E+02 -0.19141892257E+03  0.39401861392E+02  0.21559994596E+03  0.00000000000E+00 0.  1.
</event>
<event>
 7    1  0.2749315E-009  0.2248684E+03  0.7561462E-02  0.1130305E+00
         -1   -1    0    0    0  501 -0.00000000000E+00  0.00000000000E+00  0.10080930181E+04  0.10080930181E+04  0.00000000000E+00 0.  1.
          1   -1    0    0  501    0  0.00000000000E+00 -0.00000000000E+00 -0.68207582396E+02  0.68207582396E+02  0.00000000000E+00 0. -1.
         25    2    1    2    0    0  0.56275841510E+02 -0.19690131488E+03  0.23067436084E+03  0.33285940324E+03  0.12509046101E+03 0.  0.
          5    1    3    3  502    0 -0.28271794311E+02 -0.52084312022E+02  0.11393012017E+03  0.12848974510E+03  0.41800000000E+01 0.  1.
         -5    1    3    3    0  502  0.84547635821E+02 -0.14481700286E+03  0.11674424067E+03  0.20436965814E+03  0.41800000000E+01 0.  1.
        -11    1    1    2    0    0  0.16047923984E+02  0.10205302491E+03  0.35162156268E+03  0.36648339540E+03  0.00000000000E+00 0.  1.
         11    1    1    2    0    0 -0.72323765494E+02  0.94848289967E+02  0.35758951221E+03  0.37695780190E+03  0.00000000000E+00 0. -1.
</event>
<event>
 7    1  0.2749315E-009  0.1474881E+03  0.7561462E-02  0.1203594E+00
          4   -1    0    0  501    0  0.00000000000E+00  0.00000000000E+00  0.17763366035E+03  0.17763366035E+03  0.00000000000E+00 0. -1.
         -4   -1    0    0    0  501 -0.00000000000E+00 -0.00000000000E+00 -0.16039810494E+03  0.16039810494E+03  0.00000000000E+00 0.  1.
         25    2    1    2    0    0  0.10462798503E+03  0.77691150404E+02 -0.74415294385E+00  0.18063949526E+03  0.12508854217E+03 0.  0.
          5    1    3    3  502    0  0.66482990391E+01  0.58137342892E+02  0.41730610416E+02  0.71993518906E+02  0.41800000000E+01 0. -1.
         -5    1    3    3    0  502  0.97979685993E+02  0.19553807512E+02 -0.42474763360E+02  0.10864597635E+03  0.41800000000E+01 0. -1.
        -11    1    1    2    0    0 -0.67528779191E+02 -0.72114046622E+02  0.47531511222E+02  0.10963492280E+03  0.00000000000E+00 0. -1.
         11    1    1    2    0    0 -0.37099205842E+02 -0.55771037825E+01 -0.29551802873E+02  0.47757347222E+02  0.00000000000E+00 0.  1.
</event>
<event>
 7    1  0.2749315E-009  0.7738944E+02  0.7561462E-02  0.1336627E+00
         -2   -1    0    0    0  501 -0.00000000000E+00  0.00000000000E+00  0.78981341644E+02  0.78981341644E+02  0.00000000000E+00 0.  1.
          2   -1    0    0  501    0  0.00000000000E+00 -0.00000000000E+00 -0.20388164493E+03  0.20388164493E+03  0.00000000000E+00 0. -1.
         25    2    1    2    0    0  0.73539136828E+01 -0.17181180846E+02  0.81204582555E+00  0.12647892894E+03  0.12508791719E+03 0.  0.
          5    1    3    3  502    0  0.84641198565E+01 -0.56589545788E+02 -0.39721801206E+02  0.69780455061E+02  0.41800000000E+01 0.  1.
         -5    1    3    3    0  502 -0.11102061737E+01  0.39408364942E+02  0.40533847031E+02  0.56698473880E+02  0.41800000000E+01 0.  1.
        -11    1    1    2    0    0  0.19635260794E+02  0.22908834967E+02 -0.26742098089E+01  0.30290420665E+02  0.00000000000E+00 0.  1.
         11    1    1    2    0    0 -0.26989174477E+02 -0.57276541211E+01 -0.12303813931E+03  0.12609363697E+03  0.00000000000E+00 0. -1.
</event>
<event>
 7    1  0.2749315E-009  0.1092708E+03  0.7561462E-02  0.1261926E+00
         -2   -1    0    0    0  501 -0.00000000000E+00  0.00000000000E+00  0.17270519821E+02  0.17270519821E+02  0.00000000000E+00 0.  1.
          2   -1    0    0  501    0  0.00000000000E+00 -0.00000000000E+00 -0.76053615278E+03  0.76053615278E+03  0.00000000000E+00 0. -1.
         25    2    1    2    0    0 -0.42086675759E+02  0.60355319746E+00 -0.41346583828E+03  0.43402004798E+03  0.12509096716E+03 0.  0.
          5    1    3    3  502    0 -0.55954725042E+02 -0.52253850211E+02 -0.22219293747E+03  0.23505014354E+03  0.41800000000E+01 0. -1.
         -5    1    3    3    0  502  0.13868049283E+02  0.52857403409E+02 -0.19127290081E+03  0.19896990444E+03  0.41800000000E+01 0. -1.
        -11    1    1    2    0    0 -0.96887691742E+00  0.32647190611E+02 -0.57707268831E+02  0.66309174729E+02  0.00000000000E+00 0.  1.
         11    1    1    2    0    0  0.43055552677E+02 -0.33250743809E+02 -0.27209252584E+03  0.27747744989E+03  0.00000000000E+00 0. -1.
</event>
<event>
 7    1  0.2749315E-009  0.9474923E+02  0.7561462E-02  0.1291742E+00
          2   -1    0    0  501    0  0.00000000000E+00  0.00000000000E+00  0.31043268352E+03  0.31043268352E+03  0.00000000000E+00 0. -1.
         -2   -1    0    0    0  501 -0.00000000000E+00 -0.00000000000E+00 -0.45960366745E+02  0.45960366745E+02  0.00000000000E+00 0.  1.
         25    2    1    2    0    0  0.12778027906E+02 -0.48653459509E+02  0.13850209883E+03  0.19328982199E+03  0.12509071423E+03 0.  0.
          5    1    3    3  502    0 -0.12782121007E+02 -0.61853783212E+02  0.13200838569E+02  0.64660711828E+02  0.41800000000E+01 0. -1.
         -5    1    3    3    0  502  0.25560148913E+02  0.13200323703E+02  0.12530126026E+03  0.12862911016E+03  0.41800000000E+01 0. -1.
        -11    1    1    2    0    0  0.35358933033E+02  0.26234459661E+02  0.86084726584E+02  0.96690646755E+02  0.00000000000E+00 0. -1.
         11    1    1    2    0    0 -0.48136960939E+02  0.22418999849E+02  0.39885491354E+02  0.66412581513E+02  0.00000000000E+00 0.  1.
</event>
<event>
 7    1  0.2948431E-009  0.1018199E+03  0.7561462E-02  0.1276515E+00
         -4   -1    0    0    0  501 -0.00000000000E+00  0.00000000000E+00  0.47494419969E+02  0.47494419969E+02  0.00000000000E+00 0.  1.
          4   -1    0    0  501    0  0.00000000000E+00 -0.00000000000E+00 -0.32040549210E+03  0.32040549210E+03  0.00000000000E+00 0. -1.
         25    2    1    2    0    0  0.21064547670E+02  0.55714204127E+02 -0.15493737214E+03  0.20784811560E+03  0.12508981638E+03 0.  0.
          5    1    3    3  502    0  0.34729432606E+02  0.92144776378E+02 -0.12089458456E+03  0.15598001884E+03  0.41800000000E+01 0.  1.
         -5    1    3    3    0  502 -0.13664884936E+02 -0.36430572251E+02 -0.34042787578E+02  0.51868096754E+02  0.41800000000E+01 0.  1.
        -11    1    1    2    0    0 -0.25240134156E+02 -0.27118555653E+02  0.15545935273E+01  0.37079606173E+02  0.00000000000E+00 0.  1.
         11    1    1    2    0    0  0.41755864863E+01 -0.28595648474E+02 -0.11952829352E+03  0.12297219029E+03  0.00000000000E+00 0. -1.
</event>
<event>
 7    1  0.2749315E-009  0.1307970E+03  0.7561462E-02  0.1226278E+00
         -2   -1    0    0    0  501 -0.00000000000E+00  0.00000000000E+00  0.26592600017E+03  0.26592600017E+03  0.00000000000E+00 0.  1.
          2   -1    0    0  501    0  0.00000000000E+00 -0.00000000000E+00 -0.77838287817E+02  0.77838287817E+02  0.00000000000E+00 0. -1.
         25    2    1    2    0    0 -0.68009791921E+02  0.53037612001E+02  0.13049094192E+03  0.20028342553E+03  0.12508894649E+03 0.  0.
          5    1    3    3  502    0 -0.30799871370E+02  0.89712799496E+02  0.10638956562E+03  0.14259463715E+03  0.41800000000E+01 0.  1.
         -5    1    3    3    0  502 -0.37209920551E+02 -0.36675187495E+02  0.24101376299E+02  0.57688788380E+02  0.41800000000E+01 0.  1.
        -11    1    1    2    0    0  0.35171031795E+02 -0.69208049323E+02  0.70302779466E+02  0.10473412228E+03  0.00000000000E+00 0.  1.
         11    1    1    2    0    0  0.32838760126E+02  0.16170437322E+02 -0.12706009028E+02  0.38746740188E+02  0.00000000000E+00 0. -1.
</event>
<event>
 7    1  0.2749315E-009  0.2129516E+03  0.7561462E-02  0.1139250E+00
         -2   -1    0    0    0  501 -0.00000000000E+00  0.00000000000E+00  0.57532857534E+03  0.57532857534E+03  0.00000000000E+00 0.  1.
          2   -1    0    0  501    0  0.00000000000E+00 -0.00000000000E+00 -0.84977599793E+02  0.84977599793E+02  0.00000000000E+00 0. -1.
         25    2    1    2    0    0 -0.11243799858E+02 -0.19271491038E+03  0.25143399149E+03  0.34078225189E+03  0.12509209170E+03 0.  0.
          5    1    3    3  502    0  0.56694547811E+02 -0.97027519291E+02  0.12909507761E+03  0.17120637463E+03  0.41800000000E+01 0.  1.
         -5    1    3    3    0  502 -0.67938347669E+02 -0.95687391092E+02  0.12233891388E+03  0.16957587726E+03  0.41800000000E+01 0.  1.
        -11    1    1    2    0    0 -0.11969430301E+02  0.48818904934E+02  0.15197460411E+02  0.52512051413E+02  0.00000000000E+00 0. -1.
         11    1    1    2    0    0  0.23213230159E+02  0.14389600545E+03  0.22371952364E+03  0.26701187183E+03  0.00000000000E+00 0.  1.
</event>
<event>
 7    1  0.2749315E-009  0.1258312E+03  0.7561462E-02  0.1233776E+00
          2   -1    0    0  501    0  0.00000000000E+00  0.00000000000E+00  0.80837515255E+03  0.80837515255E+03  0.00000000000E+00 0. -1.
         -2   -1    0    0    0  501 -0.00000000000E+00 -0.00000000000E+00 -0.30651905174E+02  0.30651905174E+02  0.00000000000E+00 0.  1.
         25    2    1    2    0    0 -0.32378839901E+01 -0.11175048166E+03  0.45936737424E+03  0.48904720286E+03  0.12510047187E+03 0.  0.
          5    1    3    3  502    0 -0.14197509383E+02 -0.87549429685E+02  0.45271853253E+03  0.46134370485E+03  0.41800000000E+01 0.  1.
         -5    1    3    3    0  502  0.10959625393E+02 -0.24201051978E+02  0.66488417073E+01  0.27703498004E+02  0.41800000000E+01 0.  1.
        -11    1    1    2    0    0 -0.31791391421E+02  0.88232760588E+02  0.15413247256E+03  0.18042320169E+03  0.00000000000E+00 0.  1.
         11    1    1    2    0    0  0.35029275411E+02  0.23517721075E+02  0.16422340058E+03  0.16955665318E+03  0.00000000000E+00 0. -1.
</event>
<event>
 7    1  0.2749315E-009  0.1198944E+03  0.7561462E-02  0.1243271E+00
         -2   -1    0    0    0  501 -0.00000000000E+00  0.00000000000E+00  0.91722956300E+02  0.91722956300E+02  0.00000000000E+00 0.  1.
          2   -1    0    0  501    0  0.00000000000E+00 -0.00000000000E+00 -0.19106790947E+03  0.19106790947E+03  0.00000000000E+00 0. -1.
         25    2    1    2    0    0 -0.58508800217E+02 -0.48140455591E+02 -0.48412473017E+02  0.15405630153E+03  0.12509513712E+03 0.  0.
          5    1    3    3  502    0  0.33853006611E+02 -0.18614017335E+01  0.96221163160E+01  0.35490116870E+02  0.41800000000E+01 0.  1.
         -5    1    3    3    0  502 -0.92361806828E+02 -0.46279053857E+02 -0.58034589333E+02  0.11856618466E+03  0.41800000000E+01 0.  1.
        -11    1    1    2    0    0 -0.41693924819E+00 -0.15499260848E+02 -0.38004221221E+02  0.41045362171E+02  0.00000000000E+00 0. -1.
         11    1    1    2    0    0  0.58925739465E+02  0.63639716439E+02 -0.12928258931E+02  0.87689202065E+02  0.00000000000E+00 0.  1.
</event>
<event>
 7    1  0.2749315E-009  0.1054405E+03  0.7561462E-02  0.1269254E+00
          2   -1    0    0  501    0  0.00000000000E+00  0.00000000000E+00  0.82045059929E+03  0.82045059929E+03  0.00000000000E+00 0. -1.
         -2   -1    0    0    0  501 -0.00000000000E+00 -0.00000000000E+00 -0.22955148435E+02  0.22955148435E+02  0.00000000000E+00 0.  1.
         25    2    1    2    0    0  0.79542470008E+02  0.20924525871E+02  0.39618955431E+03  0.42353260427E+03  0.12509541808E+03 0.  0.
          5    1    3    3  502    0  0.51250393202E+00  0.27746119428E+02  0.10845645223E+02  0.30086711750E+02  0.41800000000E+01 0.  1.
         -5    1    3    3    0  502  0.79029966076E+02 -0.68215935573E+01  0.38534390908E+03  0.39344589252E+03  0.41800000000E+01 0.  1.
        -11    1    1    2    0    0 -0.38911425777E+02 -0.42297764901E+02  0.33067784031E+03  0.33563526936E+03  0.00000000000E+00 0.  1.
         11    1    1    2    0    0 -0.40631044231E+02  0.21373239031E+02  0.70628056243E+02  0.84237874087E+02  0.00000000000E+00 0. -1.
</event>
<event>
 7    1  0.2749315E-009  0.1242644E+03  0.7561462E-02  0.1236223E+00
          1   -1    0    0  501    0  0.00000000000E+00  0.00000000000E+00  0.11540280684E+03  0.11540280684E+03  0.00000000000E+00 0. -1.
         -1   -1    0    0    0  501 -0.00000000000E+00 -0.00000000000E+00 -0.17590234670E+03  0.17590234670E+03  0.00000000000E+00 0.  1.
         25    2    1    2    0    0  0.35458296507E+00 -0.83358474661E+02 -0.72643143600E+02  0.16695590897E+03  0.12509391752E+03 0.  0.
          5    1    3    3  502    0  0.38238098368E+02  0.12508222505E+01 -0.62777358601E+02  0.73635493317E+02  0.41800000000E+01 0. -1.
         -5    1    3    3    0  502 -0.37883515402E+02 -0.84609296911E+02 -0.98657849984E+01  0.93320415648E+02  0.41800000000E+01 0. -1.
        -11    1    1    2    0    0 -0.29628430459E+02  0.82826554983E+02  0.26319395683E+02  0.91819348129E+02  0.00000000000E+00 0. -1.
         11    1    1    2    0    0  0.29273847494E+02  0.53191967770E+00 -0.14175791939E+02  0.32529896445E+02  0.00000000000E+00 0.  1.
</event>
<event>
 7    1  0.2749315E-009  0.1421862E+03  0.7561462E-02  0.1210417E+00
         -2   -1    0    0    0  501 -0.00000000000E+00  0.00000000000E+00  0.99698816708E+02  0.99698816708E+02  0.00000000000E+00 0.  1.
          2   -1    0    0  501    0  0.00000000000E+00 -0.00000000000E+00 -0.33326078537E+03  0.33326078537E+03  0.00000000000E+00 0. -1.
         25    2    1    2    0    0  0.90132940865E+02 -0.86669476562E+02 -0.21528938455E+03  0.27863453940E+03  0.12510852189E+03 0.  0.
          5    1    3    3  502    0  0.14754537636E+02 -0.62852153826E+02 -0.18127545612E+03  0.19247429182E+03  0.41800000000E+01 0. -1.
         -5    1    3    3    0  502  0.75378403229E+02 -0.23817322736E+02 -0.34013928434E+02  0.86160247581E+02  0.41800000000E+01 0. -1.
        -11    1    1    2    0    0 -0.31194126993E+02 -0.49399991989E+01  0.21669015038E+02  0.38301741000E+02  0.00000000000E+00 0.  1.
         11    1    1    2    0    0 -0.58938813872E+02  0.91609475761E+02 -0.39941599146E+02  0.11602332167E+03  0.00000000000E+00 0. -1.
</event>
<event>
 7    1  0.2749315E-009  0.1082962E+03  0.7561462E-02  0.1263758E+00
          2   -1    0    0  501    0  0.00000000000E+00  0.00000000000E+00  0.18360612153E+03  0.18360612153E+03  0.00000000000E+00 0. -1.
         -2   -1    0    0    0  501 -0.00000000000E+00 -0.00000000000E+00 -0.90841321847E+02  0.90841321847E+02  0.00000000000E+00 0.  1.
         25    2    1    2    0    0 -0.80948831419E+01 -0.15382740628E+02  0.12191117283E+03  0.17553355593E+03  0.12509012492E+03 0.  0.
          5    1    3    3  502    0  0.13021201235E+02  0.50953810461E+02  0.74159324660E+02  0.91010550576E+02  0.41800000000E+01 0. -1.
         -5    1    3    3    0  502 -0.21116084377E+02 -0.66336551089E+02  0.47751848174E+02  0.84523005352E+02  0.41800000000E+01 0. -1.
        -11    1    1    2    0    0  0.18015716142E+02  0.52588018209E+02 -0.21821898453E+02  0.59718179304E+02  0.00000000000E+00 0.  1.
         11    1    1    2    0    0 -0.99208330001E+01 -0.37205277581E+02 -0.73244746984E+01  0.39195708144E+02  0.00000000000E+00 0. -1.
</event>
<event>
 7    1  0.2749315E-009  0.1016750E+03  0.7561462E-02  0.1276813E+00
         -1   -1    0    0    0  501 -0.00000000000E+00  0.00000000000E+00  0.35327681966E+02  0.35327681966E+02  0.00000000000E+00 0.  1.
          1   -1    0    0  501    0  0.00000000000E+00 -0.00000000000E+00 -0.33682829578E+03  0.33682829578E+03  0.00000000000E+00 0. -1.
         25    2    1    2    0    0 -0.69300052810E+01  0.79589695760E+01 -0.19689813095E+03  0.23351082495E+03  0.12508821379E+03 0.  0.
          5    1    3    3  502    0 -0.58810438676E+02  0.32015466866E+02 -0.12142677562E+03  0.13872848321E+03  0.41800000000E+01 0. -1.
         -5    1    3    3    0  502  0.51880433395E+02 -0.24056497290E+02 -0.75471355335E+02  0.94782341748E+02  0.41800000000E+01 0. -1.
        -11    1    1    2    0    0  0.55935505720E+01 -0.43246978422E+02 -0.90803312742E+02  0.10073147748E+03  0.00000000000E+00 0. -1.
         11    1    1    2    0    0  0.13364547090E+01  0.35288008846E+02 -0.13799170118E+02  0.37913675309E+02  0.00000000000E+00 0.  1.
</event>
<event>
 7    1  0.2749315E-009  0.8136150E+02  0.7561462E-02  0.1325232E+00
         -1   -1    0    0    0  501 -0.00000000000E+00  0.00000000000E+00  0.24535859459E+03  0.24535859459E+03  0.00000000000E+00 0.  1.
          1   -1    0    0  501    0  0.00000000000E+00 -0.00000000000E+00 -0.71886623183E+02  0.71886623183E+02  0.00000000000E+00 0. -1.
         25    2    1    2    0    0  0.13241140019E+02 -0.46040681326E+02  0.16734428541E+03  0.21435105982E+03  0.12508874793E+03 0.  0.
          5    1    3    3  502    0  0.26014909861E+02  0.20993255241E+01  0.16193517517E+03  0.16407820105E+03  0.41800000000E+01 0.  1.
         -5    1    3    3    0  502 -0.12773769842E+02 -0.48140006850E+02  0.54091102463E+01  0.50272858773E+02  0.41800000000E+01 0.  1.
        -11    1    1    2    0    0  0.18596162745E+02  0.50820316372E+02  0.30860209845E+02  0.62296664250E+02  0.00000000000E+00 0.  1.
         11    1    1    2    0    0 -0.31837302764E+02 -0.47796350452E+01 -0.24732523854E+02  0.40597493699E+02  0.00000000000E+00 0. -1.
</event>
<event>
 7    1  0.2749315E-009  0.7069755E+02  0.7561462E-02  0.1357737E+00
         -2   -1    0    0    0  501 -0.00000000000E+00  0.00000000000E+00  0.44984786118E+03  0.44984786118E+03  0.00000000000E+00 0. -1.
          2   -1    0    0  501    0  0.00000000000E+00 -0.00000000000E+00 -0.27630120594E+02  0.27630120594E+02  0.00000000000E+00 0.  1.
         25    2    1    2    0    0 -0.13881734611E+02 -0.33907097644E+01  0.19308149389E+03  0.23050459959E+03  0.12509079775E+03 0.  0.
          5    1    3    3  502    0  0.20076239349E+02 -0.20561536021E+02 -0.43786177764E+01  0.29367956067E+02  0.41800000000E+01 0.  1.
         -5    1    3    3    0  502 -0.33957973959E+02  0.17170826256E+02  0.19746011167E+03  0.20113664353E+03  0.41800000000E+01 0.  1.
        -11    1    1    2    0    0  0.35977718988E+02  0.24490345978E+02  0.20025934542E+03  0.20493408388E+03  0.00000000000E+00 0. -1.
         11    1    1    2    0    0 -0.22095984377E+02 -0.21099636213E+02  0.28876901275E+02  0.42039298296E+02  0.00000000000E+00 0.  1.
</event>
<event>
 7    1  0.2749315E-009  0.7330145E+02  0.7561462E-02  0.1349213E+00
          2   -1    0    0  501    0  0.00000000000E+00  0.00000000000E+00  0.10968536798E+03  0.10968536798E+03  0.00000000000E+00 0.  1.
         -2   -1    0    0    0  501 -0.00000000000E+00 -0.00000000000E+00 -0.13827479562E+03  0.13827479562E+03  0.00000000000E+00 0. -1.
         25    2    1    2    0    0 -0.85276349858E+01 -0.47725115431E+02  0.19163146908E+02  0.13551396040E+03  0.12508557096E+03 0.  0.
          5    1    3    3  502    0 -0.29424031231E+02  0.81423549298E+00  0.61080872813E+02  0.67932186899E+02  0.41800000000E+01 0. -1.
         -5    1    3    3    0  502  0.20896396245E+02 -0.48539350924E+02 -0.41917725905E+02  0.67581773498E+02  0.41800000000E+01 0. -1.
        -11    1    1    2    0    0  0.20143358794E+02  0.67081490500E+01 -0.63535061013E+02  0.66988492632E+02  0.00000000000E+00 0. -1.
         11    1    1    2    0    0 -0.11615723808E+02  0.41016966381E+02  0.15782486469E+02  0.45457710565E+02  0.00000000000E+00 0.  1.
</event>
<event>
 7    1  0.2749315E-009  0.1290320E+03  0.7561462E-02  0.1228899E+00
         -1   -1    0    0    0  501 -0.00000000000E+00  0.00000000000E+00  0.77743710491E+02  0.77743710491E+02  0.00000000000E+00 0.  1.
          1   -1    0    0  501    0  0.00000000000E+00 -0.00000000000E+00 -0.33810632940E+03  0.33810632940E+03  0.00000000000E+00 0. -1.
         25    2    1    2    0    0  0.88919949271E+02 -0.35881056102E+02 -0.46939665448E+02  0.16445082898E+03  0.12508611192E+03 0.  0.
          5    1    3    3  502    0  0.39439731929E+02  0.25918408991E+02 -0.67577039693E+02  0.82531115786E+02  0.41800000000E+01 0. -1.
         -5    1    3    3    0  502  0.49480217343E+02 -0.61799465093E+02  0.20637374245E+02  0.81919713194E+02  0.41800000000E+01 0. -1.
        -11    1    1    2    0    0 -0.21213998482E+02  0.56728279430E+02 -0.80058866050E+02  0.10038701834E+03  0.00000000000E+00 0. -1.
         11    1    1    2    0    0 -0.67705950789E+02 -0.20847223329E+02 -0.13336408741E+03  0.15101219256E+03  0.00000000000E+00 0.  1.
</event>
<event>
 7    1  0.2749315E-009  0.8618163E+02  0.7561462E-02  0.1312371E+00
          2   -1    0    0  501    0  0.00000000000E+00  0.00000000000E+00  0.11218639943E+03  0.11218639943E+03  0.00000000000E+00 0.  1.
         -2   -1    0    0    0  501 -0.00000000000E+00 -0.00000000000E+00 -0.14293693949E+03  0.14293693949E+03  0.00000000000E+00 0. -1.
         25    2    1    2    0    0 -0.40357098431E+02  0.56630201755E+02 -0.44157948846E+02  0.14977604477E+03  0.12508902428E+03 0.  0.
          5    1    3    3  502    0 -0.44580949781E+02  0.37355275242E+02  0.35053104908E+02  0.68037270929E+02  0.41800000000E+01 0. -1.
         -5    1    3    3    0  502  0.42238513504E+01  0.19274926513E+02 -0.79211053754E+02  0.81738773842E+02  0.41800000000E+01 0. -1.
        -11    1    1    2    0    0  0.48951279929E+02 -0.14746524021E+02 -0.15866435560E+02  0.53529725899E+02  0.00000000000E+00 0. -1.
         11    1    1    2    0    0 -0.85941814986E+01 -0.41883677734E+02  0.29273844352E+02  0.51817568250E+02  0.00000000000E+00 0.  1.
</event>
<event>
 7    1  0.2749315E-009  0.9996048E+02  0.7561462E-02  0.1280379E+00
         -1   -1    0    0    0  501 -0.00000000000E+00  0.00000000000E+00  0.21432142527E+02  0.21432142527E+02  0.00000000000E+00 0.  1.
          1   -1    0    0  501    0  0.00000000000E+00 -0.00000000000E+00 -0.69889530184E+03  0.69889530184E+03  0.00000000000E+00 0. -1.
         25    2    1    2    0    0 -0.15812233851E+01  0.50111601591E+02 -0.43627370046E+03  0.45661325922E+03  0.12508898394E+03 0.  0.
          5    1    3    3  502    0  0.57105233863E+02  0.84498611892E+01 -0.25595287595E+03  0.26241523392E+03  0.41800000000E+01 0.  1.
         -5    1    3    3    0  502 -0.58686457248E+02  0.41661740402E+02 -0.18032082451E+03  0.19419802530E+03  0.41800000000E+01 0.  1.
        -11    1    1    2    0    0  0.20970189883E+02 -0.60714978069E+01 -0.46386983289E+01  0.22318814295E+02  0.00000000000E+00 0.  1.
         11    1    1    2    0    0 -0.19388966498E+02 -0.44040103784E+02 -0.23655076052E+03  0.24139537085E+03  0.00000000000E+00 0. -1.
</event>
<event>
 7    1  0.2749315E-009  0.1126598E+03  0.7561462E-02  0.1255722E+00
          2   -1    0    0  501    0  0.00000000000E+00  0.00000000000E+00  0.62280576566E+03  0.62280576566E+03  0.00000000000E+00 0.  1.
         -2   -1    0    0    0  501 -0.00000000000E+00 -0.00000000000E+00 -0.29033988111E+02  0.29033988111E+02  0.00000000000E+00 0. -1.
         25    2    1    2    0    0  0.54094314375E+02 -0.38462864551E+02  0.21794548613E+03  0.25990329009E+03  0.12507557105E+03 0.  0.
          5    1    3    3  502    0  0.88130942902E+01  0.39929155686E+02  0.11816472508E+03  0.12510948308E+03  0.41800000000E+01 0. -1.
         -5    1    3    3    0  502  0.45281220084E+02 -0.78392020237E+02  0.99780761057E+02  0.13479380700E+03  0.41800000000E+01 0. -1.
        -11    1    1    2    0    0 -0.58592532137E+02  0.52609375649E+02  0.36541887205E+03  0.37380714718E+03  0.00000000000E+00 0.  1.
         11    1    1    2    0    0  0.44982177624E+01 -0.14146511098E+02  0.10407419361E+02  0.18129316508E+02  0.00000000000E+00 0. -1.
</event>
<event>
 7    1  0.2749315E-009  0.1028819E+03  0.7561462E-02  0.1274350E+00
          2   -1    0    0  501    0  0.00000000000E+00  0.00000000000E+00  0.58934473115E+02  0.58934473115E+02  0.00000000000E+00 0.  1.
         -2   -1    0    0    0  501 -0.00000000000E+00 -0.00000000000E+00 -0.23623344532E+03  0.23623344532E+03  0.00000000000E+00 0. -1.
         25    2    1    2    0    0 -0.29679176044E+02  0.31384674190E+02 -0.83828645347E+02  0.15665395673E+03  0.12508944445E+03 0.  0.
          5    1    3    3  502    0  0.32167073611E+01  0.76255934021E+02 -0.51525287616E+02  0.92182657499E+02  0.41800000000E+01 0. -1.
         -5    1    3    3    0  502 -0.32895883406E+02 -0.44871259830E+02 -0.32303357730E+02  0.64471299230E+02  0.41800000000E+01 0. -1.
        -11    1    1    2    0    0 -0.15254638636E+02  0.46339411213E+01  0.10898088835E+02  0.19311803398E+02  0.00000000000E+00 0.  1.
         11    1    1    2    0    0  0.44933814680E+02 -0.36018615312E+02 -0.10436841570E+03  0.11920215831E+03  0.00000000000E+00 0. -1.
</event>
<event>
 7    1  0.2749315E-009  0.1630370E+03  0.7561462E-02  0.1185310E+00
         -2   -1    0    0    0  501 -0.00000000000E+00  0.00000000000E+00  0.42809534656E+02  0.42809534656E+02  0.00000000000E+00 0.  1.
          2   -1    0    0  501    0  0.00000000000E+00 -0.00000000000E+00 -0.68464906111E+03  0.68464906111E+03  0.00000000000E+00 0. -1.
         25    2    1    2    0    0  0.11951066576E+03  0.55936333139E+02 -0.35721212998E+03  0.40082477625E+03  0.12509325664E+03 0.  0.
          5    1    3    3  502    0  0.10720390864E+03  0.84513308059E+02 -0.33664439201E+03  0.36329340256E+03  0.41800000000E+01 0. -1.
         -5    1    3    3    0  502  0.12306757120E+02 -0.28576974920E+02 -0.20567737968E+02  0.37531373696E+02  0.41800000000E+01 0. -1.
        -11    1    1    2    0    0 -0.32070429016E+02  0.23667072848E+02 -0.96794004070E+02  0.10467913822E+03  0.00000000000E+00 0.  1.
         11    1    1    2    0    0 -0.87440236744E+02 -0.79603405987E+02 -0.18783339240E+03  0.22195468129E+03  0.00000000000E+00 0. -1.
</event>
<event>
 7    1  0.2749315E-009  0.1346215E+03  0.7561462E-02  0.1220755E+00
         -1   -1    0    0    0  501 -0.00000000000E+00  0.00000000000E+00  0.69596707342E+02  0.69596707342E+02  0.00000000000E+00 0.  1.
          1   -1    0    0  501    0  0.00000000000E+00 -0.00000000000E+00 -0.27577145165E+03  0.27577145165E+03  0.00000000000E+00 0. -1.
         25    2    1    2    0    0 -0.60269437807E+02 -0.61335200173E+02 -0.10844108176E+03  0.18654551606E+03  0.12508137126E+03 0.  0.
          5    1    3    3  502    0  0.25227472079E+02 -0.57897343786E+02 -0.64100391468E+02  0.90082519676E+02  0.41800000000E+01 0.  1.
         -5    1    3    3    0  502 -0.85496909886E+02 -0.34378563875E+01 -0.44340690292E+02  0.96462996388E+02  0.41800000000E+01 0.  1.
        -11    1    1    2    0    0  0.79140373825E+01  0.67140891150E+02 -0.32603698914E+02  0.75056861345E+02  0.00000000000E+00 0. -1.
         11    1    1    2    0    0  0.52355400425E+02 -0.58056909764E+01 -0.65129963636E+02  0.83765781585E+02  0.00000000000E+00 0.  1.
</event>
<event>
 7    1  0.2749315E-009  0.9500133E+02  0.7561462E-02  0.1291173E+00
         -3   -1    0    0    0  501 -0.00000000000E+00  0.00000000000E+00  0.21396039666E+02  0.21396039666E+02  0.00000000000E+00 0.  1.
          3   -1    0    0  501    0  0.00000000000E+00 -0.00000000000E+00 -0.82816064062E+03  0.82816064062E+03  0.00000000000E+00 0. -1.
         25    2    1    2    0    0  0.11017607694E+02 -0.27300456737E+02 -0.66826635128E+03  0.68051013918E+03  0.12508969041E+03 0.  0.
          5    1    3    3  502    0 -0.34438245017E+02  0.31227683480E+02 -0.15409525988E+03  0.16100926201E+03  0.41800000000E+01 0. -1.
         -5    1    3    3    0  502  0.45455852711E+02 -0.58528140217E+02 -0.51417109140E+03  0.51950087717E+03  0.41800000000E+01 0. -1.
        -11    1    1    2    0    0 -0.29731655076E+02 -0.65306012208E+01 -0.12411865348E+03  0.12779694913E+03  0.00000000000E+00 0. -1.
         11    1    1    2    0    0  0.18714047382E+02  0.33831057958E+02 -0.14379596197E+02  0.41249591983E+02  0.00000000000E+00 0.  1.
</event>
<event>
 7    1  0.2749315E-009  0.9850886E+02  0.7561462E-02  0.1283463E+00
          2   -1    0    0  501    0  0.00000000000E+00  0.00000000000E+00  0.57753149522E+03  0.57753149522E+03  0.00000000000E+00 0. -1.
         -2   -1    0    0    0  501 -0.00000000000E+00 -0.00000000000E+00 -0.17515091109E+02  0.17515091109E+02  0.00000000000E+00 0.  1.
         25    2    1    2    0    0  0.50599083723E+02  0.11077072943E+02  0.40776280214E+03  0.42965559880E+03  0.12510180635E+03 0.  0.
          5    1    3    3  502    0  0.52403303204E+02 -0.49374395976E+02  0.26305583887E+03  0.27276323786E+03  0.41800000000E+01 0.  1.
         -5    1    3    3    0  502 -0.18042194806E+01  0.60451468918E+02  0.14470696327E+03  0.15689236094E+03  0.41800000000E+01 0.  1.
        -11    1    1    2    0    0 -0.44785436006E+02  0.69603418762E+01  0.99489672597E+02  0.10932692528E+03  0.00000000000E+00 0.  1.
         11    1    1    2    0    0 -0.58136477172E+01 -0.18037414819E+02  0.52763929370E+02  0.56064062247E+02  0.00000000000E+00 0. -1.
</event>
<event>
 7    1  0.2749315E-009  0.1383525E+03  0.7561462E-02  0.1215563E+00
          2   -1    0    0  501    0  0.00000000000E+00  0.00000000000E+00  0.11778050224E+04  0.11778050224E+04  0.00000000000E+00 0. -1.
         -2   -1    0    0    0  501 -0.00000000000E+00 -0.00000000000E+00 -0.17749648872E+02  0.17749648872E+02  0.00000000000E+00 0.  1.
         25    2    1    2    0    0 -0.73457104646E+02  0.42186469547E+02  0.46218164448E+03  0.48624623140E+03  0.12509148900E+03 0.  0.
          5    1    3    3  502    0  0.14172148225E+02 -0.31942979836E+02  0.13409376285E+03  0.13863554155E+03  0.41800000000E+01 0.  1.
         -5    1    3    3    0  502 -0.87629252871E+02  0.74129449382E+02  0.32808788163E+03  0.34761068985E+03  0.41800000000E+01 0.  1.
        -11    1    1    2    0    0 -0.32589699689E+00 -0.52195907354E+02  0.26851766511E+03  0.27354388209E+03  0.00000000000E+00 0. -1.
         11    1    1    2    0    0  0.73783001643E+02  0.10009437808E+02  0.42935606389E+03  0.43576455773E+03  0.00000000000E+00 0.  1.
</event>
<event>
 7    1  0.2749315E-009  0.1633102E+03  0.7561462E-02  0.1185009E+00
         -4   -1    0    0    0  501 -0.00000000000E+00  0.00000000000E+00  0.75095142083E+02  0.75095142083E+02  0.00000000000E+00 0.  1.
          4   -1    0    0  501    0  0.00000000000E+00 -0.00000000000E+00 -0.46720988855E+03  0.46720988855E+03  0.00000000000E+00 0. -1.
         25    2    1    2    0    0 -0.12591891347E+03 -0.85666463048E+02 -0.21101760670E+03  0.28873744117E+03  0.12508622599E+03 0.  0.
          5    1    3    3  502    0 -0.12431892086E+03 -0.92140557913E+02 -0.11611173504E+03  0.19350577229E+03  0.41800000000E+01 0. -1.
         -5    1    3    3    0  502 -0.15999926136E+01  0.64740948653E+01 -0.94905871667E+02  0.95231668879E+02  0.41800000000E+01 0. -1.
        -11    1    1    2    0    0 -0.94686339285E+00  0.21974738117E+02 -0.69798376869E+02  0.73181958700E+02  0.00000000000E+00 0. -1.
         11    1    1    2    0    0  0.12686577687E+03  0.63691724930E+02 -0.11129876290E+03  0.18038563077E+03  0.00000000000E+00 0.  1.
</event>
<event>
 7    1  0.2749315E-009  0.1148689E+03  0.7561462E-02  0.1251810E+00
         -2   -1    0    0    0  501 -0.00000000000E+00  0.00000000000E+00  0.25365568804E+02  0.25365568804E+02  0.00000000000E+00 0.  1.
          2   -1    0    0  501    0  0.00000000000E+00 -0.00000000000E+00 -0.11313147888E+04  0.11313147888E+04  0.00000000000E+00 0. -1.
         25    2    1    2    0    0  0.38850472684E+02  0.70062923590E+02 -0.94325291320E+03  0.95487746708E+03  0.12508695530E+03 0.  0.
          5    1    3    3  502    0 -0.44100197275E+02  0.19620016120E+02 -0.23096951047E+03  0.23599610081E+03  0.41800000000E+01 0.  1.
         -5    1    3    3    0  502  0.82950669959E+02  0.50442907470E+02 -0.71228340273E+03  0.71888136627E+03  0.41800000000E+01 0.  1.
        -11    1    1    2    0    0 -0.13796614866E+02 -0.50436591365E+02 -0.20624516924E+02  0.56210026051E+02  0.00000000000E+00 0.  1.
         11    1    1    2    0    0 -0.25053857818E+02 -0.19626332225E+02 -0.14207178988E+03  0.14559286448E+03  0.00000000000E+00 0. -1.
</event>
<event>
 7    1  0.2961524E-009  0.7955033E+02  0.7561462E-02  0.1330332E+00
         -2   -1    0    0    0  501 -0.00000000000E+00  0.00000000000E+00  0.30596127811E+02  0.30596127811E+02  0.00000000000E+00 0.  1.
          2   -1    0    0  501    0  0.00000000000E+00 -0.00000000000E+00 -0.52776004581E+03  0.52776004581E+03  0.00000000000E+00 0. -1.
         25    2    1    2    0    0 -0.61734136499E+02 -0.88780200429E+01 -0.31922100184E+03  0.34848109616E+03  0.12508838281E+03 0.  0.
          5    1    3    3  502    0 -0.64274354739E+01 -0.75951720355E+00 -0.27990826027E+03  0.28001427707E+03  0.41800000000E+01 0. -1.
         -5    1    3    3    0  502 -0.55306701025E+02 -0.81185028393E+01 -0.39312741565E+02  0.68466819088E+02  0.41800000000E+01 0. -1.
        -11    1    1    2    0    0  0.73170011975E+02 -0.94087225527E+01 -0.76933465054E+02  0.10658861458E+03  0.00000000000E+00 0.  1.
         11    1    1    2    0    0 -0.11435875476E+02  0.18286742596E+02 -0.10100945110E+03  0.10328646288E+03  0.00000000000E+00 0. -1.
</event>
<event>
 7    1  0.2749315E-009  0.1053895E+03  0.7561462E-02  0.1269354E+00
         -1   -1    0    0    0  501 -0.00000000000E+00  0.00000000000E+00  0.36076981421E+02  0.36076981421E+02  0.00000000000E+00 0.  1.
          1   -1    0    0  501    0  0.00000000000E+00 -0.00000000000E+00 -0.46471114293E+03  0.46471114293E+03  0.00000000000E+00 0. -1.
         25    2    1    2    0    0  0.70710422631E+00  0.64033514539E+02 -0.18361491207E+03  0.23122062706E+03  0.12509097274E+03 0.  0.
          5    1    3    3  502    0 -0.42754125562E+02  0.44588741975E+02 -0.27129084009E+02  0.67598304436E+02  0.41800000000E+01 0. -1.
         -5    1    3    3    0  502  0.43461229788E+02  0.19444772564E+02 -0.15648582806E+03  0.16362232262E+03  0.41800000000E+01 0. -1.
        -11    1    1    2    0    0 -0.39179768494E+02 -0.26365617698E+02 -0.17488499567E+03  0.18114900432E+03  0.00000000000E+00 0. -1.
         11    1    1    2    0    0  0.38472664268E+02 -0.37667896841E+02 -0.70134253764E+02  0.88418492972E+02  0.00000000000E+00 0.  1.
</event>
<event>
 7    1  0.2749315E-009  0.1454215E+03  0.7561462E-02  0.1206215E+00
          1   -1    0    0  501    0  0.00000000000E+00  0.00000000000E+00  0.42495549029E+03  0.42495549029E+03  0.00000000000E+00 0. -1.
         -1   -1    0    0    0  501 -0.00000000000E+00 -0.00000000000E+00 -0.11691098766E+03  0.11691098766E+03  0.00000000000E+00 0.  1.
         25    2    1    2    0    0  0.38452362134E+02  0.13264487029E+03  0.32611047766E+03  0.37559391494E+03  0.12509795976E+03 0.  0.
          5    1    3    3  502    0  0.21306322529E+02  0.11412418310E+03  0.32987735429E+03  0.34973537113E+03  0.41800000000E+01 0. -1.
         -5    1    3    3    0  502  0.17146039605E+02  0.18520687193E+02 -0.37668766361E+01  0.25858543807E+02  0.41800000000E+01 0. -1.
        -11    1    1    2    0    0 -0.44374176129E+02 -0.52565425123E+02  0.27341049134E+02  0.74025160542E+02  0.00000000000E+00 0. -1.
         11    1    1    2    0    0  0.59218139957E+01 -0.80079445170E+02 -0.45407024152E+02  0.92247402467E+02  0.00000000000E+00 0.  1.
</event>
<event>
 7    1  0.2749315E-009  0.6405733E+02  0.7561462E-02  0.1381553E+00
          2   -1    0    0  501    0  0.00000000000E+00  0.00000000000E+00  0.19646529377E+03  0.19646529377E+03  0.00000000000E+00 0. -1.
         -2   -1    0    0    0  501 -0.00000000000E+00 -0.00000000000E+00 -0.71748870900E+02  0.71748870900E+02  0.00000000000E+00 0.  1.
         25    2    1    2    0    0  0.25031122671E+02 -0.35653397825E+02  0.90623507804E+02  0.16049829064E+03  0.12509739907E+03 0.  0.
          5    1    3    3  502    0  0.40426930945E+02  0.12406238661E+01 -0.18155405947E+02  0.44530518280E+02  0.41800000000E+01 0.  1.
         -5    1    3    3    0  502 -0.15395808274E+02 -0.36894021691E+02  0.10877891375E+03  0.11596777236E+03  0.41800000000E+01 0.  1.
        -11    1    1    2    0    0 -0.17741963283E+02  0.95359318569E+01 -0.31131636293E+02  0.37079509649E+02  0.00000000000E+00 0.  1.
         11    1    1    2    0    0 -0.72891593877E+01  0.26117465968E+02  0.65224551355E+02  0.70636364379E+02  0.00000000000E+00 0. -1.
</event>
<event>
 7    1  0.2749315E-009  0.1610655E+03  0.7561462E-02  0.1187499E+00
          1   -1    0    0  501    0  0.00000000000E+00  0.00000000000E+00  0.11196399570E+04  0.11196399570E+04  0.00000000000E+00 0. -1.
         -1   -1    0    0    0  501 -0.00000000000E+00 -0.00000000000E+00 -0.30649285071E+02  0.30649285071E+02  0.00000000000E+00 0.  1.
         25    2    1    2    0    0  0.13773491477E+03 -0.27468605776E+02  0.73728574000E+03  0.76089661852E+03  0.12509184871E+03 0.  0.
          5    1    3    3  502    0 -0.70429801920E+01  0.48440281704E+01  0.73344665029E+00  0.95435068444E+01  0.41800000000E+01 0.  1.
         -5    1    3    3    0  502  0.14477789496E+03 -0.32312633946E+02  0.73655229335E+03  0.75135311168E+03  0.41800000000E+01 0.  1.
        -11    1    1    2    0    0 -0.84432107824E+02  0.58332803874E+02  0.25332133650E+03  0.27331885476E+03  0.00000000000E+00 0.  1.
         11    1    1    2    0    0 -0.53302806943E+02 -0.30864198098E+02  0.98383595398E+02  0.11607376877E+03  0.00000000000E+00 0. -1.
</event>
<event>
 7    1  0.2749315E-009  0.1607868E+03  0.7561462E-02  0.1187811E+00
          2   -1    0    0  501    0  0.00000000000E+00  0.00000000000E+00  0.13122648605E+04  0.13122648605E+04  0.00000000000E+00 0. -1.
         -2   -1    0    0    0  501 -0.00000000000E+00 -0.00000000000E+00 -0.26614340464E+02  0.26614340464E+02  0.00000000000E+00 0.  1.
         25    2    1    2    0    0  0.78064410244E+02  0.13200858054E+03  0.72508478024E+03  0.75160890799E+03  0.12509074529E+03 0.  0.
          5    1    3    3  502    0  0.28914878000E+02  0.31062786068E+02  0.48123554886E+03  0.48312119880E+03  0.41800000000E+01 0.  1.
         -5    1    3    3    0  502  0.49149532244E+02  0.10094579447E+03  0.24384923138E+03  0.26848770919E+03  0.41800000000E+01 0.  1.
        -11    1    1    2    0    0 -0.41395409935E+02 -0.12161023113E+03  0.49531955776E+03  0.51170703784E+03  0.00000000000E+00 0. -1.
         11    1    1    2    0    0 -0.36669000309E+02 -0.10398349412E+02  0.65246181988E+02  0.75563255079E+02  0.00000000000E+00 0.  1.
</event>
<event>
 7    1  0.2749315E-009  0.2056663E+03  0.7561462E-02  0.1145045E+00
         -2   -1    0    0    0  501 -0.00000000000E+00  0.00000000000E+00  0.31106489836E+02  0.31106489836E+02  0.00000000000E+00 0.  1.
          2   -1    0    0  501    0  0.00000000000E+00 -0.00000000000E+00 -0.14677030253E+04  0.14677030253E+04  0.00000000000E+00 0. -1.
         25    2    1    2    0    0  0.11126779606E+03  0.14414190290E+03 -0.82792541291E+03  0.85689429355E+03  0.12509968173E+03 0.  0.
          5    1    3    3  502    0  0.18029700207E+02  0.10449938254E+03 -0.56916919677E+03  0.57897861618E+03  0.41800000000E+01 0.  1.
         -5    1    3    3    0  502  0.93238095852E+02  0.39642520354E+02 -0.25875621613E+03  0.27791567737E+03  0.41800000000E+01 0.  1.
        -11    1    1    2    0    0 -0.89654165829E+02 -0.41287656665E+02 -0.30451184815E+03  0.32010936522E+03  0.00000000000E+00 0.  1.
         11    1    1    2    0    0 -0.21613630230E+02 -0.10285424623E+03 -0.30415927442E+03  0.32180585637E+03  0.00000000000E+00 0. -1.
</event>
<event>
 7    1  0.2749315E-009  0.5783549E+02  0.7561462E-02  0.1407146E+00
         -2   -1    0    0    0  501 -0.00000000000E+00  0.00000000000E+00  0.43950578388E+02  0.43950578388E+02  0.00000000000E+00 0.  1.
          2   -1    0    0  501    0  0.00000000000E+00 -0.00000000000E+00 -0.33491447831E+03  0.33491447831E+03  0.00000000000E+00 0. -1.
         25    2    1    2    0    0  0.30739489306E+02 -0.94165261377E+01 -0.23291194893E+03  0.26632445914E+03  0.12508858627E+03 0.  0.
          5    1    3    3  502    0  0.47399059974E+01  0.28212714255E+02 -0.21514574013E+03  0.21707967627E+03  0.41800000000E+01 0.  1.
         -5    1    3    3    0  502  0.25999583309E+02 -0.37629240392E+02 -0.17766208803E+02  0.49244782871E+02  0.41800000000E+01 0.  1.
        -11    1    1    2    0    0 -0.17179716966E+02 -0.78400562772E+01 -0.79584784090E+02  0.81794541481E+02  0.00000000000E+00 0. -1.
         11    1    1    2    0    0 -0.13559772340E+02  0.17256582415E+02  0.21532833102E+02  0.30746056072E+02  0.00000000000E+00 0.  1.
</event>
<event>
 7    1  0.2749315E-009  0.1114886E+03  0.7561462E-02  0.1257838E+00
         -4   -1    0    0    0  501 -0.00000000000E+00  0.00000000000E+00  0.38041692504E+02  0.38041692504E+02  0.00000000000E+00 0.  1.
          4   -1    0    0  501    0  0.00000000000E+00 -0.00000000000E+00 -0.64729412178E+03  0.64729412178E+03  0.00000000000E+00 0. -1.
         25    2    1    2    0    0 -0.31197624271E+02 -0.51707014903E+02 -0.11698969485E+03  0.18160874821E+03  0.12509293176E+03 0.  0.
          5    1    3    3  502    0  0.36196962114E+02 -0.21012481903E+02 -0.95551271438E+02  0.10439953226E+03  0.41800000000E+01 0.  1.
         -5    1    3    3    0  502 -0.67394586385E+02 -0.30694533000E+02 -0.21438423408E+02  0.77209215954E+02  0.41800000000E+01 0.  1.
        -11    1    1    2    0    0  0.27185955677E+02  0.76727764915E+02 -0.36518808097E+03  0.37415045180E+03  0.00000000000E+00 0. -1.
         11    1    1    2    0    0  0.40116685937E+01 -0.25020750012E+02 -0.12707465346E+03  0.12957661427E+03  0.00000000000E+00 0.  1.
</event>
<event>
 7    1  0.2749315E-009  0.1155035E+03  0.7561462E-02  0.1250705E+00
         -2   -1    0    0    0  501 -0.00000000000E+00  0.00000000000E+00  0.10108050071E+03  0.10108050071E+03  0.00000000000E+00 0.  1.
          2   -1    0    0  501    0  0.00000000000E+00 -0.00000000000E+00 -0.20018563238E+03  0.20018563238E+03  0.00000000000E+00 0. -1.
         25    2    1    2    0    0 -0.76660705955E+02  0.56826112498E+01 -0.10585509058E+00  0.14682422545E+03  0.12509270988E+03 0.  0.
          5    1    3    3  502    0 -0.90127413450E+02  0.31662506015E+02 -0.34336432016E+02  0.10159688925E+03  0.41800000000E+01 0.  1.
         -5    1    3    3    0  502  0.13466707495E+02 -0.25979894765E+02  0.34230576925E+02  0.45227336196E+02  0.41800000000E+01 0.  1.
        -11    1    1    2    0    0  0.36535909859E+02 -0.39170815356E+02 -0.84771061205E+02  0.10027640950E+03  0.00000000000E+00 0.  1.
         11    1    1    2    0    0  0.40124796096E+02  0.33488204106E+02 -0.14228215369E+02  0.54165498139E+02  0.00000000000E+00 0. -1.
</event>
<event>
 7    1  0.2749315E-009  0.1674760E+03  0.7561462E-02  0.1180506E+00
          2   -1    0    0  501    0  0.00000000000E+00  0.00000000000E+00  0.28664092331E+03  0.28664092331E+03  0.00000000000E+00 0. -1.
         -2   -1    0    0    0  501 -0.00000000000E+00 -0.00000000000E+00 -0.13001772710E+03  0.13001772710E+03  0.00000000000E+00 0.  1.
         25    2    1    2    0    0 -0.20881715729E+02  0.13487391816E+03  0.17253381897E+03  0.25306762633E+03  0.12509310514E+03 0.  0.
          5    1    3    3  502    0  0.46055824415E+02  0.64889333297E+02  0.40817549560E+02  0.89528259730E+02  0.41800000000E+01 0.  1.
         -5    1    3    3    0  502 -0.66937540144E+02  0.69984584865E+02  0.13171626941E+03  0.16353936660E+03  0.41800000000E+01 0.  1.
        -11    1    1    2    0    0 -0.16129563451E+02 -0.11538771195E+03  0.54257262398E+01  0.11663586666E+03  0.00000000000E+00 0. -1.
         11    1    1    2    0    0  0.37011279180E+02 -0.19486206209E+02 -0.21336349005E+02  0.46955157415E+02  0.00000000000E+00 0.  1.
</event>
<event>
 7    1  0.4620597E-009  0.1595813E+03  0.7561462E-02  0.1189170E+00
         -1   -1    0    0    0  501 -0.00000000000E+00  0.00000000000E+00  0.47102940885E+02  0.47102940885E+02  0.00000000000E+00 0.  1.
          1   -1    0    0  501    0  0.00000000000E+00 -0.00000000000E+00 -0.76072827966E+03  0.76072827966E+03  0.00000000000E+00 0. -1.
         25    2    1    2    0    0 -0.15038413172E+03  0.34848989043E+02 -0.39621158264E+03  0.44323877806E+03  0.12508859677E+03 0.  0.
          5    1    3    3  502    0 -0.25043431969E+01 -0.92196649430E+01  0.62721413163E+01  0.12169063777E+02  0.41800000000E+01 0.  1.
         -5    1    3    3    0  502 -0.14787978852E+03  0.44068653986E+02 -0.40248372396E+03  0.43106971428E+03  0.41800000000E+01 0.  1.
        -11    1    1    2    0    0  0.69275506721E+02 -0.15630736753E+02 -0.24193412540E+03  0.25214189813E+03  0.00000000000E+00 0.  1.
         11    1    1    2    0    0  0.81108624999E+02 -0.19218252291E+02 -0.75479630741E+02  0.11245054436E+03  0.00000000000E+00 0. -1.
</event>
<event>
 7    1  0.2749315E-009  0.8967078E+02  0.7561462E-02  0.1303651E+00
         -2   -1    0    0    0  501 -0.00000000000E+00  0.00000000000E+00  0.65132280166E+02  0.65132280166E+02  0.00000000000E+00 0.  1.
          2   -1    0    0  501    0  0.00000000000E+00 -0.00000000000E+00 -0.20533959732E+03  0.20533959732E+03  0.00000000000E+00 0. -1.
         25    2    1    2    0    0 -0.10360100119E+02 -0.29964706468E+00 -0.12593565474E+03  0.17780533171E+03  0.12509006909E+03 0.  0.
          5    1    3    3  502    0  0.46089398010E+02 -0.33868998599E+02 -0.75925249976E+02  0.95149659269E+02  0.41800000000E+01 0. -1.
         -5    1    3    3    0  502 -0.56449498129E+02  0.33569351535E+02 -0.50010404762E+02  0.82655672437E+02  0.41800000000E+01 0. -1.
        -11    1    1    2    0    0  0.29441101099E+02  0.14091895982E+02 -0.43974659704E+02  0.54764319245E+02  0.00000000000E+00 0. -1.
         11    1    1    2    0    0 -0.19081000980E+02 -0.13792248917E+02  0.29702997287E+02  0.37902226537E+02  0.00000000000E+00 0.  1.
</event>
<event>
 7    1  0.2749315E-009  0.1088949E+03  0.7561462E-02  0.1262630E+00
          1   -1    0    0  501    0  0.00000000000E+00  0.00000000000E+00  0.15641207724E+02  0.15641207724E+02  0.00000000000E+00 0. -1.
         -1   -1    0    0    0  501 -0.00000000000E+00 -0.00000000000E+00 -0.85529926263E+03  0.85529926263E+03  0.00000000000E+00 0.  1.
         25    2    1    2    0    0  0.15457890147E+02 -0.60013916685E+02 -0.64222341030E+03  0.65722097057E+03  0.12509148193E+03 0.  0.
          5    1    3    3  502    0 -0.58852563192E+01 -0.96636545285E+02 -0.43439298032E+03  0.44507077176E+03  0.41800000000E+01 0. -1.
         -5    1    3    3    0  502  0.21343146466E+02  0.36622628600E+02 -0.20783042998E+03  0.21215019880E+03  0.41800000000E+01 0. -1.
        -11    1    1    2    0    0 -0.24472247838E+02  0.83676411989E+01 -0.97446967195E+02  0.10082073075E+03  0.00000000000E+00 0. -1.
         11    1    1    2    0    0  0.90143576905E+01  0.51646275486E+02 -0.99987677409E+02  0.11289876904E+03  0.00000000000E+00 0.  1.
</event>
<event>
 7    1  0.2749315E-009  0.1052499E+03  0.7561462E-02  0.1269628E+00
          1   -1    0    0  501    0  0.00000000000E+00  0.00000000000E+00  0.48765076655E+03  0.48765076655E+03  0.00000000000E+00 0. -1.
         -1   -1    0    0    0  501 -0.00000000000E+00 -0.00000000000E+00 -0.30461584881E+02  0.30461584881E+02  0.00000000000E+00 0.  1.
         25    2    1    2    0    0 -0.15171839058E+02  0.31162856296E+02  0.34972171609E+03  0.37303367966E+03  0.12509012410E+03 0.  0.
          5    1    3    3  502    0 -0.60190664335E+02  0.31862491657E+02  0.29115028614E+03  0.29903861953E+03  0.41800000000E+01 0. -1.
         -5    1    3    3    0  502  0.45018825277E+02 -0.69963536060E+00  0.58571429947E+02  0.73995060139E+02  0.41800000000E+01 0. -1.
        -11    1    1    2    0    0 -0.32982719595E+02 -0.35794117420E+02  0.47244531951E+02  0.67831588755E+02  0.00000000000E+00 0.  1.
         11    1    1    2    0    0  0.48154558653E+02  0.46312611235E+01  0.60222933630E+02  0.77247083010E+02  0.00000000000E+00 0. -1.
</event>
<event>
 7    1  0.2749315E-009  0.1953790E+03  0.7561462E-02  0.1153697E+00
         -1   -1    0    0    0  501 -0.00000000000E+00  0.00000000000E+00  0.53160547293E+02  0.53160547293E+02  0.00000000000E+00 0.  1.
          1   -1    0    0  501    0  0.00000000000E+00 -0.00000000000E+00 -0.76586167272E+03  0.76586167272E+03  0.00000000000E+00 0. -1.
         25    2    1    2    0    0  0.16858842749E+03  0.13811941804E+02 -0.33961025211E+03  0.39949221020E+03  0.12508427178E+03 0.  0.
          5    1    3    3  502    0  0.39489511889E+02 -0.45510199386E+02 -0.56508869634E+02  0.82712299839E+02  0.41800000000E+01 0.  1.
         -5    1    3    3    0  502  0.12909891560E+03  0.59322141190E+02 -0.28310138248E+03  0.31677991036E+03  0.41800000000E+01 0.  1.
        -11    1    1    2    0    0 -0.17047907606E+03  0.37867979908E+01 -0.30775312687E+03  0.35183723838E+03  0.00000000000E+00 0.  1.
         11    1    1    2    0    0  0.18906485689E+01 -0.17598739795E+02 -0.65337746438E+02  0.67692771430E+02  0.00000000000E+00 0. -1.
</event>
<event>
 7    1  0.2749315E-009  0.1147103E+03  0.7561462E-02  0.1252088E+00
          1   -1    0    0  501    0  0.00000000000E+00  0.00000000000E+00  0.69784656275E+02  0.69784656275E+02  0.00000000000E+00 0. -1.
         -1   -1    0    0    0  501 -0.00000000000E+00 -0.00000000000E+00 -0.31510420134E+03  0.31510420134E+03  0.00000000000E+00 0.  1.
         25    2    1    2    0    0 -0.54849880969E+02 -0.50897971059E+02 -0.22029167729E+03  0.26414749235E+03  0.12508541773E+03 0.  0.
          5    1    3    3  502    0 -0.81768101619E+02 -0.54681363238E+02 -0.21453618078E+03  0.23604939990E+03  0.41800000000E+01 0. -1.
         -5    1    3    3    0  502  0.26918220650E+02  0.37833921798E+01 -0.57554965152E+01  0.28098092453E+02  0.41800000000E+01 0. -1.
        -11    1    1    2    0    0 -0.59757891095E+01  0.41484460424E+02 -0.39412819784E+02  0.57532954691E+02  0.00000000000E+00 0.  1.
         11    1    1    2    0    0  0.60825670078E+02  0.94135106345E+01  0.14384952013E+02  0.63208410574E+02  0.00000000000E+00 0. -1.
</event>
<event>
 7    1  0.2749315E-009  0.2076092E+03  0.7561462E-02  0.1143473E+00
          1   -1    0    0  501    0  0.00000000000E+00  0.00000000000E+00  0.20432189024E+03  0.20432189024E+03  0.00000000000E+00 0. -1.
         -1   -1    0    0    0  501 -0.00000000000E+00 -0.00000000000E+00 -0.23770914882E+03  0.23770914882E+03  0.00000000000E+00 0.  1.
         25    2    1    2    0    0  0.71231507892E+01 -0.18855732481E+03  0.12047902881E+02  0.22670954711E+03  0.12508981882E+03 0.  0.
          5    1    3    3  502    0 -0.39040002531E+02 -0.89021244588E+02  0.51441267660E+02  0.11005716789E+03  0.41800000000E+01 0.  1.
         -5    1    3    3    0  502  0.46163153320E+02 -0.99536080217E+02 -0.39393364779E+02  0.11665237922E+03  0.41800000000E+01 0.  1.
        -11    1    1    2    0    0 -0.44372283789E+02  0.62302397530E+02 -0.13501170646E+01  0.76500399494E+02  0.00000000000E+00 0.  1.
         11    1    1    2    0    0  0.37249133000E+02  0.12625492728E+03 -0.44085044398E+02  0.13882109245E+03  0.00000000000E+00 0. -1.
</event>
<event>
 7    1  0.2749315E-009  0.1537593E+03  0.7561462E-02  0.1195928E+00
         -2   -1    0    0    0  501 -0.00000000000E+00  0.00000000000E+00  0.16233204321E+03  0.16233204321E+03  0.00000000000E+00 0.  1.
          2   -1    0    0  501    0  0.00000000000E+00 -0.00000000000E+00 -0.21753417027E+03  0.21753417027E+03  0.00000000000E+00 0. -1.
         25    2    1    2    0    0 -0.14627214439E+02  0.13576767731E+03 -0.96384567079E+02  0.20876974930E+03  0.12509198954E+03 0.  0.
          5    1    3    3  502    0 -0.57770752244E+02  0.83300340549E+02 -0.14810210784E+02  0.10253400067E+03  0.41800000000E+01 0.  1.
         -5    1    3    3    0  502  0.43143537805E+02  0.52467336763E+02 -0.81574356294E+02  0.10623574863E+03  0.41800000000E+01 0.  1.
        -11    1    1    2    0    0 -0.19349589752E+00 -0.87761040098E+02 -0.21898610463E+02  0.90452124021E+02  0.00000000000E+00 0. -1.
         11    1    1    2    0    0  0.14820710336E+02 -0.48006637214E+02  0.63081050481E+02  0.80644340169E+02  0.00000000000E+00 0.  1.
</event>
<event>
 7    1  0.2749315E-009  0.9288272E+02  0.7561462E-02  0.1296017E+00
          1   -1    0    0  501    0  0.00000000000E+00  0.00000000000E+00  0.22902558695E+03  0.22902558695E+03  0.00000000000E+00 0. -1.
         -1   -1    0    0    0  501 -0.00000000000E+00 -0.00000000000E+00 -0.60232957251E+02  0.60232957251E+02  0.00000000000E+00 0.  1.
         25    2    1    2    0    0 -0.85769410073E+01 -0.46691450194E+02  0.10790538659E+03  0.17188426615E+03  0.12508786135E+03 0.  0.
          5    1    3    3  502    0 -0.21812158688E+02 -0.65536615514E+02  0.12501792727E+03  0.14289077220E+03  0.41800000000E+01 0.  1.
         -5    1    3    3    0  502  0.13235217681E+02  0.18845165320E+02 -0.17112540682E+02  0.28993493953E+02  0.41800000000E+01 0.  1.
        -11    1    1    2    0    0  0.32334177114E+02  0.58342010676E+02  0.21803718116E+02  0.70176145114E+02  0.00000000000E+00 0.  1.
         11    1    1    2    0    0 -0.23757236107E+02 -0.11650560482E+02  0.39083524993E+02  0.47198132938E+02  0.00000000000E+00 0. -1.
</event>
<event>
 7    1  0.2749315E-009  0.1077649E+03  0.7561462E-02  0.1264766E+00
         -1   -1    0    0    0  501 -0.00000000000E+00  0.00000000000E+00  0.99345641578E+03  0.99345641578E+03  0.00000000000E+00 0.  1.
          1   -1    0    0  501    0  0.00000000000E+00 -0.00000000000E+00 -0.18778229279E+02  0.18778229279E+02  0.00000000000E+00 0. -1.
         25    2    1    2    0    0  0.33659515673E+02 -0.56441822058E+02  0.73360082802E+03  0.74708567970E+03  0.12509274828E+03 0.  0.
          5    1    3    3  502    0  0.78579055071E+02 -0.49515641097E+02  0.55566230559E+03  0.56338666727E+03  0.41800000000E+01 0.  1.
         -5    1    3    3    0  502 -0.44919539398E+02 -0.69261809612E+01  0.17793852243E+03  0.18369901243E+03  0.41800000000E+01 0.  1.
        -11    1    1    2    0    0 -0.11028572266E+02 -0.44964058454E+01 -0.32309191546E+01  0.12340417754E+02  0.00000000000E+00 0. -1.
         11    1    1    2    0    0 -0.22630943407E+02  0.60938227903E+02  0.24430827764E+03  0.25280854760E+03  0.00000000000E+00 0.  1.
</event>
<event>
 7    1  0.2749315E-009  0.1094003E+03  0.7561462E-02  0.1261685E+00
         -1   -1    0    0    0  501 -0.00000000000E+00  0.00000000000E+00  0.16372108186E+03  0.16372108186E+03  0.00000000000E+00 0.  1.
          1   -1    0    0  501    0  0.00000000000E+00 -0.00000000000E+00 -0.11517874309E+03  0.11517874309E+03  0.00000000000E+00 0. -1.
         25    2    1    2    0    0  0.50051140119E+02 -0.42997530851E+02  0.81968206888E+02  0.16346760637E+03  0.12509583168E+03 0.  0.
          5    1    3    3  502    0  0.75189388896E+02 -0.29999854877E+02  0.48403458273E+01  0.81205522244E+02  0.41800000000E+01 0. -1.
         -5    1    3    3    0  502 -0.25138248777E+02 -0.12997675974E+02  0.77127861061E+02  0.82262084122E+02  0.41800000000E+01 0. -1.
        -11    1    1    2    0    0 -0.32277321457E+02 -0.23740850544E+02 -0.36882690502E+01  0.40237504813E+02  0.00000000000E+00 0.  1.
         11    1    1    2    0    0 -0.17773818661E+02  0.66738381394E+02 -0.29737599070E+02  0.75194713773E+02  0.00000000000E+00 0. -1.
</event>
<event>
 7    1  0.2749315E-009  0.1647820E+03  0.7561462E-02  0.1183401E+00
         -2   -1    0    0    0  501 -0.00000000000E+00  0.00000000000E+00  0.13345822395E+03  0.13345822395E+03  0.00000000000E+00 0.  1.
          2   -1    0    0  501    0  0.00000000000E+00 -0.00000000000E+00 -0.34891234151E+03  0.34891234151E+03  0.00000000000E+00 0. -1.
         25    2    1    2    0    0  0.67400186350E+02  0.13171545436E+03  0.13121726944E+02  0.19418707674E+03  0.12507875526E+03 0.  0.
          5    1    3    3  502    0 -0.53936638309E+01 -0.45552216443E+01  0.36914309829E+02  0.37815080641E+02  0.41800000000E+01 0. -1.
         -5    1    3    3    0  502  0.72793850181E+02  0.13627067601E+03 -0.23792582885E+02  0.15637199610E+03  0.41800000000E+01 0. -1.
        -11    1    1    2    0    0 -0.49152961572E+01 -0.93362274262E+02 -0.17127904926E+03  0.19513376721E+03  0.00000000000E+00 0. -1.
         11    1    1    2    0    0 -0.62484890193E+02 -0.38353180102E+02 -0.57296795252E+02  0.93049721507E+02  0.00000000000E+00 0.  1.
</event>
<event>
 7    1  0.2749315E-009  0.1300580E+03  0.7561462E-02  0.1227370E+00
          1   -1    0    0  501    0  0.00000000000E+00  0.00000000000E+00  0.23425557291E+03  0.23425557291E+03  0.00000000000E+00 0. -1.
         -1   -1    0    0    0  501 -0.00000000000E+00 -0.00000000000E+00 -0.86243432742E+02  0.86243432742E+02  0.00000000000E+00 0.  1.
         25    2    1    2    0    0  0.41002353836E+02 -0.73930682642E+02  0.11249956546E+03  0.18828125926E+03  0.12508693579E+03 0.  0.
          5    1    3    3  502    0  0.80442200517E+02 -0.52788915471E+02  0.10541153480E+03  0.14278193614E+03  0.41800000000E+01 0.  1.
         -5    1    3    3    0  502 -0.39439846681E+02 -0.21141767171E+02  0.70880306597E+01  0.45499323116E+02  0.41800000000E+01 0.  1.
        -11    1    1    2    0    0  0.21439862728E+02  0.45411186661E+02  0.38847480995E+02  0.63489923353E+02  0.00000000000E+00 0.  1.
         11    1    1    2    0    0 -0.62442216564E+02  0.28519495981E+02 -0.33349062800E+01  0.68727823044E+02  0.00000000000E+00 0. -1.
</event>
<event>
 7    1  0.2749315E-009  0.1396802E+03  0.7561462E-02  0.1213760E+00
          2   -1    0    0  501    0  0.00000000000E+00  0.00000000000E+00  0.80119630113E+03  0.80119630113E+03  0.00000000000E+00 0. -1.
         -2   -1    0    0    0  501 -0.00000000000E+00 -0.00000000000E+00 -0.26355060952E+02  0.26355060952E+02  0.00000000000E+00 0.  1.
         25    2    1    2    0    0  0.90599978723E+02 -0.93560142368E+01  0.50564571040E+03  0.52879224442E+03  0.12509101553E+03 0.  0.
          5    1    3    3  502    0 -0.29923237465E+02  0.21314526851E+00  0.15352550471E+03  0.15647043991E+03  0.41800000000E+01 0. -1.
         -5    1    3    3    0  502  0.12052321619E+03 -0.95691595053E+01  0.35212020569E+03  0.37232180450E+03  0.41800000000E+01 0. -1.
        -11    1    1    2    0    0 -0.20707343502E+02 -0.38326340134E+02  0.71594016566E+02  0.83805761324E+02  0.00000000000E+00 0.  1.
         11    1    1    2    0    0 -0.69892635221E+02  0.47682354371E+02  0.19760151321E+03  0.21495335634E+03  0.00000000000E+00 0. -1.
</event>
<event>
 7    1  0.2749315E-009  0.1360787E+03  0.7561462E-02  0.1218705E+00
          2   -1    0    0  501    0  0.00000000000E+00  0.00000000000E+00  0.48508997033E+02  0.48508997033E+02  0.00000000000E+00 0. -1.
         -2   -1    0    0    0  501 -0.00000000000E+00 -0.00000000000E+00 -0.51267019788E+03  0.51267019788E+03  0.00000000000E+00 0.  1.
         25    2    1    2    0    0 -0.29856998953E+02 -0.10108432704E+03 -0.16883195662E+03  0.23507889173E+03  0.12509346187E+03 0.  0.
          5    1    3    3  502    0  0.19575019822E+02  0.19509054519E+02 -0.56220017746E+02  0.62784929757E+02  0.41800000000E+01 0. -1.
         -5    1    3    3    0  502 -0.49432018774E+02 -0.12059338155E+03 -0.11261193888E+03  0.17229396197E+03  0.41800000000E+01 0. -1.
        -11    1    1    2    0    0  0.39653025407E+02  0.62645672279E+02 -0.26765411145E+03  0.27773290416E+03  0.00000000000E+00 0.  1.
         11    1    1    2    0    0 -0.97960264543E+01  0.38438654757E+02 -0.27675132778E+02  0.48367399021E+02  0.00000000000E+00 0. -1.
</event>
<event>
 7    1  0.2749315E-009  0.6739622E+02  0.7561462E-02  0.1369178E+00
         -2   -1    0    0    0  501 -0.00000000000E+00  0.00000000000E+00  0.40824985088E+02  0.40824985088E+02  0.00000000000E+00 0.  1.
          2   -1    0    0  501    0  0.00000000000E+00 -0.00000000000E+00 -0.38419390965E+03  0.38419390965E+03  0.00000000000E+00 0. -1.
         25    2    1    2    0    0 -0.20690072337E+01 -0.12536669515E+02 -0.29457109080E+03  0.32028364271E+03  0.12509210757E+03 0.  0.
          5    1    3    3  502    0 -0.63446405399E+01  0.28672283564E+02 -0.80256795583E+01  0.30728459784E+02  0.41800000000E+01 0.  1.
         -5    1    3    3    0  502  0.42756333062E+01 -0.41208953078E+02 -0.28654541124E+03  0.28955518292E+03  0.41800000000E+01 0.  1.
        -11    1    1    2    0    0 -0.29134421729E+02  0.13850241531E+02  0.13560494189E+02  0.34993295395E+02  0.00000000000E+00 0.  1.
         11    1    1    2    0    0  0.31203428963E+02 -0.13135720165E+01 -0.62358327954E+02  0.69741956638E+02  0.00000000000E+00 0. -1.
</event>
<event>
 7    1  0.2749315E-009  0.1187657E+03  0.7561462E-02  0.1245147E+00
         -2   -1    0    0    0  501 -0.00000000000E+00  0.00000000000E+00  0.28297211457E+02  0.28297211457E+02  0.00000000000E+00 0.  1.
          2   -1    0    0  501    0  0.00000000000E+00 -0.00000000000E+00 -0.76588669959E+03  0.76588669959E+03  0.00000000000E+00 0. -1.
         25    2    1    2    0    0  0.75916867219E+02  0.23551503086E+02 -0.29845275368E+03  0.33322556534E+03  0.12508871727E+03 0.  0.
          5    1    3    3  502    0 -0.12628346551E+02 -0.34253053528E+02 -0.42052993273E+02  0.55845084437E+02  0.41800000000E+01 0.  1.
         -5    1    3    3    0  502  0.88545213770E+02  0.57804556614E+02 -0.25639976041E+03  0.27738048090E+03  0.41800000000E+01 0.  1.
        -11    1    1    2    0    0 -0.33952669485E+01 -0.22166886072E+02 -0.80726069553E+01  0.23834128028E+02  0.00000000000E+00 0.  1.
         11    1    1    2    0    0 -0.72521600270E+02 -0.13846170142E+01 -0.43106412750E+03  0.43712421769E+03  0.00000000000E+00 0. -1.
</event>
<event>
 7    1  0.2749315E-009  0.1103882E+03  0.7561462E-02  0.1259853E+00
         -1   -1    0    0    0  501 -0.00000000000E+00  0.00000000000E+00  0.30175224530E+02  0.30175224530E+02  0.00000000000E+00 0.  1.
          1   -1    0    0  501    0  0.00000000000E+00 -0.00000000000E+00 -0.61531373956E+03  0.61531373956E+03  0.00000000000E+00 0. -1.
         25    2    1    2    0    0 -0.43158198262E+01  0.34778520129E+02 -0.14540995482E+03  0.19498675192E+03  0.12509039412E+03 0.  0.
          5    1    3    3  502    0 -0.17273028742E+02  0.76868771761E+02 -0.61148299500E+02  0.99818598095E+02  0.41800000000E+01 0. -1.
         -5    1    3    3    0  502  0.12957208916E+02 -0.42090251631E+02 -0.84261655317E+02  0.95168153823E+02  0.41800000000E+01 0. -1.
        -11    1    1    2    0    0 -0.14210118602E+02  0.28425456344E+02 -0.12729947796E+03  0.13120629226E+03  0.00000000000E+00 0.  1.
         11    1    1    2    0    0  0.18525938429E+02 -0.63203976473E+02 -0.31242908226E+03  0.31929591992E+03  0.00000000000E+00 0. -1.
</event>
<event>
 7    1  0.2749315E-009  0.1185050E+03  0.7561462E-02  0.1245584E+00
          1   -1    0    0  501    0  0.00000000000E+00  0.00000000000E+00  0.50401724376E+02  0.50401724376E+02  0.00000000000E+00 0. -1.
         -1   -1    0    0    0  501 -0.00000000000E+00 -0.00000000000E+00 -0.41768730010E+03  0.41768730010E+03  0.00000000000E+00 0.  1.
         25    2    1    2    0    0  0.76285917543E+02 -0.41034758887E+02 -0.26619049931E+03  0.30660462246E+03  0.12508245256E+03 0.  0.
          5    1    3    3  502    0  0.91752741630E+02 -0.47295351938E+02 -0.26990993067E+03  0.28900563833E+03  0.41800000000E+01 0.  1.
         -5    1    3    3    0  502 -0.15466824087E+02  0.62605930508E+01  0.37194313628E+01  0.17598984129E+02  0.41800000000E+01 0.  1.
        -11    1    1    2    0    0  0.10462637640E+02  0.26565955752E+02 -0.14637693466E+01  0.28589498283E+02  0.00000000000E+00 0. -1.
         11    1    1    2    0    0 -0.86748555183E+02  0.14468803135E+02 -0.99631307076E+02  0.13289490374E+03  0.00000000000E+00 0.  1.
</event>
<event>
 7    1  0.2749315E-009  0.9994365E+02  0.7561462E-02  0.1280414E+00
         -1   -1    0    0    0  501 -0.00000000000E+00  0.00000000000E+00  0.62905156746E+02  0.62905156746E+02  0.00000000000E+00 0.  1.
          1   -1    0    0  501    0  0.00000000000E+00 -0.00000000000E+00 -0.25955914853E+03  0.25955914853E+03  0.00000000000E+00 0. -1.
         25    2    1    2    0    0  0.39536138761E+02 -0.29193585176E+02 -0.50756223093E+02  0.14366445178E+03  0.12509160179E+03 0.  0.
          5    1    3    3  502    0  0.64909122756E+02 -0.41990704659E+02  0.84288564920E+01  0.77877670205E+02  0.41800000000E+01 0.  1.
         -5    1    3    3    0  502 -0.25372983995E+02  0.12797119483E+02 -0.59185079585E+02  0.65786781570E+02  0.41800000000E+01 0.  1.
        -11    1    1    2    0    0 -0.25480232542E+02  0.57083523831E+02 -0.12886163006E+03  0.14322391785E+03  0.00000000000E+00 0. -1.
         11    1    1    2    0    0 -0.14055906219E+02 -0.27889938655E+02 -0.17036138630E+02  0.35575935648E+02  0.00000000000E+00 0.  1.
</event>
<event>
 7    1  0.2749315E-009  0.1842096E+03  0.7561462E-02  0.1163790E+00
         -2   -1    0    0    0  501 -0.00000000000E+00  0.00000000000E+00  0.34331281318E+02  0.34331281318E+02  0.00000000000E+00 0.  1.
          2   -1    0    0  501    0  0.00000000000E+00 -0.00000000000E+00 -0.15824552437E+04  0.15824552437E+04  0.00000000000E+00 0. -1.
         25    2    1    2    0    0 -0.15901443782E+03 -0.19930026442E+02 -0.12522072407E+04  0.12686043970E+04  0.12510533594E+03 0.  0.
          5    1    3    3  502    0 -0.30793075656E+02 -0.60012453592E+02 -0.35345147171E+03  0.35985430851E+03  0.41800000000E+01 0.  1.
         -5    1    3    3    0  502 -0.12822136217E+03  0.40082427150E+02 -0.89875576895E+03  0.90875008848E+03  0.41800000000E+01 0.  1.
        -11    1    1    2    0    0  0.14186835600E+03  0.32040191861E+02 -0.29283695496E+03  0.32696587975E+03  0.00000000000E+00 0. -1.
         11    1    1    2    0    0  0.17146081827E+02 -0.12110165419E+02 -0.30797667667E+01  0.21216248298E+02  0.00000000000E+00 0.  1.
</event>
<event>
 7    1  0.2749315E-009  0.9084876E+02  0.7561462E-02  0.1300809E+00
         -2   -1    0    0    0  501 -0.00000000000E+00  0.00000000000E+00  0.88792499857E+02  0.88792499857E+02  0.00000000000E+00 0. -1.
          2   -1    0    0  501    0  0.00000000000E+00 -0.00000000000E+00 -0.16104267836E+03  0.16104267836E+03  0.00000000000E+00 0.  1.
         25    2    1    2    0    0 -0.24260158804E+02  0.42322169844E+02 -0.46571578707E+02  0.14211458676E+03  0.12509165624E+03 0.  0.
          5    1    3    3  502    0  0.68191784540E+01  0.54114646553E+02  0.27199933192E+02  0.61091774667E+02  0.41800000000E+01 0.  1.
         -5    1    3    3    0  502 -0.31079337258E+02 -0.11792476709E+02 -0.73771511899E+02  0.81022812091E+02  0.41800000000E+01 0.  1.
        -11    1    1    2    0    0  0.38893726305E+02 -0.59400875689E+02 -0.39572562944E+02  0.81284523228E+02  0.00000000000E+00 0.  1.
         11    1    1    2    0    0 -0.14633567501E+02  0.17078705845E+02  0.13893963153E+02  0.26436068226E+02  0.00000000000E+00 0. -1.
</event>
<event>
 7    1  0.2749315E-009  0.8803664E+02  0.7561462E-02  0.1307677E+00
          2   -1    0    0  501    0  0.00000000000E+00  0.00000000000E+00  0.49189833730E+03  0.49189833730E+03  0.00000000000E+00 0. -1.
         -2   -1    0    0    0  501 -0.00000000000E+00 -0.00000000000E+00 -0.77936439477E+02  0.77936439477E+02  0.00000000000E+00 0.  1.
         25    2    1    2    0    0  0.20116579851E+02  0.71305719171E+02  0.62676750919E+01  0.14551822064E+03  0.12508831447E+03 0.  0.
          5    1    3    3  502    0  0.32338351992E+02  0.57042488741E+02  0.59669332733E+02  0.88755372796E+02  0.41800000000E+01 0. -1.
         -5    1    3    3    0  502 -0.12221772141E+02  0.14263230430E+02 -0.53401657641E+02  0.56762847844E+02  0.41800000000E+01 0. -1.
        -11    1    1    2    0    0  0.18224537762E+02 -0.19713238941E+02  0.26436173306E+02  0.37677802818E+02  0.00000000000E+00 0.  1.
         11    1    1    2    0    0 -0.38341117613E+02 -0.51592480231E+02  0.38125804943E+03  0.38663875332E+03  0.00000000000E+00 0. -1.
</event>
<event>
 7    1  0.2749315E-009  0.1436136E+03  0.7561462E-02  0.1208548E+00
          2   -1    0    0  501    0  0.00000000000E+00  0.00000000000E+00  0.98472135608E+03  0.98472135608E+03  0.00000000000E+00 0. -1.
         -2   -1    0    0    0  501 -0.00000000000E+00 -0.00000000000E+00 -0.24708853447E+02  0.24708853447E+02  0.00000000000E+00 0.  1.
         25    2    1    2    0    0  0.58398394950E+02  0.92982963562E+02  0.61957131574E+03  0.64153874231E+03  0.12508852282E+03 0.  0.
          5    1    3    3  502    0 -0.39633670874E+02  0.25720326663E+02  0.16969979785E+03  0.17620402056E+03  0.41800000000E+01 0. -1.
         -5    1    3    3    0  502  0.98032065824E+02  0.67262636899E+02  0.44987151790E+03  0.46533472175E+03  0.41800000000E+01 0. -1.
        -11    1    1    2    0    0 -0.22593008054E+02 -0.15585225358E+01  0.13145212886E+02  0.26185294103E+02  0.00000000000E+00 0.  1.
         11    1    1    2    0    0 -0.35805386896E+02 -0.91424441027E+02  0.32729597401E+03  0.34170617312E+03  0.00000000000E+00 0. -1.
</event>
<event>
 7    1  0.2749315E-009  0.1074163E+03  0.7561462E-02  0.1265431E+00
         -1   -1    0    0    0  501 -0.00000000000E+00  0.00000000000E+00  0.79351208465E+02  0.79351208465E+02  0.00000000000E+00 0.  1.
          1   -1    0    0  501    0  0.00000000000E+00 -0.00000000000E+00 -0.17530283089E+03  0.17530283089E+03  0.00000000000E+00 0. -1.
         25    2    1    2    0    0 -0.98434244403E+01  0.40209867523E+02 -0.81766076891E+02  0.15506962199E+03  0.12508864810E+03 0.  0.
          5    1    3    3  502    0 -0.27815927482E+02  0.77336703868E+02 -0.27474979907E+02  0.86758506832E+02  0.41800000000E+01 0.  1.
         -5    1    3    3    0  502  0.17972503042E+02 -0.37126836345E+02 -0.54291096984E+02  0.68311115160E+02  0.41800000000E+01 0.  1.
        -11    1    1    2    0    0 -0.22303125092E+02  0.15221036747E+02  0.13011673255E+02  0.29973538153E+02  0.00000000000E+00 0.  1.
         11    1    1    2    0    0  0.32146549532E+02 -0.55430904270E+02 -0.27197218793E+02  0.69610879215E+02  0.00000000000E+00 0. -1.
</event>
<event>
 7    1  0.2749315E-009  0.1015254E+03  0.7561462E-02  0.1277121E+00
         -2   -1    0    0    0  501 -0.00000000000E+00  0.00000000000E+00  0.79966985671E+02  0.79966985671E+02  0.00000000000E+00 0.  1.
          2   -1    0    0  501    0  0.00000000000E+00 -0.00000000000E+00 -0.23770445192E+03  0.23770445192E+03  0.00000000000E+00 0. -1.
         25    2    1    2    0    0 -0.10713157098E+02  0.53315599475E+02 -0.11090993461E+02  0.13685148867E+03  0.12509194592E+03 0.  0.
          5    1    3    3  502    0 -0.42140068715E+02 -0.96057140252E+01 -0.41543577398E+02  0.60094894594E+02  0.41800000000E+01 0. -1.
         -5    1    3    3    0  502  0.31426911617E+02  0.62921313501E+02  0.30452583937E+02  0.76756594081E+02  0.41800000000E+01 0. -1.
        -11    1    1    2    0    0 -0.30381563243E+02 -0.22516588303E+02 -0.11365414166E+03  0.11978021561E+03  0.00000000000E+00 0. -1.
         11    1    1    2    0    0  0.41094720341E+02 -0.30799011172E+02 -0.32992331119E+02  0.61039733303E+02  0.00000000000E+00 0.  1.
</event>
<event>
 7    1  0.2749315E-009  0.8517431E+02  0.7561462E-02  0.1314977E+00
         -2   -1    0    0    0  501 -0.00000000000E+00  0.00000000000E+00  0.71048369031E+02  0.71048369031E+02  0.00000000000E+00 0.  1.
          2   -1    0    0  501    0  0.00000000000E+00 -0.00000000000E+00 -0.40480870075E+03  0.40480870075E+03  0.00000000000E+00 0. -1.
         25    2    1    2    0    0  0.37346447811E+01  0.74072203600E+02 -0.32629793448E+03  0.35723835888E+03  0.12509302173E+03 0.  0.
          5    1    3    3  502    0 -0.65505240642E+00  0.40145759898E+02 -0.31958816963E+03  0.32212758605E+03  0.41800000000E+01 0. -1.
         -5    1    3    3    0  502  0.43896971875E+01  0.33926443702E+02 -0.67097648571E+01  0.35110772821E+02  0.41800000000E+01 0. -1.
        -11    1    1    2    0    0  0.28281154369E+02 -0.33931860714E+02  0.31424948865E+02  0.54209983168E+02  0.00000000000E+00 0.  1.
         11    1    1    2    0    0 -0.32015799150E+02 -0.40140342886E+02 -0.38887346102E+02  0.64408727740E+02  0.00000000000E+00 0. -1.
</event>
<event>
 7    1  0.2749315E-009  0.1607298E+03  0.7561462E-02  0.1187875E+00
         -2   -1    0    0    0  501 -0.00000000000E+00  0.00000000000E+00  0.19527004824E+03  0.19527004824E+03  0.00000000000E+00 0.  1.
          2   -1    0    0  501    0  0.00000000000E+00 -0.00000000000E+00 -0.15539806320E+03  0.15539806320E+03  0.00000000000E+00 0. -1.
         25    2    1    2    0    0  0.11869984304E+03 -0.63906144676E+02 -0.21373192738E+01  0.18391526376E+03  0.12508640233E+03 0.  0.
          5    1    3    3  502    0  0.40881458990E+02  0.36996417181E+02  0.86475396171E+01  0.55966784031E+02  0.41800000000E+01 0.  1.
         -5    1    3    3    0  502  0.77818384046E+02 -0.10090256186E+03 -0.10784858891E+02  0.12794847973E+03  0.41800000000E+01 0.  1.
        -11    1    1    2    0    0 -0.43140165496E+02  0.61715122441E+01  0.55654468307E+02  0.70686500019E+02  0.00000000000E+00 0.  1.
         11    1    1    2    0    0 -0.75559677541E+02  0.57734632432E+02 -0.13645163999E+02  0.96066347660E+02  0.00000000000E+00 0. -1.
</event>
<event>
 7    1  0.2749315E-009  0.1474230E+03  0.7561462E-02  0.1203676E+00
         -2   -1    0    0    0  501 -0.00000000000E+00  0.00000000000E+00  0.55794876517E+02  0.55794876517E+02  0.00000000000E+00 0.  1.
          2   -1    0    0  501    0  0.00000000000E+00 -0.00000000000E+00 -0.51848830025E+03  0.51848830025E+03  0.00000000000E+00 0. -1.
         25    2    1    2    0    0 -0.96627229835E+02  0.42696107069E+02 -0.38124171853E+03  0.41491266781E+03  0.12508994706E+03 0.  0.
          5    1    3    3  502    0 -0.29783062726E+02  0.80979415859E+02 -0.21163075143E+03  0.22858202897E+03  0.41800000000E+01 0.  1.
         -5    1    3    3    0  502 -0.66844167109E+02 -0.38283308790E+02 -0.16961096710E+03  0.18633063883E+03  0.41800000000E+01 0.  1.
        -11    1    1    2    0    0 -0.85745503842E+00 -0.33377881279E+02 -0.42337048509E+02  0.53918863714E+02  0.00000000000E+00 0. -1.
         11    1    1    2    0    0  0.97484684874E+02 -0.93182257898E+01 -0.39114656696E+02  0.10545164525E+03  0.00000000000E+00 0.  1.
</event>
<event>
 7    1  0.2749315E-009  0.1044566E+03  0.7561462E-02  0.1271194E+00
         -2   -1    0    0    0  501 -0.00000000000E+00  0.00000000000E+00  0.47672914461E+03  0.47672914461E+03  0.00000000000E+00 0.  1.
          2   -1    0    0  501    0  0.00000000000E+00 -0.00000000000E+00 -0.30813668260E+02  0.30813668260E+02  0.00000000000E+00 0. -1.
         25    2    1    2    0    0  0.18967760423E+02 -0.38371344235E+00  0.14523558226E+03  0.19261672138E+03  0.12509158176E+03 0.  0.
          5    1    3    3  502    0 -0.31903396967E+02  0.44618955885E+02  0.43079601980E+02  0.69871327947E+02  0.41800000000E+01 0.  1.
         -5    1    3    3    0  502  0.50871157390E+02 -0.45002669328E+02  0.10215598028E+03  0.12274539343E+03  0.41800000000E+01 0.  1.
        -11    1    1    2    0    0 -0.92207993101E+01  0.42057241673E+02  0.21361166716E+03  0.21790773062E+03  0.00000000000E+00 0.  1.
         11    1    1    2    0    0 -0.97469611125E+01 -0.41673528231E+02  0.87068226921E+02  0.97018360867E+02  0.00000000000E+00 0. -1.
</event>
<event>
 7    1  0.2749315E-009  0.1296921E+03  0.7561462E-02  0.1227913E+00
         -2   -1    0    0    0  501 -0.00000000000E+00  0.00000000000E+00  0.15956429045E+03  0.15956429045E+03  0.00000000000E+00 0. -1.
          2   -1    0    0  501    0  0.00000000000E+00 -0.00000000000E+00 -0.29045190805E+03  0.29045190805E+03  0.00000000000E+00 0.  1.
         25    2    1    2    0    0 -0.63306938043E+02  0.50820443713E+02  0.10588779759E+03  0.18289235807E+03  0.12508758155E+03 0.  0.
          5    1    3    3  502    0 -0.12126632349E+02 -0.35776760509E+02  0.62749337083E+02  0.73362003169E+02  0.41800000000E+01 0. -1.
         -5    1    3    3    0  502 -0.51180305694E+02  0.86597204222E+02  0.43138460503E+02  0.10953035490E+03  0.41800000000E+01 0. -1.
        -11    1    1    2    0    0  0.63933130787E+02  0.56902117320E+01 -0.96549781110E+02  0.11593827648E+03  0.00000000000E+00 0. -1.
         11    1    1    2    0    0 -0.62619274420E+00 -0.56510655445E+02 -0.14022563407E+03  0.15118556395E+03  0.00000000000E+00 0.  1.
</event>
<event>
 7    1  0.2749315E-009  0.1783944E+03  0.7561462E-02  0.1169366E+00
         -2   -1    0    0    0  501 -0.00000000000E+00  0.00000000000E+00  0.73419546199E+03  0.73419546199E+03  0.00000000000E+00 0.  1.
          2   -1    0    0  501    0  0.00000000000E+00 -0.00000000000E+00 -0.73042582025E+02  0.73042582025E+02  0.00000000000E+00 0. -1.
         25    2    1    2    0    0  0.14856629765E+03 -0.48094096365E+02  0.57134151792E+03  0.60536282641E+03  0.12509210448E+03 0.  0.
          5    1    3    3  502    0  0.18158684646E+02 -0.60699482001E+02  0.12545822444E+03  0.14061082256E+03  0.41800000000E+01 0.  1.
         -5    1    3    3    0  502  0.13040761300E+03  0.12605385635E+02  0.44588329348E+03  0.46475200385E+03  0.41800000000E+01 0.  1.
        -11    1    1    2    0    0 -0.21142861189E+02  0.24949502501E+02  0.60981000022E+02  0.69196680686E+02  0.00000000000E+00 0.  1.
         11    1    1    2    0    0 -0.12742343646E+03  0.23144593864E+02  0.28830362025E+02  0.13267853692E+03  0.00000000000E+00 0. -1.
</event>
<event>
 7    1  0.2749315E-009  0.8910564E+02  0.7561462E-02  0.1305032E+00
         -2   -1    0    0    0  501 -0.00000000000E+00  0.00000000000E+00  0.28871472029E+02  0.28871472029E+02  0.00000000000E+00 0.  1.
          2   -1    0    0  501    0  0.00000000000E+00 -0.00000000000E+00 -0.41952590429E+03  0.41952590429E+03  0.00000000000E+00 0. -1.
         25    2    1    2    0    0  0.22446650397E+01 -0.31216193579E+01 -0.19235148749E+03  0.22948264776E+03  0.12509359639E+03 0.  0.
          5    1    3    3  502    0  0.49395976134E+02  0.11282324186E+02 -0.16561302190E+03  0.17324086908E+03  0.41800000000E+01 0.  1.
         -5    1    3    3    0  502 -0.47151311094E+02 -0.14403943544E+02 -0.26738465588E+02  0.56241778684E+02  0.41800000000E+01 0.  1.
        -11    1    1    2    0    0 -0.13286757847E+02 -0.35403976827E+02 -0.37739236365E+02  0.53424989196E+02  0.00000000000E+00 0.  1.
         11    1    1    2    0    0  0.11042092808E+02  0.38525596185E+02 -0.16056370841E+03  0.16548973936E+03  0.00000000000E+00 0. -1.
</event>
<event>
 7    1  0.2749315E-009  0.1039613E+03  0.7561462E-02  0.1272180E+00
          3   -1    0    0  501    0  0.00000000000E+00  0.00000000000E+00  0.38457857759E+03  0.38457857759E+03  0.00000000000E+00 0. -1.
         -3   -1    0    0    0  501 -0.00000000000E+00 -0.00000000000E+00 -0.43643757170E+02  0.43643757170E+02  0.00000000000E+00 0.  1.
         25    2    1    2    0    0 -0.24816631151E+02  0.31773022516E+01  0.79354471415E+02  0.15023267827E+03  0.12508702993E+03 0.  0.
          5    1    3    3  502    0 -0.55796386130E+02 -0.35438584990E+02  0.75451058189E+02  0.10039653676E+03  0.41800000000E+01 0. -1.
         -5    1    3    3    0  502  0.30979754979E+02  0.38615887241E+02  0.39034132253E+01  0.49836141512E+02  0.41800000000E+01 0. -1.
        -11    1    1    2    0    0 -0.18216438707E+02 -0.34342801400E+02  0.14018943621E+03  0.14547970536E+03  0.00000000000E+00 0. -1.
         11    1    1    2    0    0  0.43033069858E+02  0.31165499148E+02  0.12139091280E+03  0.13250995113E+03  0.00000000000E+00 0.  1.
</event>
<event>
 7    1  0.2749315E-009  0.1301811E+03  0.7561462E-02  0.1227187E+00
          1   -1    0    0  501    0  0.00000000000E+00  0.00000000000E+00  0.58967596592E+02  0.58967596592E+02  0.00000000000E+00 0. -1.
         -1   -1    0    0    0  501 -0.00000000000E+00 -0.00000000000E+00 -0.41909492801E+03  0.41909492801E+03  0.00000000000E+00 0.  1.
         25    2    1    2    0    0 -0.12649188665E+02  0.82655075367E+02 -0.79459922782E+02  0.17015538182E+03  0.12508841343E+03 0.  0.
          5    1    3    3  502    0 -0.13830458834E+02  0.11296071776E+03 -0.41087713293E+02  0.12106641950E+03  0.41800000000E+01 0. -1.
         -5    1    3    3    0  502  0.11812701698E+01 -0.30305642391E+02 -0.38372209489E+02  0.49088962313E+02  0.41800000000E+01 0. -1.
        -11    1    1    2    0    0  0.46813270962E+02 -0.43536675314E+02 -0.90685649200E+02  0.11095409594E+03  0.00000000000E+00 0. -1.
         11    1    1    2    0    0 -0.34164082297E+02 -0.39118400053E+02 -0.18998175944E+03  0.19695304685E+03  0.00000000000E+00 0.  1.
</event>
<event>
 7    1  0.2749315E-009  0.9724179E+02  0.7561462E-02  0.1286205E+00
         -1   -1    0    0    0  501 -0.00000000000E+00  0.00000000000E+00  0.86186746774E+02  0.86186746774E+02  0.00000000000E+00 0.  1.
          1   -1    0    0  501    0  0.00000000000E+00 -0.00000000000E+00 -0.14384747664E+03  0.14384747664E+03  0.00000000000E+00 0. -1.
         25    2    1    2    0    0 -0.17623035449E+02  0.46966699539E+01 -0.15132075447E+02  0.12730414666E+03  0.12507891893E+03 0.  0.
          5    1    3    3  502    0  0.41401692956E+02 -0.13433866788E+02 -0.41266350608E+02  0.60124479615E+02  0.41800000000E+01 0. -1.
         -5    1    3    3    0  502 -0.59024728405E+02  0.18130536742E+02  0.26134275160E+02  0.67179667043E+02  0.41800000000E+01 0. -1.
        -11    1    1    2    0    0 -0.26281553467E+02  0.24671631994E+02 -0.33367060850E+02  0.49119957529E+02  0.00000000000E+00 0. -1.
         11    1    1    2    0    0  0.43904588915E+02 -0.29368301948E+02 -0.91615935725E+01  0.53610119231E+02  0.00000000000E+00 0.  1.
</event>
<event>
 7    1  0.2749315E-009  0.1308809E+03  0.7561462E-02  0.1226155E+00
          1   -1    0    0  501    0  0.00000000000E+00  0.00000000000E+00  0.20063184306E+03  0.20063184306E+03  0.00000000000E+00 0. -1.
         -1   -1    0    0    0  501 -0.00000000000E+00 -0.00000000000E+00 -0.11517899801E+03  0.11517899801E+03  0.00000000000E+00 0.  1.
         25    2    1    2    0    0 -0.87327057368E+02 -0.57653525336E+02  0.90951850090E+01  0.16333903611E+03  0.12508786670E+03 0.  0.
          5    1    3    3  502    0 -0.53188818080E+02 -0.75413503353E+02 -0.40129689219E+02  0.10071797860E+03  0.41800000000E+01 0.  1.
         -5    1    3    3    0  502 -0.34138239288E+02  0.17759978017E+02  0.49224874228E+02  0.62621057510E+02  0.41800000000E+01 0.  1.
        -11    1    1    2    0    0  0.98501731478E+02  0.33466175132E+02  0.51704676459E+02  0.11617206872E+03  0.00000000000E+00 0.  1.
         11    1    1    2    0    0 -0.11174674110E+02  0.24187350205E+02  0.24652983589E+02  0.36299736242E+02  0.00000000000E+00 0. -1.
</event>
<event>
 7    1  0.2749315E-009  0.1061852E+03  0.7561462E-02  0.1267802E+00
          4   -1    0    0  501    0  0.00000000000E+00  0.00000000000E+00  0.58412519731E+02  0.58412519731E+02  0.00000000000E+00 0.  1.
         -4   -1    0    0    0  501 -0.00000000000E+00 -0.00000000000E+00 -0.30698990295E+03  0.30698990295E+03  0.00000000000E+00 0. -1.
         25    2    1    2    0    0  0.78811478768E+02  0.86337016022E-01 -0.15783626735E+03  0.21626677238E+03  0.12509105846E+03 0.  0.
          5    1    3    3  502    0  0.27091777007E+02  0.52475432710E+02 -0.24852744099E+02  0.64208774391E+02  0.41800000000E+01 0.  1.
         -5    1    3    3    0  502  0.51719701761E+02 -0.52389095694E+02 -0.13298352325E+03  0.15205799799E+03  0.41800000000E+01 0.  1.
        -11    1    1    2    0    0 -0.31547645549E+02 -0.48849219232E+01 -0.96160190143E+02  0.10132077068E+03  0.00000000000E+00 0. -1.
         11    1    1    2    0    0 -0.47263833219E+02  0.47985849072E+01  0.54190742693E+01  0.47814879625E+02  0.00000000000E+00 0.  1.
</event>
<event>
 7    1  0.2749315E-009  0.1158091E+03  0.7561462E-02  0.1250175E+00
          1   -1    0    0  501    0  0.00000000000E+00  0.00000000000E+00  0.91863826682E+03  0.91863826682E+03  0.00000000000E+00 0. -1.
         -1   -1    0    0    0  501 -0.00000000000E+00 -0.00000000000E+00 -0.27142661650E+02  0.27142661650E+02  0.00000000000E+00 0.  1.
         25    2    1    2    0    0  0.18174502862E+02 -0.10013999917E+03  0.63840980581E+03  0.65846238890E+03  0.12508918996E+03 0.  0.
          5    1    3    3  502    0  0.32674072434E+02 -0.28989424089E+02  0.50164141143E+03  0.50355690818E+03  0.41800000000E+01 0.  1.
         -5    1    3    3    0  502 -0.14499569572E+02 -0.71150575084E+02  0.13676839438E+03  0.15490548071E+03  0.41800000000E+01 0.  1.
        -11    1    1    2    0    0  0.17168795421E+02  0.55339418449E+02  0.50534815078E+02  0.76882938974E+02  0.00000000000E+00 0.  1.
         11    1    1    2    0    0 -0.35343298283E+02  0.44800580725E+02  0.20255098428E+03  0.21043560060E+03  0.00000000000E+00 0. -1.
</event>
<event>
 7    1  0.2749315E-009  0.8100568E+02  0.7561462E-02  0.1326221E+00
          3   -1    0    0  501    0  0.00000000000E+00  0.00000000000E+00  0.36089136697E+03  0.36089136697E+03  0.00000000000E+00 0. -1.
         -3   -1    0    0    0  501 -0.00000000000E+00 -0.00000000000E+00 -0.77428622451E+02  0.77428622451E+02  0.00000000000E+00 0.  1.
         25    2    1    2    0    0  0.40721057632E+02 -0.17699392426E+02 -0.50422506766E+01  0.13282358157E+03  0.12508079989E+03 0.  0.
          5    1    3    3  502    0  0.40211965150E+01  0.25220453237E+02 -0.52765327537E+02  0.58769834719E+02  0.41800000000E+01 0. -1.
         -5    1    3    3    0  502  0.36699861117E+02 -0.42919845663E+02  0.47723076860E+02  0.74053746851E+02  0.41800000000E+01 0. -1.
        -11    1    1    2    0    0 -0.40260789606E+02 -0.17788866572E+02  0.24697714514E+03  0.25086866120E+03  0.00000000000E+00 0. -1.
         11    1    1    2    0    0 -0.46026802570E+00  0.35488258998E+02  0.41527850061E+02  0.54627746650E+02  0.00000000000E+00 0.  1.
</event>
<event>
 7    1  0.2896445E-009  0.1031120E+03  0.7561462E-02  0.1273885E+00
          2   -1    0    0  501    0  0.00000000000E+00  0.00000000000E+00  0.11013567437E+03  0.11013567437E+03  0.00000000000E+00 0. -1.
         -2   -1    0    0    0  501 -0.00000000000E+00 -0.00000000000E+00 -0.14994466241E+03  0.14994466241E+03  0.00000000000E+00 0.  1.
         25    2    1    2    0    0 -0.26611056453E+02  0.61595650498E+02 -0.97768529971E+01  0.14228993449E+03  0.12509462864E+03 0.  0.
          5    1    3    3  502    0 -0.26769400924E+02  0.89646814904E+02 -0.39108193205E+02  0.10148928724E+03  0.41800000000E+01 0. -1.
         -5    1    3    3    0  502  0.15834447057E+00 -0.28051164406E+02  0.29331340207E+02  0.40800647248E+02  0.41800000000E+01 0. -1.
        -11    1    1    2    0    0  0.20460523633E+01 -0.59523570325E+02 -0.56165311881E+02  0.81864424588E+02  0.00000000000E+00 0.  1.
         11    1    1    2    0    0  0.24565004090E+02 -0.20720801727E+01  0.26133176835E+02  0.35925977700E+02  0.00000000000E+00 0. -1.
</event>
<event>
 7    1  0.2749315E-009  0.1098556E+03  0.7561462E-02  0.1260838E+00
          2   -1    0    0  501    0  0.00000000000E+00  0.00000000000E+00  0.29020778503E+02  0.29020778503E+02  0.00000000000E+00 0. -1.
         -2   -1    0    0    0  501 -0.00000000000E+00 -0.00000000000E+00 -0.61308080976E+03  0.61308080976E+03  0.00000000000E+00 0.  1.
         25    2    1    2    0    0 -0.64884674690E+02 -0.36044680733E+02 -0.29546874455E+03  0.32933140182E+03  0.12509257853E+03 0.  0.
          5    1    3    3  502    0 -0.62189090510E+01 -0.47189980166E+02 -0.24902107987E+03  0.25356367972E+03  0.41800000000E+01 0.  1.
         -5    1    3    3    0  502 -0.58665765639E+02  0.11145299433E+02 -0.46447664682E+02  0.75767722098E+02  0.41800000000E+01 0.  1.
        -11    1    1    2    0    0  0.49122853466E+02 -0.20603428465E+02 -0.80483476473E+02  0.96515003924E+02  0.00000000000E+00 0. -1.
         11    1    1    2    0    0  0.15761821224E+02  0.56648109198E+02 -0.20810781024E+03  0.21625518252E+03  0.00000000000E+00 0.  1.
</event>
<event>
 7    1  0.2749315E-009  0.1308550E+03  0.7561462E-02  0.1226193E+00
          1   -1    0    0  501    0  0.00000000000E+00  0.00000000000E+00  0.17762501000E+03  0.17762501000E+03  0.00000000000E+00 0. -1.
         -1   -1    0    0    0  501 -0.00000000000E+00 -0.00000000000E+00 -0.10011058623E+03  0.10011058623E+03  0.00000000000E+00 0.  1.
         25    2    1    2    0    0 -0.15578192225E+02  0.73941459852E+02  0.25791383079E+02  0.14839660891E+03  0.12508532502E+03 0.  0.
          5    1    3    3  502    0  0.18697862716E+01  0.10700503202E+03  0.28036677332E+02  0.11071179095E+03  0.41800000000E+01 0. -1.
         -5    1    3    3    0  502 -0.17447978496E+02 -0.33063572172E+02 -0.22452942526E+01  0.37684817960E+02  0.41800000000E+01 0. -1.
        -11    1    1    2    0    0 -0.12736302561E+02 -0.85472799447E+02  0.28667438194E+02  0.91047431929E+02  0.00000000000E+00 0.  1.
         11    1    1    2    0    0  0.28314494786E+02  0.11531339595E+02  0.23055602496E+02  0.38291555391E+02  0.00000000000E+00 0. -1.
</event>
<event>
 7    1  0.2749315E-009  0.1309542E+03  0.7561462E-02  0.1226047E+00
         -1   -1    0    0    0  501 -0.00000000000E+00  0.00000000000E+00  0.57761007164E+02  0.57761007164E+02  0.00000000000E+00 0.  1.
          1   -1    0    0  501    0  0.00000000000E+00 -0.00000000000E+00 -0.32196585236E+03  0.32196585236E+03  0.00000000000E+00 0. -1.
         25    2    1    2    0    0  0.47768369697E+02  0.56952300427E+02 -0.96001678804E+02  0.17432291890E+03  0.12508707389E+03 0.  0.
          5    1    3    3  502    0 -0.14326914723E+02 -0.32361032923E+02 -0.15148168166E+02  0.38722555909E+02  0.41800000000E+01 0. -1.
         -5    1    3    3    0  502  0.62095284420E+02  0.89313333350E+02 -0.80853510638E+02  0.13560036299E+03  0.41800000000E+01 0. -1.
        -11    1    1    2    0    0 -0.60914225698E+02 -0.20389220826E+01 -0.96523894724E+02  0.11415586865E+03  0.00000000000E+00 0.  1.
         11    1    1    2    0    0  0.13145856001E+02 -0.54913378344E+02 -0.71679271672E+02  0.91248071972E+02  0.00000000000E+00 0. -1.
</event>
<event>
 7    1  0.2749315E-009  0.2065632E+03  0.7561462E-02  0.1144317E+00
          1   -1    0    0  501    0  0.00000000000E+00  0.00000000000E+00  0.86572867425E+03  0.86572867425E+03  0.00000000000E+00 0. -1.
         -1   -1    0    0    0  501 -0.00000000000E+00 -0.00000000000E+00 -0.53468751558E+02  0.53468751558E+02  0.00000000000E+00 0.  1.
         25    2    1    2    0    0  0.15580687513E+03  0.10073588625E+03  0.39447860215E+03  0.45352473247E+03  0.12509122388E+03 0.  0.
          5    1    3    3  502    0  0.15062209897E+03  0.11641870813E+03  0.28518809031E+03  0.34291405855E+03  0.41800000000E+01 0.  1.
         -5    1    3    3    0  502  0.51847761578E+01 -0.15682821877E+02  0.10929051184E+03  0.11061067391E+03  0.41800000000E+01 0.  1.
        -11    1    1    2    0    0 -0.11044182531E+02 -0.51646046900E+02  0.10444607428E+03  0.11703961108E+03  0.00000000000E+00 0. -1.
         11    1    1    2    0    0 -0.14476269260E+03 -0.49089839349E+02  0.31333524626E+03  0.34863308226E+03  0.00000000000E+00 0.  1.
</event>
<event>
 7    1  0.2749315E-009  0.1118404E+03  0.7561462E-02  0.1257199E+00
          1   -1    0    0  501    0  0.00000000000E+00  0.00000000000E+00  0.61182135309E+02  0.61182135309E+02  0.00000000000E+00 0. -1.
         -1   -1    0    0    0  501 -0.00000000000E+00 -0.00000000000E+00 -0.28564452933E+03  0.28564452933E+03  0.00000000000E+00 0.  1.
         25    2    1    2    0    0  0.44463709520E+02  0.59601124229E+02 -0.11223899293E+03  0.18377888695E+03  0.12509105596E+03 0.  0.
          5    1    3    3  502    0 -0.40597279786E+02  0.90128925968E+01 -0.13511659030E+02  0.43925034875E+02  0.41800000000E+01 0. -1.
         -5    1    3    3    0  502  0.85060989307E+02  0.50588231633E+02 -0.98727333900E+02  0.13985385208E+03  0.41800000000E+01 0. -1.
        -11    1    1    2    0    0 -0.56492859001E+01 -0.37983979751E+02 -0.11223154193E+03  0.11861962803E+03  0.00000000000E+00 0.  1.
         11    1    1    2    0    0 -0.38814423620E+02 -0.21617144478E+02  0.81408377579E-02  0.44428149665E+02  0.00000000000E+00 0. -1.
</event>
<event>
 7    1  0.2749315E-009  0.1607142E+03  0.7561462E-02  0.1187893E+00
         -3   -1    0    0    0  501 -0.00000000000E+00  0.00000000000E+00  0.56350232255E+03  0.56350232255E+03  0.00000000000E+00 0.  1.
          3   -1    0    0  501    0  0.00000000000E+00 -0.00000000000E+00 -0.50810256764E+02  0.50810256764E+02  0.00000000000E+00 0. -1.
         25    2    1    2    0    0  0.73752823386E+02 -0.10122019731E+03  0.21197589437E+03  0.27616480255E+03  0.12509280983E+03 0.  0.
          5    1    3    3  502    0  0.83616317179E+02 -0.12237541295E+03  0.15523938134E+03  0.21467223414E+03  0.41800000000E+01 0.  1.
         -5    1    3    3    0  502 -0.98634937937E+01  0.21155215636E+02  0.56736513032E+02  0.61492568408E+02  0.41800000000E+01 0.  1.
        -11    1    1    2    0    0 -0.59562533996E+02  0.14145859114E+02  0.82183868440E+02  0.10247921261E+03  0.00000000000E+00 0. -1.
         11    1    1    2    0    0 -0.14190289390E+02  0.87074338199E+02  0.21853230298E+03  0.23566856415E+03  0.00000000000E+00 0.  1.
</event>
<event>
 7    1  0.2749315E-009  0.7530715E+02  0.7561462E-02  0.1342923E+00
         -1   -1    0    0    0  501 -0.00000000000E+00  0.00000000000E+00  0.18432052201E+02  0.18432052201E+02  0.00000000000E+00 0.  1.
          1   -1    0    0  501    0  0.00000000000E+00 -0.00000000000E+00 -0.13644649427E+04  0.13644649427E+04  0.00000000000E+00 0. -1.
         25    2    1    2    0    0  0.53172142953E+02 -0.44895803419E+01 -0.11785901966E+04  0.11864111711E+04  0.12509669165E+03 0.  0.
          5    1    3    3  502    0  0.11966035255E+02 -0.31222715600E+02 -0.10148997378E+04  0.10154590066E+04  0.41800000000E+01 0. -1.
         -5    1    3    3    0  502  0.41206107698E+02  0.26733135258E+02 -0.16369045884E+03  0.17095216450E+03  0.41800000000E+01 0. -1.
        -11    1    1    2    0    0 -0.90493291419E+00  0.14395102773E+02  0.55833795280E+01  0.15466480348E+02  0.00000000000E+00 0.  1.
         11    1    1    2    0    0 -0.52267210039E+02 -0.99055224307E+01 -0.17302607344E+03  0.18101934347E+03  0.00000000000E+00 0. -1.
</event>
<event>
 7    1  0.2749315E-009  0.1244522E+03  0.7561462E-02  0.1235928E+00
          2   -1    0    0  501    0  0.00000000000E+00  0.00000000000E+00  0.17744468972E+03  0.17744468972E+03  0.00000000000E+00 0. -1.
         -2   -1    0    0    0  501 -0.00000000000E+00 -0.00000000000E+00 -0.15967013360E+03  0.15967013360E+03  0.00000000000E+00 0.  1.
         25    2    1    2    0    0  0.34326762820E+02  0.52558500593E+02  0.94488169104E+02  0.16886734521E+03  0.12508974197E+03 0.  0.
          5    1    3    3  502    0  0.53492017767E+02  0.77920122633E+02  0.98476649169E+02  0.13655791558E+03  0.41800000000E+01 0. -1.
         -5    1    3    3    0  502 -0.19165254947E+02 -0.25361622039E+02 -0.39884800655E+01  0.32309429628E+02  0.41800000000E+01 0. -1.
        -11    1    1    2    0    0 -0.71433564745E+02 -0.23817116829E+02  0.34231490799E+01  0.75377232477E+02  0.00000000000E+00 0. -1.
         11    1    1    2    0    0  0.37106801925E+02 -0.28741383764E+02 -0.80136762063E+02  0.92870245632E+02  0.00000000000E+00 0.  1.
</event>
<event>
 7    1  0.2749315E-009  0.9846501E+02  0.7561462E-02  0.1283557E+00
          3   -1    0    0  501    0  0.00000000000E+00  0.00000000000E+00  0.10307950925E+03  0.10307950925E+03  0.00000000000E+00 0. -1.
         -3   -1    0    0    0  501 -0.00000000000E+00 -0.00000000000E+00 -0.18517603489E+03  0.18517603489E+03  0.00000000000E+00 0.  1.
         25    2    1    2    0    0 -0.64492929782E+02  0.22533928267E+01 -0.10495003261E+03  0.17557904159E+03  0.12509626186E+03 0.  0.
          5    1    3    3  502    0 -0.54792150472E+02  0.33937245959E+02 -0.12202926322E+03  0.13806712099E+03  0.41800000000E+01 0. -1.
         -5    1    3    3    0  502 -0.97007793101E+01 -0.31683853133E+02  0.17079230616E+02  0.37511920599E+02  0.41800000000E+01 0. -1.
        -11    1    1    2    0    0 -0.77936067859E+01 -0.22553899432E+02 -0.15410055837E+02  0.28405782989E+02  0.00000000000E+00 0.  1.
         11    1    1    2    0    0  0.72286536568E+02  0.20300506605E+02  0.38263562796E+02  0.84270719560E+02  0.00000000000E+00 0. -1.
</event>
<event>
 7    1  0.2749315E-009  0.1175815E+03  0.7561462E-02  0.1247141E+00
          2   -1    0    0  501    0  0.00000000000E+00  0.00000000000E+00  0.39546589599E+03  0.39546589599E+03  0.00000000000E+00 0. -1.
         -2   -1    0    0    0  501 -0.00000000000E+00 -0.00000000000E+00 -0.51401240426E+02  0.51401240426E+02  0.00000000000E+00 0.  1.
         25    2    1    2    0    0 -0.89774970939E+02 -0.10302286970E+02  0.16249997520E+03  0.22409674637E+03  0.12508967691E+03 0.  0.
          5    1    3    3  502    0 -0.55771784011E+02  0.29197558040E+02  0.15972760003E+03  0.17173633250E+03  0.41800000000E+01 0.  1.
         -5    1    3    3    0  502 -0.34003186929E+02 -0.39499845010E+02  0.27723751711E+01  0.52360413876E+02  0.41800000000E+01 0.  1.
        -11    1    1    2    0    0 -0.13334924557E+02  0.10011562934E+02  0.35481458250E+01  0.17048194747E+02  0.00000000000E+00 0.  1.
         11    1    1    2    0    0  0.10310989550E+03  0.29072403612E+00  0.17801653453E+03  0.20572219529E+03  0.00000000000E+00 0. -1.
</event>
<event>
 7    1  0.2749315E-009  0.7542568E+02  0.7561462E-02  0.1342558E+00
         -2   -1    0    0    0  501 -0.00000000000E+00  0.00000000000E+00  0.23943562085E+02  0.23943562085E+02  0.00000000000E+00 0. -1.
          2   -1    0    0  501    0  0.00000000000E+00 -0.00000000000E+00 -0.53495441409E+03  0.53495441409E+03  0.00000000000E+00 0.  1.
         25    2    1    2    0    0  0.26487891977E+02  0.74455461749E+01 -0.33409850774E+03  0.35780740248E+03  0.12508908751E+03 0.  0.
          5    1    3    3  502    0  0.21004791125E+02  0.28131854403E+02 -0.33413692434E+03  0.33600232007E+03  0.41800000000E+01 0.  1.
         -5    1    3    3    0  502  0.54831008520E+01 -0.20686308228E+02  0.38416600156E-01  0.21805082410E+02  0.41800000000E+01 0.  1.
        -11    1    1    2    0    0  0.19967666381E+02  0.28606617151E+02 -0.47403779554E+02  0.58857153868E+02  0.00000000000E+00 0.  1.
         11    1    1    2    0    0 -0.46455558358E+02 -0.36052163326E+02 -0.12950856471E+03  0.14223341983E+03  0.00000000000E+00 0. -1.
</event>
<event>
 7    1  0.2749315E-009  0.1909153E+03  0.7561462E-02  0.1157638E+00
         -4   -1    0    0    0  501 -0.00000000000E+00  0.00000000000E+00  0.14433120407E+03  0.14433120407E+03  0.00000000000E+00 0.  1.
          4   -1    0    0  501    0  0.00000000000E+00 -0.00000000000E+00 -0.27063294634E+03  0.27063294634E+03  0.00000000000E+00 0. -1.
         25    2    1    2    0    0 -0.11856290069E+03  0.11514080114E+03 -0.80328976388E+02  0.22229550258E+03  0.12509188828E+03 0.  0.
          5    1    3    3  502    0 -0.87820975822E+02  0.88572707241E+00 -0.44839413770E+02  0.98698296510E+02  0.41800000000E+01 0.  1.
         -5    1    3    3    0  502 -0.30741924870E+02  0.11425507407E+03 -0.35489562618E+02  0.12359720607E+03  0.41800000000E+01 0.  1.
        -11    1    1    2    0    0 -0.28151585525E+01 -0.22876636456E+02  0.16034148106E+02  0.28077740627E+02  0.00000000000E+00 0.  1.
         11    1    1    2    0    0  0.12137805924E+03 -0.92264164683E+02 -0.62006913992E+02  0.16459090720E+03  0.00000000000E+00 0. -1.
</event>
<event>
 7    1  0.2749315E-009  0.1700484E+03  0.7561462E-02  0.1177797E+00
         -4   -1    0    0    0  501 -0.00000000000E+00  0.00000000000E+00  0.22904134997E+03  0.22904134997E+03  0.00000000000E+00 0.  1.
          4   -1    0    0  501    0  0.00000000000E+00 -0.00000000000E+00 -0.12839377652E+03  0.12839377652E+03  0.00000000000E+00 0. -1.
         25    2    1    2    0    0 -0.13909145829E+03  0.16354742778E+02  0.60823367091E+02  0.19737862540E+03  0.12507968821E+03 0.  0.
          5    1    3    3  502    0 -0.36726037806E+02  0.63992798643E+02  0.14736465350E+02  0.75355928381E+02  0.41800000000E+01 0.  1.
         -5    1    3    3    0  502 -0.10236542048E+03 -0.47638055865E+02  0.46086901740E+02  0.12202269702E+03  0.41800000000E+01 0.  1.
        -11    1    1    2    0    0  0.11391915317E+03  0.12865643712E+02  0.40199022493E+02  0.12148687031E+03  0.00000000000E+00 0.  1.
         11    1    1    2    0    0  0.25172305114E+02 -0.29220386490E+02 -0.37481612983E+00  0.38569630780E+02  0.00000000000E+00 0. -1.
</event>
<event>
 7    1  0.2749315E-009  0.1704799E+03  0.7561462E-02  0.1177348E+00
          2   -1    0    0  501    0  0.00000000000E+00  0.00000000000E+00  0.19034185518E+03  0.19034185518E+03  0.00000000000E+00 0. -1.
         -2   -1    0    0    0  501 -0.00000000000E+00 -0.00000000000E+00 -0.17157767410E+03  0.17157767410E+03  0.00000000000E+00 0.  1.
         25    2    1    2    0    0 -0.62831731573E+02 -0.13443006324E+03  0.60000248757E+01  0.19417240355E+03  0.12509058160E+03 0.  0.
          5    1    3    3  502    0  0.27307730017E+02 -0.11832931102E+02  0.27129654800E+02  0.40487293645E+02  0.41800000000E+01 0. -1.
         -5    1    3    3    0  502 -0.90139461590E+02 -0.12259713214E+03 -0.21129629924E+02  0.15368510990E+03  0.41800000000E+01 0. -1.
        -11    1    1    2    0    0  0.31714165249E+02  0.12047145572E+03  0.31961165348E+02  0.12861055948E+03  0.00000000000E+00 0. -1.
         11    1    1    2    0    0  0.31117566324E+02  0.13958607522E+02 -0.19197009143E+02  0.39136566251E+02  0.00000000000E+00 0.  1.
</event>
<event>
 7    1  0.2749315E-009  0.1163806E+03  0.7561462E-02  0.1249190E+00
          1   -1    0    0  501    0  0.00000000000E+00  0.00000000000E+00  0.10487297424E+03  0.10487297424E+03  0.00000000000E+00 0. -1.
         -1   -1    0    0    0  501 -0.00000000000E+00 -0.00000000000E+00 -0.19072848688E+03  0.19072848688E+03  0.00000000000E+00 0.  1.
         25    2    1    2    0    0  0.81226272645E+02  0.19541383555E+02 -0.82527740129E+02  0.17157642254E+03  0.12509223733E+03 0.  0.
          5    1    3    3  502    0 -0.43665719997E+01 -0.30068120595E+02  0.13620006705E+02  0.33557947044E+02  0.41800000000E+01 0. -1.
         -5    1    3    3    0  502  0.85592844645E+02  0.49609504150E+02 -0.96147746835E+02  0.13801847549E+03  0.41800000000E+01 0. -1.
        -11    1    1    2    0    0 -0.72544072465E+02  0.91292734545E+01 -0.34452073373E+02  0.80826551598E+02  0.00000000000E+00 0.  1.
         11    1    1    2    0    0 -0.86822001803E+01 -0.28670657009E+02  0.31124300863E+02  0.43198486982E+02  0.00000000000E+00 0. -1.
</event>
<event>
 7    1  0.2749315E-009  0.2289377E+03  0.7561462E-02  0.1127390E+00
          1   -1    0    0  501    0  0.00000000000E+00  0.00000000000E+00  0.29796583561E+04  0.29796583561E+04  0.00000000000E+00 0. -1.
         -1   -1    0    0    0  501 -0.00000000000E+00 -0.00000000000E+00 -0.29230106223E+02  0.29230106223E+02  0.00000000000E+00 0.  1.
         25    2    1    2    0    0 -0.19037580850E+03 -0.10584351259E+03  0.23573638183E+04  0.23707083125E+04  0.12509170093E+03 0.  0.
          5    1    3    3  502    0 -0.44482023107E+02  0.11884155334E+02  0.92051925062E+03  0.92167947069E+03  0.41800000000E+01 0. -1.
         -5    1    3    3    0  502 -0.14589378539E+03 -0.11772766792E+03  0.14368445677E+04  0.14490288418E+04  0.41800000000E+01 0. -1.
        -11    1    1    2    0    0  0.15612408054E+03  0.60810114633E+02  0.34222304869E+03  0.38103702396E+03  0.00000000000E+00 0.  1.
         11    1    1    2    0    0  0.34251727958E+02  0.45033397953E+02  0.25084138289E+03  0.25714312584E+03  0.00000000000E+00 0. -1.
</event>
<event>
 7    1  0.2749315E-009  0.1715212E+03  0.7561462E-02  0.1176271E+00
         -2   -1    0    0    0  501 -0.00000000000E+00  0.00000000000E+00  0.45974379874E+02  0.45974379874E+02  0.00000000000E+00 0.  1.
          2   -1    0    0  501    0  0.00000000000E+00 -0.00000000000E+00 -0.74159281223E+03  0.74159281223E+03  0.00000000000E+00 0. -1.
         25    2    1    2    0    0  0.12807985824E+03 -0.73963531832E+02 -0.40195245822E+03  0.44619294783E+03  0.12508922373E+03 0.  0.
          5    1    3    3  502    0 -0.21144220524E+02 -0.20278602113E+02 -0.11012995661E+03  0.11403674631E+03  0.41800000000E+01 0. -1.
         -5    1    3    3    0  502  0.14922407877E+03 -0.53684929720E+02 -0.29182250161E+03  0.33215620152E+03  0.41800000000E+01 0. -1.
        -11    1    1    2    0    0 -0.37774953173E+02 -0.47281573383E+00 -0.17901124039E+02  0.41804555778E+02  0.00000000000E+00 0.  1.
         11    1    1    2    0    0 -0.90304905068E+02  0.74436347566E+02 -0.27576485009E+03  0.29956968850E+03  0.00000000000E+00 0. -1.
</event>
<event>
 7    1  0.2749315E-009  0.9604212E+02  0.7561462E-02  0.1288846E+00
         -1   -1    0    0    0  501 -0.00000000000E+00  0.00000000000E+00  0.38228136755E+02  0.38228136755E+02  0.00000000000E+00 0.  1.
          1   -1    0    0  501    0  0.00000000000E+00 -0.00000000000E+00 -0.37745402670E+03  0.37745402670E+03  0.00000000000E+00 0. -1.
         25    2    1    2    0    0  0.25415982568E+02  0.42651915522E+02 -0.16558392652E+03  0.21337939990E+03  0.12509026145E+03 0.  0.
          5    1    3    3  502    0 -0.36278857705E+02  0.17646836934E+02 -0.13318985324E+03  0.13922850202E+03  0.41800000000E+01 0. -1.
         -5    1    3    3    0  502  0.61694840274E+02  0.25005078588E+02 -0.32394073282E+02  0.74150897873E+02  0.41800000000E+01 0. -1.
        -11    1    1    2    0    0 -0.66964359707E+01 -0.59357900198E+02 -0.16545967426E+03  0.17591221213E+03  0.00000000000E+00 0. -1.
         11    1    1    2    0    0 -0.18719546597E+02  0.16705984676E+02 -0.81822891679E+01  0.26390551431E+02  0.00000000000E+00 0.  1.
</event>
<event>
 7    1  0.2749315E-009  0.1462799E+03  0.7561462E-02  0.1205120E+00
          2   -1    0    0  501    0  0.00000000000E+00  0.00000000000E+00  0.20884669849E+03  0.20884669849E+03  0.00000000000E+00 0. -1.
         -2   -1    0    0    0  501 -0.00000000000E+00 -0.00000000000E+00 -0.11980888667E+03  0.11980888667E+03  0.00000000000E+00 0.  1.
         25    2    1    2    0    0  0.35002105192E+02  0.11062468256E+03  0.50773643146E+02  0.17801228250E+03  0.12508973628E+03 0.  0.
          5    1    3    3  502    0 -0.24370903313E+02  0.94046362573E+02  0.61844418398E+02  0.11524262982E+03  0.41800000000E+01 0.  1.
         -5    1    3    3    0  502  0.59373008505E+02  0.16578319987E+02 -0.11070775252E+02  0.62769652677E+02  0.41800000000E+01 0.  1.
        -11    1    1    2    0    0 -0.43995794147E+02 -0.32020889580E+02 -0.13541536006E+02  0.56074419030E+02  0.00000000000E+00 0.  1.
         11    1    1    2    0    0  0.89936889549E+01 -0.78603792981E+02  0.51805704681E+02  0.94568883621E+02  0.00000000000E+00 0. -1.
</event>
<event>
 7    1  0.2749315E-009  0.1318018E+03  0.7561462E-02  0.1224806E+00
         -1   -1    0    0    0  501 -0.00000000000E+00  0.00000000000E+00  0.25336887618E+03  0.25336887618E+03  0.00000000000E+00 0.  1.
          1   -1    0    0  501    0  0.00000000000E+00 -0.00000000000E+00 -0.79574301734E+02  0.79574301734E+02  0.00000000000E+00 0. -1.
         25    2    1    2    0    0  0.85585997243E+02  0.24169166341E+02  0.11026366444E+03  0.18899212357E+03  0.12510329952E+03 0.  0.
          5    1    3    3  502    0 -0.28785689238E+02  0.33716955118E+01  0.50105232272E+02  0.58034394428E+02  0.41800000000E+01 0. -1.
         -5    1    3    3    0  502  0.11437168648E+03  0.20797470829E+02  0.60158432172E+02  0.13095772914E+03  0.41800000000E+01 0. -1.
        -11    1    1    2    0    0 -0.20656070041E+01 -0.33855691508E+02 -0.64882746447E+01  0.34533639942E+02  0.00000000000E+00 0. -1.
         11    1    1    2    0    0 -0.83520390239E+02  0.96865251669E+01  0.70019184647E+02  0.10941741440E+03  0.00000000000E+00 0.  1.
</event>
<event>
 7    1  0.2749315E-009  0.2596568E+03  0.7561462E-02  0.1107350E+00
          1   -1    0    0  501    0  0.00000000000E+00  0.00000000000E+00  0.11004280635E+04  0.11004280635E+04  0.00000000000E+00 0. -1.
         -1   -1    0    0    0  501 -0.00000000000E+00 -0.00000000000E+00 -0.66580116446E+02  0.66580116446E+02  0.00000000000E+00 0.  1.
         25    2    1    2    0    0  0.23263095098E+03  0.49689032306E+02  0.38362152536E+03  0.46839746320E+03  0.12507817369E+03 0.  0.
          5    1    3    3  502    0  0.22272949461E+03  0.74267756153E+01  0.34125835031E+03  0.40760068550E+03  0.41800000000E+01 0. -1.
         -5    1    3    3    0  502  0.99014563647E+01  0.42262256691E+02  0.42363175051E+02  0.60796777704E+02  0.41800000000E+01 0. -1.
        -11    1    1    2    0    0 -0.11996425498E+01  0.12989673114E+02  0.16440390555E+02  0.20987072008E+02  0.00000000000E+00 0.  1.
         11    1    1    2    0    0 -0.23143130843E+03 -0.62678705420E+02  0.63378603112E+03  0.67762364472E+03  0.00000000000E+00 0. -1.
</event>
<event>
 7    1  0.2749315E-009  0.1613461E+03  0.7561462E-02  0.1187185E+00
         -4   -1    0    0    0  501 -0.00000000000E+00  0.00000000000E+00  0.17619370056E+02  0.17619370056E+02  0.00000000000E+00 0.  1.
          4   -1    0    0  501    0  0.00000000000E+00 -0.00000000000E+00 -0.18613816174E+04  0.18613816174E+04  0.00000000000E+00 0. -1.
         25    2    1    2    0    0  0.66024189927E+02  0.12813433796E+03 -0.94667873810E+03  0.96572456038E+03  0.12508273713E+03 0.  0.
          5    1    3    3  502    0 -0.67106690943E+01  0.19573436954E+02 -0.17578315943E+02  0.27470385969E+02  0.41800000000E+01 0.  1.
         -5    1    3    3    0  502  0.72734859022E+02  0.10856090101E+03 -0.92910042216E+03  0.93825417441E+03  0.41800000000E+01 0.  1.
        -11    1    1    2    0    0 -0.71838967799E+02 -0.39434285727E+02 -0.46059124664E+03  0.46782496370E+03  0.00000000000E+00 0. -1.
         11    1    1    2    0    0  0.58147778718E+01 -0.88700052235E+02 -0.43649226265E+03  0.44545146342E+03  0.00000000000E+00 0.  1.
</event>
<event>
 7    1  0.2749315E-009  0.1898527E+03  0.7561462E-02  0.1158594E+00
          1   -1    0    0  501    0  0.00000000000E+00  0.00000000000E+00  0.25789710538E+03  0.25789710538E+03  0.00000000000E+00 0. -1.
         -1   -1    0    0    0  501 -0.00000000000E+00 -0.00000000000E+00 -0.21256944483E+03  0.21256944483E+03  0.00000000000E+00 0.  1.
         25    2    1    2    0    0  0.15504804898E+03 -0.92344923363E+02  0.12692886825E+03  0.25362799223E+03  0.12509491789E+03 0.  0.
          5    1    3    3  502    0  0.21695914739E+02 -0.17881782339E+02  0.92822153064E+02  0.97076749819E+02  0.41800000000E+01 0.  1.
         -5    1    3    3    0  502  0.13335213424E+03 -0.74463141024E+02  0.34106715187E+02  0.15655124241E+03  0.41800000000E+01 0.  1.
        -11    1    1    2    0    0 -0.11442262888E+02 -0.15238073099E+02 -0.18699472174E+02  0.26698211764E+02  0.00000000000E+00 0.  1.
         11    1    1    2    0    0 -0.14360578609E+03  0.10758299646E+03 -0.62901735532E+02  0.19014034622E+03  0.00000000000E+00 0. -1.
</event>
<event>
 7    1  0.2749315E-009  0.1173944E+03  0.7561462E-02  0.1247458E+00
          1   -1    0    0  501    0  0.00000000000E+00  0.00000000000E+00  0.72665384671E+03  0.72665384671E+03  0.00000000000E+00 0. -1.
         -1   -1    0    0    0  501 -0.00000000000E+00 -0.00000000000E+00 -0.31631578012E+02  0.31631578012E+02  0.00000000000E+00 0.  1.
         25    2    1    2    0    0  0.57973400197E+02 -0.11711002337E+02  0.61066142433E+03  0.62613987480E+03  0.12508279233E+03 0.  0.
          5    1    3    3  502    0 -0.37453631780E+02 -0.10435669220E+02  0.25009869702E+03  0.25313733106E+03  0.41800000000E+01 0. -1.
         -5    1    3    3    0  502  0.95427031977E+02 -0.12753331175E+01  0.36056272731E+03  0.37300254374E+03  0.41800000000E+01 0. -1.
        -11    1    1    2    0    0 -0.40982580645E+02  0.46171169561E+02  0.62909007403E+02  0.88141318502E+02  0.00000000000E+00 0. -1.
         11    1    1    2    0    0 -0.16990819552E+02 -0.34460167223E+02  0.21451836963E+02  0.44004231423E+02  0.00000000000E+00 0.  1.
</event>
<event>
 7    1  0.2749315E-009  0.1041172E+03  0.7561462E-02  0.1271869E+00
          2   -1    0    0  501    0  0.00000000000E+00  0.00000000000E+00  0.93394475161E+02  0.93394475161E+02  0.00000000000E+00 0. -1.
         -2   -1    0    0    0  501 -0.00000000000E+00 -0.00000000000E+00 -0.20058100271E+03  0.20058100271E+03  0.00000000000E+00 0.  1.
         25    2    1    2    0    0 -0.49851959138E+02  0.71951129804E+00 -0.13390694282E+03  0.18990718572E+03  0.12509170367E+03 0.  0.
          5    1    3    3  502    0 -0.75589728680E+02 -0.20184612580E+02 -0.13542102823E+03  0.15645303753E+03  0.41800000000E+01 0. -1.
         -5    1    3    3    0  502  0.25737769542E+02  0.20904123878E+02  0.15140854111E+01  0.33454148184E+02  0.41800000000E+01 0. -1.
        -11    1    1    2    0    0  0.64635589547E+02  0.22923433176E+02  0.50733699070E+01  0.68767596344E+02  0.00000000000E+00 0.  1.
         11    1    1    2    0    0 -0.14783630409E+02 -0.23642944474E+02  0.21647045364E+02  0.35300695807E+02  0.00000000000E+00 0. -1.
</event>
<event>
 7    1  0.2749315E-009  0.1278488E+03  0.7561462E-02  0.1230683E+00
          2   -1    0    0  501    0  0.00000000000E+00  0.00000000000E+00  0.18326424914E+03  0.18326424914E+03  0.00000000000E+00 0. -1.
         -2   -1    0    0    0  501 -0.00000000000E+00 -0.00000000000E+00 -0.12892605742E+03  0.12892605742E+03  0.00000000000E+00 0.  1.
         25    2    1    2    0    0 -0.94777034224E+02  0.50916998230E+02  0.49645405242E+02  0.17230069651E+03  0.12509051455E+03 0.  0.
          5    1    3    3  502    0 -0.49744692247E+02  0.63282709724E+02  0.82275412295E+02  0.11517791292E+03  0.41800000000E+01 0. -1.
         -5    1    3    3    0  502 -0.45032341977E+02 -0.12365711494E+02 -0.32630007052E+02  0.57122783589E+02  0.41800000000E+01 0. -1.
        -11    1    1    2    0    0  0.74033667227E+02 -0.87539135478E+00  0.30265875747E+02  0.79986082713E+02  0.00000000000E+00 0. -1.
         11    1    1    2    0    0  0.20743366997E+02 -0.50041606875E+02 -0.25573089262E+02  0.59903527337E+02  0.00000000000E+00 0.  1.
</event>
<event>
 7    1  0.2749315E-009  0.2630909E+03  0.7561462E-02  0.1105300E+00
         -1   -1    0    0    0  501 -0.00000000000E+00  0.00000000000E+00  0.76193227018E+03  0.76193227018E+03  0.00000000000E+00 0.  1.
          1   -1    0    0  501    0  0.00000000000E+00 -0.00000000000E+00 -0.10609469220E+03  0.10609469220E+03  0.00000000000E+00 0. -1.
         25    2    1    2    0    0 -0.11518771555E+03 -0.23297010594E+03  0.39762456404E+03  0.49121867112E+03  0.12508880387E+03 0.  0.
          5    1    3    3  502    0 -0.20533589975E+02 -0.95729196987E+02  0.24991278602E+03  0.26843915602E+03  0.41800000000E+01 0.  1.
         -5    1    3    3    0  502 -0.94654125580E+02 -0.13724090895E+03  0.14771177802E+03  0.22277951510E+03  0.41800000000E+01 0.  1.
        -11    1    1    2    0    0  0.70751878656E+02  0.17190294574E+03  0.23105264918E+03  0.29654978971E+03  0.00000000000E+00 0. -1.
         11    1    1    2    0    0  0.44435836898E+02  0.61067160203E+02  0.27160364770E+02  0.80258501547E+02  0.00000000000E+00 0.  1.
</event>
<event>
 7    1  0.2749315E-009  0.9441455E+02  0.7561462E-02  0.1292500E+00
          1   -1    0    0  501    0  0.00000000000E+00  0.00000000000E+00  0.61187512515E+03  0.61187512515E+03  0.00000000000E+00 0. -1.
         -1   -1    0    0    0  501 -0.00000000000E+00 -0.00000000000E+00 -0.22521753699E+02  0.22521753699E+02  0.00000000000E+00 0.  1.
         25    2    1    2    0    0 -0.49036420317E+02  0.13825779402E+02  0.28587261378E+03  0.31617901392E+03  0.12510113846E+03 0.  0.
          5    1    3    3  502    0 -0.60650096443E+02  0.34377958248E+02  0.28362808533E+03  0.29210039610E+03  0.41800000000E+01 0.  1.
         -5    1    3    3    0  502  0.11613676126E+02 -0.20552178845E+02  0.22445284473E+01  0.24078617826E+02  0.41800000000E+01 0.  1.
        -11    1    1    2    0    0  0.21303311893E+02  0.33770173748E+02  0.14690756577E+03  0.15223694891E+03  0.00000000000E+00 0.  1.
         11    1    1    2    0    0  0.27733108424E+02 -0.47595953150E+02  0.15657319190E+03  0.16598091602E+03  0.00000000000E+00 0. -1.
</event>
<event>
 7    1  0.2749315E-009  0.9440248E+02  0.7561462E-02  0.1292528E+00
          1   -1    0    0  501    0  0.00000000000E+00  0.00000000000E+00  0.68022801682E+02  0.68022801682E+02  0.00000000000E+00 0. -1.
         -1   -1    0    0    0  501 -0.00000000000E+00 -0.00000000000E+00 -0.18371445049E+03  0.18371445049E+03  0.00000000000E+00 0.  1.
         25    2    1    2    0    0 -0.91527437649E+01  0.18551479742E+02 -0.88597882642E+02  0.15467974203E+03  0.12509319593E+03 0.  0.
          5    1    3    3  502    0 -0.13151881161E+02  0.71781044157E+02 -0.54881456844E+02  0.91405344394E+02  0.41800000000E+01 0. -1.
         -5    1    3    3    0  502  0.39991373966E+01 -0.53229564415E+02 -0.33716425798E+02  0.63274397637E+02  0.41800000000E+01 0. -1.
        -11    1    1    2    0    0  0.33170746423E+01 -0.39898469602E+02 -0.50764930355E+02  0.64652679872E+02  0.00000000000E+00 0.  1.
         11    1    1    2    0    0  0.58356691226E+01  0.21346989859E+02  0.23671164194E+02  0.32404830264E+02  0.00000000000E+00 0. -1.
</event>
<event>
 7    1  0.2749315E-009  0.1626515E+03  0.7561462E-02  0.1185735E+00
         -3   -1    0    0    0  501 -0.00000000000E+00  0.00000000000E+00  0.44302408944E+02  0.44302408944E+02  0.00000000000E+00 0.  1.
          3   -1    0    0  501    0  0.00000000000E+00 -0.00000000000E+00 -0.88713819048E+03  0.88713819048E+03  0.00000000000E+00 0. -1.
         25    2    1    2    0    0  0.68896435200E+02 -0.12422172742E+03 -0.24176844755E+03  0.30704698770E+03  0.12509242214E+03 0.  0.
          5    1    3    3  502    0  0.46687455557E+02 -0.15823648294E+01 -0.13488278436E+03  0.14280427270E+03  0.41800000000E+01 0.  1.
         -5    1    3    3    0  502  0.22208979643E+02 -0.12263936259E+03 -0.10688566319E+03  0.16424271500E+03  0.41800000000E+01 0.  1.
        -11    1    1    2    0    0 -0.67277643046E+02  0.62105785088E+02 -0.47617204178E+03  0.48489506408E+03  0.00000000000E+00 0. -1.
         11    1    1    2    0    0 -0.16187921540E+01  0.62115942335E+02 -0.12489529220E+03  0.13949854764E+03  0.00000000000E+00 0.  1.
</event>
<event>
 7    1  0.2749315E-009  0.9902992E+02  0.7561462E-02  0.1282349E+00
         -1   -1    0    0    0  501 -0.00000000000E+00  0.00000000000E+00  0.37941067706E+03  0.37941067706E+03  0.00000000000E+00 0.  1.
          1   -1    0    0  501    0  0.00000000000E+00 -0.00000000000E+00 -0.49640260090E+02  0.49640260090E+02  0.00000000000E+00 0. -1.
         25    2    1    2    0    0  0.12702070061E+01 -0.69074229281E+02  0.10683827671E+03  0.17842322493E+03  0.12509023642E+03 0.  0.
          5    1    3    3  502    0  0.27088875352E+01 -0.84368158206E+02  0.12711304100E+03  0.15264508437E+03  0.41800000000E+01 0.  1.
         -5    1    3    3    0  502 -0.14386805291E+01  0.15293928925E+02 -0.20274764289E+02  0.25778140558E+02  0.41800000000E+01 0.  1.
        -11    1    1    2    0    0 -0.31337817013E+02  0.57347452533E+02  0.76186968494E+02  0.10037551123E+03  0.00000000000E+00 0. -1.
         11    1    1    2    0    0  0.30067610007E+02  0.11726776748E+02  0.14674517177E+03  0.15025220099E+03  0.00000000000E+00 0.  1.
</event>
<event>
 7    1  0.2749315E-009  0.1014774E+03  0.7561462E-02  0.1277220E+00
         -4   -1    0    0    0  501 -0.00000000000E+00  0.00000000000E+00  0.73560616758E+02  0.73560616758E+02  0.00000000000E+00 0.  1.
          4   -1    0    0  501    0  0.00000000000E+00 -0.00000000000E+00 -0.35152476083E+03  0.35152476083E+03  0.00000000000E+00 0. -1.
         25    2    1    2    0    0 -0.76702877398E+02 -0.21224816527E+02 -0.27840893051E+02  0.15086442887E+03  0.12510450165E+03 0.  0.
          5    1    3    3  502    0 -0.63432292007E+02  0.21822904658E+02  0.33137589645E+02  0.74936420280E+02  0.41800000000E+01 0.  1.
         -5    1    3    3    0  502 -0.13270585391E+02 -0.43047721185E+02 -0.60978482696E+02  0.75928008585E+02  0.41800000000E+01 0.  1.
        -11    1    1    2    0    0  0.53816226282E+02  0.34614786949E+02 -0.23529551203E+03  0.24384082445E+03  0.00000000000E+00 0. -1.
         11    1    1    2    0    0  0.22886651116E+02 -0.13389970422E+02 -0.14827738990E+02  0.30380124271E+02  0.00000000000E+00 0.  1.
</event>
<event>
 7    1  0.2749315E-009  0.1266124E+03  0.7561462E-02  0.1232571E+00
          2   -1    0    0  501    0  0.00000000000E+00  0.00000000000E+00  0.17858396148E+03  0.17858396148E+03  0.00000000000E+00 0. -1.
         -2   -1    0    0    0  501 -0.00000000000E+00 -0.00000000000E+00 -0.10804707981E+03  0.10804707981E+03  0.00000000000E+00 0.  1.
         25    2    1    2    0    0 -0.65255614631E+02 -0.38483354213E+02  0.38764176341E+01  0.14629089605E+03  0.12508691323E+03 0.  0.
          5    1    3    3  502    0 -0.49622344068E+02 -0.80570002767E+02  0.22747645117E+02  0.97410626397E+02  0.41800000000E+01 0.  1.
         -5    1    3    3    0  502 -0.15633270563E+02  0.42086648555E+02 -0.18871227483E+02  0.48880269657E+02  0.41800000000E+01 0.  1.
        -11    1    1    2    0    0 -0.61153859341E+01 -0.20145096410E+02 -0.70153196685E+01  0.22190934287E+02  0.00000000000E+00 0.  1.
         11    1    1    2    0    0  0.71371000565E+02  0.58628450623E+02  0.73675783705E+02  0.11814921095E+03  0.00000000000E+00 0. -1.
</event>
<event>
 7    1  0.2749315E-009  0.2413836E+03  0.7561462E-02  0.1118875E+00
         -1   -1    0    0    0  501 -0.00000000000E+00  0.00000000000E+00  0.23755394263E+03  0.23755394263E+03  0.00000000000E+00 0.  1.
          1   -1    0    0  501    0  0.00000000000E+00 -0.00000000000E+00 -0.26344550209E+03  0.26344550209E+03  0.00000000000E+00 0. -1.
         25    2    1    2    0    0 -0.18104755502E+03  0.12812468615E+03  0.30051139336E+02  0.25640718172E+03  0.12508964579E+03 0.  0.
          5    1    3    3  502    0  0.54666696414E+01  0.51848579548E+02  0.14396810004E+02  0.54248504278E+02  0.41800000000E+01 0.  1.
         -5    1    3    3    0  502 -0.18651422466E+03  0.76276106601E+02  0.15654329332E+02  0.20215867744E+03  0.41800000000E+01 0.  1.
        -11    1    1    2    0    0  0.14535045227E+03 -0.12728508664E+03 -0.71003326044E+02  0.20583906229E+03  0.00000000000E+00 0.  1.
         11    1    1    2    0    0  0.35697102750E+02 -0.83959951332E+00  0.15060627255E+02  0.38753200712E+02  0.00000000000E+00 0. -1.
</event>
<event>
 7    1  0.2749315E-009  0.9574919E+02  0.7561462E-02  0.1289498E+00
          1   -1    0    0  501    0  0.00000000000E+00  0.00000000000E+00  0.37539344289E+02  0.37539344289E+02  0.00000000000E+00 0.  1.
         -1   -1    0    0    0  501 -0.00000000000E+00 -0.00000000000E+00 -0.76748283464E+03  0.76748283464E+03  0.00000000000E+00 0. -1.
         25    2    1    2    0    0 -0.69048027854E+01 -0.57582781964E+02 -0.66321394593E+03  0.67739447654E+03  0.12508831159E+03 0.  0.
          5    1    3    3  502    0 -0.14659365944E+02  0.10416136494E+02 -0.10804235822E+02  0.21391512828E+02  0.41800000000E+01 0. -1.
         -5    1    3    3    0  502  0.77545631590E+01 -0.67998918458E+02 -0.65240971011E+03  0.65600296371E+03  0.41800000000E+01 0. -1.
        -11    1    1    2    0    0  0.23335808345E+02 -0.16503690353E+02 -0.33926902205E+01  0.28782670016E+02  0.00000000000E+00 0.  1.
         11    1    1    2    0    0 -0.16431005559E+02  0.74086472316E+02 -0.63336854200E+02  0.98845032369E+02  0.00000000000E+00 0. -1.
</event>
<event>
 7    1  0.2749315E-009  0.1619724E+03  0.7561462E-02  0.1186488E+00
         -2   -1    0    0    0  501 -0.00000000000E+00  0.00000000000E+00  0.10508102969E+03  0.10508102969E+03  0.00000000000E+00 0.  1.
          2   -1    0    0  501    0  0.00000000000E+00 -0.00000000000E+00 -0.39183101418E+03  0.39183101418E+03  0.00000000000E+00 0. -1.
         25    2    1    2    0    0 -0.44885679106E+02 -0.14481676195E+03 -0.51830888277E+02  0.20327402752E+03  0.12508905051E+03 0.  0.
          5    1    3    3  502    0 -0.59893613646E+02 -0.12675202601E+03  0.63463124714E+01  0.14039611510E+03  0.41800000000E+01 0.  1.
         -5    1    3    3    0  502  0.15007934540E+02 -0.18064735932E+02 -0.58177200748E+02  0.62877912420E+02  0.41800000000E+01 0.  1.
        -11    1    1    2    0    0 -0.72776804738E+01  0.58735368718E+02 -0.15237951693E+03  0.16346964657E+03  0.00000000000E+00 0. -1.
         11    1    1    2    0    0  0.52163359580E+02  0.86081393228E+02 -0.82539579289E+02  0.13016836978E+03  0.00000000000E+00 0.  1.
</event>
<event>
 7    1  0.2749315E-009  0.1092774E+03  0.7561462E-02  0.1261914E+00
         -2   -1    0    0    0  501 -0.00000000000E+00  0.00000000000E+00  0.23006164104E+02  0.23006164104E+02  0.00000000000E+00 0. -1.
          2   -1    0    0  501    0  0.00000000000E+00 -0.00000000000E+00 -0.58471911878E+03  0.58471911878E+03  0.00000000000E+00 0.  1.
         25    2    1    2    0    0 -0.16572115990E+02 -0.37109868452E+02 -0.35518828102E+03  0.37876038546E+03  0.12509571239E+03 0.  0.
          5    1    3    3  502    0 -0.52649085084E+02  0.18833297794E+02 -0.23194346808E+03  0.23862494432E+03  0.41800000000E+01 0. -1.
         -5    1    3    3    0  502  0.36076969094E+02 -0.55943166246E+02 -0.12324481294E+03  0.14013544115E+03  0.41800000000E+01 0. -1.
        -11    1    1    2    0    0  0.50928230637E+02  0.97226816179E+01 -0.13949501933E+03  0.14881893573E+03  0.00000000000E+00 0.  1.
         11    1    1    2    0    0 -0.34356114647E+02  0.27387186834E+02 -0.67029654331E+02  0.80145961695E+02  0.00000000000E+00 0. -1.
</event>
<event>
 7    1  0.2749315E-009  0.9092504E+02  0.7561462E-02  0.1300627E+00
         -2   -1    0    0    0  501 -0.00000000000E+00  0.00000000000E+00  0.47498387987E+03  0.47498387987E+03  0.00000000000E+00 0. -1.
          2   -1    0    0  501    0  0.00000000000E+00 -0.00000000000E+00 -0.41813404634E+02  0.41813404634E+02  0.00000000000E+00 0.  1.
         25    2    1    2    0    0 -0.13583177988E+02  0.66346009545E+02  0.35357961949E+03  0.38111821829E+03  0.12508498426E+03 0.  0.
          5    1    3    3  502    0 -0.24740895133E+02 -0.14255861782E+02  0.14328203764E+02  0.32219734794E+02  0.41800000000E+01 0. -1.
         -5    1    3    3    0  502  0.11157717144E+02  0.80601871327E+02  0.33925141573E+03  0.34889848350E+03  0.41800000000E+01 0. -1.
        -11    1    1    2    0    0  0.19767608497E+02 -0.42392706665E+02 -0.54700107156E+01  0.47093746308E+02  0.00000000000E+00 0.  1.
         11    1    1    2    0    0 -0.61844305081E+01 -0.23953302880E+02  0.85060866458E+02  0.88585319902E+02  0.00000000000E+00 0. -1.
</event>
<event>
 7    1  0.2749315E-009  0.1506495E+03  0.7561462E-02  0.1199677E+00
         -2   -1    0    0    0  501 -0.00000000000E+00  0.00000000000E+00  0.49704957861E+02  0.49704957861E+02  0.00000000000E+00 0. -1.
          2   -1    0    0  501    0  0.00000000000E+00 -0.00000000000E+00 -0.78053305771E+03  0.78053305771E+03  0.00000000000E+00 0.  1.
         25    2    1    2    0    0 -0.12275985859E+03 -0.26430157432E+02 -0.60207433357E+03  0.62762212263E+03  0.12508992592E+03 0.  0.
          5    1    3    3  502    0 -0.10750936853E+03  0.16873116001E+02 -0.53664006548E+03  0.54757921678E+03  0.41800000000E+01 0. -1.
         -5    1    3    3    0  502 -0.15250490055E+02 -0.43303273434E+02 -0.65434268087E+02  0.80042905851E+02  0.41800000000E+01 0. -1.
        -11    1    1    2    0    0  0.64391902924E+02 -0.24434525759E+02 -0.25238411634E+02  0.73350805265E+02  0.00000000000E+00 0. -1.
         11    1    1    2    0    0  0.58367955665E+02  0.50864683192E+02 -0.10351535464E+03  0.12926508767E+03  0.00000000000E+00 0.  1.
</event>
<event>
 7    1  0.2749315E-009  0.5331391E+02  0.7561462E-02  0.1428245E+00
         -1   -1    0    0    0  501 -0.00000000000E+00  0.00000000000E+00  0.22949243918E+02  0.22949243918E+02  0.00000000000E+00 0.  1.
          1   -1    0    0  501    0  0.00000000000E+00 -0.00000000000E+00 -0.59509682896E+03  0.59509682896E+03  0.00000000000E+00 0. -1.
         25    2    1    2    0    0 -0.10947954065E+02  0.67327512796E+01 -0.44402428091E+03  0.46148703948E+03  0.12509011923E+03 0.  0.
          5    1    3    3  502    0 -0.17268725626E+02 -0.73079155647E+01 -0.21576177684E+01  0.19332413948E+02  0.41800000000E+01 0. -1.
         -5    1    3    3    0  502  0.63207715610E+01  0.14040666844E+02 -0.44186666315E+03  0.44215462553E+03  0.41800000000E+01 0. -1.
        -11    1    1    2    0    0  0.69103395729E+01  0.31888860207E+02 -0.10800248886E+03  0.11282371116E+03  0.00000000000E+00 0. -1.
         11    1    1    2    0    0  0.40376144919E+01 -0.38621611486E+02 -0.20120815261E+02  0.43735322239E+02  0.00000000000E+00 0.  1.
</event>
<event>
 7    1  0.2749315E-009  0.8931700E+02  0.7561462E-02  0.1304514E+00
         -2   -1    0    0    0  501 -0.00000000000E+00  0.00000000000E+00  0.55527571462E+03  0.55527571462E+03  0.00000000000E+00 0.  1.
          2   -1    0    0  501    0  0.00000000000E+00 -0.00000000000E+00 -0.26111402983E+02  0.26111402983E+02  0.00000000000E+00 0. -1.
         25    2    1    2    0    0 -0.37752409214E+02  0.20620423287E+02  0.37498972661E+03  0.39763885124E+03  0.12509562218E+03 0.  0.
          5    1    3    3  502    0  0.16467906231E+02  0.61774246470E+02  0.18502419804E+03  0.19580264483E+03  0.41800000000E+01 0. -1.
         -5    1    3    3    0  502 -0.54220315445E+02 -0.41153823183E+02  0.18996552857E+03  0.20183620640E+03  0.41800000000E+01 0. -1.
        -11    1    1    2    0    0  0.56322292494E+01 -0.11774128882E+02 -0.98643794642E+01  0.16360259761E+02  0.00000000000E+00 0. -1.
         11    1    1    2    0    0  0.32120179964E+02 -0.88462944055E+01  0.16403896449E+03  0.16738800661E+03  0.00000000000E+00 0.  1.
</event>
<event>
 7    1  0.2749315E-009  0.3550880E+03  0.7561462E-02  0.1060546E+00
         -1   -1    0    0    0  501 -0.00000000000E+00  0.00000000000E+00  0.39493514120E+03  0.39493514120E+03  0.00000000000E+00 0.  1.
          1   -1    0    0  501    0  0.00000000000E+00 -0.00000000000E+00 -0.34403537815E+03  0.34403537815E+03  0.00000000000E+00 0. -1.
         25    2    1    2    0    0  0.11765472052E+03  0.33007411603E+03 -0.16225750103E+02  0.37242848800E+03  0.12509255922E+03 0.  0.
          5    1    3    3  502    0  0.17430831617E+02  0.15342511954E+03 -0.58064736401E+02  0.16502147500E+03  0.41800000000E+01 0.  1.
         -5    1    3    3    0  502  0.10022388890E+03  0.17664899649E+03  0.41838986297E+02  0.20740701300E+03  0.41800000000E+01 0.  1.
        -11    1    1    2    0    0 -0.12796666652E+02 -0.85600793503E+02  0.50052805713E+02  0.99982667925E+02  0.00000000000E+00 0.  1.
         11    1    1    2    0    0 -0.10485805387E+03 -0.24447332253E+03  0.17072707443E+02  0.26655936343E+03  0.00000000000E+00 0. -1.
</event>
<event>
 7    1  0.2749315E-009  0.1046321E+03  0.7561462E-02  0.1270846E+00
         -2   -1    0    0    0  501 -0.00000000000E+00  0.00000000000E+00  0.11931285176E+03  0.11931285176E+03  0.00000000000E+00 0.  1.
          2   -1    0    0  501    0  0.00000000000E+00 -0.00000000000E+00 -0.11694810912E+03  0.11694810912E+03  0.00000000000E+00 0. -1.
         25    2    1    2    0    0  0.19067424542E+02 -0.25122038990E+02 -0.32997486095E+02  0.13315757609E+03  0.12508965769E+03 0.  0.
          5    1    3    3  502    0 -0.27632369353E+02 -0.60054967374E+02 -0.45178553565E+00  0.66240648038E+02  0.41800000000E+01 0. -1.
         -5    1    3    3    0  502  0.46699793895E+02  0.34932928384E+02 -0.32545700560E+02  0.66916928055E+02  0.41800000000E+01 0. -1.
        -11    1    1    2    0    0  0.20672215803E+02  0.37595965910E+02  0.43015538348E+02  0.60754701038E+02  0.00000000000E+00 0.  1.
         11    1    1    2    0    0 -0.39739640345E+02 -0.12473926920E+02 -0.76533096112E+01  0.42348683753E+02  0.00000000000E+00 0. -1.
</event>
<event>
 7    1  0.2749315E-009  0.9324805E+02  0.7561462E-02  0.1295171E+00
         -4   -1    0    0    0  501 -0.00000000000E+00  0.00000000000E+00  0.94580935275E+02  0.94580935275E+02  0.00000000000E+00 0.  1.
          4   -1    0    0  501    0  0.00000000000E+00 -0.00000000000E+00 -0.21738824149E+03  0.21738824149E+03  0.00000000000E+00 0. -1.
         25    2    1    2    0    0 -0.65398506769E+02 -0.61278597845E+02 -0.38711333811E+02  0.15867636019E+03  0.12509032207E+03 0.  0.
          5    1    3    3  502    0 -0.59381276541E+02 -0.47394649509E+02  0.34682359300E+02  0.83622528378E+02  0.41800000000E+01 0.  1.
         -5    1    3    3    0  502 -0.60172302285E+01 -0.13883948337E+02 -0.73393693111E+02  0.75053831811E+02  0.41800000000E+01 0.  1.
        -11    1    1    2    0    0  0.59785829978E+02  0.38182948403E+02 -0.54656819483E+01  0.71148834804E+02  0.00000000000E+00 0.  1.
         11    1    1    2    0    0  0.56126767917E+01  0.23095649442E+02 -0.78630290457E+02  0.82143981771E+02  0.00000000000E+00 0. -1.
</event>
<event>
 7    1  0.2749315E-009  0.1029427E+03  0.7561462E-02  0.1274227E+00
         -1   -1    0    0    0  501 -0.00000000000E+00  0.00000000000E+00  0.12425910958E+02  0.12425910958E+02  0.00000000000E+00 0.  1.
          1   -1    0    0  501    0  0.00000000000E+00 -0.00000000000E+00 -0.14964236412E+04  0.14964236412E+04  0.00000000000E+00 0. -1.
         25    2    1    2    0    0 -0.23080331569E+02  0.30469320530E+02 -0.12096293821E+04  0.12166809225E+04  0.12509254210E+03 0.  0.
          5    1    3    3  502    0  0.38957660527E+02 -0.96917410780E+01 -0.75386944378E+03  0.75494916373E+03  0.41800000000E+01 0.  1.
         -5    1    3    3    0  502 -0.62037992097E+02  0.40161061608E+02 -0.45575993830E+03  0.46173175881E+03  0.41800000000E+01 0.  1.
        -11    1    1    2    0    0 -0.10746723130E+02  0.24616040202E+02 -0.14591936128E+03  0.14837082425E+03  0.00000000000E+00 0. -1.
         11    1    1    2    0    0  0.33827054699E+02 -0.55085360732E+02 -0.12844898690E+03  0.14379780538E+03  0.00000000000E+00 0.  1.
</event>
<event>
 7    1  0.2749315E-009  0.1032942E+03  0.7561462E-02  0.1273517E+00
         -2   -1    0    0    0  501 -0.00000000000E+00  0.00000000000E+00  0.35044425963E+03  0.35044425963E+03  0.00000000000E+00 0.  1.
          2   -1    0    0  501    0  0.00000000000E+00 -0.00000000000E+00 -0.52047689457E+02  0.52047689457E+02  0.00000000000E+00 0. -1.
         25    2    1    2    0    0 -0.65881852756E+02 -0.45775884045E+02  0.17749145557E+03  0.23148720711E+03  0.12508900901E+03 0.  0.
          5    1    3    3  502    0 -0.85443400870E+02 -0.16781601239E+02  0.17579292549E+03  0.19622135955E+03  0.41800000000E+01 0. -1.
         -5    1    3    3    0  502  0.19561548114E+02 -0.28994282806E+02  0.16985300791E+01  0.35265847565E+02  0.41800000000E+01 0. -1.
        -11    1    1    2    0    0  0.52879610252E+02  0.22378643184E+02  0.11742645756E+02  0.58608417318E+02  0.00000000000E+00 0. -1.
         11    1    1    2    0    0  0.13002242504E+02  0.23397240861E+02  0.10916246885E+03  0.11239632465E+03  0.00000000000E+00 0.  1.
</event>
<event>
 7    1  0.2749315E-009  0.1255871E+03  0.7561462E-02  0.1234155E+00
          3   -1    0    0  501    0  0.00000000000E+00  0.00000000000E+00  0.12793752185E+03  0.12793752185E+03  0.00000000000E+00 0. -1.
         -3   -1    0    0    0  501 -0.00000000000E+00 -0.00000000000E+00 -0.16284765104E+03  0.16284765104E+03  0.00000000000E+00 0.  1.
         25    2    1    2    0    0 -0.29422846643E+02  0.71075487510E+02 -0.77011284191E+02  0.16581742165E+03  0.12508897073E+03 0.  0.
          5    1    3    3  502    0 -0.66913917547E+02  0.19481657435E+02 -0.56908035777E+01  0.70049018432E+02  0.41800000000E+01 0.  1.
         -5    1    3    3    0  502  0.37491070904E+02  0.51593830075E+02 -0.71320480613E+02  0.95768403214E+02  0.41800000000E+01 0.  1.
        -11    1    1    2    0    0 -0.10099119415E+02 -0.76841723305E+02  0.31372857946E+02  0.83611595303E+02  0.00000000000E+00 0. -1.
         11    1    1    2    0    0  0.39521966058E+02  0.57662357950E+01  0.10728297055E+02  0.41356155939E+02  0.00000000000E+00 0.  1.
</event>
<event>
 7    1  0.3483112E-009  0.1139206E+03  0.7561462E-02  0.1253477E+00
         -2   -1    0    0    0  501 -0.00000000000E+00  0.00000000000E+00  0.39213931418E+02  0.39213931418E+02  0.00000000000E+00 0.  1.
          2   -1    0    0  501    0  0.00000000000E+00 -0.00000000000E+00 -0.50800633777E+03  0.50800633777E+03  0.00000000000E+00 0. -1.
         25    2    1    2    0    0 -0.88117868248E+02 -0.17611788448E+02 -0.27794345713E+03  0.31776495475E+03  0.12508823809E+03 0.  0.
          5    1    3    3  502    0 -0.42287987614E+02 -0.61237360890E+02 -0.21844027545E+03  0.23080709392E+03  0.41800000000E+01 0.  1.
         -5    1    3    3    0  502 -0.45829880634E+02  0.43625572441E+02 -0.59503181677E+02  0.86957860827E+02  0.41800000000E+01 0.  1.
        -11    1    1    2    0    0  0.49532293930E+02  0.86861283466E+01 -0.20071534051E+02  0.54145761115E+02  0.00000000000E+00 0.  1.
         11    1    1    2    0    0  0.38585574318E+02  0.89256601018E+01 -0.17077741517E+03  0.17530955332E+03  0.00000000000E+00 0. -1.
</event>
<event>
 7    1  0.2749315E-009  0.8702382E+02  0.7561462E-02  0.1310223E+00
          1   -1    0    0  501    0  0.00000000000E+00  0.00000000000E+00  0.27406485329E+03  0.27406485329E+03  0.00000000000E+00 0. -1.
         -1   -1    0    0    0  501 -0.00000000000E+00 -0.00000000000E+00 -0.44765647092E+02  0.44765647092E+02  0.00000000000E+00 0.  1.
         25    2    1    2    0    0  0.21630489637E+02 -0.30882726327E+01  0.12841458613E+03  0.18059291883E+03  0.12508429514E+03 0.  0.
          5    1    3    3  502    0  0.44734734725E+02 -0.25586241658E+02  0.13744139289E+03  0.14684502420E+03  0.41800000000E+01 0. -1.
         -5    1    3    3    0  502 -0.23104245088E+02  0.22497969025E+02 -0.90268067635E+01  0.33747894626E+02  0.41800000000E+01 0. -1.
        -11    1    1    2    0    0  0.20679900949E+02  0.32340625104E+02  0.65105159433E+02  0.75579468907E+02  0.00000000000E+00 0. -1.
         11    1    1    2    0    0 -0.42310390586E+02 -0.29252352472E+02  0.35779460630E+02  0.62658112640E+02  0.00000000000E+00 0.  1.
</event>
<event>
 7    1  0.2749315E-009  0.1430058E+03  0.7561462E-02  0.1209341E+00
          2   -1    0    0  501    0  0.00000000000E+00  0.00000000000E+00  0.15042638509E+04  0.15042638509E+04  0.00000000000E+00 0. -1.
         -2   -1    0    0    0  501 -0.00000000000E+00 -0.00000000000E+00 -0.18836722178E+02  0.18836722178E+02  0.00000000000E+00 0.  1.
         25    2    1    2    0    0 -0.22195729510E+02 -0.11422429355E+03  0.10309376830E+04  0.10449974620E+04  0.12508936743E+03 0.  0.
          5    1    3    3  502    0 -0.62980242748E+02 -0.11203601589E+03  0.72479411851E+03  0.73611314786E+03  0.41800000000E+01 0. -1.
         -5    1    3    3    0  502  0.40784513238E+02 -0.21882776562E+01  0.30614356446E+03  0.30888431417E+03  0.41800000000E+01 0. -1.
        -11    1    1    2    0    0  0.19387122779E+02  0.98614939436E+02  0.45073621135E+03  0.46180504440E+03  0.00000000000E+00 0. -1.
         11    1    1    2    0    0  0.28086067312E+01  0.15609354113E+02  0.37532343885E+01  0.16298066633E+02  0.00000000000E+00 0.  1.
</event>
<event>
 7    1  0.2749315E-009  0.9628217E+02  0.7561462E-02  0.1288314E+00
         -2   -1    0    0    0  501 -0.00000000000E+00  0.00000000000E+00  0.25191601736E+02  0.25191601736E+02  0.00000000000E+00 0.  1.
          2   -1    0    0  501    0  0.00000000000E+00 -0.00000000000E+00 -0.48940216091E+03  0.48940216091E+03  0.00000000000E+00 0. -1.
         25    2    1    2    0    0  0.71559470647E+01  0.30553871790E+02 -0.31902137545E+03  0.34410470870E+03  0.12509462777E+03 0.  0.
          5    1    3    3  502    0  0.61639915108E+02 -0.76017305098E+01 -0.14816331199E+03  0.16070813564E+03  0.41800000000E+01 0. -1.
         -5    1    3    3    0  502 -0.54483968043E+02  0.38155602300E+02 -0.17085806346E+03  0.18339657306E+03  0.41800000000E+01 0. -1.
        -11    1    1    2    0    0 -0.22213455680E+02 -0.40099878105E+02 -0.14561008012E+03  0.15265560346E+03  0.00000000000E+00 0. -1.
         11    1    1    2    0    0  0.15057508616E+02  0.95460063149E+01  0.42089639403E+00  0.17833450481E+02  0.00000000000E+00 0.  1.
</event>
<event>
 7    1  0.2749315E-009  0.8498306E+02  0.7561462E-02  0.1315477E+00
         -3   -1    0    0    0  501 -0.00000000000E+00  0.00000000000E+00  0.72234482898E+02  0.72234482898E+02  0.00000000000E+00 0.  1.
          3   -1    0    0  501    0  0.00000000000E+00 -0.00000000000E+00 -0.16978195038E+03  0.16978195038E+03  0.00000000000E+00 0. -1.
         25    2    1    2    0    0 -0.26333190255E+02  0.58488668353E+01 -0.69937141284E+02  0.14582919575E+03  0.12508918598E+03 0.  0.
          5    1    3    3  502    0 -0.33683358407E+02 -0.36785420989E+02  0.13420696848E+02  0.51820105508E+02  0.41800000000E+01 0.  1.
         -5    1    3    3    0  502  0.73501681515E+01  0.42634287825E+02 -0.83357838133E+02  0.94009090243E+02  0.41800000000E+01 0.  1.
        -11    1    1    2    0    0 -0.80516996286E+01 -0.32160092903E+02 -0.39226178534E+02  0.51359463829E+02  0.00000000000E+00 0. -1.
         11    1    1    2    0    0  0.34384889884E+02  0.26311226068E+02  0.11615852333E+02  0.44827773701E+02  0.00000000000E+00 0.  1.
</event>
<event>
 7    1  0.2749315E-009  0.1165071E+03  0.7561462E-02  0.1248973E+00
          1   -1    0    0  501    0  0.00000000000E+00  0.00000000000E+00  0.20161620642E+03  0.20161620642E+03  0.00000000000E+00 0. -1.
         -1   -1    0    0    0  501 -0.00000000000E+00 -0.00000000000E+00 -0.35113776918E+03  0.35113776918E+03  0.00000000000E+00 0.  1.
         25    2    1    2    0    0  0.33255819506E+02  0.93556844888E+02 -0.30599284938E+03  0.34516490545E+03  0.12509338641E+03 0.  0.
          5    1    3    3  502    0  0.10429592372E+02  0.29237124718E+02  0.30924025222E+00  0.31323376069E+02  0.41800000000E+01 0.  1.
         -5    1    3    3    0  502  0.22826227133E+02  0.64319720170E+02 -0.30630208964E+03  0.31384152938E+03  0.41800000000E+01 0.  1.
        -11    1    1    2    0    0 -0.59529100767E+00  0.17522732772E+02  0.38445428786E+02  0.42254603651E+02  0.00000000000E+00 0.  1.
         11    1    1    2    0    0 -0.32660528498E+02 -0.11107957766E+03  0.11802585783E+03  0.16533446650E+03  0.00000000000E+00 0. -1.
</event>
<event>
 7    1  0.2749315E-009  0.1173492E+03  0.7561462E-02  0.1247535E+00
          2   -1    0    0  501    0  0.00000000000E+00  0.00000000000E+00  0.43266043778E+03  0.43266043778E+03  0.00000000000E+00 0. -1.
         -2   -1    0    0    0  501 -0.00000000000E+00 -0.00000000000E+00 -0.35284158451E+02  0.35284158451E+02  0.00000000000E+00 0.  1.
         25    2    1    2    0    0 -0.43567600781E+02  0.35663200701E+02  0.21046819845E+03  0.25122439572E+03  0.12508730840E+03 0.  0.
          5    1    3    3  502    0 -0.43174573972E+02 -0.35152184722E+02  0.14221471968E+03  0.15278160498E+03  0.41800000000E+01 0. -1.
         -5    1    3    3    0  502 -0.39302680918E+00  0.70815385423E+02  0.68253478772E+02  0.98442790732E+02  0.41800000000E+01 0. -1.
        -11    1    1    2    0    0 -0.14619929889E+02 -0.46495303902E+02  0.65407131125E+02  0.81569899086E+02  0.00000000000E+00 0. -1.
         11    1    1    2    0    0  0.58187530670E+02  0.10832103201E+02  0.12150094975E+03  0.13515030143E+03  0.00000000000E+00 0.  1.
</event>
<event>
 7    1  0.2749315E-009  0.1358805E+03  0.7561462E-02  0.1218982E+00
          2   -1    0    0  501    0  0.00000000000E+00  0.00000000000E+00  0.13267425626E+04  0.13267425626E+04  0.00000000000E+00 0. -1.
         -2   -1    0    0    0  501 -0.00000000000E+00 -0.00000000000E+00 -0.19359518062E+02  0.19359518062E+02  0.00000000000E+00 0.  1.
         25    2    1    2    0    0 -0.33748515022E+02 -0.11273638067E+03  0.76127943006E+03  0.78041129865E+03  0.12508785167E+03 0.  0.
          5    1    3    3  502    0 -0.26480115414E+02 -0.26642172197E+02  0.56072693349E+03  0.56199925996E+03  0.41800000000E+01 0. -1.
         -5    1    3    3    0  502 -0.72683996087E+01 -0.86094208473E+02  0.20055249657E+03  0.21841203869E+03  0.41800000000E+01 0. -1.
        -11    1    1    2    0    0 -0.76750466837E+01  0.10505449713E+03  0.38024597613E+03  0.39456603512E+03  0.00000000000E+00 0. -1.
         11    1    1    2    0    0  0.41423561706E+02  0.76818835372E+01  0.16585763832E+03  0.17112474687E+03  0.00000000000E+00 0.  1.
</event>
<event>
 7    1  0.2749315E-009  0.8869012E+02  0.7561462E-02  0.1306055E+00
         -3   -1    0    0    0  501 -0.00000000000E+00  0.00000000000E+00  0.20680775322E+03  0.20680775322E+03  0.00000000000E+00 0.  1.
          3   -1    0    0  501    0  0.00000000000E+00 -0.00000000000E+00 -0.30580303797E+03  0.30580303797E+03  0.00000000000E+00 0. -1.
         25    2    1    2    0    0 -0.39737582341E+02 -0.51466885878E+02 -0.27156642139E+03  0.30597873188E+03  0.12508695914E+03 0.  0.
          5    1    3    3  502    0 -0.29188612141E+02 -0.19187307526E+02 -0.26940766723E+03  0.27169484981E+03  0.41800000000E+01 0.  1.
         -5    1    3    3    0  502 -0.10548970200E+02 -0.32279578352E+02 -0.21587541605E+01  0.34283882079E+02  0.41800000000E+01 0.  1.
        -11    1    1    2    0    0 -0.15905058805E+02  0.49842296010E+02  0.51675646601E+02  0.73536370721E+02  0.00000000000E+00 0.  1.
         11    1    1    2    0    0  0.55642641146E+02  0.16245898674E+01  0.12089549004E+03  0.13309568858E+03  0.00000000000E+00 0. -1.
</event>
<event>
 7    1  0.2749315E-009  0.7403261E+02  0.7561462E-02  0.1346893E+00
         -2   -1    0    0    0  501 -0.00000000000E+00  0.00000000000E+00  0.26248402271E+02  0.26248402271E+02  0.00000000000E+00 0.  1.
          2   -1    0    0  501    0  0.00000000000E+00 -0.00000000000E+00 -0.62216758298E+03  0.62216758298E+03  0.00000000000E+00 0. -1.
         25    2    1    2    0    0 -0.25181479467E+01 -0.32896038000E+02 -0.49290961151E+03  0.50960348959E+03  0.12508933245E+03 0.  0.
          5    1    3    3  502    0 -0.42729904077E+02 -0.12701677321E+01 -0.40893110201E+03  0.41118071042E+03  0.41800000000E+01 0. -1.
         -5    1    3    3    0  502  0.40211756131E+02 -0.31625870268E+02 -0.83978509499E+02  0.98422779167E+02  0.41800000000E+01 0. -1.
        -11    1    1    2    0    0  0.22201158755E+02  0.22137941937E+02 -0.11073528732E+03  0.11508815656E+03  0.00000000000E+00 0. -1.
         11    1    1    2    0    0 -0.19683010809E+02  0.10758096063E+02  0.77257181208E+01  0.23724339103E+02  0.00000000000E+00 0.  1.
</event>
<event>
 7    1  0.2749315E-009  0.1396394E+03  0.7561462E-02  0.1213815E+00
          2   -1    0    0  501    0  0.00000000000E+00  0.00000000000E+00  0.10602523974E+04  0.10602523974E+04  0.00000000000E+00 0. -1.
         -2   -1    0    0    0  501 -0.00000000000E+00 -0.00000000000E+00 -0.22802580978E+02  0.22802580978E+02  0.00000000000E+00 0.  1.
         25    2    1    2    0    0  0.67228412672E+02 -0.67226741296E+02  0.73894863940E+03  0.75546857527E+03  0.12509429376E+03 0.  0.
          5    1    3    3  502    0  0.10441561479E+03 -0.51984839809E+02  0.55020580495E+03  0.56244905937E+03  0.41800000000E+01 0. -1.
         -5    1    3    3    0  502 -0.37187202119E+02 -0.15241901486E+02  0.18874283444E+03  0.19301951589E+03  0.41800000000E+01 0. -1.
        -11    1    1    2    0    0  0.56651203183E+00  0.52851555334E+02  0.63706209327E+02  0.82777345596E+02  0.00000000000E+00 0.  1.
         11    1    1    2    0    0 -0.67794924704E+02  0.14375185962E+02  0.23479496772E+03  0.24480905754E+03  0.00000000000E+00 0. -1.
</event>
<event>
 7    1  0.2749315E-009  0.1570113E+03  0.7561462E-02  0.1192113E+00
          3   -1    0    0  501    0  0.00000000000E+00  0.00000000000E+00  0.72099821919E+03  0.72099821919E+03  0.00000000000E+00 0. -1.
         -3   -1    0    0    0  501 -0.00000000000E+00 -0.00000000000E+00 -0.35977655836E+02  0.35977655836E+02  0.00000000000E+00 0.  1.
         25    2    1    2    0    0 -0.11529000956E+03  0.34596448634E+02  0.34313210371E+03  0.38454591709E+03  0.12508885320E+03 0.  0.
          5    1    3    3  502    0  0.15753618143E+02 -0.20028580291E+02  0.96937683451E+02  0.10031803121E+03  0.41800000000E+01 0.  1.
         -5    1    3    3    0  502 -0.13104362770E+03  0.54625028926E+02  0.24619442025E+03  0.28422788588E+03  0.41800000000E+01 0.  1.
        -11    1    1    2    0    0  0.64595851228E+02  0.23794673391E+02  0.13446599872E+03  0.15106262042E+03  0.00000000000E+00 0.  1.
         11    1    1    2    0    0  0.50694158328E+02 -0.58391122026E+02  0.20742246093E+03  0.22136733752E+03  0.00000000000E+00 0. -1.
</event>
<event>
 7    1  0.2749315E-009  0.1083506E+03  0.7561462E-02  0.1263655E+00
         -2   -1    0    0    0  501 -0.00000000000E+00  0.00000000000E+00  0.72460253310E+02  0.72460253310E+02  0.00000000000E+00 0.  1.
          2   -1    0    0  501    0  0.00000000000E+00 -0.00000000000E+00 -0.25249955451E+03  0.25249955451E+03  0.00000000000E+00 0. -1.
         25    2    1    2    0    0 -0.76540901170E+02 -0.17110075912E+02 -0.83197833427E+02  0.16946892811E+03  0.12508626566E+03 0.  0.
          5    1    3    3  502    0 -0.84960400987E+02  0.11728456084E+02 -0.54809040497E+01  0.86042658764E+02  0.41800000000E+01 0. -1.
         -5    1    3    3    0  502  0.84194998171E+01 -0.28838531996E+02 -0.77716929378E+02  0.83426269344E+02  0.41800000000E+01 0. -1.
        -11    1    1    2    0    0  0.46715896630E+01 -0.19354816910E+02 -0.66435404872E+02  0.69354853530E+02  0.00000000000E+00 0. -1.
         11    1    1    2    0    0  0.71869311507E+02  0.36464892822E+02 -0.30406062900E+02  0.86136026180E+02  0.00000000000E+00 0.  1.
</event>
<event>
 7    1  0.2749315E-009  0.9650179E+02  0.7561462E-02  0.1287829E+00
         -2   -1    0    0    0  501 -0.00000000000E+00  0.00000000000E+00  0.72767654599E+02  0.72767654599E+02  0.00000000000E+00 0.  1.
          2   -1    0    0  501    0  0.00000000000E+00 -0.00000000000E+00 -0.15796651314E+03  0.15796651314E+03  0.00000000000E+00 0. -1.
         25    2    1    2    0    0  0.81673240614E+01  0.44307919693E+02 -0.48645415540E+02  0.14157487327E+03  0.12508865400E+03 0.  0.
          5    1    3    3  502    0  0.34950704941E+02  0.67541669627E+02 -0.66992826999E+02  0.10143441320E+03  0.41800000000E+01 0. -1.
         -5    1    3    3    0  502 -0.26783380880E+02 -0.23233749934E+02  0.18347411460E+02  0.40140460070E+02  0.41800000000E+01 0. -1.
        -11    1    1    2    0    0  0.26980100960E+02 -0.36059458556E+02 -0.23256914255E+02  0.50686235408E+02  0.00000000000E+00 0.  1.
         11    1    1    2    0    0 -0.35147425021E+02 -0.82484611372E+01 -0.13296528745E+02  0.38473059060E+02  0.00000000000E+00 0. -1.
</event>
<event>
 7    1  0.2749315E-009  0.1494993E+03  0.7561462E-02  0.1201090E+00
          1   -1    0    0  501    0  0.00000000000E+00  0.00000000000E+00  0.50550896366E+03  0.50550896366E+03  0.00000000000E+00 0. -1.
         -1   -1    0    0    0  501 -0.00000000000E+00 -0.00000000000E+00 -0.46710505286E+02  0.46710505286E+02  0.00000000000E+00 0.  1.
         25    2    1    2    0    0  0.56436880032E+02  0.86325538501E+02  0.30432997942E+03  0.34482159587E+03  0.12509187257E+03 0.  0.
          5    1    3    3  502    0  0.50283488383E+02 -0.20903940772E+02  0.99734490689E+02  0.11370947620E+03  0.41800000000E+01 0.  1.
         -5    1    3    3    0  502  0.61533916485E+01  0.10722947927E+03  0.20459548873E+03  0.23111211968E+03  0.41800000000E+01 0.  1.
        -11    1    1    2    0    0 -0.37892679998E+02  0.96849178759E+01  0.58634952141E+02  0.70481986665E+02  0.00000000000E+00 0. -1.
         11    1    1    2    0    0 -0.18544200034E+02 -0.96010456377E+02  0.95833526814E+02  0.13691588641E+03  0.00000000000E+00 0.  1.
</event>
<event>
 7    1  0.3528800E-009  0.1531705E+03  0.7561462E-02  0.1196630E+00
         -2   -1    0    0    0  501 -0.00000000000E+00  0.00000000000E+00  0.12201254290E+03  0.12201254290E+03  0.00000000000E+00 0.  1.
          2   -1    0    0  501    0  0.00000000000E+00 -0.00000000000E+00 -0.25056761138E+03  0.25056761138E+03  0.00000000000E+00 0. -1.
         25    2    1    2    0    0  0.12143401531E+03 -0.46237612349E+02 -0.11358659229E+03  0.21315091347E+03  0.12508901269E+03 0.  0.
          5    1    3    3  502    0 -0.59219621941E+01  0.25557736035E+02  0.21311157544E+01  0.26651108079E+02  0.41800000000E+01 0. -1.
         -5    1    3    3    0  502  0.12735597751E+03 -0.71795348384E+02 -0.11571770805E+03  0.18649980539E+03  0.41800000000E+01 0. -1.
        -11    1    1    2    0    0 -0.85789679996E+02  0.17097495435E+02  0.32483237355E+02  0.93313205137E+02  0.00000000000E+00 0.  1.
         11    1    1    2    0    0 -0.35644335315E+02  0.29140116914E+02 -0.47451713548E+02  0.66116035668E+02  0.00000000000E+00 0. -1.
</event>
<event>
 7    1  0.2749315E-009  0.1187679E+03  0.7561462E-02  0.1245144E+00
          1   -1    0    0  501    0  0.00000000000E+00  0.00000000000E+00  0.18367054982E+03  0.18367054982E+03  0.00000000000E+00 0. -1.
         -1   -1    0    0    0  501 -0.00000000000E+00 -0.00000000000E+00 -0.15105820411E+03  0.15105820411E+03  0.00000000000E+00 0.  1.
         25    2    1    2    0    0 -0.46582141774E+02 -0.96142989369E+02 -0.51275979623E+02  0.17230028913E+03  0.12507914779E+03 0.  0.
          5    1    3    3  502    0 -0.42463538619E+02 -0.10433714511E+03  0.72073135103E+01  0.11295490131E+03  0.41800000000E+01 0. -1.
         -5    1    3    3    0  502 -0.41186031549E+01  0.81941557390E+01 -0.58483293133E+02  0.59345387823E+02  0.41800000000E+01 0. -1.
        -11    1    1    2    0    0  0.46666685257E+02  0.49281121975E+02  0.92553857584E+02  0.11477205692E+03  0.00000000000E+00 0. -1.
         11    1    1    2    0    0 -0.84543483694E-01  0.46861867394E+02 -0.86655322514E+01  0.47656407885E+02  0.00000000000E+00 0.  1.
</event>
<event>
 7    1  0.2749315E-009  0.1004199E+03  0.7561462E-02  0.1279415E+00
         -2   -1    0    0    0  501 -0.00000000000E+00  0.00000000000E+00  0.12819536555E+02  0.12819536555E+02  0.00000000000E+00 0. -1.
          2   -1    0    0  501    0  0.00000000000E+00 -0.00000000000E+00 -0.11160946608E+04  0.11160946608E+04  0.00000000000E+00 0.  1.
         25    2    1    2    0    0 -0.68983077506E+01 -0.45602116292E+02 -0.78360099071E+03  0.79486186576E+03  0.12509090029E+03 0.  0.
          5    1    3    3  502    0 -0.41082279342E+02 -0.58926677586E+02 -0.25457489352E+03  0.26454858877E+03  0.41800000000E+01 0.  1.
         -5    1    3    3    0  502  0.34183971591E+02  0.13324561294E+02 -0.52902609719E+03  0.53031327699E+03  0.41800000000E+01 0.  1.
        -11    1    1    2    0    0  0.41637166819E+02  0.38057304137E+02 -0.14078935840E+03  0.15166956023E+03  0.00000000000E+00 0. -1.
         11    1    1    2    0    0 -0.34738859068E+02  0.75448121550E+01 -0.17888477514E+03  0.18238277138E+03  0.00000000000E+00 0.  1.
</event>
<event>
 7    1  0.2749315E-009  0.1436050E+03  0.7561462E-02  0.1208559E+00
          1   -1    0    0  501    0  0.00000000000E+00  0.00000000000E+00  0.10848701702E+03  0.10848701702E+03  0.00000000000E+00 0. -1.
         -1   -1    0    0    0  501 -0.00000000000E+00 -0.00000000000E+00 -0.21043538124E+03  0.21043538124E+03  0.00000000000E+00 0.  1.
         25    2    1    2    0    0 -0.89740748266E+02  0.43601557180E+02 -0.84835141356E+02  0.18110464245E+03  0.12508953841E+03 0.  0.
          5    1    3    3  502    0 -0.81346168898E+02  0.79411261599E+02 -0.88185973987E+02  0.14393604855E+03  0.41800000000E+01 0.  1.
         -5    1    3    3    0  502 -0.83945793679E+01 -0.35809704419E+02  0.33508326314E+01  0.37168593902E+02  0.41800000000E+01 0.  1.
        -11    1    1    2    0    0 -0.47213207266E+01  0.21305630482E+02 -0.62040362200E+01  0.22687239256E+02  0.00000000000E+00 0.  1.
         11    1    1    2    0    0  0.94462068993E+02 -0.64907187662E+02 -0.10909186648E+02  0.11513051655E+03  0.00000000000E+00 0. -1.
</event>
<event>
 7    1  0.2749315E-009  0.1065056E+03  0.7561462E-02  0.1267181E+00
         -2   -1    0    0    0  501 -0.00000000000E+00  0.00000000000E+00  0.12596513254E+02  0.12596513254E+02  0.00000000000E+00 0.  1.
          2   -1    0    0  501    0  0.00000000000E+00 -0.00000000000E+00 -0.93767722312E+03  0.93767722312E+03  0.00000000000E+00 0. -1.
         25    2    1    2    0    0  0.68274165731E+01  0.75759192741E+01 -0.56914081829E+03  0.58281514260E+03  0.12509281044E+03 0.  0.
          5    1    3    3  502    0  0.39788211125E+02  0.54056383164E+02 -0.26853695321E+03  0.27682984294E+03  0.41800000000E+01 0. -1.
         -5    1    3    3    0  502 -0.32960794552E+02 -0.46480463890E+02 -0.30060386508E+03  0.30598529965E+03  0.41800000000E+01 0. -1.
        -11    1    1    2    0    0 -0.32825052667E+02  0.28967334104E+02 -0.21994934256E+03  0.22426391556E+03  0.00000000000E+00 0. -1.
         11    1    1    2    0    0  0.25997636094E+02 -0.36543253378E+02 -0.13599054901E+03  0.14319467822E+03  0.00000000000E+00 0.  1.
</event>
<event>
 7    1  0.2749315E-009  0.1073976E+03  0.7561462E-02  0.1265466E+00
         -2   -1    0    0    0  501 -0.00000000000E+00  0.00000000000E+00  0.85757011741E+02  0.85757011741E+02  0.00000000000E+00 0.  1.
          2   -1    0    0  501    0  0.00000000000E+00 -0.00000000000E+00 -0.21571958139E+03  0.21571958139E+03  0.00000000000E+00 0. -1.
         25    2    1    2    0    0  0.62248878791E+02 -0.22122525513E+02 -0.18384915918E+02  0.14265677244E+03  0.12509444649E+03 0.  0.
          5    1    3    3  502    0 -0.93400462108E+01 -0.45188055095E+02 -0.43198116355E+02  0.63346242533E+02  0.41800000000E+01 0.  1.
         -5    1    3    3    0  502  0.71588925002E+02  0.23065529582E+02  0.24813200436E+02  0.79310529905E+02  0.41800000000E+01 0.  1.
        -11    1    1    2    0    0 -0.15045377709E+02  0.39939956097E+02 -0.77435875578E+01  0.43376567773E+02  0.00000000000E+00 0.  1.
         11    1    1    2    0    0 -0.47203501082E+02 -0.17817430585E+02 -0.10383406618E+03  0.11544325293E+03  0.00000000000E+00 0. -1.
</event>
<event>
 7    1  0.2749315E-009  0.1131613E+03  0.7561462E-02  0.1254825E+00
         -3   -1    0    0    0  501 -0.00000000000E+00  0.00000000000E+00  0.74392963146E+02  0.74392963146E+02  0.00000000000E+00 0.  1.
          3   -1    0    0  501    0  0.00000000000E+00 -0.00000000000E+00 -0.27069989569E+03  0.27069989569E+03  0.00000000000E+00 0. -1.
         25    2    1    2    0    0  0.69786531067E+02 -0.51317684304E+02 -0.63491979011E+02  0.16488425988E+03  0.12510764611E+03 0.  0.
          5    1    3    3  502    0  0.27811639656E+02  0.31120922921E+02 -0.58712626410E+02  0.72157078958E+02  0.41800000000E+01 0. -1.
         -5    1    3    3    0  502  0.41974891411E+02 -0.82438607225E+02 -0.47793526005E+01  0.92727180920E+02  0.41800000000E+01 0. -1.
        -11    1    1    2    0    0 -0.48377823958E+02  0.16909576178E+02 -0.11800381298E+02  0.52588940056E+02  0.00000000000E+00 0.  1.
         11    1    1    2    0    0 -0.21408707109E+02  0.34408108126E+02 -0.12101457223E+03  0.12761965890E+03  0.00000000000E+00 0. -1.
</event>
<event>
 7    1  0.3029929E-009  0.3758001E+03  0.7561462E-02  0.1052497E+00
         -2   -1    0    0    0  501 -0.00000000000E+00  0.00000000000E+00  0.14722880763E+03  0.14722880763E+03  0.00000000000E+00 0.  1.
          2   -1    0    0  501    0  0.00000000000E+00 -0.00000000000E+00 -0.11232272213E+04  0.11232272213E+04  0.00000000000E+00 0. -1.
         25    2    1    2    0    0 -0.37116493721E+03  0.57020524727E+00 -0.68788560647E+03  0.79157927525E+03  0.12508959059E+03 0.  0.
          5    1    3    3  502    0 -0.36116942950E+03 -0.59816568610E+01 -0.58240112798E+03  0.68533764182E+03  0.41800000000E+01 0. -1.
         -5    1    3    3    0  502 -0.99955077038E+01  0.65518621083E+01 -0.10548447849E+03  0.10624163343E+03  0.41800000000E+01 0. -1.
        -11    1    1    2    0    0  0.29632985147E+03 -0.28771424325E+02 -0.25616489965E+03  0.39275899931E+03  0.00000000000E+00 0.  1.
         11    1    1    2    0    0  0.74835085740E+02  0.28201219077E+02 -0.31947907513E+02  0.86117754323E+02  0.00000000000E+00 0. -1.
</event>
<event>
 7    1  0.2749315E-009  0.1382372E+03  0.7561462E-02  0.1215721E+00
          2   -1    0    0  501    0  0.00000000000E+00  0.00000000000E+00  0.21342917404E+03  0.21342917404E+03  0.00000000000E+00 0. -1.
         -2   -1    0    0    0  501 -0.00000000000E+00 -0.00000000000E+00 -0.10594752111E+03  0.10594752111E+03  0.00000000000E+00 0.  1.
         25    2    1    2    0    0 -0.64154096841E+02  0.72505212739E+02  0.95970714265E+02  0.18500662199E+03  0.12507724880E+03 0.  0.
          5    1    3    3  502    0 -0.34667146500E+02  0.10402746861E+03  0.46384075614E+02  0.11913219608E+03  0.41800000000E+01 0.  1.
         -5    1    3    3    0  502 -0.29486950341E+02 -0.31522255873E+02  0.49586638651E+02  0.65874425906E+02  0.41800000000E+01 0.  1.
        -11    1    1    2    0    0  0.81391982638E+02 -0.66561587796E+02 -0.10639442243E+02  0.10568016625E+03  0.00000000000E+00 0.  1.
         11    1    1    2    0    0 -0.17237885797E+02 -0.59436249433E+01  0.22150380909E+02  0.28689906912E+02  0.00000000000E+00 0. -1.
</event>
<event>
 7    1  0.3628884E-009  0.7683770E+02  0.7561462E-02  0.1338273E+00
         -2   -1    0    0    0  501 -0.00000000000E+00  0.00000000000E+00  0.14911857564E+02  0.14911857564E+02  0.00000000000E+00 0.  1.
          2   -1    0    0  501    0  0.00000000000E+00 -0.00000000000E+00 -0.10635652393E+04  0.10635652393E+04  0.00000000000E+00 0. -1.
         25    2    1    2    0    0 -0.31591878685E+02 -0.33985126957E+02 -0.76876872892E+03  0.78025997266E+03  0.12508889122E+03 0.  0.
          5    1    3    3  502    0 -0.95988358866E+01 -0.33083371687E+02 -0.75063373025E+03  0.75143537082E+03  0.41800000000E+01 0.  1.
         -5    1    3    3    0  502 -0.21993042799E+02 -0.90175526999E+00 -0.18134998674E+02  0.28824601836E+02  0.41800000000E+01 0.  1.
        -11    1    1    2    0    0  0.55116993597E+02 -0.14565518668E+00 -0.20857217401E+03  0.21573190763E+03  0.00000000000E+00 0. -1.
         11    1    1    2    0    0 -0.23525114911E+02  0.34130782143E+02 -0.71312478834E+02  0.82485216607E+02  0.00000000000E+00 0.  1.
</event>
<event>
 7    1  0.2749315E-009  0.1165774E+03  0.7561462E-02  0.1248852E+00
         -2   -1    0    0    0  501 -0.00000000000E+00  0.00000000000E+00  0.24979038642E+02  0.24979038642E+02  0.00000000000E+00 0.  1.
          2   -1    0    0  501    0  0.00000000000E+00 -0.00000000000E+00 -0.65310839289E+03  0.65310839289E+03  0.00000000000E+00 0. -1.
         25    2    1    2    0    0 -0.19682479808E+02  0.44620536951E+02 -0.23500945634E+03  0.27065773541E+03  0.12509105818E+03 0.  0.
          5    1    3    3  502    0  0.32894369919E+02  0.64739843567E+02 -0.94640603277E+02  0.11936332396E+03  0.41800000000E+01 0. -1.
         -5    1    3    3    0  502 -0.52576849726E+02 -0.20119306616E+02 -0.14036885307E+03  0.15129441145E+03  0.41800000000E+01 0. -1.
        -11    1    1    2    0    0  0.52943790913E+02 -0.64451819088E+01 -0.15300129780E+03  0.16203080724E+03  0.00000000000E+00 0.  1.
         11    1    1    2    0    0 -0.33261311105E+02 -0.38175355042E+02 -0.24011860010E+03  0.24539888888E+03  0.00000000000E+00 0. -1.
</event>
<event>
 7    1  0.2749315E-009  0.1111925E+03  0.7561462E-02  0.1258377E+00
         -2   -1    0    0    0  501 -0.00000000000E+00  0.00000000000E+00  0.39363158024E+02  0.39363158024E+02  0.00000000000E+00 0.  1.
          2   -1    0    0  501    0  0.00000000000E+00 -0.00000000000E+00 -0.57479872942E+03  0.57479872942E+03  0.00000000000E+00 0. -1.
         25    2    1    2    0    0  0.54930116356E+02  0.78526713746E+02 -0.20762653540E+03  0.26065201606E+03  0.12508770050E+03 0.  0.
          5    1    3    3  502    0  0.28845916216E+02  0.42714875236E+02 -0.36091903152E+01  0.51837689990E+02  0.41800000000E+01 0.  1.
         -5    1    3    3    0  502  0.26084200140E+02  0.35811838509E+02 -0.20401734509E+03  0.20881432607E+03  0.41800000000E+01 0.  1.
        -11    1    1    2    0    0 -0.72766270628E+02 -0.80159719860E+02 -0.23168222313E+03  0.25572869089E+03  0.00000000000E+00 0.  1.
         11    1    1    2    0    0  0.17836154272E+02  0.16330061143E+01 -0.96126812870E+02  0.97781180504E+02  0.00000000000E+00 0. -1.
</event>
<event>
 7    1  0.2749315E-009  0.8157583E+02  0.7561462E-02  0.1324638E+00
          1   -1    0    0  501    0  0.00000000000E+00  0.00000000000E+00  0.38494474363E+03  0.38494474363E+03  0.00000000000E+00 0. -1.
         -1   -1    0    0    0  501 -0.00000000000E+00 -0.00000000000E+00 -0.36766149192E+02  0.36766149192E+02  0.00000000000E+00 0.  1.
         25    2    1    2    0    0 -0.97139278683E+01  0.32262301376E+02  0.25891377293E+03  0.28951487482E+03  0.12508918598E+03 0.  0.
          5    1    3    3  502    0  0.34530978670E+02  0.41658656909E+02  0.44038045659E+02  0.69890300105E+02  0.41800000000E+01 0. -1.
         -5    1    3    3    0  502 -0.44244906538E+02 -0.93963555321E+01  0.21487572727E+03  0.21962457472E+03  0.41800000000E+01 0. -1.
        -11    1    1    2    0    0 -0.18297103586E+02 -0.30275761518E+02 -0.32395671288E+01  0.35523239299E+02  0.00000000000E+00 0.  1.
         11    1    1    2    0    0  0.28011031454E+02 -0.19865398583E+01  0.92504388639E+02  0.96672778698E+02  0.00000000000E+00 0. -1.
</event>
<event>
 7    1  0.2749315E-009  0.1136720E+03  0.7561462E-02  0.1253917E+00
         -1   -1    0    0    0  501 -0.00000000000E+00  0.00000000000E+00  0.60433068066E+02  0.60433068066E+02  0.00000000000E+00 0.  1.
          1   -1    0    0  501    0  0.00000000000E+00 -0.00000000000E+00 -0.21744964698E+03  0.21744964698E+03  0.00000000000E+00 0. -1.
         25    2    1    2    0    0  0.16644402629E+02 -0.33253637509E+02 -0.89597702925E+02  0.15829642602E+03  0.12508864686E+03 0.  0.
          5    1    3    3  502    0 -0.36974357299E+02  0.28821100528E+02 -0.43617295083E+02  0.64169305463E+02  0.41800000000E+01 0.  1.
         -5    1    3    3    0  502  0.53618759929E+02 -0.62074738036E+02 -0.45980407843E+02  0.94127120555E+02  0.41800000000E+01 0.  1.
        -11    1    1    2    0    0  0.35486107554E+02 -0.14574398347E+01 -0.18057330062E+02  0.39842880533E+02  0.00000000000E+00 0.  1.
         11    1    1    2    0    0 -0.52130510184E+02  0.34711077343E+02 -0.49361545929E+02  0.79743408498E+02  0.00000000000E+00 0. -1.
</event>
<event>
 7    1  0.3651940E-009  0.1267191E+03  0.7561462E-02  0.1232407E+00
          1   -1    0    0  501    0  0.00000000000E+00  0.00000000000E+00  0.98876370101E+02  0.98876370101E+02  0.00000000000E+00 0. -1.
         -1   -1    0    0    0  501 -0.00000000000E+00 -0.00000000000E+00 -0.21778833748E+03  0.21778833748E+03  0.00000000000E+00 0.  1.
         25    2    1    2    0    0  0.44457468539E+02  0.84452489127E+02 -0.38502097255E+02  0.16198104451E+03  0.12508700115E+03 0.  0.
          5    1    3    3  502    0  0.67886821534E+02  0.74983148820E+02  0.15307705522E+02  0.10238599217E+03  0.41800000000E+01 0. -1.
         -5    1    3    3    0  502 -0.23429352995E+02  0.94693403073E+01 -0.53809802776E+02  0.59595052332E+02  0.41800000000E+01 0. -1.
        -11    1    1    2    0    0 -0.60901515002E+02 -0.26621881613E+02 -0.64211662674E+02  0.92416755697E+02  0.00000000000E+00 0.  1.
         11    1    1    2    0    0  0.16444046464E+02 -0.57830607514E+02 -0.16198207447E+02  0.62266907375E+02  0.00000000000E+00 0. -1.
</event>
<event>
 7    1  0.2749315E-009  0.1152780E+03  0.7561462E-02  0.1251097E+00
          1   -1    0    0  501    0  0.00000000000E+00  0.00000000000E+00  0.11931561512E+03  0.11931561512E+03  0.00000000000E+00 0. -1.
         -1   -1    0    0    0  501 -0.00000000000E+00 -0.00000000000E+00 -0.15145890325E+03  0.15145890325E+03  0.00000000000E+00 0.  1.
         25    2    1    2    0    0 -0.75797898176E+02  0.14519427533E+02 -0.37524788071E+02  0.15169641988E+03  0.12509020321E+03 0.  0.
          5    1    3    3  502    0 -0.77907450932E+02 -0.32731133510E+02  0.91680524127E+01  0.85102430028E+02  0.41800000000E+01 0. -1.
         -5    1    3    3    0  502  0.21095527560E+01  0.47250561043E+02 -0.46692840484E+02  0.66593989850E+02  0.41800000000E+01 0. -1.
        -11    1    1    2    0    0  0.61444098181E+02  0.17068464042E+02  0.35628558526E+02  0.73048640293E+02  0.00000000000E+00 0. -1.
         11    1    1    2    0    0  0.14353799995E+02 -0.31587891575E+02 -0.30247058594E+02  0.46029458198E+02  0.00000000000E+00 0.  1.
</event>
<event>
 7    1  0.2749315E-009  0.4406200E+03  0.7561462E-02  0.1030557E+00
          2   -1    0    0  501    0  0.00000000000E+00  0.00000000000E+00  0.12210370757E+04  0.12210370757E+04  0.00000000000E+00 0.  1.
         -2   -1    0    0    0  501 -0.00000000000E+00 -0.00000000000E+00 -0.20766926628E+03  0.20766926628E+03  0.00000000000E+00 0. -1.
         25    2    1    2    0    0 -0.15459200757E+02 -0.43427416697E+03  0.18376459868E+03  0.48810884182E+03  0.12509106581E+03 0.  0.
          5    1    3    3  502    0  0.23747129801E+02 -0.27043908266E+03  0.57484244413E+02  0.27753042061E+03  0.41800000000E+01 0.  1.
         -5    1    3    3    0  502 -0.39206330559E+02 -0.16383508431E+03  0.12628035427E+03  0.21057842122E+03  0.41800000000E+01 0.  1.
        -11    1    1    2    0    0 -0.22770913631E+02  0.31807245545E+03  0.63835900388E+03  0.71357607811E+03  0.00000000000E+00 0.  1.
         11    1    1    2    0    0  0.38230114389E+02  0.11620171152E+03  0.19124420681E+03  0.22702142200E+03  0.00000000000E+00 0. -1.
</event>
<event>
 7    1  0.2749315E-009  0.1261315E+03  0.7561462E-02  0.1233312E+00
         -1   -1    0    0    0  501 -0.00000000000E+00  0.00000000000E+00  0.69248262736E+03  0.69248262736E+03  0.00000000000E+00 0.  1.
          1   -1    0    0  501    0  0.00000000000E+00 -0.00000000000E+00 -0.30604643901E+02  0.30604643901E+02  0.00000000000E+00 0. -1.
         25    2    1    2    0    0  0.69526574930E+02 -0.62589116632E+02  0.42094497013E+03  0.44899117013E+03  0.12508821224E+03 0.  0.
          5    1    3    3  502    0  0.93556467196E+02 -0.23171072360E+02  0.18614751184E+03  0.20966182226E+03  0.41800000000E+01 0.  1.
         -5    1    3    3    0  502 -0.24029892266E+02 -0.39418044272E+02  0.23479745829E+03  0.23932934787E+03  0.41800000000E+01 0.  1.
        -11    1    1    2    0    0 -0.26490147642E+02  0.60847276097E+02  0.21216207849E+03  0.22229904741E+03  0.00000000000E+00 0.  1.
         11    1    1    2    0    0 -0.43036427287E+02  0.17418405343E+01  0.28770934842E+02  0.51797053717E+02  0.00000000000E+00 0. -1.
</event>
<event>
 7    1  0.2749315E-009  0.1063540E+03  0.7561462E-02  0.1267475E+00
          2   -1    0    0  501    0  0.00000000000E+00  0.00000000000E+00  0.17999238585E+03  0.17999238585E+03  0.00000000000E+00 0. -1.
         -2   -1    0    0    0  501 -0.00000000000E+00 -0.00000000000E+00 -0.83689910072E+02  0.83689910072E+02  0.00000000000E+00 0.  1.
         25    2    1    2    0    0  0.51949302869E+02 -0.16883246704E+02  0.73714014638E+02  0.15512050029E+03  0.12507933310E+03 0.  0.
          5    1    3    3  502    0  0.77208838438E+02 -0.22048826700E+02  0.38078308955E+01  0.80494269784E+02  0.41800000000E+01 0. -1.
         -5    1    3    3    0  502 -0.25259535569E+02  0.51655799958E+01  0.69906183742E+02  0.74626230504E+02  0.41800000000E+01 0. -1.
        -11    1    1    2    0    0 -0.41656131010E+02 -0.34310234255E+02  0.11702347864E+02  0.55221104398E+02  0.00000000000E+00 0.  1.
         11    1    1    2    0    0 -0.10293171859E+02  0.51193480959E+02  0.10886113280E+02  0.53340691240E+02  0.00000000000E+00 0. -1.
</event>
<event>
 7    1  0.2749315E-009  0.1028222E+03  0.7561462E-02  0.1274471E+00
         -1   -1    0    0    0  501 -0.00000000000E+00  0.00000000000E+00  0.81459260479E+02  0.81459260479E+02  0.00000000000E+00 0.  1.
          1   -1    0    0  501    0  0.00000000000E+00 -0.00000000000E+00 -0.18440097671E+03  0.18440097671E+03  0.00000000000E+00 0. -1.
         25    2    1    2    0    0  0.10348928463E+02 -0.25441647083E+02 -0.32571188016E+01  0.12811088654E+03  0.12508961867E+03 0.  0.
          5    1    3    3  502    0 -0.39193642649E+02 -0.51423266740E+02 -0.22830223714E+02  0.68696328149E+02  0.41800000000E+01 0. -1.
         -5    1    3    3    0  502  0.49542571112E+02  0.25981619658E+02  0.19573104912E+02  0.59414558387E+02  0.41800000000E+01 0. -1.
        -11    1    1    2    0    0  0.68036592225E+01 -0.27902902238E+02 -0.66958964541E+02  0.72858524995E+02  0.00000000000E+00 0. -1.
         11    1    1    2    0    0 -0.17152587686E+02  0.53344549320E+02 -0.32725632887E+02  0.64890825656E+02  0.00000000000E+00 0.  1.
</event>
<event>
 7    1  0.2749315E-009  0.1177266E+03  0.7561462E-02  0.1246895E+00
         -3   -1    0    0    0  501 -0.00000000000E+00  0.00000000000E+00  0.32627607038E+03  0.32627607038E+03  0.00000000000E+00 0.  1.
          3   -1    0    0  501    0  0.00000000000E+00 -0.00000000000E+00 -0.49213266089E+02  0.49213266089E+02  0.00000000000E+00 0. -1.
         25    2    1    2    0    0  0.59223078791E+02  0.24069914648E+01  0.11722654403E+03  0.18139205927E+03  0.12509136610E+03 0.  0.
          5    1    3    3  502    0  0.24248036756E+02 -0.54274325212E+02  0.92883706158E+02  0.11035635430E+03  0.41800000000E+01 0.  1.
         -5    1    3    3    0  502  0.34975042035E+02  0.56681316677E+02  0.24342837871E+02  0.71035704974E+02  0.41800000000E+01 0.  1.
        -11    1    1    2    0    0 -0.83733055424E+02  0.38830197120E+01  0.13301240657E+03  0.15722150844E+03  0.00000000000E+00 0. -1.
         11    1    1    2    0    0  0.24509976633E+02 -0.62900111769E+01  0.26823853689E+02  0.36875768763E+02  0.00000000000E+00 0.  1.
</event>
<event>
 7    1  0.2749315E-009  0.2388536E+03  0.7561462E-02  0.1120559E+00
         -1   -1    0    0    0  501 -0.00000000000E+00  0.00000000000E+00  0.39703141961E+02  0.39703141961E+02  0.00000000000E+00 0.  1.
          1   -1    0    0  501    0  0.00000000000E+00 -0.00000000000E+00 -0.17392916388E+04  0.17392916388E+04  0.00000000000E+00 0. -1.
         25    2    1    2    0    0  0.21568855949E+03  0.83192505309E+02 -0.66551953903E+03  0.71554586479E+03  0.12508828943E+03 0.  0.
          5    1    3    3  502    0  0.18626614323E+03  0.79957218198E+02 -0.65189266557E+03  0.68269301497E+03  0.41800000000E+01 0. -1.
         -5    1    3    3    0  502  0.29422416260E+02  0.32352871101E+01 -0.13626873456E+02  0.32852849822E+02  0.41800000000E+01 0. -1.
        -11    1    1    2    0    0 -0.85492373522E+02  0.83673955566E+01 -0.28538880533E+03  0.29803645658E+03  0.00000000000E+00 0.  1.
         11    1    1    2    0    0 -0.13019618597E+03 -0.91559900865E+02 -0.74868015244E+03  0.76541245936E+03  0.00000000000E+00 0. -1.
</event>
<event>
 7    1  0.2749315E-009  0.9930379E+02  0.7561462E-02  0.1281767E+00
          2   -1    0    0  501    0  0.00000000000E+00  0.00000000000E+00  0.16709213545E+03  0.16709213545E+03  0.00000000000E+00 0. -1.
         -2   -1    0    0    0  501 -0.00000000000E+00 -0.00000000000E+00 -0.88794371360E+02  0.88794371360E+02  0.00000000000E+00 0.  1.
         25    2    1    2    0    0 -0.39842093681E+02 -0.30973021302E+02  0.73083790952E+02  0.15341526517E+03  0.12509309577E+03 0.  0.
          5    1    3    3  502    0  0.14296072284E+02  0.17883982532E+02  0.76827455982E+02  0.80275431525E+02  0.41800000000E+01 0.  1.
         -5    1    3    3    0  502 -0.54138165965E+02 -0.48857003834E+02 -0.37436650297E+01  0.73139833644E+02  0.41800000000E+01 0.  1.
        -11    1    1    2    0    0  0.67624132480E+02  0.31274372599E+02  0.52079860267E+01  0.74687567865E+02  0.00000000000E+00 0.  1.
         11    1    1    2    0    0 -0.27782038800E+02 -0.30135129687E+00  0.59871097545E-02  0.27783673773E+02  0.00000000000E+00 0. -1.
</event>
<event>
 7    1  0.2749315E-009  0.1426720E+03  0.7561462E-02  0.1209778E+00
          1   -1    0    0  501    0  0.00000000000E+00  0.00000000000E+00  0.33781707706E+03  0.33781707706E+03  0.00000000000E+00 0. -1.
         -1   -1    0    0    0  501 -0.00000000000E+00 -0.00000000000E+00 -0.10223710884E+03  0.10223710884E+03  0.00000000000E+00 0.  1.
         25    2    1    2    0    0 -0.50660984352E+02  0.12570063675E+03  0.19677509985E+03  0.26969333662E+03  0.12508745133E+03 0.  0.
          5    1    3    3  502    0 -0.28455684487E+01 -0.62067375875E+01 -0.14192675449E+02  0.16294946691E+02  0.41800000000E+01 0. -1.
         -5    1    3    3    0  502 -0.47815415903E+02  0.13190737434E+03  0.21096777530E+03  0.25339838993E+03  0.41800000000E+01 0. -1.
        -11    1    1    2    0    0  0.26813778356E+02 -0.90973627232E+02  0.70053522012E+02  0.11790960736E+03  0.00000000000E+00 0. -1.
         11    1    1    2    0    0  0.23847205996E+02 -0.34727009518E+02 -0.31248653649E+02  0.52451241918E+02  0.00000000000E+00 0.  1.
</event>
<event>
 7    1  0.2749315E-009  0.5372610E+02  0.7561462E-02  0.1426221E+00
          1   -1    0    0  501    0  0.00000000000E+00  0.00000000000E+00  0.59530005871E+03  0.59530005871E+03  0.00000000000E+00 0. -1.
         -1   -1    0    0    0  501 -0.00000000000E+00 -0.00000000000E+00 -0.31617957292E+02  0.31617957292E+02  0.00000000000E+00 0.  1.
         25    2    1    2    0    0 -0.11093735925E+02 -0.35642629962E+02  0.47642714552E+03  0.49398758500E+03  0.12508973221E+03 0.  0.
          5    1    3    3  502    0 -0.13140998397E+02 -0.25330179026E+02  0.15160992802E+02  0.32582693430E+02  0.41800000000E+01 0. -1.
         -5    1    3    3    0  502  0.20472624724E+01 -0.10312450936E+02  0.46126615271E+03  0.46140489157E+03  0.41800000000E+01 0. -1.
        -11    1    1    2    0    0 -0.92429754370E+01  0.44256763841E+02  0.98327965781E+02  0.10822422370E+03  0.00000000000E+00 0. -1.
         11    1    1    2    0    0  0.20336711362E+02 -0.86141338782E+01 -0.11073009878E+02  0.24706207302E+02  0.00000000000E+00 0.  1.
</event>
<event>
 7    1  0.2749315E-009  0.9029475E+02  0.7561462E-02  0.1302139E+00
         -2   -1    0    0    0  501 -0.00000000000E+00  0.00000000000E+00  0.96620300393E+02  0.96620300393E+02  0.00000000000E+00 0. -1.
          2   -1    0    0  501    0  0.00000000000E+00 -0.00000000000E+00 -0.23860834632E+03  0.23860834632E+03  0.00000000000E+00 0.  1.
         25    2    1    2    0    0 -0.48968476663E+02 -0.60249346712E+02 -0.15600570306E+03  0.21450794914E+03  0.12509190769E+03 0.  0.
          5    1    3    3  502    0 -0.43689537091E+01 -0.54084565519E+02 -0.16010870135E+03  0.16910498701E+03  0.41800000000E+01 0. -1.
         -5    1    3    3    0  502 -0.44599522954E+02 -0.61647811932E+01  0.41029982918E+01  0.45402962127E+02  0.41800000000E+01 0. -1.
        -11    1    1    2    0    0  0.49729654141E+02  0.49471307387E+02 -0.29341660681E+02  0.76035398382E+02  0.00000000000E+00 0.  1.
         11    1    1    2    0    0 -0.76117747781E+00  0.10778039325E+02  0.43359317812E+02  0.44685299193E+02  0.00000000000E+00 0. -1.
</event>
<event>
 7    1  0.2749315E-009  0.1156583E+03  0.7561462E-02  0.1250436E+00
         -3   -1    0    0    0  501 -0.00000000000E+00  0.00000000000E+00  0.52100991519E+02  0.52100991519E+02  0.00000000000E+00 0.  1.
          3   -1    0    0  501    0  0.00000000000E+00 -0.00000000000E+00 -0.31387401119E+03  0.31387401119E+03  0.00000000000E+00 0. -1.
         25    2    1    2    0    0 -0.62727988883E+02 -0.27106882454E+02 -0.13840767332E+03  0.19868099605E+03  0.12509144851E+03 0.  0.
          5    1    3    3  502    0  0.22919257044E+02 -0.44345137660E+02 -0.26569680252E+02  0.56702767888E+02  0.41800000000E+01 0.  1.
         -5    1    3    3    0  502 -0.85647245927E+02  0.17238255205E+02 -0.11183799307E+03  0.14197822816E+03  0.41800000000E+01 0.  1.
        -11    1    1    2    0    0  0.66193352433E+01  0.36303523032E+02 -0.98596216694E+02  0.10527571102E+03  0.00000000000E+00 0. -1.
         11    1    1    2    0    0  0.56108653640E+02 -0.91966405772E+01 -0.24769129658E+02  0.62018295649E+02  0.00000000000E+00 0.  1.
</event>
<event>
 7    1  0.2749315E-009  0.1028503E+03  0.7561462E-02  0.1274414E+00
         -1   -1    0    0    0  501 -0.00000000000E+00  0.00000000000E+00  0.75231160767E+02  0.75231160767E+02  0.00000000000E+00 0.  1.
          1   -1    0    0  501    0  0.00000000000E+00 -0.00000000000E+00 -0.18459258004E+03  0.18459258004E+03  0.00000000000E+00 0. -1.
         25    2    1    2    0    0 -0.33907825991E+02  0.32249416169E+02 -0.63425828425E+02  0.14785393239E+03  0.12509270205E+03 0.  0.
          5    1    3    3  502    0 -0.82401509740E+01 -0.40870018942E+02  0.76784070146E+01  0.42599165141E+02  0.41800000000E+01 0. -1.
         -5    1    3    3    0  502 -0.25667675017E+02  0.73119435111E+02 -0.71104235439E+02  0.10525476725E+03  0.41800000000E+01 0. -1.
        -11    1    1    2    0    0  0.12526847550E+02  0.23419349835E+02 -0.45089580088E+02  0.52330278891E+02  0.00000000000E+00 0. -1.
         11    1    1    2    0    0  0.21380978441E+02 -0.55668766004E+02 -0.84601075876E+00  0.59639529523E+02  0.00000000000E+00 0.  1.
</event>
<event>
 7    1  0.2749315E-009  0.9295839E+02  0.7561462E-02  0.1295842E+00
          1   -1    0    0  501    0  0.00000000000E+00  0.00000000000E+00  0.36371421082E+03  0.36371421082E+03  0.00000000000E+00 0. -1.
         -1   -1    0    0    0  501 -0.00000000000E+00 -0.00000000000E+00 -0.43226935221E+02  0.43226935221E+02  0.00000000000E+00 0.  1.
         25    2    1    2    0    0 -0.42853553915E+02  0.15561757967E+02  0.10884401234E+03  0.17196999202E+03  0.12509222094E+03 0.  0.
          5    1    3    3  502    0  0.14365778630E+02  0.23703694895E+02 -0.17448868442E+02  0.33017815755E+02  0.41800000000E+01 0.  1.
         -5    1    3    3    0  502 -0.57219332544E+02 -0.81419369278E+01  0.12629288078E+03  0.13895217627E+03  0.41800000000E+01 0.  1.
        -11    1    1    2    0    0  0.54743999307E+02  0.23153899175E+02  0.14851752589E+03  0.15997019724E+03  0.00000000000E+00 0. -1.
         11    1    1    2    0    0 -0.11890445393E+02 -0.38715657142E+02  0.63125737373E+02  0.75000956783E+02  0.00000000000E+00 0.  1.
</event>
<event>
 7    1  0.2749315E-009  0.1369301E+03  0.7561462E-02  0.1217521E+00
          1   -1    0    0  501    0  0.00000000000E+00  0.00000000000E+00  0.59004984394E+03  0.59004984394E+03  0.00000000000E+00 0. -1.
         -1   -1    0    0    0  501 -0.00000000000E+00 -0.00000000000E+00 -0.34708251165E+02  0.34708251165E+02  0.00000000000E+00 0.  1.
         25    2    1    2    0    0  0.90371134970E+02  0.52322038360E+01  0.35874759249E+03  0.39056605250E+03  0.12509072008E+03 0.  0.
          5    1    3    3  502    0 -0.20391536034E+02  0.30292386775E+02  0.54014188929E+02  0.65333363942E+02  0.41800000000E+01 0. -1.
         -5    1    3    3    0  502  0.11076267100E+03 -0.25060182939E+02  0.30473340357E+03  0.32523268856E+03  0.41800000000E+01 0. -1.
        -11    1    1    2    0    0 -0.90984473517E+02 -0.32182798070E+02  0.12662754008E+03  0.15921193680E+03  0.00000000000E+00 0.  1.
         11    1    1    2    0    0  0.61333854686E+00  0.26950594234E+02  0.69966460202E+02  0.74980105808E+02  0.00000000000E+00 0. -1.
</event>
<event>
 7    1  0.2749315E-009  0.1170795E+03  0.7561462E-02  0.1247994E+00
         -1   -1    0    0    0  501 -0.00000000000E+00  0.00000000000E+00  0.21715626437E+03  0.21715626437E+03  0.00000000000E+00 0.  1.
          1   -1    0    0  501    0  0.00000000000E+00 -0.00000000000E+00 -0.70056921230E+02  0.70056921230E+02  0.00000000000E+00 0. -1.
         25    2    1    2    0    0  0.60828862171E+02 -0.66776265446E+01  0.87446121345E+02  0.16443412070E+03  0.12508802797E+03 0.  0.
          5    1    3    3  502    0 -0.55576415853E+01 -0.52363253050E+02  0.58212168940E+02  0.78606149013E+02  0.41800000000E+01 0. -1.
         -5    1    3    3    0  502  0.66386503757E+02  0.45685626506E+02  0.29233952406E+02  0.85827971685E+02  0.41800000000E+01 0. -1.
        -11    1    1    2    0    0 -0.27586750160E+02 -0.36748767674E+02  0.63090896114E+01  0.46382165987E+02  0.00000000000E+00 0. -1.
         11    1    1    2    0    0 -0.33242112012E+02  0.43426394218E+02  0.53344132186E+02  0.76396898919E+02  0.00000000000E+00 0.  1.
</event>
<event>
 7    1  0.2749315E-009  0.1121937E+03  0.7561462E-02  0.1256561E+00
         -1   -1    0    0    0  501 -0.00000000000E+00  0.00000000000E+00  0.14427842056E+02  0.14427842056E+02  0.00000000000E+00 0.  1.
          1   -1    0    0  501    0  0.00000000000E+00 -0.00000000000E+00 -0.10301237607E+04  0.10301237607E+04  0.00000000000E+00 0. -1.
         25    2    1    2    0    0  0.41523836674E+02 -0.19189642639E+02 -0.71096351888E+03  0.72333180949E+03  0.12508920835E+03 0.  0.
          5    1    3    3  502    0 -0.35690706452E+02  0.15325772536E+02 -0.36803672421E+03  0.37010432123E+03  0.41800000000E+01 0. -1.
         -5    1    3    3    0  502  0.77214543126E+02 -0.34515415176E+02 -0.34292679467E+03  0.35322748825E+03  0.41800000000E+01 0. -1.
        -11    1    1    2    0    0 -0.52193852462E+02  0.47384041935E+02 -0.19221848881E+03  0.20473737594E+03  0.00000000000E+00 0.  1.
         11    1    1    2    0    0  0.10670015788E+02 -0.28194399295E+02 -0.11251391093E+03  0.11648241730E+03  0.00000000000E+00 0. -1.
</event>
<event>
 7    1  0.2749315E-009  0.1323481E+03  0.7561462E-02  0.1224013E+00
         -2   -1    0    0    0  501 -0.00000000000E+00  0.00000000000E+00  0.32757426930E+02  0.32757426930E+02  0.00000000000E+00 0. -1.
          2   -1    0    0  501    0  0.00000000000E+00 -0.00000000000E+00 -0.73113071994E+03  0.73113071994E+03  0.00000000000E+00 0.  1.
         25    2    1    2    0    0  0.97050964730E+02 -0.25800923713E+02 -0.48304395599E+03  0.50898255929E+03  0.12508878775E+03 0.  0.
          5    1    3    3  502    0  0.97798526685E+01  0.28348757423E+02 -0.24185803392E+02  0.38752071575E+02  0.41800000000E+01 0.  1.
         -5    1    3    3    0  502  0.87271112062E+02 -0.54149681137E+02 -0.45885815260E+03  0.47023048771E+03  0.41800000000E+01 0.  1.
        -11    1    1    2    0    0  0.95750803856E+01  0.23056987651E+02 -0.72268282954E+02  0.76459215044E+02  0.00000000000E+00 0.  1.
         11    1    1    2    0    0 -0.10662604512E+03  0.27439360626E+01 -0.14306105406E+03  0.17844637254E+03  0.00000000000E+00 0. -1.
</event>
<event>
 7    1  0.2749315E-009  0.1008486E+03  0.7561462E-02  0.1278521E+00
          1   -1    0    0  501    0  0.00000000000E+00  0.00000000000E+00  0.20821286769E+02  0.20821286769E+02  0.00000000000E+00 0. -1.
         -1   -1    0    0    0  501 -0.00000000000E+00 -0.00000000000E+00 -0.70626368834E+03  0.70626368834E+03  0.00000000000E+00 0.  1.
         25    2    1    2    0    0 -0.14494709175E+02 -0.27350423681E+02 -0.54970333622E+03  0.56460554738E+03  0.12509006360E+03 0.  0.
          5    1    3    3  502    0 -0.41131692546E+02  0.35261964639E+02 -0.33384342037E+03  0.33823678689E+03  0.41800000000E+01 0.  1.
         -5    1    3    3    0  502  0.26636983371E+02 -0.62612388320E+02 -0.21585991585E+03  0.22636876049E+03  0.41800000000E+01 0.  1.
        -11    1    1    2    0    0  0.13451608111E+02  0.52408669360E+02 -0.12294518244E+03  0.13432472695E+03  0.00000000000E+00 0.  1.
         11    1    1    2    0    0  0.10431010635E+01 -0.25058245679E+02 -0.12793882920E+02  0.28154700789E+02  0.00000000000E+00 0. -1.
</event>
<event>
 7    1  0.2749315E-009  0.1583159E+03  0.7561462E-02  0.1190611E+00
          1   -1    0    0  501    0  0.00000000000E+00  0.00000000000E+00  0.81891084204E+03  0.81891084204E+03  0.00000000000E+00 0. -1.
         -1   -1    0    0    0  501 -0.00000000000E+00 -0.00000000000E+00 -0.37120995842E+02  0.37120995842E+02  0.00000000000E+00 0.  1.
         25    2    1    2    0    0 -0.10493574048E+03 -0.90253566492E+02  0.46404397689E+03  0.50013987010E+03  0.12508341729E+03 0.  0.
          5    1    3    3  502    0 -0.58738097339E+02 -0.11233712377E+03  0.38931235175E+03  0.40945252848E+03  0.41800000000E+01 0. -1.
         -5    1    3    3    0  502 -0.46197643140E+02  0.22083557274E+02  0.74731625143E+02  0.90687341620E+02  0.41800000000E+01 0. -1.
        -11    1    1    2    0    0  0.31101870596E+02  0.25669701686E+02  0.19315048402E+03  0.19731540592E+03  0.00000000000E+00 0.  1.
         11    1    1    2    0    0  0.73833869883E+02  0.64583864805E+02  0.12459538529E+03  0.15857656186E+03  0.00000000000E+00 0. -1.
</event>
<event>
 7    1  0.2749315E-009  0.1185768E+03  0.7561462E-02  0.1245464E+00
          2   -1    0    0  501    0  0.00000000000E+00  0.00000000000E+00  0.82309492295E+03  0.82309492295E+03  0.00000000000E+00 0.  1.
         -2   -1    0    0    0  501 -0.00000000000E+00 -0.00000000000E+00 -0.21456688946E+02  0.21456688946E+02  0.00000000000E+00 0. -1.
         25    2    1    2    0    0 -0.44245706495E+02  0.82352282847E+02  0.48918548363E+03  0.51350633127E+03  0.12508690510E+03 0.  0.
          5    1    3    3  502    0 -0.48476031514E+02  0.16634859402E+00  0.33654884725E+03  0.34004786764E+03  0.41800000000E+01 0.  1.
         -5    1    3    3    0  502  0.42303250191E+01  0.82185934253E+02  0.15263663638E+03  0.17345846363E+03  0.41800000000E+01 0.  1.
        -11    1    1    2    0    0  0.30156952875E+02 -0.90976464173E+01  0.13352196510E+03  0.13718718650E+03  0.00000000000E+00 0. -1.
         11    1    1    2    0    0  0.14088753620E+02 -0.73254636429E+02  0.17893078528E+03  0.19385809412E+03  0.00000000000E+00 0.  1.
</event>
<event>
 7    1  0.2749315E-009  0.2166746E+03  0.7561462E-02  0.1136387E+00
         -1   -1    0    0    0  501 -0.00000000000E+00  0.00000000000E+00  0.10485523556E+04  0.10485523556E+04  0.00000000000E+00 0.  1.
          1   -1    0    0  501    0  0.00000000000E+00 -0.00000000000E+00 -0.56063586918E+02  0.56063586918E+02  0.00000000000E+00 0. -1.
         25    2    1    2    0    0 -0.79557790291E+02  0.19924800678E+03  0.56997484108E+03  0.62173034056E+03  0.12509231272E+03 0.  0.
          5    1    3    3  502    0 -0.23993494584E+02  0.22973908045E+02  0.24965115663E+03  0.25188620573E+03  0.41800000000E+01 0. -1.
         -5    1    3    3    0  502 -0.55564295708E+02  0.17627409873E+03  0.32032368445E+03  0.36984413482E+03  0.41800000000E+01 0. -1.
        -11    1    1    2    0    0  0.50937092351E+02 -0.10889563577E+03  0.32669118347E+03  0.34810914412E+03  0.00000000000E+00 0.  1.
         11    1    1    2    0    0  0.28620697941E+02 -0.90352371010E+02  0.95822744179E+02  0.13477645788E+03  0.00000000000E+00 0. -1.
</event>
<event>
 7    1  0.2749315E-009  0.9762240E+02  0.7561462E-02  0.1285377E+00
          4   -1    0    0  501    0  0.00000000000E+00  0.00000000000E+00  0.20011902365E+03  0.20011902365E+03  0.00000000000E+00 0. -1.
         -4   -1    0    0    0  501 -0.00000000000E+00 -0.00000000000E+00 -0.62741436917E+02  0.62741436917E+02  0.00000000000E+00 0.  1.
         25    2    1    2    0    0  0.20249818236E+02  0.10862502607E+02  0.10858027970E+03  0.16722814309E+03  0.12509006995E+03 0.  0.
          5    1    3    3  502    0  0.18053239526E+02 -0.44688222829E+02  0.99641719247E+02  0.11076507271E+03  0.41800000000E+01 0. -1.
         -5    1    3    3    0  502  0.21965787099E+01  0.55550725436E+02  0.89385604548E+01  0.56463070387E+02  0.41800000000E+01 0. -1.
        -11    1    1    2    0    0 -0.55185188575E+02 -0.10518657288E+02  0.19669254431E+02  0.59522489524E+02  0.00000000000E+00 0. -1.
         11    1    1    2    0    0  0.34935370340E+02 -0.34384531976E+00  0.91280526009E+01  0.36109827951E+02  0.00000000000E+00 0.  1.
</event>
<event>
 7    1  0.2749315E-009  0.1515555E+03  0.7561462E-02  0.1198575E+00
          2   -1    0    0  501    0  0.00000000000E+00  0.00000000000E+00  0.11170818706E+03  0.11170818706E+03  0.00000000000E+00 0. -1.
         -2   -1    0    0    0  501 -0.00000000000E+00 -0.00000000000E+00 -0.29843056491E+03  0.29843056491E+03  0.00000000000E+00 0.  1.
         25    2    1    2    0    0 -0.83972427434E+02  0.12091364819E+03 -0.97306956964E+02  0.21630463413E+03  0.12509025535E+03 0.  0.
          5    1    3    3  502    0 -0.61792835429E+02  0.10084008172E+03 -0.41941053202E+01  0.11841511521E+03  0.41800000000E+01 0.  1.
         -5    1    3    3    0  502 -0.22179592004E+02  0.20073566474E+02 -0.93112851644E+02  0.97889518917E+02  0.41800000000E+01 0.  1.
        -11    1    1    2    0    0  0.45021879563E+01 -0.43126220526E+02  0.10192009224E+02  0.44542312976E+02  0.00000000000E+00 0. -1.
         11    1    1    2    0    0  0.79470239477E+02 -0.77787427665E+02 -0.99607430119E+02  0.14929180487E+03  0.00000000000E+00 0.  1.
</event>
<event>
 7    1  0.2749315E-009  0.1045360E+03  0.7561462E-02  0.1271037E+00
          2   -1    0    0  501    0  0.00000000000E+00  0.00000000000E+00  0.66814625546E+02  0.66814625546E+02  0.00000000000E+00 0. -1.
         -2   -1    0    0    0  501 -0.00000000000E+00 -0.00000000000E+00 -0.33843204443E+03  0.33843204443E+03  0.00000000000E+00 0.  1.
         25    2    1    2    0    0  0.65184949932E+02  0.13697218472E+02 -0.39819687956E+02  0.14720649549E+03  0.12508978085E+03 0.  0.
          5    1    3    3  502    0 -0.19402057684E+01 -0.43332042236E+02 -0.39815860233E+02  0.59027158231E+02  0.41800000000E+01 0.  1.
         -5    1    3    3    0  502  0.67125155700E+02  0.57029260708E+02 -0.38277227845E-02  0.88179337259E+02  0.41800000000E+01 0.  1.
        -11    1    1    2    0    0 -0.32428499181E+02  0.13120420772E+02 -0.20494237847E+03  0.20790654510E+03  0.00000000000E+00 0.  1.
         11    1    1    2    0    0 -0.32756450750E+02 -0.26817639244E+02 -0.26855352463E+02  0.50133629395E+02  0.00000000000E+00 0. -1.
</event>
<event>
 7    1  0.2749315E-009  0.1062662E+03  0.7561462E-02  0.1267645E+00
          1   -1    0    0  501    0  0.00000000000E+00  0.00000000000E+00  0.62385742956E+03  0.62385742956E+03  0.00000000000E+00 0. -1.
         -1   -1    0    0    0  501 -0.00000000000E+00 -0.00000000000E+00 -0.26030711504E+02  0.26030711504E+02  0.00000000000E+00 0.  1.
         25    2    1    2    0    0  0.55579325391E+02  0.30354549367E+02  0.38079830009E+03  0.40579000691E+03  0.12509086408E+03 0.  0.
          5    1    3    3  502    0 -0.13387827601E+02 -0.13792206805E+02  0.25419374854E+03  0.25495370774E+03  0.41800000000E+01 0.  1.
         -5    1    3    3    0  502  0.68967152992E+02  0.44146756173E+02  0.12660455156E+03  0.15083629917E+03  0.41800000000E+01 0.  1.
        -11    1    1    2    0    0  0.24388338205E+02 -0.17158269561E+02  0.72545298757E+02  0.78434798569E+02  0.00000000000E+00 0.  1.
         11    1    1    2    0    0 -0.79967663596E+02 -0.13196279806E+02  0.14448311921E+03  0.16566333559E+03  0.00000000000E+00 0. -1.
</event>
<event>
 7    1  0.2749315E-009  0.1021060E+03  0.7561462E-02  0.1275929E+00
         -4   -1    0    0    0  501 -0.00000000000E+00  0.00000000000E+00  0.20301509102E+03  0.20301509102E+03  0.00000000000E+00 0. -1.
          4   -1    0    0  501    0  0.00000000000E+00 -0.00000000000E+00 -0.85340217629E+02  0.85340217629E+02  0.00000000000E+00 0.  1.
         25    2    1    2    0    0  0.39924685186E+02 -0.57787045930E+02  0.91825207000E+02  0.17033140889E+03  0.12509035554E+03 0.  0.
          5    1    3    3  502    0 -0.18034663361E+02 -0.27599556813E+02 -0.21404598608E+02  0.39529910958E+02  0.41800000000E+01 0. -1.
         -5    1    3    3    0  502  0.57959348548E+02 -0.30187489117E+02  0.11322980561E+03  0.13080149793E+03  0.41800000000E+01 0. -1.
        -11    1    1    2    0    0  0.17978770390E+02  0.41682000905E+02 -0.12055552247E+02  0.46967666795E+02  0.00000000000E+00 0.  1.
         11    1    1    2    0    0 -0.57903455576E+02  0.16105045025E+02  0.37905218634E+02  0.71056232961E+02  0.00000000000E+00 0. -1.
</event>
<event>
 7    1  0.2749315E-009  0.7755009E+02  0.7561462E-02  0.1336151E+00
         -1   -1    0    0    0  501 -0.00000000000E+00  0.00000000000E+00  0.24836526951E+03  0.24836526951E+03  0.00000000000E+00 0.  1.
          1   -1    0    0  501    0  0.00000000000E+00 -0.00000000000E+00 -0.98989428044E+02  0.98989428044E+02  0.00000000000E+00 0. -1.
         25    2    1    2    0    0 -0.28028773996E+02 -0.24922744347E+02  0.19924615859E+03  0.23822965027E+03  0.12509028419E+03 0.  0.
          5    1    3    3  502    0 -0.14273290492E+02  0.23383287117E+02 -0.47352314234E+01  0.28114049059E+02  0.41800000000E+01 0. -1.
         -5    1    3    3    0  502 -0.13755483504E+02 -0.48306031464E+02  0.20398139001E+03  0.21011560121E+03  0.41800000000E+01 0. -1.
        -11    1    1    2    0    0  0.33846961787E+02  0.44872812122E+02 -0.63089763519E+02  0.84495587760E+02  0.00000000000E+00 0. -1.
         11    1    1    2    0    0 -0.58181877915E+01 -0.19950067776E+02  0.13219446403E+02  0.24629459528E+02  0.00000000000E+00 0.  1.
</event>
<event>
 7    1  0.2749315E-009  0.1064780E+03  0.7561462E-02  0.1267235E+00
         -1   -1    0    0    0  501 -0.00000000000E+00  0.00000000000E+00  0.67346522800E+02  0.67346522800E+02  0.00000000000E+00 0.  1.
          1   -1    0    0  501    0  0.00000000000E+00 -0.00000000000E+00 -0.26990675520E+03  0.26990675520E+03  0.00000000000E+00 0. -1.
         25    2    1    2    0    0 -0.32640961824E+02 -0.36860947198E+02 -0.36184360906E+02  0.13921037737E+03  0.12508420914E+03 0.  0.
          5    1    3    3  502    0 -0.43833615053E+02  0.22613124915E+02  0.22890395759E+02  0.54536060043E+02  0.41800000000E+01 0.  1.
         -5    1    3    3    0  502  0.11192653230E+02 -0.59474072112E+02 -0.59074756664E+02  0.84674317328E+02  0.41800000000E+01 0.  1.
        -11    1    1    2    0    0 -0.18701204589E+02  0.46889918006E+02 -0.53076407136E+02  0.73249603810E+02  0.00000000000E+00 0.  1.
         11    1    1    2    0    0  0.51342166413E+02 -0.10028970809E+02 -0.11329946436E+03  0.12479329682E+03  0.00000000000E+00 0. -1.
</event>
<event>
 7    1  0.4539881E-009  0.1383207E+03  0.7561462E-02  0.1215607E+00
          1   -1    0    0  501    0  0.00000000000E+00  0.00000000000E+00  0.19595371150E+03  0.19595371150E+03  0.00000000000E+00 0. -1.
         -1   -1    0    0    0  501 -0.00000000000E+00 -0.00000000000E+00 -0.14028850633E+03  0.14028850633E+03  0.00000000000E+00 0.  1.
         25    2    1    2    0    0  0.45324579197E+02  0.89080966295E+02 -0.46668054851E+02  0.16677978084E+03  0.12509137428E+03 0.  0.
          5    1    3    3  502    0 -0.35183648576E+02  0.27891636964E+02  0.15875868581E+02  0.47805315006E+02  0.41800000000E+01 0. -1.
         -5    1    3    3    0  502  0.80508227773E+02  0.61189329331E+02 -0.62543923432E+02  0.11897446584E+03  0.41800000000E+01 0. -1.
        -11    1    1    2    0    0 -0.40210235226E+02  0.89421617674E+00  0.12262355205E+02  0.42047924974E+02  0.00000000000E+00 0.  1.
         11    1    1    2    0    0 -0.51143439716E+01 -0.89975182472E+02  0.90070904823E+02  0.12741451201E+03  0.00000000000E+00 0. -1.
</event>
<event>
 7    1  0.2749315E-009  0.9972060E+02  0.7561462E-02  0.1280885E+00
          1   -1    0    0  501    0  0.00000000000E+00  0.00000000000E+00  0.31882365326E+02  0.31882365326E+02  0.00000000000E+00 0. -1.
         -1   -1    0    0    0  501 -0.00000000000E+00 -0.00000000000E+00 -0.40054504440E+03  0.40054504440E+03  0.00000000000E+00 0.  1.
         25    2    1    2    0    0  0.32164044510E+02 -0.18807489934E+02 -0.17708626343E+03  0.21998368923E+03  0.12508009993E+03 0.  0.
          5    1    3    3  502    0  0.72232878652E+02 -0.99220005938E+01 -0.55903617557E+02  0.91971309168E+02  0.41800000000E+01 0. -1.
         -5    1    3    3    0  502 -0.40068834141E+02 -0.88854893399E+01 -0.12118264587E+03  0.12801238007E+03  0.41800000000E+01 0. -1.
        -11    1    1    2    0    0 -0.12500734430E+02  0.48198780908E+02 -0.70516769846E+02  0.86325000271E+02  0.00000000000E+00 0. -1.
         11    1    1    2    0    0 -0.19663310080E+02 -0.29391290975E+02 -0.12105964580E+03  0.12611872022E+03  0.00000000000E+00 0.  1.
</event>
<event>
 7    1  0.2749315E-009  0.1522653E+03  0.7561462E-02  0.1197717E+00
         -1   -1    0    0    0  501 -0.00000000000E+00  0.00000000000E+00  0.12947393759E+03  0.12947393759E+03  0.00000000000E+00 0.  1.
          1   -1    0    0  501    0  0.00000000000E+00 -0.00000000000E+00 -0.23178409694E+03  0.23178409694E+03  0.00000000000E+00 0. -1.
         25    2    1    2    0    0  0.10336452037E+03  0.81396713698E+02 -0.22037224734E+02  0.18287342494E+03  0.12508957272E+03 0.  0.
          5    1    3    3  502    0  0.82631420194E+02 -0.94144027937E-01  0.25002793377E+02  0.86432473892E+02  0.41800000000E+01 0. -1.
         -5    1    3    3    0  502  0.20733100179E+02  0.81490857726E+02 -0.47040018111E+02  0.96440951052E+02  0.41800000000E+01 0. -1.
        -11    1    1    2    0    0 -0.42431797538E+02 -0.97282520203E+01  0.13481551140E+02  0.45572453860E+02  0.00000000000E+00 0.  1.
         11    1    1    2    0    0 -0.60932722835E+02 -0.71668461677E+02 -0.93754485754E+02  0.13281215573E+03  0.00000000000E+00 0. -1.
</event>
<event>
 7    1  0.2749315E-009  0.3198729E+03  0.7561462E-02  0.1075708E+00
         -2   -1    0    0    0  501 -0.00000000000E+00  0.00000000000E+00  0.90771419535E+02  0.90771419535E+02  0.00000000000E+00 0.  1.
          2   -1    0    0  501    0  0.00000000000E+00 -0.00000000000E+00 -0.12375781688E+04  0.12375781688E+04  0.00000000000E+00 0. -1.
         25    2    1    2    0    0 -0.21541289167E+03 -0.23181382708E+03 -0.58465793812E+03  0.67647020372E+03  0.12508664039E+03 0.  0.
          5    1    3    3  502    0 -0.13153496063E+03 -0.94005517406E+02 -0.39868158604E+03  0.43023593832E+03  0.41800000000E+01 0. -1.
         -5    1    3    3    0  502 -0.83877931040E+02 -0.13780830967E+03 -0.18597635207E+03  0.24623426541E+03  0.41800000000E+01 0. -1.
        -11    1    1    2    0    0  0.17201519540E+03  0.19133660613E+03 -0.51640322320E+03  0.57694992263E+03  0.00000000000E+00 0. -1.
         11    1    1    2    0    0  0.43397696267E+02  0.40477220949E+02 -0.45745587967E+02  0.74929461999E+02  0.00000000000E+00 0.  1.
</event>
<event>
 7    1  0.2749315E-009  0.1535600E+03  0.7561462E-02  0.1196165E+00
          2   -1    0    0  501    0  0.00000000000E+00  0.00000000000E+00  0.36932492206E+02  0.36932492206E+02  0.00000000000E+00 0. -1.
         -2   -1    0    0    0  501 -0.00000000000E+00 -0.00000000000E+00 -0.80927860501E+03  0.80927860501E+03  0.00000000000E+00 0.  1.
         25    2    1    2    0    0 -0.80697592643E+02  0.10275993104E+03 -0.32926814397E+03  0.37568237507E+03  0.12509209176E+03 0.  0.
          5    1    3    3  502    0 -0.10638093038E+03  0.82305418226E+02 -0.19188267993E+03  0.23436620805E+03  0.41800000000E+01 0.  1.
         -5    1    3    3    0  502  0.25683337741E+02  0.20454512812E+02 -0.13738546404E+03  0.14131616702E+03  0.41800000000E+01 0.  1.
        -11    1    1    2    0    0  0.13015672772E+02 -0.55247418329E+02 -0.79609585068E+02  0.97772035902E+02  0.00000000000E+00 0. -1.
         11    1    1    2    0    0  0.67681919871E+02 -0.47512512710E+02 -0.36346838377E+03  0.37275668625E+03  0.00000000000E+00 0.  1.
</event>
<event>
 7    1  0.2749315E-009  0.2245762E+03  0.7561462E-02  0.1130517E+00
          2   -1    0    0  501    0  0.00000000000E+00  0.00000000000E+00  0.16010184888E+04  0.16010184888E+04  0.00000000000E+00 0.  1.
         -2   -1    0    0    0  501 -0.00000000000E+00 -0.00000000000E+00 -0.35681431723E+02  0.35681431723E+02  0.00000000000E+00 0. -1.
         25    2    1    2    0    0  0.18842952384E+03 -0.69806158315E+02  0.10442252276E+04  0.10707162544E+04  0.12509350935E+03 0.  0.
          5    1    3    3  502    0  0.51671090098E+02 -0.75470774402E+02  0.28837485149E+03  0.30256117847E+03  0.41800000000E+01 0.  1.
         -5    1    3    3    0  502  0.13675843375E+03  0.56646160866E+01  0.75585037615E+03  0.76815507588E+03  0.41800000000E+01 0.  1.
        -11    1    1    2    0    0 -0.16686969793E+03  0.22132629334E+02  0.40775419028E+03  0.44113357281E+03  0.00000000000E+00 0.  1.
         11    1    1    2    0    0 -0.21559825914E+02  0.47673528981E+02  0.11335763915E+03  0.12485009336E+03  0.00000000000E+00 0. -1.
</event>
<event>
 7    1  0.2749315E-009  0.9633467E+02  0.7561462E-02  0.1288198E+00
          2   -1    0    0  501    0  0.00000000000E+00  0.00000000000E+00  0.73649118342E+03  0.73649118342E+03  0.00000000000E+00 0. -1.
         -2   -1    0    0    0  501 -0.00000000000E+00 -0.00000000000E+00 -0.23007120296E+02  0.23007120296E+02  0.00000000000E+00 0.  1.
         25    2    1    2    0    0  0.94355452357E+01 -0.23753880560E+02  0.59382307174E+03  0.60739238241E+03  0.12508552805E+03 0.  0.
          5    1    3    3  502    0  0.55890676297E+02  0.63924449598E+01  0.44469703702E+03  0.44826059182E+03  0.41800000000E+01 0. -1.
         -5    1    3    3    0  502 -0.46455131062E+02 -0.30146325520E+02  0.14912603472E+03  0.15913179059E+03  0.41800000000E+01 0. -1.
        -11    1    1    2    0    0 -0.69111875459E+01  0.51952848618E+02  0.35477424765E+02  0.63289103808E+02  0.00000000000E+00 0.  1.
         11    1    1    2    0    0 -0.25243576897E+01 -0.28198968058E+02  0.84183566622E+02  0.88816817498E+02  0.00000000000E+00 0. -1.
</event>
<event>
 7    1  0.2749315E-009  0.9737486E+02  0.7561462E-02  0.1285915E+00
         -2   -1    0    0    0  501 -0.00000000000E+00  0.00000000000E+00  0.13872231534E+02  0.13872231534E+02  0.00000000000E+00 0.  1.
          2   -1    0    0  501    0  0.00000000000E+00 -0.00000000000E+00 -0.10489562640E+04  0.10489562640E+04  0.00000000000E+00 0. -1.
         25    2    1    2    0    0  0.27009073933E+02 -0.23446072585E+02 -0.68004861689E+03  0.69238261893E+03  0.12509341020E+03 0.  0.
          5    1    3    3  502    0 -0.19181929300E+02  0.22379201622E+02 -0.50011787199E+03  0.50100312710E+03  0.41800000000E+01 0.  1.
         -5    1    3    3    0  502  0.46191003233E+02 -0.45825274207E+02 -0.17993074490E+03  0.19137949184E+03  0.41800000000E+01 0.  1.
        -11    1    1    2    0    0 -0.64623227086E+01 -0.36159426787E+02 -0.19518392004E+03  0.19861024244E+03  0.00000000000E+00 0.  1.
         11    1    1    2    0    0 -0.20546751224E+02  0.59605499373E+02 -0.15985149552E+03  0.17183563415E+03  0.00000000000E+00 0. -1.
</event>
<event>
 7    1  0.2749315E-009  0.1433078E+03  0.7561462E-02  0.1208946E+00
          1   -1    0    0  501    0  0.00000000000E+00  0.00000000000E+00  0.15520535465E+02  0.15520535465E+02  0.00000000000E+00 0. -1.
         -1   -1    0    0    0  501 -0.00000000000E+00 -0.00000000000E+00 -0.13958106537E+04  0.13958106537E+04  0.00000000000E+00 0.  1.
         25    2    1    2    0    0  0.80084082443E+02  0.51099500331E+02 -0.89878790168E+03  0.91240884983E+03  0.12508236420E+03 0.  0.
          5    1    3    3  502    0 -0.34819875388E+01  0.70707339647E+02 -0.43016588219E+03  0.43597225911E+03  0.41800000000E+01 0.  1.
         -5    1    3    3    0  502  0.83566069981E+02 -0.19607839317E+02 -0.46862201949E+03  0.47643659071E+03  0.41800000000E+01 0.  1.
        -11    1    1    2    0    0 -0.83956691383E+02 -0.56486936212E+01 -0.28291774104E+03  0.29516619380E+03  0.00000000000E+00 0. -1.
         11    1    1    2    0    0  0.38726089402E+01 -0.45450806709E+02 -0.19858447553E+03  0.20375614556E+03  0.00000000000E+00 0.  1.
</event>
<event>
 7    1  0.2749315E-009  0.1184801E+03  0.7561462E-02  0.1245626E+00
          1   -1    0    0  501    0  0.00000000000E+00  0.00000000000E+00  0.65681471336E+03  0.65681471336E+03  0.00000000000E+00 0. -1.
         -1   -1    0    0    0  501 -0.00000000000E+00 -0.00000000000E+00 -0.24370534180E+02  0.24370534180E+02  0.00000000000E+00 0.  1.
         25    2    1    2    0    0 -0.57270760836E+02 -0.13660634420E+02  0.31820330915E+03  0.34693532680E+03  0.12507686456E+03 0.  0.
          5    1    3    3  502    0 -0.81295275935E+02  0.30695249077E+02  0.18486175989E+03  0.20430972291E+03  0.41800000000E+01 0. -1.
         -5    1    3    3    0  502  0.24024515099E+02 -0.44355883498E+02  0.13334154926E+03  0.14262560389E+03  0.41800000000E+01 0. -1.
        -11    1    1    2    0    0  0.30832588310E+02  0.47360531300E+02  0.25475356656E+03  0.26094644681E+03  0.00000000000E+00 0.  1.
         11    1    1    2    0    0  0.26438172525E+02 -0.33699896880E+02  0.59487303469E+02  0.73303473930E+02  0.00000000000E+00 0. -1.
</event>
<event>
 7    1  0.2749315E-009  0.9875246E+02  0.7561462E-02  0.1282941E+00
         -2   -1    0    0    0  501 -0.00000000000E+00  0.00000000000E+00  0.96085544692E+02  0.96085544692E+02  0.00000000000E+00 0.  1.
          2   -1    0    0  501    0  0.00000000000E+00 -0.00000000000E+00 -0.14427023220E+03  0.14427023220E+03  0.00000000000E+00 0. -1.
         25    2    1    2    0    0 -0.28361945382E+02 -0.31868249815E+02 -0.42146054269E+02  0.13872226368E+03  0.12509033239E+03 0.  0.
          5    1    3    3  502    0  0.33038927138E+02  0.80492260675E+01  0.22465200991E+02  0.40969725436E+02  0.41800000000E+01 0.  1.
         -5    1    3    3    0  502 -0.61400872520E+02 -0.39917475883E+02 -0.64611255260E+02  0.97752538245E+02  0.41800000000E+01 0.  1.
        -11    1    1    2    0    0  0.34706669590E+02  0.55478874414E+02  0.17453280215E+02  0.67727951472E+02  0.00000000000E+00 0.  1.
         11    1    1    2    0    0 -0.63447242078E+01 -0.23610624599E+02 -0.23491913452E+02  0.33905561739E+02  0.00000000000E+00 0. -1.
</event>
<event>
 7    1  0.2749315E-009  0.1048631E+03  0.7561462E-02  0.1270390E+00
         -3   -1    0    0    0  501 -0.00000000000E+00  0.00000000000E+00  0.13075282310E+03  0.13075282310E+03  0.00000000000E+00 0.  1.
          3   -1    0    0  501    0  0.00000000000E+00 -0.00000000000E+00 -0.10904006261E+03  0.10904006261E+03  0.00000000000E+00 0. -1.
         25    2    1    2    0    0  0.31158092470E+02 -0.38016671996E+02  0.53440030706E+01  0.13451140734E+03  0.12509462922E+03 0.  0.
          5    1    3    3  502    0  0.60754265036E+02 -0.65593666867E+02 -0.11988191318E+02  0.90303925630E+02  0.41800000000E+01 0.  1.
         -5    1    3    3    0  502 -0.29596172566E+02  0.27576994871E+02  0.17332194388E+02  0.44207481709E+02  0.41800000000E+01 0.  1.
        -11    1    1    2    0    0 -0.66145197798E+01  0.51246198686E+02  0.42624235691E+02  0.66983208493E+02  0.00000000000E+00 0.  1.
         11    1    1    2    0    0 -0.24543572690E+02 -0.13229526690E+02 -0.26255478264E+02  0.38298269879E+02  0.00000000000E+00 0. -1.
</event>
<event>
 7    1  0.2749315E-009  0.1125689E+03  0.7561462E-02  0.1255885E+00
          2   -1    0    0  501    0  0.00000000000E+00  0.00000000000E+00  0.12052888382E+03  0.12052888382E+03  0.00000000000E+00 0.  1.
         -2   -1    0    0    0  501 -0.00000000000E+00 -0.00000000000E+00 -0.13728329110E+03  0.13728329110E+03  0.00000000000E+00 0. -1.
         25    2    1    2    0    0  0.37258001488E+02 -0.40493335479E+02 -0.51364146162E+02  0.14598731565E+03  0.12508457909E+03 0.  0.
          5    1    3    3  502    0  0.29933335515E+02 -0.84412912125E+02 -0.21473854451E+02  0.92196220820E+02  0.41800000000E+01 0. -1.
         -5    1    3    3    0  502  0.73246659728E+01  0.43919576646E+02 -0.29890291711E+02  0.53791094829E+02  0.41800000000E+01 0. -1.
        -11    1    1    2    0    0 -0.19820014828E+02  0.60823321273E+02  0.49766595271E+02  0.81049512049E+02  0.00000000000E+00 0.  1.
         11    1    1    2    0    0 -0.17437986660E+02 -0.20329985794E+02 -0.15156856385E+02  0.30775347221E+02  0.00000000000E+00 0. -1.
</event>
<event>
 7    1  0.2749315E-009  0.9030791E+02  0.7561462E-02  0.1302108E+00
          3   -1    0    0  501    0  0.00000000000E+00  0.00000000000E+00  0.32609625041E+02  0.32609625041E+02  0.00000000000E+00 0. -1.
         -3   -1    0    0    0  501 -0.00000000000E+00 -0.00000000000E+00 -0.44572976273E+03  0.44572976273E+03  0.00000000000E+00 0.  1.
         25    2    1    2    0    0  0.46305265480E+02  0.24534405984E+02 -0.23206255001E+03  0.26878469335E+03  0.12508424989E+03 0.  0.
          5    1    3    3  502    0  0.69593577534E+02  0.20074028210E+02 -0.57512337983E+02  0.92581715597E+02  0.41800000000E+01 0. -1.
         -5    1    3    3    0  502 -0.23288312054E+02  0.44603777747E+01 -0.17455021203E+03  0.17620297775E+03  0.41800000000E+01 0. -1.
        -11    1    1    2    0    0  0.88256579060E+01 -0.27395546658E+02 -0.13387420204E+03  0.13693323259E+03  0.00000000000E+00 0.  1.
         11    1    1    2    0    0 -0.55130923386E+02  0.28611406739E+01 -0.47183385630E+02  0.72621461834E+02  0.00000000000E+00 0. -1.
</event>
<event>
 7    1  0.2749315E-009  0.6716574E+02  0.7561462E-02  0.1370005E+00
         -3   -1    0    0    0  501 -0.00000000000E+00  0.00000000000E+00  0.15695346080E+02  0.15695346080E+02  0.00000000000E+00 0.  1.
          3   -1    0    0  501    0  0.00000000000E+00 -0.00000000000E+00 -0.89557997135E+03  0.89557997135E+03  0.00000000000E+00 0. -1.
         25    2    1    2    0    0 -0.20279513253E+02 -0.19486665954E+01 -0.59994085180E+03  0.61318086740E+03  0.12508674801E+03 0.  0.
          5    1    3    3  502    0 -0.40307628728E+01 -0.12412807696E+02 -0.59153678945E+03  0.59169550490E+03  0.41800000000E+01 0. -1.
         -5    1    3    3    0  502 -0.16248750381E+02  0.10464141100E+02 -0.84040623519E+01  0.21485362504E+02  0.41800000000E+01 0. -1.
        -11    1    1    2    0    0  0.34858830303E+02  0.44122634903E+02 -0.12971860006E+03  0.14138196548E+03  0.00000000000E+00 0.  1.
         11    1    1    2    0    0 -0.14579317050E+02 -0.42173968307E+02 -0.15022517342E+03  0.15671248456E+03  0.00000000000E+00 0. -1.
</event>
<event>
 7    1  0.2749315E-009  0.2256819E+03  0.7561462E-02  0.1129717E+00
          1   -1    0    0  501    0  0.00000000000E+00  0.00000000000E+00  0.56087326649E+03  0.56087326649E+03  0.00000000000E+00 0. -1.
         -1   -1    0    0    0  501 -0.00000000000E+00 -0.00000000000E+00 -0.99132754100E+02  0.99132754100E+02  0.00000000000E+00 0.  1.
         25    2    1    2    0    0  0.19111474708E+03 -0.81809243349E+02  0.20907361475E+03  0.32028181225E+03  0.12510421266E+03 0.  0.
          5    1    3    3  502    0 -0.54106601870E+01  0.19064394144E+02  0.88117753294E+01  0.22087239579E+02  0.41800000000E+01 0.  1.
         -5    1    3    3    0  502  0.19652540727E+03 -0.10087363749E+03  0.20026183942E+03  0.29819457267E+03  0.41800000000E+01 0.  1.
        -11    1    1    2    0    0 -0.15191095778E+03  0.78040371082E+02  0.24646600264E+03  0.29985451317E+03  0.00000000000E+00 0. -1.
         11    1    1    2    0    0 -0.39203789308E+02  0.37688722672E+01  0.62008950070E+01  0.39869695173E+02  0.00000000000E+00 0.  1.
</event>
<event>
 7    1  0.2749315E-009  0.1771578E+03  0.7561462E-02  0.1170582E+00
          2   -1    0    0  501    0  0.00000000000E+00  0.00000000000E+00  0.12680863791E+03  0.12680863791E+03  0.00000000000E+00 0.  1.
         -2   -1    0    0    0  501 -0.00000000000E+00 -0.00000000000E+00 -0.41087674882E+03  0.41087674882E+03  0.00000000000E+00 0. -1.
         25    2    1    2    0    0 -0.99632239130E+02  0.11681233612E+03  0.37369101034E+01  0.19807177808E+03  0.12508700904E+03 0.  0.
          5    1    3    3  502    0 -0.13042785643E+02 -0.24741272933E+02 -0.13222468662E+02  0.31217798148E+02  0.41800000000E+01 0.  1.
         -5    1    3    3    0  502 -0.86589453487E+02  0.14155360906E+03  0.16959378765E+02  0.16685397994E+03  0.41800000000E+01 0.  1.
        -11    1    1    2    0    0  0.42945335566E+02 -0.84525543306E+02 -0.24197935502E+03  0.25989012596E+03  0.00000000000E+00 0. -1.
         11    1    1    2    0    0  0.56686903564E+02 -0.32286792819E+02 -0.45825665999E+02  0.79723482679E+02  0.00000000000E+00 0.  1.
</event>
<event>
 7    1  0.2749315E-009  0.9087537E+02  0.7561462E-02  0.1300746E+00
          1   -1    0    0  501    0  0.00000000000E+00  0.00000000000E+00  0.98383056506E+02  0.98383056506E+02  0.00000000000E+00 0. -1.
         -1   -1    0    0    0  501 -0.00000000000E+00 -0.00000000000E+00 -0.14369496738E+03  0.14369496738E+03  0.00000000000E+00 0.  1.
         25    2    1    2    0    0  0.40111107274E+02  0.19570209598E+02 -0.49604844486E+02  0.14177422681E+03  0.12508955497E+03 0.  0.
          5    1    3    3  502    0  0.50654328894E+02 -0.44198713800E+02 -0.18082904081E+02  0.69741315999E+02  0.41800000000E+01 0.  1.
         -5    1    3    3    0  502 -0.10543221620E+02  0.63768923398E+02 -0.31521940404E+02  0.72032910814E+02  0.41800000000E+01 0.  1.
        -11    1    1    2    0    0 -0.11907640416E+02  0.43159298164E+01  0.44160041005E+02  0.45940487286E+02  0.00000000000E+00 0. -1.
         11    1    1    2    0    0 -0.28203466858E+02 -0.23886139414E+02 -0.39867107391E+02  0.54363309784E+02  0.00000000000E+00 0.  1.
</event>
<event>
 7    1  0.2749315E-009  0.1467861E+03  0.7561462E-02  0.1204479E+00
         -2   -1    0    0    0  501 -0.00000000000E+00  0.00000000000E+00  0.57043837888E+02  0.57043837888E+02  0.00000000000E+00 0.  1.
          2   -1    0    0  501    0  0.00000000000E+00 -0.00000000000E+00 -0.67302596877E+03  0.67302596877E+03  0.00000000000E+00 0. -1.
         25    2    1    2    0    0 -0.13315676662E+03 -0.14118789355E+02 -0.49301265374E+03  0.52596453293E+03  0.12508856240E+03 0.  0.
          5    1    3    3  502    0 -0.56813049902E+02  0.33335862739E+00 -0.48869909720E+02  0.75057139855E+02  0.41800000000E+01 0. -1.
         -5    1    3    3    0  502 -0.76343716719E+02 -0.14452147983E+02 -0.44414274402E+03  0.45090739307E+03  0.41800000000E+01 0. -1.
        -11    1    1    2    0    0  0.91112081857E+02  0.49635149260E+02 -0.57669800191E+02  0.11870495085E+03  0.00000000000E+00 0. -1.
         11    1    1    2    0    0  0.42044684764E+02 -0.35516359905E+02 -0.65299676955E+02  0.85400322881E+02  0.00000000000E+00 0.  1.
</event>
<event>
 7    1  0.2749315E-009  0.7648733E+02  0.7561462E-02  0.1339326E+00
          1   -1    0    0  501    0  0.00000000000E+00  0.00000000000E+00  0.99460989859E+02  0.99460989859E+02  0.00000000000E+00 0. -1.
         -1   -1    0    0    0  501 -0.00000000000E+00 -0.00000000000E+00 -0.17818210420E+03  0.17818210420E+03  0.00000000000E+00 0.  1.
         25    2    1    2    0    0 -0.13132436677E+02  0.41881881494E+02  0.21599221171E+02  0.13431503348E+03  0.12508976366E+03 0.  0.
          5    1    3    3  502    0 -0.27265023432E+02 -0.24483232226E+02  0.48734748482E+02  0.61117577443E+02  0.41800000000E+01 0.  1.
         -5    1    3    3    0  502  0.14132586755E+02  0.66365113720E+02 -0.27135527311E+02  0.73197456035E+02  0.41800000000E+01 0.  1.
        -11    1    1    2    0    0 -0.44099977135E+01 -0.17668612309E+02  0.15373978008E+02  0.23832480789E+02  0.00000000000E+00 0. -1.
         11    1    1    2    0    0  0.17542434390E+02 -0.24213269185E+02 -0.11569431352E+03  0.11949557979E+03  0.00000000000E+00 0.  1.
</event>
<event>
 7    1  0.2749315E-009  0.1058073E+03  0.7561462E-02  0.1268537E+00
         -1   -1    0    0    0  501 -0.00000000000E+00  0.00000000000E+00  0.17265872969E+03  0.17265872969E+03  0.00000000000E+00 0.  1.
          1   -1    0    0  501    0  0.00000000000E+00 -0.00000000000E+00 -0.75858433804E+02  0.75858433804E+02  0.00000000000E+00 0. -1.
         25    2    1    2    0    0  0.12924035352E+02  0.36589622834E+02  0.62432919966E+02  0.14509166271E+03  0.12509152610E+03 0.  0.
          5    1    3    3  502    0 -0.11722318330E+02  0.71992153356E+02  0.51222777249E+01  0.73239286049E+02  0.41800000000E+01 0. -1.
         -5    1    3    3    0  502  0.24646353682E+02 -0.35402530522E+02  0.57310642241E+02  0.71852376657E+02  0.41800000000E+01 0. -1.
        -11    1    1    2    0    0  0.36245139886E+02 -0.45516934213E+01  0.24262947635E+01  0.36610312545E+02  0.00000000000E+00 0.  1.
         11    1    1    2    0    0 -0.49169175238E+02 -0.32037929413E+02  0.31941081160E+02  0.66815188246E+02  0.00000000000E+00 0. -1.
</event>
<event>
 7    1  0.2749315E-009  0.9873179E+02  0.7561462E-02  0.1282986E+00
         -1   -1    0    0    0  501 -0.00000000000E+00  0.00000000000E+00  0.79068027406E+02  0.79068027406E+02  0.00000000000E+00 0.  1.
          1   -1    0    0  501    0  0.00000000000E+00 -0.00000000000E+00 -0.22297636783E+03  0.22297636783E+03  0.00000000000E+00 0. -1.
         25    2    1    2    0    0  0.32328550911E+02 -0.67307634628E+02 -0.98152975581E+02  0.17566266853E+03  0.12509162088E+03 0.  0.
          5    1    3    3  502    0 -0.15277410407E+02 -0.69525836158E+02 -0.56621449588E+01  0.71531625508E+02  0.41800000000E+01 0.  1.
         -5    1    3    3    0  502  0.47605961318E+02  0.22182015306E+01 -0.92490830622E+02  0.10413104302E+03  0.41800000000E+01 0.  1.
        -11    1    1    2    0    0 -0.10000426151E+02  0.47265793023E+02  0.21391644963E+02  0.52836220413E+02  0.00000000000E+00 0.  1.
         11    1    1    2    0    0 -0.22328124760E+02  0.20041841605E+02 -0.67147009805E+02  0.73545506294E+02  0.00000000000E+00 0. -1.
</event>
<event>
 7    1  0.2749315E-009  0.1627829E+03  0.7561462E-02  0.1185590E+00
         -2   -1    0    0    0  501 -0.00000000000E+00  0.00000000000E+00  0.20939986548E+02  0.20939986548E+02  0.00000000000E+00 0.  1.
          2   -1    0    0  501    0  0.00000000000E+00 -0.00000000000E+00 -0.15396308497E+04  0.15396308497E+04  0.00000000000E+00 0. -1.
         25    2    1    2    0    0 -0.17780191280E+02  0.13092015250E+03 -0.10502436609E+04  0.10658850502E+04  0.12507186508E+03 0.  0.
          5    1    3    3  502    0 -0.44535182674E+02  0.13262461552E+03 -0.65889353238E+03  0.67359545021E+03  0.41800000000E+01 0. -1.
         -5    1    3    3    0  502  0.26754991394E+02 -0.17044630218E+01 -0.39135012856E+03  0.39228960002E+03  0.41800000000E+01 0. -1.
        -11    1    1    2    0    0 -0.20763949319E+02 -0.11484334844E+03 -0.36160617051E+03  0.37997257641E+03  0.00000000000E+00 0.  1.
         11    1    1    2    0    0  0.38544140599E+02 -0.16076804056E+02 -0.10684103174E+03  0.11471320964E+03  0.00000000000E+00 0. -1.
</event>
<event>
 7    1  0.2749315E-009  0.2354319E+03  0.7561462E-02  0.1122874E+00
          2   -1    0    0  501    0  0.00000000000E+00  0.00000000000E+00  0.14266869002E+03  0.14266869002E+03  0.00000000000E+00 0. -1.
         -2   -1    0    0    0  501 -0.00000000000E+00 -0.00000000000E+00 -0.41623227567E+03  0.41623227567E+03  0.00000000000E+00 0.  1.
         25    2    1    2    0    0  0.11195675517E+03 -0.18766687690E+03 -0.13103200482E+03  0.28384981491E+03  0.12509260338E+03 0.  0.
          5    1    3    3  502    0  0.13675105465E+03 -0.13270093205E+03 -0.10867198228E+03  0.21940250784E+03  0.41800000000E+01 0.  1.
         -5    1    3    3    0  502 -0.24794299479E+02 -0.54965944845E+02 -0.22360022544E+02  0.64447307062E+02  0.41800000000E+01 0.  1.
        -11    1    1    2    0    0 -0.84462801023E+02  0.11965871736E+03 -0.45417256824E+02  0.15334568991E+03  0.00000000000E+00 0. -1.
         11    1    1    2    0    0 -0.27493954150E+02  0.68008159535E+02 -0.97114324005E+02  0.12170546087E+03  0.00000000000E+00 0.  1.
</event>
<event>
 7    1  0.2749315E-009  0.7153750E+02  0.7561462E-02  0.1354941E+00
          1   -1    0    0  501    0  0.00000000000E+00  0.00000000000E+00  0.18318194787E+03  0.18318194787E+03  0.00000000000E+00 0. -1.
         -1   -1    0    0    0  501 -0.00000000000E+00 -0.00000000000E+00 -0.74148218563E+02  0.74148218563E+02  0.00000000000E+00 0.  1.
         25    2    1    2    0    0  0.39241553207E+02  0.98875919293E-01  0.72059943552E+02  0.14959962085E+03  0.12508997490E+03 0.  0.
          5    1    3    3  502    0  0.53641917337E+02  0.29075187027E+02 -0.93747814844E+01  0.61872293671E+02  0.41800000000E+01 0. -1.
         -5    1    3    3    0  502 -0.14400364129E+02 -0.28976311107E+02  0.81434725037E+02  0.87727327181E+02  0.41800000000E+01 0. -1.
        -11    1    1    2    0    0 -0.37894140001E+02 -0.10085846355E+02 -0.23969973213E+02  0.45959218432E+02  0.00000000000E+00 0.  1.
         11    1    1    2    0    0 -0.13474132065E+01  0.99869704355E+01  0.60943758966E+02  0.61771327149E+02  0.00000000000E+00 0. -1.
</event>
<event>
 7    1  0.2749315E-009  0.7654346E+02  0.7561462E-02  0.1339157E+00
         -3   -1    0    0    0  501 -0.00000000000E+00  0.00000000000E+00  0.70731191545E+02  0.70731191545E+02  0.00000000000E+00 0.  1.
          3   -1    0    0  501    0  0.00000000000E+00 -0.00000000000E+00 -0.25982969321E+03  0.25982969321E+03  0.00000000000E+00 0. -1.
         25    2    1    2    0    0 -0.55485142713E+02  0.13871241740E+02 -0.35016320164E+02  0.14193245978E+03  0.12509063935E+03 0.  0.
          5    1    3    3  502    0 -0.63855101996E+02 -0.50966535715E+00 -0.74900164268E+02  0.98515180643E+02  0.41800000000E+01 0.  1.
         -5    1    3    3    0  502  0.83699592835E+01  0.14380907097E+02  0.39883844103E+02  0.43417279139E+02  0.41800000000E+01 0.  1.
        -11    1    1    2    0    0  0.25219818407E+02  0.15631260894E+02 -0.85987195668E+00  0.29683580265E+02  0.00000000000E+00 0.  1.
         11    1    1    2    0    0  0.30265324306E+02 -0.29502502634E+02 -0.15322230954E+03  0.15894484471E+03  0.00000000000E+00 0. -1.
</event>
<event>
 7    1  0.2749315E-009  0.1174781E+03  0.7561462E-02  0.1247316E+00
          2   -1    0    0  501    0  0.00000000000E+00  0.00000000000E+00  0.56078853542E+03  0.56078853542E+03  0.00000000000E+00 0. -1.
         -2   -1    0    0    0  501 -0.00000000000E+00 -0.00000000000E+00 -0.47897433354E+02  0.47897433354E+02  0.00000000000E+00 0.  1.
         25    2    1    2    0    0  0.58277820920E+02 -0.85540919042E+02  0.15228891229E+03  0.22260451178E+03  0.12508917866E+03 0.  0.
          5    1    3    3  502    0 -0.11334281194E+02 -0.19452717698E+02  0.11860162176E+03  0.12079193368E+03  0.41800000000E+01 0.  1.
         -5    1    3    3    0  502  0.69612102114E+02 -0.66088201344E+02  0.33687290521E+02  0.10181257810E+03  0.41800000000E+01 0.  1.
        -11    1    1    2    0    0 -0.49868766042E+02  0.26749858230E+02  0.28168891311E+03  0.28731705921E+03  0.00000000000E+00 0. -1.
         11    1    1    2    0    0 -0.84090548786E+01  0.58791060812E+02  0.78913276668E+02  0.98764397785E+02  0.00000000000E+00 0.  1.
</event>
<event>
 7    1  0.2749315E-009  0.1668876E+03  0.7561462E-02  0.1181133E+00
          1   -1    0    0  501    0  0.00000000000E+00  0.00000000000E+00  0.49461559147E+03  0.49461559147E+03  0.00000000000E+00 0. -1.
         -1   -1    0    0    0  501 -0.00000000000E+00 -0.00000000000E+00 -0.67959026356E+02  0.67959026356E+02  0.00000000000E+00 0.  1.
         25    2    1    2    0    0 -0.68465134268E+02  0.10860390922E+03  0.33718803535E+03  0.38187539742E+03  0.12510301461E+03 0.  0.
          5    1    3    3  502    0 -0.99838013223E+02  0.10840556234E+03  0.28376819163E+03  0.31978313560E+03  0.41800000000E+01 0. -1.
         -5    1    3    3    0  502  0.31372878955E+02  0.19834687785E+00  0.53419843722E+02  0.62092261826E+02  0.41800000000E+01 0. -1.
        -11    1    1    2    0    0  0.71095253141E+02 -0.31870763469E+02  0.29626714179E+02  0.83354800560E+02  0.00000000000E+00 0.  1.
         11    1    1    2    0    0 -0.26301188735E+01 -0.76733145751E+02  0.59841815579E+02  0.97344419840E+02  0.00000000000E+00 0. -1.
</event>
<event>
 7    1  0.2749315E-009  0.1519512E+03  0.7561462E-02  0.1198096E+00
          4   -1    0    0  501    0  0.00000000000E+00  0.00000000000E+00  0.12359535168E+04  0.12359535168E+04  0.00000000000E+00 0. -1.
         -4   -1    0    0    0  501 -0.00000000000E+00 -0.00000000000E+00 -0.27166513843E+02  0.27166513843E+02  0.00000000000E+00 0.  1.
         25    2    1    2    0    0 -0.14580055305E+03  0.16372433457E+01  0.67749648614E+03  0.70420862295E+03  0.12509122296E+03 0.  0.
          5    1    3    3  502    0 -0.81159290337E+02  0.22604848085E+02  0.14798177066E+03  0.17033463069E+03  0.41800000000E+01 0.  1.
         -5    1    3    3    0  502 -0.64641262712E+02 -0.20967604739E+02  0.52951471549E+03  0.53387399226E+03  0.41800000000E+01 0.  1.
        -11    1    1    2    0    0  0.11870865055E+03  0.15030432178E+02  0.50063219618E+03  0.51473318667E+03  0.00000000000E+00 0. -1.
         11    1    1    2    0    0  0.27091902502E+02 -0.16667675523E+02  0.30658320613E+02  0.44178221007E+02  0.00000000000E+00 0.  1.
</event>
<event>
 7    1  0.2749315E-009  0.1575736E+03  0.7561462E-02  0.1191464E+00
          1   -1    0    0  501    0  0.00000000000E+00  0.00000000000E+00  0.63540577258E+03  0.63540577258E+03  0.00000000000E+00 0. -1.
         -1   -1    0    0    0  501 -0.00000000000E+00 -0.00000000000E+00 -0.51428859473E+02  0.51428859473E+02  0.00000000000E+00 0.  1.
         25    2    1    2    0    0 -0.12397369801E+03 -0.56310315759E+02  0.40011761745E+03  0.44077344339E+03  0.12508713419E+03 0.  0.
          5    1    3    3  502    0 -0.10432383678E+03 -0.90479253750E+02  0.25136674709E+03  0.28683213248E+03  0.41800000000E+01 0. -1.
         -5    1    3    3    0  502 -0.19649861222E+02  0.34168937991E+02  0.14875087036E+03  0.15394131091E+03  0.41800000000E+01 0. -1.
        -11    1    1    2    0    0  0.47626097836E+02  0.12141249193E+02  0.13832579077E+03  0.14679809099E+03  0.00000000000E+00 0. -1.
         11    1    1    2    0    0  0.76347600171E+02  0.44169066566E+02  0.45533504887E+02  0.99263097677E+02  0.00000000000E+00 0.  1.
</event>
<event>
 7    1  0.2749315E-009  0.8573213E+02  0.7561462E-02  0.1313529E+00
         -1   -1    0    0    0  501 -0.00000000000E+00  0.00000000000E+00  0.15923586496E+03  0.15923586496E+03  0.00000000000E+00 0.  1.
          1   -1    0    0  501    0  0.00000000000E+00 -0.00000000000E+00 -0.84024486763E+02  0.84024486763E+02  0.00000000000E+00 0. -1.
         25    2    1    2    0    0  0.13268557704E+02 -0.13329070054E+02  0.31294324257E+01  0.12653550668E+03  0.12509085646E+03 0.  0.
          5    1    3    3  502    0 -0.54105504327E+02  0.91395414816E+01  0.58340718467E+01  0.55339367644E+02  0.41800000000E+01 0. -1.
         -5    1    3    3    0  502  0.67374062031E+02 -0.22468611535E+02 -0.27046394210E+01  0.71196139033E+02  0.41800000000E+01 0. -1.
        -11    1    1    2    0    0  0.12095854080E+02  0.15693643493E+02  0.85615685541E+02  0.87878585233E+02  0.00000000000E+00 0.  1.
         11    1    1    2    0    0 -0.25364411784E+02 -0.23645734395E+01 -0.13533739773E+02  0.28846259809E+02  0.00000000000E+00 0. -1.
</event>
<event>
 7    1  0.2749315E-009  0.7728034E+02  0.7561462E-02  0.1336952E+00
          1   -1    0    0  501    0  0.00000000000E+00  0.00000000000E+00  0.77221443103E+03  0.77221443103E+03  0.00000000000E+00 0. -1.
         -1   -1    0    0    0  501 -0.00000000000E+00 -0.00000000000E+00 -0.18367554497E+02  0.18367554497E+02  0.00000000000E+00 0.  1.
         25    2    1    2    0    0 -0.11542390475E+02 -0.46780507180E+02  0.42802860030E+03  0.44852874839E+03  0.12509161772E+03 0.  0.
          5    1    3    3  502    0 -0.48880232756E+01 -0.39703335060E+02  0.29548288677E+02  0.49908129099E+02  0.41800000000E+01 0. -1.
         -5    1    3    3    0  502 -0.66543671998E+01 -0.70771721203E+01  0.39848031163E+03  0.39862061929E+03  0.41800000000E+01 0. -1.
        -11    1    1    2    0    0  0.51227834078E+02  0.16412129475E+02  0.18315830644E+03  0.19089424872E+03  0.00000000000E+00 0. -1.
         11    1    1    2    0    0 -0.39685443602E+02  0.30368377705E+02  0.14265996979E+03  0.15115898842E+03  0.00000000000E+00 0.  1.
</event>
<event>
 7    1  0.2749315E-009  0.9698332E+02  0.7561462E-02  0.1286771E+00
          3   -1    0    0  501    0  0.00000000000E+00  0.00000000000E+00  0.37925416684E+03  0.37925416684E+03  0.00000000000E+00 0. -1.
         -3   -1    0    0    0  501 -0.00000000000E+00 -0.00000000000E+00 -0.39735949461E+02  0.39735949461E+02  0.00000000000E+00 0.  1.
         25    2    1    2    0    0 -0.30831557848E+02 -0.45398092071E+02  0.15668384704E+03  0.20786809536E+03  0.12509094859E+03 0.  0.
          5    1    3    3  502    0  0.95406844669E+01 -0.68940453656E+02  0.14283776247E+03  0.15894624751E+03  0.41800000000E+01 0.  1.
         -5    1    3    3    0  502 -0.40372242315E+02  0.23542361585E+02  0.13846084570E+02  0.48921847843E+02  0.41800000000E+01 0.  1.
        -11    1    1    2    0    0  0.16411275493E+02  0.56683117399E+02  0.18354411956E+03  0.19279717214E+03  0.00000000000E+00 0. -1.
         11    1    1    2    0    0  0.14420282355E+02 -0.11285025327E+02 -0.70974921714E+00  0.18324848806E+02  0.00000000000E+00 0.  1.
</event>
<event>
 7    1  0.2749315E-009  0.1197203E+03  0.7561462E-02  0.1243559E+00
         -1   -1    0    0    0  501 -0.00000000000E+00  0.00000000000E+00  0.86476437155E+02  0.86476437155E+02  0.00000000000E+00 0.  1.
          1   -1    0    0  501    0  0.00000000000E+00 -0.00000000000E+00 -0.42797943619E+03  0.42797943619E+03  0.00000000000E+00 0. -1.
         25    2    1    2    0    0  0.37116751306E+02 -0.10344201489E+03 -0.33146965958E+03  0.37094046587E+03  0.12508713093E+03 0.  0.
          5    1    3    3  502    0  0.12183413850E+02  0.35942610510E+01 -0.19596128527E+03  0.19641703594E+03  0.41800000000E+01 0. -1.
         -5    1    3    3    0  502  0.24933337456E+02 -0.10703627594E+03 -0.13550837431E+03  0.17452342992E+03  0.41800000000E+01 0. -1.
        -11    1    1    2    0    0 -0.43177599423E+01  0.66680095957E+02 -0.47193837676E+02  0.81805480026E+02  0.00000000000E+00 0. -1.
         11    1    1    2    0    0 -0.32798991364E+02  0.36761918929E+02  0.37160498222E+02  0.61709927451E+02  0.00000000000E+00 0.  1.
</event>
<event>
 7    1  0.2749315E-009  0.1267826E+03  0.7561462E-02  0.1232309E+00
          2   -1    0    0  501    0  0.00000000000E+00  0.00000000000E+00  0.23384667537E+03  0.23384667537E+03  0.00000000000E+00 0. -1.
         -2   -1    0    0    0  501 -0.00000000000E+00 -0.00000000000E+00 -0.83786151304E+02  0.83786151304E+02  0.00000000000E+00 0.  1.
         25    2    1    2    0    0  0.41526436736E+02 -0.69485077536E+02  0.12544708800E+03  0.19476957697E+03  0.12508235399E+03 0.  0.
          5    1    3    3  502    0  0.83564277204E+02 -0.26824560629E+02  0.62806403800E+02  0.10800306586E+03  0.41800000000E+01 0.  1.
         -5    1    3    3    0  502 -0.42037840468E+02 -0.42660516907E+02  0.62640684196E+02  0.86766511112E+02  0.41800000000E+01 0.  1.
        -11    1    1    2    0    0 -0.58571511314E+02  0.37874501623E+02 -0.12896972905E+02  0.70932585749E+02  0.00000000000E+00 0.  1.
         11    1    1    2    0    0  0.17045074579E+02  0.31610575913E+02  0.37510408976E+02  0.51930663952E+02  0.00000000000E+00 0. -1.
</event>
<event>
 7    1  0.2749315E-009  0.1257668E+03  0.7561462E-02  0.1233876E+00
          1   -1    0    0  501    0  0.00000000000E+00  0.00000000000E+00  0.22762801739E+03  0.22762801739E+03  0.00000000000E+00 0. -1.
         -1   -1    0    0    0  501 -0.00000000000E+00 -0.00000000000E+00 -0.16356925840E+03  0.16356925840E+03  0.00000000000E+00 0.  1.
         25    2    1    2    0    0 -0.72124633512E+02  0.77379470783E+02  0.15288101894E+03  0.22407594955E+03  0.12509148634E+03 0.  0.
          5    1    3    3  502    0 -0.83561026093E+02  0.92848894715E+02  0.16009949910E+03  0.20310756840E+03  0.41800000000E+01 0.  1.
         -5    1    3    3    0  502  0.11436392581E+02 -0.15469423931E+02 -0.72184801585E+01  0.20968381145E+02  0.41800000000E+01 0.  1.
        -11    1    1    2    0    0  0.54589911354E+02 -0.48214937639E+02 -0.89562248749E+00  0.72839143136E+02  0.00000000000E+00 0. -1.
         11    1    1    2    0    0  0.17534722158E+02 -0.29164533145E+02 -0.87926637464E+02  0.94282183102E+02  0.00000000000E+00 0.  1.
</event>
<event>
 7    1  0.2749315E-009  0.1113871E+03  0.7561462E-02  0.1258023E+00
         -2   -1    0    0    0  501 -0.00000000000E+00  0.00000000000E+00  0.37586626414E+02  0.37586626414E+02  0.00000000000E+00 0. -1.
          2   -1    0    0  501    0  0.00000000000E+00 -0.00000000000E+00 -0.48357994165E+03  0.48357994165E+03  0.00000000000E+00 0.  1.
         25    2    1    2    0    0 -0.99114516542E+01 -0.67850589843E+02 -0.34707260664E+03  0.37524580992E+03  0.12509230258E+03 0.  0.
          5    1    3    3  502    0 -0.46860220425E+02 -0.80927445265E+02 -0.29769074056E+03  0.31206150206E+03  0.41800000000E+01 0. -1.
         -5    1    3    3    0  502  0.36948768771E+02  0.13076855422E+02 -0.49381866088E+02  0.63184307860E+02  0.41800000000E+01 0. -1.
        -11    1    1    2    0    0  0.32081756498E+02  0.22244378450E+02 -0.84686233057E+02  0.93251324612E+02  0.00000000000E+00 0.  1.
         11    1    1    2    0    0 -0.22170304844E+02  0.45606211393E+02 -0.14234475533E+02  0.52669433529E+02  0.00000000000E+00 0. -1.
</event>
<event>
 7    1  0.2749315E-009  0.9332152E+02  0.7561462E-02  0.1295002E+00
          1   -1    0    0  501    0  0.00000000000E+00  0.00000000000E+00  0.48128143542E+02  0.48128143542E+02  0.00000000000E+00 0. -1.
         -1   -1    0    0    0  501 -0.00000000000E+00 -0.00000000000E+00 -0.26806683268E+03  0.26806683268E+03  0.00000000000E+00 0.  1.
         25    2    1    2    0    0  0.26718382887E+02 -0.13901600667E+02 -0.11007923023E+03  0.16933050546E+03  0.12509299207E+03 0.  0.
          5    1    3    3  502    0  0.57780903755E+02  0.30520174699E+02 -0.28772393492E+02  0.71522282749E+02  0.41800000000E+01 0.  1.
         -5    1    3    3    0  502 -0.31062520869E+02 -0.44421775366E+02 -0.81306836736E+02  0.97808222708E+02  0.41800000000E+01 0.  1.
        -11    1    1    2    0    0 -0.38948409153E+02 -0.97683455961E+01 -0.11310808635E+03  0.12002432399E+03  0.00000000000E+00 0.  1.
         11    1    1    2    0    0  0.12230026266E+02  0.23669946263E+02  0.32486274411E+01  0.26840146773E+02  0.00000000000E+00 0. -1.
</event>
<event>
 7    1  0.2749315E-009  0.9104418E+02  0.7561462E-02  0.1300343E+00
          2   -1    0    0  501    0  0.00000000000E+00  0.00000000000E+00  0.45409228217E+03  0.45409228217E+03  0.00000000000E+00 0. -1.
         -2   -1    0    0    0  501 -0.00000000000E+00 -0.00000000000E+00 -0.28384188013E+02  0.28384188013E+02  0.00000000000E+00 0.  1.
         25    2    1    2    0    0 -0.14095281268E+02 -0.28771985148E+02  0.27586585983E+03  0.30459796497E+03  0.12510572954E+03 0.  0.
          5    1    3    3  502    0 -0.56043959519E+02 -0.52885637753E+02  0.20156669297E+03  0.21583424240E+03  0.41800000000E+01 0. -1.
         -5    1    3    3    0  502  0.41948678251E+02  0.24113652605E+02  0.74299166857E+02  0.88763722571E+02  0.41800000000E+01 0. -1.
        -11    1    1    2    0    0 -0.11081837771E+01  0.38361169530E+02  0.15459388033E+03  0.15928614263E+03  0.00000000000E+00 0. -1.
         11    1    1    2    0    0  0.15203465045E+02 -0.95891843814E+01 -0.47516459999E+01  0.18592362577E+02  0.00000000000E+00 0.  1.
</event>
<event>
 7    1  0.2956239E-009  0.1371954E+03  0.7561462E-02  0.1217153E+00
         -2   -1    0    0    0  501 -0.00000000000E+00  0.00000000000E+00  0.28278193663E+02  0.28278193663E+02  0.00000000000E+00 0.  1.
          2   -1    0    0  501    0  0.00000000000E+00 -0.00000000000E+00 -0.72112113191E+03  0.72112113191E+03  0.00000000000E+00 0. -1.
         25    2    1    2    0    0  0.38550004957E+02  0.84062969646E+02 -0.40342290263E+03  0.43237670968E+03  0.12508754917E+03 0.  0.
          5    1    3    3  502    0 -0.34596312037E+02  0.58685580987E+02 -0.11514308705E+03  0.13385180282E+03  0.41800000000E+01 0.  1.
         -5    1    3    3    0  502  0.73146316994E+02  0.25377388659E+02 -0.28827981558E+03  0.29852490686E+03  0.41800000000E+01 0.  1.
        -11    1    1    2    0    0  0.14958561745E+02 -0.72280044115E+02 -0.14868235964E+03  0.16599580541E+03  0.00000000000E+00 0.  1.
         11    1    1    2    0    0 -0.53508566702E+02 -0.11782925531E+02 -0.14073767598E+03  0.15102681048E+03  0.00000000000E+00 0. -1.
</event>
<event>
 7    1  0.2749315E-009  0.1155928E+03  0.7561462E-02  0.1250550E+00
          4   -1    0    0  501    0  0.00000000000E+00  0.00000000000E+00  0.12544341218E+03  0.12544341218E+03  0.00000000000E+00 0. -1.
         -4   -1    0    0    0  501 -0.00000000000E+00 -0.00000000000E+00 -0.16049120816E+03  0.16049120816E+03  0.00000000000E+00 0.  1.
         25    2    1    2    0    0  0.68345497249E+02 -0.21493427970E+02 -0.76885490284E+02  0.16337668362E+03  0.12508991843E+03 0.  0.
          5    1    3    3  502    0  0.90311775147E+02  0.15922232580E+02 -0.76955101794E+02  0.11978853999E+03  0.41800000000E+01 0. -1.
         -5    1    3    3    0  502 -0.21966277899E+02 -0.37415660550E+02  0.69611509585E-01  0.43588143628E+02  0.41800000000E+01 0. -1.
        -11    1    1    2    0    0 -0.17252305755E+02  0.38304135787E+02  0.52993922055E+02  0.67625473359E+02  0.00000000000E+00 0. -1.
         11    1    1    2    0    0 -0.51093191493E+02 -0.16810707816E+02 -0.11156227754E+02  0.54932463371E+02  0.00000000000E+00 0.  1.
</event>
<event>
 7    1  0.2749315E-009  0.1267068E+03  0.7561462E-02  0.1232426E+00
         -1   -1    0    0    0  501 -0.00000000000E+00  0.00000000000E+00  0.82280719056E+02  0.82280719056E+02  0.00000000000E+00 0.  1.
          1   -1    0    0  501    0  0.00000000000E+00 -0.00000000000E+00 -0.66965824011E+03  0.66965824011E+03  0.00000000000E+00 0. -1.
         25    2    1    2    0    0  0.59532105638E+02  0.75237162351E+02 -0.59814016038E+03  0.61856588801E+03  0.12508958452E+03 0.  0.
          5    1    3    3  502    0  0.28208515099E+02  0.10356775064E+03 -0.50370182702E+03  0.51502912756E+03  0.41800000000E+01 0.  1.
         -5    1    3    3    0  502  0.31323590539E+02 -0.28330588286E+02 -0.94438333360E+02  0.10353676045E+03  0.41800000000E+01 0.  1.
        -11    1    1    2    0    0 -0.88674612410E+01 -0.42071257326E+02  0.46280525803E+02  0.63170480689E+02  0.00000000000E+00 0.  1.
         11    1    1    2    0    0 -0.50664644397E+02 -0.33165905024E+02 -0.35517886480E+02  0.70202590465E+02  0.00000000000E+00 0. -1.
</event>
<event>
 7    1  0.2749315E-009  0.9475866E+02  0.7561462E-02  0.1291721E+00
         -2   -1    0    0    0  501 -0.00000000000E+00  0.00000000000E+00  0.45384733245E+03  0.45384733245E+03  0.00000000000E+00 0.  1.
          2   -1    0    0  501    0  0.00000000000E+00 -0.00000000000E+00 -0.38239766082E+02  0.38239766082E+02  0.00000000000E+00 0. -1.
         25    2    1    2    0    0  0.47475551482E+02  0.45290581384E+02  0.16429369002E+03  0.21666836839E+03  0.12509036945E+03 0.  0.
          5    1    3    3  502    0  0.32084035688E+01  0.54753036881E+02  0.10116155430E+02  0.55928507058E+02  0.41800000000E+01 0.  1.
         -5    1    3    3    0  502  0.44267147913E+02 -0.94624554970E+01  0.15417753459E+03  0.16073986133E+03  0.41800000000E+01 0.  1.
        -11    1    1    2    0    0 -0.44427903792E+02 -0.77797066892E+00  0.20987295829E+03  0.21452529570E+03  0.00000000000E+00 0.  1.
         11    1    1    2    0    0 -0.30476476906E+01 -0.44512610715E+02  0.41440918067E+02  0.60893434452E+02  0.00000000000E+00 0. -1.
</event>
<event>
 7    1  0.2749315E-009  0.1008610E+03  0.7561462E-02  0.1278496E+00
         -1   -1    0    0    0  501 -0.00000000000E+00  0.00000000000E+00  0.76072641571E+02  0.76072641571E+02  0.00000000000E+00 0.  1.
          1   -1    0    0  501    0  0.00000000000E+00 -0.00000000000E+00 -0.18784221884E+03  0.18784221884E+03  0.00000000000E+00 0. -1.
         25    2    1    2    0    0  0.35102284488E+02  0.35787043755E+02 -0.66298030006E+02  0.15018150979E+03  0.12508466821E+03 0.  0.
          5    1    3    3  502    0  0.34701337467E+02 -0.25329324522E+02 -0.76730949276E+02  0.88039016803E+02  0.41800000000E+01 0. -1.
         -5    1    3    3    0  502  0.40094702085E+00  0.61116368277E+02  0.10432919270E+02  0.62142492985E+02  0.41800000000E+01 0. -1.
        -11    1    1    2    0    0 -0.50123078866E+02 -0.54007514754E+02 -0.50836170173E+02  0.89517880241E+02  0.00000000000E+00 0. -1.
         11    1    1    2    0    0  0.15020794377E+02  0.18220470999E+02  0.53646229067E+01  0.24215470387E+02  0.00000000000E+00 0.  1.
</event>
<event>
 7    1  0.2749315E-009  0.1066656E+03  0.7561462E-02  0.1266872E+00
          2   -1    0    0  501    0  0.00000000000E+00  0.00000000000E+00  0.10288864950E+04  0.10288864950E+04  0.00000000000E+00 0. -1.
         -2   -1    0    0    0  501 -0.00000000000E+00 -0.00000000000E+00 -0.22270913844E+02  0.22270913844E+02  0.00000000000E+00 0.  1.
         25    2    1    2    0    0  0.29441051046E+01 -0.30533616128E+02  0.89941762094E+03  0.90859253021E+03  0.12508940656E+03 0.  0.
          5    1    3    3  502    0  0.37905537971E+02 -0.67594230732E+02  0.52794569453E+03  0.53361965726E+03  0.41800000000E+01 0.  1.
         -5    1    3    3    0  502 -0.34961432867E+02  0.37060614603E+02  0.37147192641E+03  0.37497287296E+03  0.41800000000E+01 0.  1.
        -11    1    1    2    0    0 -0.39058666479E+02  0.28646122908E+02  0.29115978588E+02  0.56514776776E+02  0.00000000000E+00 0.  1.
         11    1    1    2    0    0  0.36114561375E+02  0.18874932199E+01  0.78081981596E+02  0.86050101824E+02  0.00000000000E+00 0. -1.
</event>
<event>
 7    1  0.2749315E-009  0.9380864E+02  0.7561462E-02  0.1293882E+00
          1   -1    0    0  501    0  0.00000000000E+00  0.00000000000E+00  0.50737604570E+02  0.50737604570E+02  0.00000000000E+00 0. -1.
         -1   -1    0    0    0  501 -0.00000000000E+00 -0.00000000000E+00 -0.44021826474E+03  0.44021826474E+03  0.00000000000E+00 0.  1.
         25    2    1    2    0    0  0.15430535398E+02 -0.59191838737E+02 -0.32650886867E+03  0.35496202574E+03  0.12509285832E+03 0.  0.
          5    1    3    3  502    0 -0.31553553604E+02 -0.21903654269E+02 -0.26899612871E+03  0.27175685176E+03  0.41800000000E+01 0. -1.
         -5    1    3    3    0  502  0.46984089002E+02 -0.37288184469E+02 -0.57512739959E+02  0.83205173986E+02  0.41800000000E+01 0. -1.
        -11    1    1    2    0    0  0.10312357147E+02  0.62094978898E+02 -0.82343135360E+02  0.10364614347E+03  0.00000000000E+00 0.  1.
         11    1    1    2    0    0 -0.25742892545E+02 -0.29031401606E+01  0.19371343856E+02  0.32347700106E+02  0.00000000000E+00 0. -1.
</event>
<event>
 7    1  0.2749315E-009  0.1548389E+03  0.7561462E-02  0.1194650E+00
         -1   -1    0    0    0  501 -0.00000000000E+00  0.00000000000E+00  0.83684097445E+03  0.83684097445E+03  0.00000000000E+00 0.  1.
          1   -1    0    0  501    0  0.00000000000E+00 -0.00000000000E+00 -0.40966771555E+02  0.40966771555E+02  0.00000000000E+00 0. -1.
         25    2    1    2    0    0  0.85335680824E+02  0.11166065627E+03  0.29861536354E+03  0.35294239893E+03  0.12508765343E+03 0.  0.
          5    1    3    3  502    0  0.73242933796E+02  0.20674096674E+02  0.21717952337E+03  0.23016594751E+03  0.41800000000E+01 0.  1.
         -5    1    3    3    0  502  0.12092747029E+02  0.90986559601E+02  0.81435840174E+02  0.12277645142E+03  0.41800000000E+01 0.  1.
        -11    1    1    2    0    0 -0.59909985264E+02 -0.64721885277E+02  0.43023006522E+03  0.43917654512E+03  0.00000000000E+00 0.  1.
         11    1    1    2    0    0 -0.25425695560E+02 -0.46938770998E+02  0.67028774139E+02  0.85688801953E+02  0.00000000000E+00 0. -1.
</event>
<event>
 7    1  0.2749315E-009  0.1057413E+03  0.7561462E-02  0.1268666E+00
          2   -1    0    0  501    0  0.00000000000E+00  0.00000000000E+00  0.21448224351E+03  0.21448224351E+03  0.00000000000E+00 0.  1.
         -2   -1    0    0    0  501 -0.00000000000E+00 -0.00000000000E+00 -0.15326407400E+03  0.15326407400E+03  0.00000000000E+00 0. -1.
         25    2    1    2    0    0  0.27631691689E+02  0.31783869680E+02 -0.10990342445E+03  0.17176499795E+03  0.12510286591E+03 0.  0.
          5    1    3    3  502    0 -0.44031601021E+02 -0.88896069030E+01 -0.18859411345E+02  0.48897410930E+02  0.41800000000E+01 0. -1.
         -5    1    3    3    0  502  0.71663292711E+02  0.40673476583E+02 -0.91044013101E+02  0.12286758702E+03  0.41800000000E+01 0. -1.
        -11    1    1    2    0    0 -0.41731889567E+02  0.72516947435E+01  0.13316109104E+03  0.13973551392E+03  0.00000000000E+00 0.  1.
         11    1    1    2    0    0  0.14100197878E+02 -0.39035564423E+02  0.37960502916E+02  0.56245805636E+02  0.00000000000E+00 0. -1.
</event>
<event>
 7    1  0.2749315E-009  0.1364976E+03  0.7561462E-02  0.1218121E+00
         -2   -1    0    0    0  501 -0.00000000000E+00  0.00000000000E+00  0.44301481683E+02  0.44301481683E+02  0.00000000000E+00 0.  1.
          2   -1    0    0  501    0  0.00000000000E+00 -0.00000000000E+00 -0.65496308182E+03  0.65496308182E+03  0.00000000000E+00 0. -1.
         25    2    1    2    0    0 -0.10433810470E+03 -0.42660565101E+02 -0.46492401214E+03  0.49447847573E+03  0.12509301332E+03 0.  0.
          5    1    3    3  502    0 -0.22761981216E+02 -0.61865669301E+02 -0.32232389836E+03  0.32902224345E+03  0.41800000000E+01 0.  1.
         -5    1    3    3    0  502 -0.81576123483E+02  0.19205104200E+02 -0.14260011378E+03  0.16545623228E+03  0.41800000000E+01 0.  1.
        -11    1    1    2    0    0  0.14917550147E+02 -0.11190483161E+02  0.68875613027E+01  0.19879605541E+02  0.00000000000E+00 0.  1.
         11    1    1    2    0    0  0.89420554551E+02  0.53851048263E+02 -0.15262514930E+03  0.18490648224E+03  0.00000000000E+00 0. -1.
</event>
<event>
 7    1  0.2749315E-009  0.1224557E+03  0.7561462E-02  0.1239100E+00
          3   -1    0    0  501    0  0.00000000000E+00  0.00000000000E+00  0.37205675021E+03  0.37205675021E+03  0.00000000000E+00 0. -1.
         -3   -1    0    0    0  501 -0.00000000000E+00 -0.00000000000E+00 -0.42110348219E+02  0.42110348219E+02  0.00000000000E+00 0.  1.
         25    2    1    2    0    0 -0.59445157442E+02 -0.20312254516E+02  0.18727190272E+03  0.23380613394E+03  0.12509287867E+03 0.  0.
          5    1    3    3  502    0 -0.75653332230E+02  0.32813445682E+02  0.12927454554E+03  0.15339338128E+03  0.41800000000E+01 0. -1.
         -5    1    3    3    0  502  0.16208174788E+02 -0.53125700198E+02  0.57997357178E+02  0.80412752665E+02  0.41800000000E+01 0. -1.
        -11    1    1    2    0    0 -0.13044396872E+02  0.30752534328E+02  0.24867155790E+02  0.41644328478E+02  0.00000000000E+00 0.  1.
         11    1    1    2    0    0  0.72489554314E+02 -0.10440279812E+02  0.11780734349E+03  0.13871663601E+03  0.00000000000E+00 0. -1.
</event>
<event>
 7    1  0.2749315E-009  0.7894610E+02  0.7561462E-02  0.1332069E+00
          1   -1    0    0  501    0  0.00000000000E+00  0.00000000000E+00  0.27270928250E+03  0.27270928250E+03  0.00000000000E+00 0. -1.
         -1   -1    0    0    0  501 -0.00000000000E+00 -0.00000000000E+00 -0.42221084958E+02  0.42221084958E+02  0.00000000000E+00 0.  1.
         25    2    1    2    0    0 -0.29794466823E+01 -0.27896934755E+01  0.13684469640E+03  0.18544733735E+03  0.12509030541E+03 0.  0.
          5    1    3    3  502    0 -0.47414514873E+02 -0.15197150446E+02  0.10744696423E+02  0.51107832115E+02  0.41800000000E+01 0. -1.
         -5    1    3    3    0  502  0.44435068191E+02  0.12407456970E+02  0.12609999997E+03  0.13433950524E+03  0.41800000000E+01 0. -1.
        -11    1    1    2    0    0 -0.28437443064E+02  0.84797539404E+01  0.92923650077E+02  0.97546907376E+02  0.00000000000E+00 0. -1.
         11    1    1    2    0    0  0.31416889747E+02 -0.56900604649E+01  0.71985106666E+00  0.31936122730E+02  0.00000000000E+00 0.  1.
</event>
<event>
 7    1  0.2749315E-009  0.8977503E+02  0.7561462E-02  0.1303397E+00
         -2   -1    0    0    0  501 -0.00000000000E+00  0.00000000000E+00  0.84771248996E+02  0.84771248996E+02  0.00000000000E+00 0.  1.
          2   -1    0    0  501    0  0.00000000000E+00 -0.00000000000E+00 -0.21739367784E+03  0.21739367784E+03  0.00000000000E+00 0. -1.
         25    2    1    2    0    0  0.46906027198E+02  0.25839441274E+02 -0.14042652384E+03  0.19554593028E+03  0.12510295815E+03 0.  0.
          5    1    3    3  502    0 -0.10014743965E+02  0.17572070494E+02  0.17719775875E+02  0.27212784040E+02  0.41800000000E+01 0.  1.
         -5    1    3    3    0  502  0.56920771163E+02  0.82673707800E+01 -0.15814629972E+03  0.16833314624E+03  0.41800000000E+01 0.  1.
        -11    1    1    2    0    0 -0.67879048074E+02 -0.37169630031E+02  0.19872498197E+02  0.79900330090E+02  0.00000000000E+00 0.  1.
         11    1    1    2    0    0  0.20973020876E+02  0.11330188757E+02 -0.12068403200E+02  0.26718666466E+02  0.00000000000E+00 0. -1.
</event>
<event>
 7    1  0.2749315E-009  0.2498930E+03  0.7561462E-02  0.1113372E+00
          1   -1    0    0  501    0  0.00000000000E+00  0.00000000000E+00  0.12604255712E+04  0.12604255712E+04  0.00000000000E+00 0. -1.
         -1   -1    0    0    0  501 -0.00000000000E+00 -0.00000000000E+00 -0.53933852250E+02  0.53933852250E+02  0.00000000000E+00 0.  1.
         25    2    1    2    0    0  0.23088914375E+03 -0.51724135247E+02  0.58636926202E+03  0.64456291132E+03  0.12508897768E+03 0.  0.
          5    1    3    3  502    0  0.19568729988E+03 -0.14324822361E+01  0.35761615725E+03  0.40767923624E+03  0.41800000000E+01 0.  1.
         -5    1    3    3    0  502  0.35201843873E+02 -0.50291653011E+02  0.22875310478E+03  0.23688367508E+03  0.41800000000E+01 0.  1.
        -11    1    1    2    0    0 -0.88124765791E+02  0.46543502422E+02  0.16482120412E+03  0.19260919316E+03  0.00000000000E+00 0.  1.
         11    1    1    2    0    0 -0.14276437796E+03  0.51806328246E+01  0.45530125278E+03  0.47718731894E+03  0.00000000000E+00 0. -1.
</event>
<event>
 7    1  0.2749315E-009  0.1531159E+03  0.7561462E-02  0.1196696E+00
          1   -1    0    0  501    0  0.00000000000E+00  0.00000000000E+00  0.12758848349E+03  0.12758848349E+03  0.00000000000E+00 0. -1.
         -1   -1    0    0    0  501 -0.00000000000E+00 -0.00000000000E+00 -0.29507350021E+03  0.29507350021E+03  0.00000000000E+00 0.  1.
         25    2    1    2    0    0 -0.10408698565E+03  0.10252880427E+03 -0.15834367769E+03  0.24913107987E+03  0.12508924177E+03 0.  0.
          5    1    3    3  502    0 -0.77391412950E+02  0.30818452104E+02 -0.12443137188E+02  0.84329780336E+02  0.41800000000E+01 0. -1.
         -5    1    3    3    0  502 -0.26695572704E+02  0.71710352163E+02 -0.14590054050E+03  0.16480129953E+03  0.41800000000E+01 0. -1.
        -11    1    1    2    0    0  0.75168051283E+02 -0.70779072420E+02 -0.49587367165E+02  0.11453741750E+03  0.00000000000E+00 0.  1.
         11    1    1    2    0    0  0.28918934371E+02 -0.31749731847E+02  0.40446028128E+02  0.58993486325E+02  0.00000000000E+00 0. -1.
</event>
<event>
 7    1  0.2749315E-009  0.1037578E+03  0.7561462E-02  0.1272587E+00
         -1   -1    0    0    0  501 -0.00000000000E+00  0.00000000000E+00  0.17093253899E+02  0.17093253899E+02  0.00000000000E+00 0.  1.
          1   -1    0    0  501    0  0.00000000000E+00 -0.00000000000E+00 -0.10628055320E+04  0.10628055320E+04  0.00000000000E+00 0. -1.
         25    2    1    2    0    0 -0.70257609502E+02 -0.26525110056E+02 -0.68217807112E+03  0.69760577880E+03  0.12508872350E+03 0.  0.
          5    1    3    3  502    0 -0.78115776026E+02 -0.29311178896E+02 -0.68314078401E+03  0.68822962944E+03  0.41800000000E+01 0.  1.
         -5    1    3    3    0  502  0.78581665241E+01  0.27860688395E+01  0.96271288709E+00  0.93761493590E+01  0.41800000000E+01 0.  1.
        -11    1    1    2    0    0  0.62875457916E+02 -0.21203415479E+02 -0.16221041985E+03  0.17525732037E+03  0.00000000000E+00 0. -1.
         11    1    1    2    0    0  0.73821515862E+01  0.47728525535E+02 -0.20132378714E+03  0.20703568673E+03  0.00000000000E+00 0.  1.
</event>
<event>
 7    1  0.2749315E-009  0.1224321E+03  0.7561462E-02  0.1239138E+00
          2   -1    0    0  501    0  0.00000000000E+00  0.00000000000E+00  0.73560598768E+02  0.73560598768E+02  0.00000000000E+00 0. -1.
         -2   -1    0    0    0  501 -0.00000000000E+00 -0.00000000000E+00 -0.38559242288E+03  0.38559242288E+03  0.00000000000E+00 0.  1.
         25    2    1    2    0    0 -0.89045943078E+02  0.52071830523E+02 -0.26497006885E+03  0.31063990593E+03  0.12508940106E+03 0.  0.
          5    1    3    3  502    0 -0.51135218534E+02  0.23935635110E+02 -0.18360626133E+02  0.59517310042E+02  0.41800000000E+01 0. -1.
         -5    1    3    3    0  502 -0.37910724544E+02  0.28136195413E+02 -0.24660944271E+03  0.25112259588E+03  0.41800000000E+01 0. -1.
        -11    1    1    2    0    0  0.57255811442E+02 -0.80109064314E+02 -0.33478273939E+02  0.10400233149E+03  0.00000000000E+00 0.  1.
         11    1    1    2    0    0  0.31790131636E+02  0.28037233791E+02 -0.13583481327E+02  0.44510784233E+02  0.00000000000E+00 0. -1.
</event>
<event>
 7    1  0.2749315E-009  0.1269800E+03  0.7561462E-02  0.1232007E+00
          1   -1    0    0  501    0  0.00000000000E+00  0.00000000000E+00  0.46822739167E+03  0.46822739167E+03  0.00000000000E+00 0. -1.
         -1   -1    0    0    0  501 -0.00000000000E+00 -0.00000000000E+00 -0.65688035888E+02  0.65688035888E+02  0.00000000000E+00 0.  1.
         25    2    1    2    0    0  0.82491314242E+02  0.15136224148E+02  0.37798999593E+03  0.40688885543E+03  0.12509269142E+03 0.  0.
          5    1    3    3  502    0  0.11058964692E+03 -0.98780145043E+01  0.30613067748E+03  0.32567024622E+03  0.41800000000E+01 0. -1.
         -5    1    3    3    0  502 -0.28098332682E+02  0.25014238652E+02  0.71859318446E+02  0.81218609213E+02  0.41800000000E+01 0. -1.
        -11    1    1    2    0    0  0.15102989115E+01  0.15509773642E+02  0.33713688073E+02  0.37140905276E+02  0.00000000000E+00 0. -1.
         11    1    1    2    0    0 -0.84001613153E+02 -0.30645997790E+02 -0.91643282220E+01  0.89885666847E+02  0.00000000000E+00 0.  1.
</event>
<event>
 7    1  0.2749315E-009  0.1023348E+03  0.7561462E-02  0.1275461E+00
         -1   -1    0    0    0  501 -0.00000000000E+00  0.00000000000E+00  0.16990786329E+02  0.16990786329E+02  0.00000000000E+00 0. -1.
          1   -1    0    0  501    0  0.00000000000E+00 -0.00000000000E+00 -0.91483795480E+03  0.91483795480E+03  0.00000000000E+00 0.  1.
         25    2    1    2    0    0  0.66086147098E+02 -0.13246456100E+02 -0.52069074168E+03  0.53972977258E+03  0.12508609635E+03 0.  0.
          5    1    3    3  502    0 -0.24482200087E+02  0.14813743382E+02 -0.27219256898E+03  0.27372448214E+03  0.41800000000E+01 0.  1.
         -5    1    3    3    0  502  0.90568347185E+02 -0.28060199482E+02 -0.24849817270E+03  0.26600529044E+03  0.41800000000E+01 0.  1.
        -11    1    1    2    0    0 -0.31461280020E+01 -0.12463486285E+02 -0.50152591224E+01  0.13798167843E+02  0.00000000000E+00 0. -1.
         11    1    1    2    0    0 -0.62940019096E+02  0.25709942385E+02 -0.37214116766E+03  0.37830080070E+03  0.00000000000E+00 0.  1.
</event>
<event>
 7    1  0.2749315E-009  0.1326216E+03  0.7561462E-02  0.1223617E+00
         -1   -1    0    0    0  501 -0.00000000000E+00  0.00000000000E+00  0.37326939957E+03  0.37326939957E+03  0.00000000000E+00 0.  1.
          1   -1    0    0  501    0  0.00000000000E+00 -0.00000000000E+00 -0.47771051817E+02  0.47771051817E+02  0.00000000000E+00 0. -1.
         25    2    1    2    0    0  0.69476890308E+02 -0.32795177371E+02  0.19697027240E+03  0.24565728861E+03  0.12509058036E+03 0.  0.
          5    1    3    3  502    0  0.49752575848E+02 -0.80383905821E+02  0.13677523076E+03  0.16631845138E+03  0.41800000000E+01 0.  1.
         -5    1    3    3    0  502  0.19724314459E+02  0.47588728449E+02  0.60195041636E+02  0.79338837236E+02  0.41800000000E+01 0.  1.
        -11    1    1    2    0    0 -0.55257155886E+02 -0.24102046022E+02  0.72303237946E+02  0.94138303132E+02  0.00000000000E+00 0. -1.
         11    1    1    2    0    0 -0.14219734421E+02  0.56897223393E+02  0.56224837414E+02  0.81244859648E+02  0.00000000000E+00 0.  1.
</event>
<event>
 7    1  0.2749315E-009  0.8506176E+02  0.7561462E-02  0.1315271E+00
          1   -1    0    0  501    0  0.00000000000E+00  0.00000000000E+00  0.10107559234E+03  0.10107559234E+03  0.00000000000E+00 0. -1.
         -1   -1    0    0    0  501 -0.00000000000E+00 -0.00000000000E+00 -0.15118852111E+03  0.15118852111E+03  0.00000000000E+00 0.  1.
         25    2    1    2    0    0 -0.17307254593E+02 -0.10086980287E+02 -0.75605128142E+02  0.14752712265E+03  0.12508728266E+03 0.  0.
          5    1    3    3  502    0  0.26794732409E+02 -0.14609073068E+02  0.23587816196E+02  0.38797424833E+02  0.41800000000E+01 0.  1.
         -5    1    3    3    0  502 -0.44101987002E+02  0.45220927815E+01 -0.99192944338E+02  0.10872969782E+03  0.41800000000E+01 0.  1.
        -11    1    1    2    0    0  0.16195850023E+02 -0.40796926985E+02  0.30715450707E+02  0.53573628974E+02  0.00000000000E+00 0. -1.
         11    1    1    2    0    0  0.11114045698E+01  0.50883907272E+02 -0.52232513321E+01  0.51163361831E+02  0.00000000000E+00 0.  1.
</event>
<event>
 7    1  0.2749315E-009  0.1789220E+03  0.7561462E-02  0.1168850E+00
          2   -1    0    0  501    0  0.00000000000E+00  0.00000000000E+00  0.33330691000E+03  0.33330691000E+03  0.00000000000E+00 0. -1.
         -2   -1    0    0    0  501 -0.00000000000E+00 -0.00000000000E+00 -0.11367451693E+03  0.11367451693E+03  0.00000000000E+00 0.  1.
         25    2    1    2    0    0 -0.14122283695E+03 -0.30844990738E+02  0.19583771448E+03  0.27367259214E+03  0.12509585982E+03 0.  0.
          5    1    3    3  502    0 -0.15326713311E+03  0.82078964966E+00  0.17874383577E+03  0.23549590020E+03  0.41800000000E+01 0. -1.
         -5    1    3    3    0  502  0.12044296164E+02 -0.31665780388E+02  0.17093878716E+02  0.38176691937E+02  0.41800000000E+01 0. -1.
        -11    1    1    2    0    0  0.24846799710E+02 -0.30086118221E+02  0.14469784540E+02  0.41616254397E+02  0.00000000000E+00 0.  1.
         11    1    1    2    0    0  0.11637603724E+03  0.60931108959E+02  0.93248940405E+01  0.13169258039E+03  0.00000000000E+00 0. -1.
</event>
<event>
 7    1  0.2749315E-009  0.1210455E+03  0.7561462E-02  0.1241382E+00
          2   -1    0    0  501    0  0.00000000000E+00  0.00000000000E+00  0.19892268844E+03  0.19892268844E+03  0.00000000000E+00 0. -1.
         -2   -1    0    0    0  501 -0.00000000000E+00 -0.00000000000E+00 -0.82014272237E+02  0.82014272237E+02  0.00000000000E+00 0.  1.
         25    2    1    2    0    0 -0.25052592954E+02  0.62314124069E+02  0.47238545580E+02  0.14963147539E+03  0.12508963093E+03 0.  0.
          5    1    3    3  502    0 -0.71551002901E+02  0.10878316810E+02  0.22818529932E+02  0.76000273033E+02  0.41800000000E+01 0. -1.
         -5    1    3    3    0  502  0.46498409947E+02  0.51435807259E+02  0.24420015648E+02  0.73631202355E+02  0.41800000000E+01 0. -1.
        -11    1    1    2    0    0 -0.20134113090E+02 -0.49078690129E+02  0.78953702323E+01  0.53632426812E+02  0.00000000000E+00 0.  1.
         11    1    1    2    0    0  0.45186706044E+02 -0.13235433940E+02  0.61774500395E+02  0.77673058481E+02  0.00000000000E+00 0. -1.
</event>
<event>
 7    1  0.2749315E-009  0.6767237E+02  0.7561462E-02  0.1368192E+00
          2   -1    0    0  501    0  0.00000000000E+00  0.00000000000E+00  0.10556112586E+03  0.10556112586E+03  0.00000000000E+00 0. -1.
         -2   -1    0    0    0  501 -0.00000000000E+00 -0.00000000000E+00 -0.14430389948E+03  0.14430389948E+03  0.00000000000E+00 0.  1.
         25    2    1    2    0    0 -0.15993342216E+02 -0.17038257696E+02  0.33358687996E+02  0.13155211790E+03  0.12508824261E+03 0.  0.
          5    1    3    3  502    0 -0.11414691583E+02  0.10262975413E+02 -0.45325110645E+02  0.48036047956E+02  0.41800000000E+01 0.  1.
         -5    1    3    3    0  502 -0.45786506327E+01 -0.27301233109E+02  0.78683798642E+02  0.83516069948E+02  0.41800000000E+01 0.  1.
        -11    1    1    2    0    0  0.16078673269E+01  0.52835436042E+02 -0.54447208031E+02  0.75885881437E+02  0.00000000000E+00 0.  1.
         11    1    1    2    0    0  0.14385474889E+02 -0.35797178346E+02 -0.17654253593E+02  0.42427026001E+02  0.00000000000E+00 0. -1.
</event>
<event>
 7    1  0.2749315E-009  0.1316727E+03  0.7561462E-02  0.1224995E+00
         -2   -1    0    0    0  501 -0.00000000000E+00  0.00000000000E+00  0.16756772462E+03  0.16756772462E+03  0.00000000000E+00 0.  1.
          2   -1    0    0  501    0  0.00000000000E+00 -0.00000000000E+00 -0.17959865637E+03  0.17959865637E+03  0.00000000000E+00 0. -1.
         25    2    1    2    0    0 -0.12016580359E+03 -0.37844684985E+02  0.42748447596E+02  0.18261018084E+03  0.12508800039E+03 0.  0.
          5    1    3    3  502    0 -0.37874959171E+02  0.70204890246E+01 -0.41313395046E+02  0.56639816460E+02  0.41800000000E+01 0. -1.
         -5    1    3    3    0  502 -0.82290844416E+02 -0.44865174009E+02  0.84061842642E+02  0.12597036438E+03  0.41800000000E+01 0. -1.
        -11    1    1    2    0    0  0.16378118088E+02 -0.68811512150E+01  0.21738753366E+02  0.28074301275E+02  0.00000000000E+00 0.  1.
         11    1    1    2    0    0  0.10378768550E+03  0.44725836200E+02 -0.76518132712E+02  0.13648189887E+03  0.00000000000E+00 0. -1.
</event>
<event>
 7    1  0.2749315E-009  0.1007683E+03  0.7561462E-02  0.1278689E+00
         -2   -1    0    0    0  501 -0.00000000000E+00  0.00000000000E+00  0.49037878921E+02  0.49037878921E+02  0.00000000000E+00 0.  1.
          2   -1    0    0  501    0  0.00000000000E+00 -0.00000000000E+00 -0.29998805216E+03  0.29998805216E+03  0.00000000000E+00 0. -1.
         25    2    1    2    0    0  0.30180980126E+02  0.38745861190E+02 -0.17848541795E+03  0.22341776675E+03  0.12508525396E+03 0.  0.
          5    1    3    3  502    0 -0.79736702351E+01  0.77425199973E+02 -0.12323206540E+03  0.14581445522E+03  0.41800000000E+01 0.  1.
         -5    1    3    3    0  502  0.38154650361E+02 -0.38679338783E+02 -0.55253352547E+02  0.77603311531E+02  0.41800000000E+01 0.  1.
        -11    1    1    2    0    0  0.12060305975E+02 -0.18916769969E+02 -0.75581094677E+02  0.78840326223E+02  0.00000000000E+00 0. -1.
         11    1    1    2    0    0 -0.42241286101E+02 -0.19829091221E+02  0.31163393865E+01  0.46767838108E+02  0.00000000000E+00 0.  1.
</event>
<event>
 7    1  0.2749315E-009  0.1060341E+03  0.7561462E-02  0.1268096E+00
         -1   -1    0    0    0  501 -0.00000000000E+00  0.00000000000E+00  0.16089544638E+03  0.16089544638E+03  0.00000000000E+00 0.  1.
          1   -1    0    0  501    0  0.00000000000E+00 -0.00000000000E+00 -0.10056160907E+03  0.10056160907E+03  0.00000000000E+00 0. -1.
         25    2    1    2    0    0 -0.92840873893E+00 -0.65840858673E+02  0.29791810823E+02  0.14446505764E+03  0.12508685092E+03 0.  0.
          5    1    3    3  502    0  0.56837890979E+01  0.27883935429E+02  0.40642406994E+02  0.49790530825E+02  0.41800000000E+01 0. -1.
         -5    1    3    3    0  502 -0.66121978368E+01 -0.93724794102E+02 -0.10850596171E+02  0.94674526811E+02  0.41800000000E+01 0. -1.
        -11    1    1    2    0    0 -0.11410062228E+02  0.73731383820E+02  0.52050070260E+02  0.90970964017E+02  0.00000000000E+00 0.  1.
         11    1    1    2    0    0  0.12338470967E+02 -0.78905251469E+01 -0.21508043768E+02  0.26021033793E+02  0.00000000000E+00 0. -1.
</event>
<event>
 7    1  0.2749315E-009  0.9375506E+02  0.7561462E-02  0.1294005E+00
          1   -1    0    0  501    0  0.00000000000E+00  0.00000000000E+00  0.41259767192E+03  0.41259767192E+03  0.00000000000E+00 0. -1.
         -1   -1    0    0    0  501 -0.00000000000E+00 -0.00000000000E+00 -0.50767005915E+02  0.50767005915E+02  0.00000000000E+00 0.  1.
         25    2    1    2    0    0  0.45439349376E+02  0.72459369675E+02  0.26484706091E+03  0.30513468469E+03  0.12509242744E+03 0.  0.
          5    1    3    3  502    0  0.61972939176E+00  0.52603018398E+02  0.21699678415E+02  0.57059706032E+02  0.41800000000E+01 0.  1.
         -5    1    3    3    0  502  0.44819619985E+02  0.19856351277E+02  0.24314738250E+03  0.24807497866E+03  0.41800000000E+01 0.  1.
        -11    1    1    2    0    0 -0.14924094308E+02 -0.22636993821E+02 -0.15677945247E+02  0.31320281725E+02  0.00000000000E+00 0.  1.
         11    1    1    2    0    0 -0.30515255068E+02 -0.49822375854E+02  0.11266155034E+03  0.12690971142E+03  0.00000000000E+00 0. -1.
</event>
<event>
 7    1  0.2749315E-009  0.1098625E+03  0.7561462E-02  0.1260825E+00
         -2   -1    0    0    0  501 -0.00000000000E+00  0.00000000000E+00  0.29186729039E+02  0.29186729039E+02  0.00000000000E+00 0.  1.
          2   -1    0    0  501    0  0.00000000000E+00 -0.00000000000E+00 -0.49747332144E+03  0.49747332144E+03  0.00000000000E+00 0. -1.
         25    2    1    2    0    0 -0.35348078884E+02  0.10804726945E+02 -0.34858823319E+03  0.37219260408E+03  0.12508936570E+03 0.  0.
          5    1    3    3  502    0  0.41843544411E+02 -0.16062517897E+02 -0.84895198871E+02  0.96091382972E+02  0.41800000000E+01 0.  1.
         -5    1    3    3    0  502 -0.77191623295E+02  0.26867244842E+02 -0.26369303431E+03  0.27610122111E+03  0.41800000000E+01 0.  1.
        -11    1    1    2    0    0  0.54329274076E+02  0.18981240401E+02 -0.96018456021E+02  0.11194418880E+03  0.00000000000E+00 0.  1.
         11    1    1    2    0    0 -0.18981195191E+02 -0.29785967346E+02 -0.23679903193E+02  0.42523257600E+02  0.00000000000E+00 0. -1.
</event>
<event>
 7    1  0.2749315E-009  0.1162621E+03  0.7561462E-02  0.1249394E+00
         -2   -1    0    0    0  501 -0.00000000000E+00  0.00000000000E+00  0.65001109898E+02  0.65001109898E+02  0.00000000000E+00 0.  1.
          2   -1    0    0  501    0  0.00000000000E+00 -0.00000000000E+00 -0.35933864887E+03  0.35933864887E+03  0.00000000000E+00 0. -1.
         25    2    1    2    0    0 -0.10732808335E+03 -0.29913099453E+01 -0.19346292726E+03  0.25417320999E+03  0.12509137076E+03 0.  0.
          5    1    3    3  502    0 -0.29345136054E+02  0.12721354774E+01 -0.16992682599E+03  0.17249740268E+03  0.41800000000E+01 0. -1.
         -5    1    3    3    0  502 -0.77982947299E+02 -0.42634454227E+01 -0.23536101271E+02  0.81675807308E+02  0.41800000000E+01 0. -1.
        -11    1    1    2    0    0  0.10509517156E+03  0.20430728725E+02 -0.53604120220E+02  0.11973224907E+03  0.00000000000E+00 0. -1.
         11    1    1    2    0    0  0.22329117922E+01 -0.17439418780E+02 -0.47270491487E+02  0.50434299716E+02  0.00000000000E+00 0.  1.
</event>
<event>
 7    1  0.2749315E-009  0.1667575E+03  0.7561462E-02  0.1181272E+00
          1   -1    0    0  501    0  0.00000000000E+00  0.00000000000E+00  0.84865593839E+03  0.84865593839E+03  0.00000000000E+00 0.  1.
         -1   -1    0    0    0  501 -0.00000000000E+00 -0.00000000000E+00 -0.66968450909E+02  0.66968450909E+02  0.00000000000E+00 0. -1.
         25    2    1    2    0    0  0.91775208597E+02 -0.10826499198E+03  0.10129282959E+03  0.21459652008E+03  0.12508969463E+03 0.  0.
          5    1    3    3  502    0  0.93481254713E+02 -0.13133081488E+03  0.70847757163E+02  0.17613462186E+03  0.41800000000E+01 0.  1.
         -5    1    3    3    0  502 -0.17060461166E+01  0.23065822908E+02  0.30445072425E+02  0.38461898220E+02  0.41800000000E+01 0.  1.
        -11    1    1    2    0    0 -0.57744516219E+02  0.97037373606E+02  0.62454060913E+03  0.63466656874E+03  0.00000000000E+00 0. -1.
         11    1    1    2    0    0 -0.34030692378E+02  0.11227618371E+02  0.55854048765E+02  0.66361300481E+02  0.00000000000E+00 0.  1.
</event>
<event>
 7    1  0.2749315E-009  0.1329426E+03  0.7561462E-02  0.1223154E+00
          2   -1    0    0  501    0  0.00000000000E+00  0.00000000000E+00  0.10204201777E+04  0.10204201777E+04  0.00000000000E+00 0.  1.
         -2   -1    0    0    0  501 -0.00000000000E+00 -0.00000000000E+00 -0.18068871384E+02  0.18068871384E+02  0.00000000000E+00 0. -1.
         25    2    1    2    0    0 -0.78529669628E+02 -0.24562342245E+02  0.56751548607E+03  0.58693478745E+03  0.12509356547E+03 0.  0.
          5    1    3    3  502    0 -0.82475175381E+02  0.33052514078E+02  0.28545503555E+03  0.29899276406E+03  0.41800000000E+01 0. -1.
         -5    1    3    3    0  502  0.39455057525E+01 -0.57614856323E+02  0.28206045052E+03  0.28794202339E+03  0.41800000000E+01 0. -1.
        -11    1    1    2    0    0  0.46847226838E+02  0.56939746493E+02  0.22110465874E+03  0.23307524002E+03  0.00000000000E+00 0.  1.
         11    1    1    2    0    0  0.31682442790E+02 -0.32377404248E+02  0.21373116145E+03  0.21847902156E+03  0.00000000000E+00 0. -1.
</event>
<event>
 7    1  0.2749315E-009  0.7788037E+02  0.7561462E-02  0.1335177E+00
          2   -1    0    0  501    0  0.00000000000E+00  0.00000000000E+00  0.37441619182E+03  0.37441619182E+03  0.00000000000E+00 0. -1.
         -2   -1    0    0    0  501 -0.00000000000E+00 -0.00000000000E+00 -0.39835240116E+02  0.39835240116E+02  0.00000000000E+00 0.  1.
         25    2    1    2    0    0 -0.29084223864E+02 -0.32725336703E+02  0.25002308329E+03  0.28297704110E+03  0.12509046276E+03 0.  0.
          5    1    3    3  502    0  0.17015260426E+02  0.16187763348E+02 -0.19477130007E+00  0.23855253204E+02  0.41800000000E+01 0.  1.
         -5    1    3    3    0  502 -0.46099484290E+02 -0.48913100052E+02  0.25021785459E+03  0.25912178789E+03  0.41800000000E+01 0.  1.
        -11    1    1    2    0    0 -0.13279877538E+02  0.83487989289E+01  0.80739054949E+02  0.82248723912E+02  0.00000000000E+00 0. -1.
         11    1    1    2    0    0  0.42364101401E+02  0.24376537774E+02  0.38188134724E+01  0.49025666928E+02  0.00000000000E+00 0.  1.
</event>
<event>
 7    1  0.2749315E-009  0.1338611E+03  0.7561462E-02  0.1221836E+00
          1   -1    0    0  501    0  0.00000000000E+00  0.00000000000E+00  0.31587614417E+03  0.31587614417E+03  0.00000000000E+00 0. -1.
         -1   -1    0    0    0  501 -0.00000000000E+00 -0.00000000000E+00 -0.88546697137E+02  0.88546697137E+02  0.00000000000E+00 0.  1.
         25    2    1    2    0    0  0.48578453773E+02  0.10006481190E+03  0.47439245759E+02  0.17398905361E+03  0.12509546748E+03 0.  0.
          5    1    3    3  502    0 -0.23189307357E+02  0.13726240838E+02  0.54996051145E+02  0.61385598513E+02  0.41800000000E+01 0.  1.
         -5    1    3    3    0  502  0.71767761130E+02  0.86338571065E+02 -0.75568053860E+01  0.11260345509E+03  0.41800000000E+01 0.  1.
        -11    1    1    2    0    0 -0.46264963568E+02 -0.24216565235E+02  0.24874811424E+02  0.57841551926E+02  0.00000000000E+00 0.  1.
         11    1    1    2    0    0 -0.23134902050E+01 -0.75848246668E+02  0.15501538985E+03  0.17259223577E+03  0.00000000000E+00 0. -1.
</event>
<event>
 7    1  0.2749315E-009  0.7822153E+02  0.7561462E-02  0.1334176E+00
         -4   -1    0    0    0  501 -0.00000000000E+00  0.00000000000E+00  0.40637492791E+03  0.40637492791E+03  0.00000000000E+00 0.  1.
          4   -1    0    0  501    0  0.00000000000E+00 -0.00000000000E+00 -0.30382922974E+02  0.30382922974E+02  0.00000000000E+00 0. -1.
         25    2    1    2    0    0  0.23460712048E+02  0.45264155394E+01  0.22540889244E+03  0.25889829035E+03  0.12509301543E+03 0.  0.
          5    1    3    3  502    0 -0.12099843452E+02 -0.17183292731E+02 -0.71582404170E+01  0.22591692422E+02  0.41800000000E+01 0.  1.
         -5    1    3    3    0  502  0.35560555500E+02  0.21709708270E+02  0.23256713286E+03  0.23630659793E+03  0.41800000000E+01 0.  1.
        -11    1    1    2    0    0  0.21294822447E+02 -0.33594985312E+02  0.49004301465E+02  0.63115085861E+02  0.00000000000E+00 0. -1.
         11    1    1    2    0    0 -0.44755534495E+02  0.29068569773E+02  0.10157881103E+03  0.11474447467E+03  0.00000000000E+00 0.  1.
</event>
<event>
 7    1  0.2749315E-009  0.8456886E+02  0.7561462E-02  0.1316564E+00
         -3   -1    0    0    0  501 -0.00000000000E+00  0.00000000000E+00  0.22211725170E+03  0.22211725170E+03  0.00000000000E+00 0.  1.
          3   -1    0    0  501    0  0.00000000000E+00 -0.00000000000E+00 -0.78890103035E+02  0.78890103035E+02  0.00000000000E+00 0. -1.
         25    2    1    2    0    0 -0.34150546620E+02  0.63568367723E+02  0.51630815521E+02  0.15336323488E+03  0.12508934204E+03 0.  0.
          5    1    3    3  502    0 -0.95929376362E+01  0.43480809582E+01  0.81662065693E+02  0.82444500324E+02  0.41800000000E+01 0. -1.
         -5    1    3    3    0  502 -0.24557608983E+02  0.59220286765E+02 -0.30031250172E+02  0.70918734551E+02  0.41800000000E+01 0. -1.
        -11    1    1    2    0    0  0.47120578741E+02 -0.26004487892E+02  0.71221247993E+01  0.54289105657E+02  0.00000000000E+00 0. -1.
         11    1    1    2    0    0 -0.12970032121E+02 -0.37563879831E+02  0.84474208341E+02  0.93355014199E+02  0.00000000000E+00 0.  1.
</event>
<event>
 7    1  0.2749315E-009  0.1000254E+03  0.7561462E-02  0.1280242E+00
          3   -1    0    0  501    0  0.00000000000E+00  0.00000000000E+00  0.36664620865E+02  0.36664620865E+02  0.00000000000E+00 0. -1.
         -3   -1    0    0    0  501 -0.00000000000E+00 -0.00000000000E+00 -0.54891601897E+03  0.54891601897E+03  0.00000000000E+00 0.  1.
         25    2    1    2    0    0  0.30843592740E+02  0.74130386380E+02 -0.37141530814E+03  0.40005623385E+03  0.12509603399E+03 0.  0.
          5    1    3    3  502    0  0.50885778143E+02  0.43169176327E+02 -0.71646491176E+02  0.97998123961E+02  0.41800000000E+01 0.  1.
         -5    1    3    3    0  502 -0.20042185403E+02  0.30961210053E+02 -0.29976881697E+03  0.30205810989E+03  0.41800000000E+01 0.  1.
        -11    1    1    2    0    0 -0.33060725786E+01 -0.67716228358E+02 -0.14186330947E+03  0.15723109194E+03  0.00000000000E+00 0.  1.
         11    1    1    2    0    0 -0.27537520161E+02 -0.64141580216E+01  0.10272195085E+01  0.28293314045E+02  0.00000000000E+00 0. -1.
</event>
<event>
 7    1  0.2749315E-009  0.1397718E+03  0.7561462E-02  0.1213636E+00
          2   -1    0    0  501    0  0.00000000000E+00  0.00000000000E+00  0.66755963016E+03  0.66755963016E+03  0.00000000000E+00 0.  1.
         -2   -1    0    0    0  501 -0.00000000000E+00 -0.00000000000E+00 -0.45480922420E+02  0.45480922420E+02  0.00000000000E+00 0. -1.
         25    2    1    2    0    0 -0.13349440677E+03  0.68970162476E+01  0.38197481661E+03  0.42358385334E+03  0.12510073869E+03 0.  0.
          5    1    3    3  502    0 -0.11500831260E+03  0.21050660472E+02  0.38242973505E+03  0.39992501412E+03  0.41800000000E+01 0.  1.
         -5    1    3    3    0  502 -0.18486094168E+02 -0.14153644224E+02 -0.45491844079E+00  0.23658839219E+02  0.41800000000E+01 0.  1.
        -11    1    1    2    0    0  0.56664207187E+02  0.15722024165E+02  0.17988504554E+03  0.18925285739E+03  0.00000000000E+00 0.  1.
         11    1    1    2    0    0  0.76830199583E+02 -0.22619040413E+02  0.60218845596E+02  0.10020384185E+03  0.00000000000E+00 0. -1.
</event>
<event>
 7    1  0.2749315E-009  0.9825763E+02  0.7561462E-02  0.1284003E+00
         -1   -1    0    0    0  501 -0.00000000000E+00  0.00000000000E+00  0.85641180973E+02  0.85641180973E+02  0.00000000000E+00 0.  1.
          1   -1    0    0  501    0  0.00000000000E+00 -0.00000000000E+00 -0.21245081135E+03  0.21245081135E+03  0.00000000000E+00 0. -1.
         25    2    1    2    0    0  0.10766590855E+02  0.31571387005E+02  0.90113073348E+01  0.12976261049E+03  0.12507781365E+03 0.  0.
          5    1    3    3  502    0  0.44624358181E+02  0.57802134202E+02 -0.22387006107E+02  0.76492290486E+02  0.41800000000E+01 0.  1.
         -5    1    3    3    0  502 -0.33857767326E+02 -0.26230747197E+02  0.31398313442E+02  0.53270320009E+02  0.41800000000E+01 0.  1.
        -11    1    1    2    0    0 -0.38239285843E+02  0.32707505954E+00 -0.11533885550E+03  0.12151296864E+03  0.00000000000E+00 0. -1.
         11    1    1    2    0    0  0.27472694988E+02 -0.31898462064E+02 -0.20482082211E+02  0.46816413187E+02  0.00000000000E+00 0.  1.
</event>
<event>
 7    1  0.2969996E-009  0.1260072E+03  0.7561462E-02  0.1233504E+00
         -1   -1    0    0    0  501 -0.00000000000E+00  0.00000000000E+00  0.33452630431E+02  0.33452630431E+02  0.00000000000E+00 0.  1.
          1   -1    0    0  501    0  0.00000000000E+00 -0.00000000000E+00 -0.69591558865E+03  0.69591558865E+03  0.00000000000E+00 0. -1.
         25    2    1    2    0    0  0.36658790782E+02  0.98966814910E+02 -0.36880432273E+03  0.40348820174E+03  0.12509117910E+03 0.  0.
          5    1    3    3  502    0 -0.11158010216E+02  0.52056543078E+01  0.58865524419E+01  0.14273189146E+02  0.41800000000E+01 0. -1.
         -5    1    3    3    0  502  0.47816800999E+02  0.93761160602E+02 -0.37469087517E+03  0.38921501260E+03  0.41800000000E+01 0. -1.
        -11    1    1    2    0    0  0.17422890196E+02 -0.70383459415E+02 -0.21056009457E+03  0.22269472802E+03  0.00000000000E+00 0. -1.
         11    1    1    2    0    0 -0.54081680978E+02 -0.28583355495E+02 -0.83098540928E+02  0.10318528933E+03  0.00000000000E+00 0.  1.
</event>
<event>
 7    1  0.2749315E-009  0.1508623E+03  0.7561462E-02  0.1199417E+00
          2   -1    0    0  501    0  0.00000000000E+00  0.00000000000E+00  0.95433940055E+02  0.95433940055E+02  0.00000000000E+00 0.  1.
         -2   -1    0    0    0  501 -0.00000000000E+00 -0.00000000000E+00 -0.41886990920E+03  0.41886990920E+03  0.00000000000E+00 0. -1.
         25    2    1    2    0    0  0.11294302916E+03  0.39540718402E+01 -0.33022163237E+03  0.37076305134E+03  0.12508857354E+03 0.  0.
          5    1    3    3  502    0  0.50910755916E+02 -0.57122905497E+02 -0.11129151648E+03  0.13512292714E+03  0.41800000000E+01 0. -1.
         -5    1    3    3    0  502  0.62032273248E+02  0.61076977337E+02 -0.21893011590E+03  0.23564012420E+03  0.41800000000E+01 0. -1.
        -11    1    1    2    0    0 -0.56186610158E+02 -0.41531585863E+02 -0.16149380380E+02  0.71711995314E+02  0.00000000000E+00 0. -1.
         11    1    1    2    0    0 -0.56756419006E+02  0.37577514023E+02  0.22935043603E+02  0.71828802605E+02  0.00000000000E+00 0.  1.
</event>
<event>
 7    1  0.2749315E-009  0.4299871E+02  0.7561462E-02  0.1487236E+00
         -1   -1    0    0    0  501 -0.00000000000E+00  0.00000000000E+00  0.26245175737E+03  0.26245175737E+03  0.00000000000E+00 0.  1.
          1   -1    0    0  501    0  0.00000000000E+00 -0.00000000000E+00 -0.56835268759E+02  0.56835268759E+02  0.00000000000E+00 0. -1.
         25    2    1    2    0    0 -0.32327090519E+01 -0.14196541584E+02  0.18275139325E+03  0.22193841750E+03  0.12508635908E+03 0.  0.
          5    1    3    3  502    0  0.18065774344E+02 -0.21439528922E+02  0.19426596503E+03  0.19632310912E+03  0.41800000000E+01 0.  1.
         -5    1    3    3    0  502 -0.21298483396E+02  0.72429873380E+01 -0.11514571781E+02  0.25615308389E+02  0.41800000000E+01 0.  1.
        -11    1    1    2    0    0  0.12839799267E+02 -0.46176351535E+01  0.56228022701E+02  0.57859947602E+02  0.00000000000E+00 0.  1.
         11    1    1    2    0    0 -0.96070902152E+01  0.18814176738E+02 -0.33362927340E+02  0.39488661023E+02  0.00000000000E+00 0. -1.
</event>
<event>
 7    1  0.2749315E-009  0.1850817E+03  0.7561462E-02  0.1162974E+00
         -3   -1    0    0    0  501 -0.00000000000E+00  0.00000000000E+00  0.80982596727E+02  0.80982596727E+02  0.00000000000E+00 0.  1.
          3   -1    0    0  501    0  0.00000000000E+00 -0.00000000000E+00 -0.56343886425E+03  0.56343886425E+03  0.00000000000E+00 0. -1.
         25    2    1    2    0    0  0.18359631366E+03 -0.33508107380E+01 -0.26646300118E+03  0.34694218544E+03  0.12509002644E+03 0.  0.
          5    1    3    3  502    0  0.12917345023E+03 -0.76015524867E+01 -0.26171790183E+03  0.29198852098E+03  0.41800000000E+01 0.  1.
         -5    1    3    3    0  502  0.54422863430E+02  0.42507417487E+01 -0.47450993479E+01  0.54953664456E+02  0.41800000000E+01 0.  1.
        -11    1    1    2    0    0 -0.15274661850E+03  0.13825837543E+02 -0.21598416124E+03  0.26489968130E+03  0.00000000000E+00 0. -1.
         11    1    1    2    0    0 -0.30849695157E+02 -0.10475026805E+02 -0.91050997633E-02  0.32579594238E+02  0.00000000000E+00 0.  1.
</event>
<event>
 7    1  0.2749315E-009  0.9286989E+02  0.7561462E-02  0.1296047E+00
          2   -1    0    0  501    0  0.00000000000E+00  0.00000000000E+00  0.26090575279E+04  0.26090575279E+04  0.00000000000E+00 0. -1.
         -2   -1    0    0    0  501 -0.00000000000E+00 -0.00000000000E+00 -0.90310718371E+01  0.90310718371E+01  0.00000000000E+00 0.  1.
         25    2    1    2    0    0 -0.24397735685E+02  0.45036783562E+02  0.22258888756E+04  0.22299886383E+04  0.12507789128E+03 0.  0.
          5    1    3    3  502    0 -0.44294698211E+02  0.13516652942E+02  0.20304869523E+04  0.20310193145E+04  0.41800000000E+01 0.  1.
         -5    1    3    3    0  502  0.19896962525E+02  0.31520130620E+02  0.19540192334E+03  0.19896932376E+03  0.41800000000E+01 0.  1.
        -11    1    1    2    0    0 -0.23278772396E+02 -0.48635867346E+02  0.23014519090E+03  0.23637715146E+03  0.00000000000E+00 0. -1.
         11    1    1    2    0    0  0.47676508082E+02  0.35990837842E+01  0.14399238956E+03  0.15172281002E+03  0.00000000000E+00 0.  1.
</event>
<event>
 7    1  0.2749315E-009  0.1286103E+03  0.7561462E-02  0.1229532E+00
          2   -1    0    0  501    0  0.00000000000E+00  0.00000000000E+00  0.72717885871E+03  0.72717885871E+03  0.00000000000E+00 0. -1.
         -2   -1    0    0    0  501 -0.00000000000E+00 -0.00000000000E+00 -0.32549853807E+02  0.32549853807E+02  0.00000000000E+00 0.  1.
         25    2    1    2    0    0  0.12484086288E+02 -0.82628802737E+02  0.54321880627E+03  0.56366415374E+03  0.12508890949E+03 0.  0.
          5    1    3    3  502    0  0.68251464467E+01  0.27729260542E+02  0.46057652934E+02  0.54353236408E+02  0.41800000000E+01 0. -1.
         -5    1    3    3    0  502  0.56589398408E+01 -0.11035806328E+03  0.49716115334E+03  0.50931091734E+03  0.41800000000E+01 0. -1.
        -11    1    1    2    0    0 -0.47214901698E+02  0.34731421949E+02  0.43471636129E+02  0.72974665198E+02  0.00000000000E+00 0.  1.
         11    1    1    2    0    0  0.34730815410E+02  0.47897380788E+02  0.10793856251E+03  0.12308989358E+03  0.00000000000E+00 0. -1.
</event>
<event>
 7    1  0.2749315E-009  0.2579338E+03  0.7561462E-02  0.1108391E+00
         -2   -1    0    0    0  501 -0.00000000000E+00  0.00000000000E+00  0.22916279796E+03  0.22916279796E+03  0.00000000000E+00 0.  1.
          2   -1    0    0  501    0  0.00000000000E+00 -0.00000000000E+00 -0.53416782757E+03  0.53416782757E+03  0.00000000000E+00 0. -1.
         25    2    1    2    0    0 -0.19854032076E+03 -0.14809774400E+03 -0.39649532354E+03  0.48394967136E+03  0.12509013580E+03 0.  0.
          5    1    3    3  502    0 -0.20091603402E+03 -0.11908312660E+03 -0.38875617538E+03  0.45353817928E+03  0.41800000000E+01 0. -1.
         -5    1    3    3    0  502  0.23757132558E+01 -0.29014617401E+02 -0.77391481568E+01  0.30411492081E+02  0.41800000000E+01 0. -1.
        -11    1    1    2    0    0  0.37139629072E+02  0.55523166686E+02 -0.98280661862E+01  0.67518626848E+02  0.00000000000E+00 0. -1.
         11    1    1    2    0    0  0.16140069169E+03  0.92574577318E+02  0.10131836011E+03  0.21186232733E+03  0.00000000000E+00 0.  1.
</event>
<event>
 7    1  0.2749315E-009  0.1981920E+03  0.7561462E-02  0.1151273E+00
          1   -1    0    0  501    0  0.00000000000E+00  0.00000000000E+00  0.11530672300E+04  0.11530672300E+04  0.00000000000E+00 0. -1.
         -1   -1    0    0    0  501 -0.00000000000E+00 -0.00000000000E+00 -0.36117198413E+02  0.36117198413E+02  0.00000000000E+00 0.  1.
         25    2    1    2    0    0  0.11962897544E+03  0.12233470739E+03  0.56060140429E+03  0.59933058891E+03  0.12508536251E+03 0.  0.
          5    1    3    3  502    0  0.38500375122E+02  0.11846397206E+03  0.40519463782E+03  0.42392942630E+03  0.41800000000E+01 0.  1.
         -5    1    3    3    0  502  0.81128600315E+02  0.38707353209E+01  0.15540676647E+03  0.17540116261E+03  0.41800000000E+01 0.  1.
        -11    1    1    2    0    0 -0.51199820027E+02 -0.11033557914E+01  0.94545538523E+02  0.10752440569E+03  0.00000000000E+00 0.  1.
         11    1    1    2    0    0 -0.68429155410E+02 -0.12123135159E+03  0.46180308875E+03  0.48232943378E+03  0.00000000000E+00 0. -1.
</event>
<event>
 7    1  0.2749315E-009  0.9897065E+02  0.7561462E-02  0.1282476E+00
         -1   -1    0    0    0  501 -0.00000000000E+00  0.00000000000E+00  0.50083507563E+03  0.50083507563E+03  0.00000000000E+00 0.  1.
          1   -1    0    0  501    0  0.00000000000E+00 -0.00000000000E+00 -0.43092762426E+02  0.43092762426E+02  0.00000000000E+00 0. -1.
         25    2    1    2    0    0 -0.13479680119E+02 -0.13986953595E+02  0.68904725444E+02  0.14412785695E+03  0.12509053247E+03 0.  0.
          5    1    3    3  502    0 -0.44003635101E+02  0.28800165920E+02 -0.53839989132E+01  0.53030456376E+02  0.41800000000E+01 0.  1.
         -5    1    3    3    0  502  0.30523954982E+02 -0.42787119516E+02  0.74288724357E+02  0.91097400571E+02  0.41800000000E+01 0.  1.
        -11    1    1    2    0    0  0.42144131231E+02 -0.21117667141E+02  0.21931707629E+03  0.22432579792E+03  0.00000000000E+00 0.  1.
         11    1    1    2    0    0 -0.28664451111E+02  0.35104620737E+02  0.16952051147E+03  0.17547418318E+03  0.00000000000E+00 0. -1.
</event>
<event>
 7    1  0.2749315E-009  0.1254208E+03  0.7561462E-02  0.1234413E+00
         -2   -1    0    0    0  501 -0.00000000000E+00  0.00000000000E+00  0.24328783202E+03  0.24328783202E+03  0.00000000000E+00 0.  1.
          2   -1    0    0  501    0  0.00000000000E+00 -0.00000000000E+00 -0.78071418166E+02  0.78071418166E+02  0.00000000000E+00 0. -1.
         25    2    1    2    0    0  0.68826613716E+02 -0.18872254237E+02  0.37569159627E+02  0.14883703392E+03  0.12509099159E+03 0.  0.
          5    1    3    3  502    0  0.14429907263E+02  0.47498656302E+02 -0.97337194410E+01  0.50759848978E+02  0.41800000000E+01 0. -1.
         -5    1    3    3    0  502  0.54396706453E+02 -0.66370910539E+02  0.47302879068E+02  0.98077184946E+02  0.41800000000E+01 0. -1.
        -11    1    1    2    0    0 -0.26119041828E+02 -0.36684489140E+02  0.60937611723E+02  0.75771687404E+02  0.00000000000E+00 0.  1.
         11    1    1    2    0    0 -0.42707571888E+02  0.55556743378E+02  0.66709642499E+02  0.96750528855E+02  0.00000000000E+00 0. -1.
</event>
<event>
 7    1  0.2749315E-009  0.1276692E+03  0.7561462E-02  0.1230956E+00
          2   -1    0    0  501    0  0.00000000000E+00  0.00000000000E+00  0.12075262302E+04  0.12075262302E+04  0.00000000000E+00 0. -1.
         -2   -1    0    0    0  501 -0.00000000000E+00 -0.00000000000E+00 -0.14751603838E+02  0.14751603838E+02  0.00000000000E+00 0.  1.
         25    2    1    2    0    0  0.50043156053E+02 -0.56358800928E+02  0.65705321453E+03  0.67308781209E+03  0.12509054378E+03 0.  0.
          5    1    3    3  502    0  0.68198793682E+02  0.72341807947E+01  0.46210247437E+03  0.46718259605E+03  0.41800000000E+01 0. -1.
         -5    1    3    3    0  502 -0.18155637629E+02 -0.63592981722E+02  0.19495074016E+03  0.20590521604E+03  0.41800000000E+01 0. -1.
        -11    1    1    2    0    0 -0.98840707447E+01  0.75311404476E+02  0.31297949413E+03  0.32206469264E+03  0.00000000000E+00 0. -1.
         11    1    1    2    0    0 -0.40159085308E+02 -0.18952603549E+02  0.22274191767E+03  0.22712532928E+03  0.00000000000E+00 0.  1.
</event>
<event>
 7    1  0.2749315E-009  0.7835826E+02  0.7561462E-02  0.1333776E+00
          1   -1    0    0  501    0  0.00000000000E+00  0.00000000000E+00  0.56793800200E+03  0.56793800200E+03  0.00000000000E+00 0. -1.
         -1   -1    0    0    0  501 -0.00000000000E+00 -0.00000000000E+00 -0.23867774190E+02  0.23867774190E+02  0.00000000000E+00 0.  1.
         25    2    1    2    0    0  0.23127148996E+02  0.29655592380E+02  0.35974782839E+03  0.38272810506E+03  0.12509189897E+03 0.  0.
          5    1    3    3  502    0  0.15360801328E+02 -0.25050195970E+02  0.29913412473E+03  0.30060299984E+03  0.41800000000E+01 0.  1.
         -5    1    3    3    0  502  0.77663476677E+01  0.54705788349E+02  0.60613703660E+02  0.82125105214E+02  0.41800000000E+01 0.  1.
        -11    1    1    2    0    0 -0.99210566979E+01 -0.48003149024E+02  0.17935453377E+03  0.18593218782E+03  0.00000000000E+00 0. -1.
         11    1    1    2    0    0 -0.13206092298E+02  0.18347556645E+02  0.49678656416E+01  0.23145483310E+02  0.00000000000E+00 0.  1.
</event>
<event>
 7    1  0.2749315E-009  0.1579950E+03  0.7561462E-02  0.1190979E+00
          1   -1    0    0  501    0  0.00000000000E+00  0.00000000000E+00  0.25046513052E+03  0.25046513052E+03  0.00000000000E+00 0. -1.
         -1   -1    0    0    0  501 -0.00000000000E+00 -0.00000000000E+00 -0.13214227197E+03  0.13214227197E+03  0.00000000000E+00 0.  1.
         25    2    1    2    0    0  0.14155604393E+03  0.33774245185E+02  0.61752402934E+02  0.20159540085E+03  0.12509409725E+03 0.  0.
          5    1    3    3  502    0  0.11361058186E+03  0.14329379650E+02  0.98661151302E+02  0.15120909566E+03  0.41800000000E+01 0.  1.
         -5    1    3    3    0  502  0.27945462062E+02  0.19444865535E+02 -0.36908748368E+02  0.50386305199E+02  0.41800000000E+01 0.  1.
        -11    1    1    2    0    0 -0.60225855403E+02 -0.56581093571E+02  0.49319191478E+02  0.96233863358E+02  0.00000000000E+00 0. -1.
         11    1    1    2    0    0 -0.81330188522E+02  0.22806848386E+02  0.72512641448E+01  0.84778138279E+02  0.00000000000E+00 0.  1.
</event>
<event>
 7    1  0.2749315E-009  0.1263625E+03  0.7561462E-02  0.1232955E+00
          1   -1    0    0  501    0  0.00000000000E+00  0.00000000000E+00  0.56640905386E+03  0.56640905386E+03  0.00000000000E+00 0. -1.
         -1   -1    0    0    0  501 -0.00000000000E+00 -0.00000000000E+00 -0.39483026871E+02  0.39483026871E+02  0.00000000000E+00 0.  1.
         25    2    1    2    0    0  0.88934793345E+02 -0.49327797960E+02  0.31439280075E+03  0.35331927920E+03  0.12509616610E+03 0.  0.
          5    1    3    3  502    0  0.95667037132E+02 -0.17303686810E+02  0.11248671053E+03  0.14873577921E+03  0.41800000000E+01 0. -1.
         -5    1    3    3    0  502 -0.67322437876E+01 -0.32024111150E+02  0.20190609021E+03  0.20458349998E+03  0.41800000000E+01 0. -1.
        -11    1    1    2    0    0 -0.44137345718E+02  0.61782905359E+02  0.72350403631E+02  0.10487999612E+03  0.00000000000E+00 0. -1.
         11    1    1    2    0    0 -0.44797447627E+02 -0.12455107399E+02  0.14018282261E+03  0.14769280541E+03  0.00000000000E+00 0.  1.
</event>
<event>
 7    1  0.2749315E-009  0.1553099E+03  0.7561462E-02  0.1194096E+00
         -4   -1    0    0    0  501 -0.00000000000E+00  0.00000000000E+00  0.60850632110E+02  0.60850632110E+02  0.00000000000E+00 0.  1.
          4   -1    0    0  501    0  0.00000000000E+00 -0.00000000000E+00 -0.47881896190E+03  0.47881896190E+03  0.00000000000E+00 0. -1.
         25    2    1    2    0    0 -0.10785396015E+03  0.49505135005E+02 -0.31177893032E+03  0.35628194725E+03  0.12508992541E+03 0.  0.
          5    1    3    3  502    0  0.20986266561E+02  0.37102236022E+02 -0.82599664371E+02  0.93043947983E+02  0.41800000000E+01 0.  1.
         -5    1    3    3    0  502 -0.12884022671E+03  0.12402898983E+02 -0.22917926595E+03  0.26323799927E+03  0.41800000000E+01 0.  1.
        -11    1    1    2    0    0  0.98357752715E+02 -0.66562093005E+02 -0.59612561516E+02  0.13288497746E+03  0.00000000000E+00 0.  1.
         11    1    1    2    0    0  0.94962074316E+01  0.17056958000E+02 -0.46576837955E+02  0.50502669293E+02  0.00000000000E+00 0. -1.
</event>
<event>
 7    1  0.2749315E-009  0.7009842E+02  0.7561462E-02  0.1359759E+00
          1   -1    0    0  501    0  0.00000000000E+00  0.00000000000E+00  0.79004176607E+02  0.79004176607E+02  0.00000000000E+00 0. -1.
         -1   -1    0    0    0  501 -0.00000000000E+00 -0.00000000000E+00 -0.16777028179E+03  0.16777028179E+03  0.00000000000E+00 0.  1.
         25    2    1    2    0    0 -0.29340857749E+02 -0.20516837371E+02 -0.61089705472E+02  0.14374372143E+03  0.12509387989E+03 0.  0.
          5    1    3    3  502    0 -0.17637844064E+02 -0.22467411035E+02  0.35829270352E+02  0.46011814959E+02  0.41800000000E+01 0. -1.
         -5    1    3    3    0  502 -0.11703013685E+02  0.19505736640E+01 -0.96918975824E+02  0.97731906468E+02  0.41800000000E+01 0. -1.
        -11    1    1    2    0    0  0.62094030124E+02  0.44099351529E+01 -0.12452635420E+02  0.63483732042E+02  0.00000000000E+00 0.  1.
         11    1    1    2    0    0 -0.32753172375E+02  0.16106902218E+02 -0.15223764290E+02  0.39547004929E+02  0.00000000000E+00 0. -1.
</event>
<event>
 7    1  0.2749315E-009  0.1414288E+03  0.7561462E-02  0.1211419E+00
          3   -1    0    0  501    0  0.00000000000E+00  0.00000000000E+00  0.22774288147E+03  0.22774288147E+03  0.00000000000E+00 0. -1.
         -3   -1    0    0    0  501 -0.00000000000E+00 -0.00000000000E+00 -0.10895264462E+03  0.10895264462E+03  0.00000000000E+00 0.  1.
         25    2    1    2    0    0 -0.10775169817E+03  0.24510427464E+02  0.10306906857E+03  0.19616701482E+03  0.12508827001E+03 0.  0.
          5    1    3    3  502    0 -0.11722706241E+03  0.50544572385E+02  0.51980790696E+02  0.13790001073E+03  0.41800000000E+01 0. -1.
         -5    1    3    3    0  502  0.94753642395E+01 -0.26034144920E+02  0.51088277871E+02  0.58267004085E+02  0.41800000000E+01 0. -1.
        -11    1    1    2    0    0  0.75026445984E+02  0.14266544362E+02  0.37775097887E+02  0.85202464198E+02  0.00000000000E+00 0.  1.
         11    1    1    2    0    0  0.32725252183E+02 -0.38776971826E+02 -0.22053929608E+02  0.55326047081E+02  0.00000000000E+00 0. -1.
</event>
<event>
 7    1  0.2753436E-009  0.2917157E+03  0.7561462E-02  0.1089457E+00
         -2   -1    0    0    0  501 -0.00000000000E+00  0.00000000000E+00  0.14940086403E+03  0.14940086403E+03  0.00000000000E+00 0. -1.
          2   -1    0    0  501    0  0.00000000000E+00 -0.00000000000E+00 -0.62306148180E+03  0.62306148180E+03  0.00000000000E+00 0.  1.
         25    2    1    2    0    0 -0.29599377985E+02  0.27730475950E+03 -0.31551694772E+03  0.43928765298E+03  0.12509454401E+03 0.  0.
          5    1    3    3  502    0 -0.52518046076E+02  0.11859518810E+03 -0.74099366356E+02  0.14943611444E+03  0.41800000000E+01 0. -1.
         -5    1    3    3    0  502  0.22918668091E+02  0.15870957140E+03 -0.24141758137E+03  0.28985153854E+03  0.41800000000E+01 0. -1.
        -11    1    1    2    0    0 -0.30708534797E+02 -0.13928402476E+03 -0.77163250670E+02  0.16216417890E+03  0.00000000000E+00 0. -1.
         11    1    1    2    0    0  0.60307912782E+02 -0.13802073473E+03 -0.80980419382E+02  0.17101051396E+03  0.00000000000E+00 0.  1.
</event>
<event>
 7    1  0.2749315E-009  0.1402674E+03  0.7561462E-02  0.1212970E+00
         -3   -1    0    0    0  501 -0.00000000000E+00  0.00000000000E+00  0.61653264954E+02  0.61653264954E+02  0.00000000000E+00 0.  1.
          3   -1    0    0  501    0  0.00000000000E+00 -0.00000000000E+00 -0.36015742781E+03  0.36015742781E+03  0.00000000000E+00 0. -1.
         25    2    1    2    0    0 -0.76432881537E+02  0.59710842427E+02 -0.20416692772E+03  0.25834093987E+03  0.12509411158E+03 0.  0.
          5    1    3    3  502    0  0.13755829814E+02  0.60568560144E+02 -0.11861001222E+03  0.13395365143E+03  0.41800000000E+01 0.  1.
         -5    1    3    3    0  502 -0.90188711351E+02 -0.85771771700E+00 -0.85556915503E+02  0.12438728844E+03  0.41800000000E+01 0.  1.
        -11    1    1    2    0    0  0.69601369717E+02 -0.80320504952E+02 -0.57835867712E+02  0.12099885031E+03  0.00000000000E+00 0.  1.
         11    1    1    2    0    0  0.68315118192E+01  0.20609662525E+02 -0.36501367424E+02  0.42470902592E+02  0.00000000000E+00 0. -1.
</event>
<event>
 7    1  0.2749315E-009  0.1238304E+03  0.7561462E-02  0.1236909E+00
          1   -1    0    0  501    0  0.00000000000E+00  0.00000000000E+00  0.57507192319E+03  0.57507192319E+03  0.00000000000E+00 0. -1.
         -1   -1    0    0    0  501 -0.00000000000E+00 -0.00000000000E+00 -0.52601518994E+02  0.52601518994E+02  0.00000000000E+00 0.  1.
         25    2    1    2    0    0 -0.57770746983E+02  0.86757996787E+02  0.43230536416E+03  0.46195216458E+03  0.12508982880E+03 0.  0.
          5    1    3    3  502    0 -0.37390731903E+01  0.29621967470E+02  0.33689191539E+03  0.33823819519E+03  0.41800000000E+01 0.  1.
         -5    1    3    3    0  502 -0.54031673793E+02  0.57136029317E+02  0.95413448766E+02  0.12371396940E+03  0.41800000000E+01 0.  1.
        -11    1    1    2    0    0  0.81551430113E+02 -0.52246822007E+02  0.58008785045E+02  0.11289546185E+03  0.00000000000E+00 0.  1.
         11    1    1    2    0    0 -0.23780683130E+02 -0.34511174780E+02  0.32156254994E+02  0.52825815754E+02  0.00000000000E+00 0. -1.
</event>
<event>
 7    1  0.2749315E-009  0.9807511E+02  0.7561462E-02  0.1284397E+00
          4   -1    0    0  501    0  0.00000000000E+00  0.00000000000E+00  0.33293584950E+02  0.33293584950E+02  0.00000000000E+00 0. -1.
         -4   -1    0    0    0  501 -0.00000000000E+00 -0.00000000000E+00 -0.39097449573E+03  0.39097449573E+03  0.00000000000E+00 0.  1.
         25    2    1    2    0    0  0.29597651315E+02 -0.18108743512E+02 -0.24239287907E+03  0.27497392412E+03  0.12510956626E+03 0.  0.
          5    1    3    3  502    0 -0.87399060392E+01  0.42775486123E+02 -0.37260847071E+02  0.57549728888E+02  0.41800000000E+01 0.  1.
         -5    1    3    3    0  502  0.38337557354E+02 -0.60884229635E+02 -0.20513203200E+03  0.21742419524E+03  0.41800000000E+01 0.  1.
        -11    1    1    2    0    0 -0.15582473283E+02  0.46238304905E+02 -0.27409404406E+02  0.55964897606E+02  0.00000000000E+00 0.  1.
         11    1    1    2    0    0 -0.14015178032E+02 -0.28129561393E+02 -0.87878627308E+02  0.93329258954E+02  0.00000000000E+00 0. -1.
</event>
<event>
 7    1  0.2749315E-009  0.3351116E+03  0.7561462E-02  0.1068897E+00
         -2   -1    0    0    0  501 -0.00000000000E+00  0.00000000000E+00  0.58287801085E+02  0.58287801085E+02  0.00000000000E+00 0.  1.
          2   -1    0    0  501    0  0.00000000000E+00 -0.00000000000E+00 -0.19631479333E+04  0.19631479333E+04  0.00000000000E+00 0. -1.
         25    2    1    2    0    0  0.29088892954E+03 -0.11948922125E+03 -0.10082110946E+04  0.10634976910E+04  0.12507471503E+03 0.  0.
          5    1    3    3  502    0  0.35557750198E+02 -0.66594962702E+02 -0.27873085730E+03  0.28880374974E+03  0.41800000000E+01 0. -1.
         -5    1    3    3    0  502  0.25533117934E+03 -0.52894258551E+02 -0.72948023727E+03  0.77469394130E+03  0.41800000000E+01 0. -1.
        -11    1    1    2    0    0 -0.16078849890E+02 -0.19985147552E+02 -0.39758855670E+02  0.47314925136E+02  0.00000000000E+00 0.  1.
         11    1    1    2    0    0 -0.27481007965E+03  0.13947436880E+03 -0.85689018201E+03  0.91062311823E+03  0.00000000000E+00 0. -1.
</event>
<event>
 7    1  0.2749315E-009  0.1706352E+03  0.7561462E-02  0.1177187E+00
         -2   -1    0    0    0  501 -0.00000000000E+00  0.00000000000E+00  0.14078137754E+03  0.14078137754E+03  0.00000000000E+00 0. -1.
          2   -1    0    0  501    0  0.00000000000E+00 -0.00000000000E+00 -0.25360182954E+03  0.25360182954E+03  0.00000000000E+00 0.  1.
         25    2    1    2    0    0 -0.93431030823E+02  0.76815558554E+02 -0.13535280791E+03  0.22044966328E+03  0.12509070259E+03 0.  0.
          5    1    3    3  502    0 -0.24210978611E+02 -0.34066248341E+02 -0.44604932322E+02  0.61267880238E+02  0.41800000000E+01 0. -1.
         -5    1    3    3    0  502 -0.69220052212E+02  0.11088180690E+03 -0.90747875584E+02  0.15918178304E+03  0.41800000000E+01 0. -1.
        -11    1    1    2    0    0  0.10978592487E+02  0.30925843499E+02  0.19613387005E+02  0.38231168422E+02  0.00000000000E+00 0.  1.
         11    1    1    2    0    0  0.82452438336E+02 -0.10774140205E+03  0.29189689060E+01  0.13570237538E+03  0.00000000000E+00 0. -1.
</event>
<event>
 7    1  0.2749315E-009  0.2318262E+03  0.7561462E-02  0.1125361E+00
         -2   -1    0    0    0  501 -0.00000000000E+00  0.00000000000E+00  0.11410603992E+03  0.11410603992E+03  0.00000000000E+00 0.  1.
          2   -1    0    0  501    0  0.00000000000E+00 -0.00000000000E+00 -0.52047435339E+03  0.52047435339E+03  0.00000000000E+00 0. -1.
         25    2    1    2    0    0  0.21750996798E+03  0.19559022013E+01 -0.20352205102E+03  0.32308345423E+03  0.12508909395E+03 0.  0.
          5    1    3    3  502    0  0.85799090600E+02 -0.44179483628E+02 -0.13901846281E+03  0.16928353766E+03  0.41800000000E+01 0. -1.
         -5    1    3    3    0  502  0.13171087738E+03  0.46135385829E+02 -0.64503588206E+02  0.15379991657E+03  0.41800000000E+01 0. -1.
        -11    1    1    2    0    0 -0.47074269429E+02  0.27434834342E+02 -0.15766740216E+02  0.56720781682E+02  0.00000000000E+00 0.  1.
         11    1    1    2    0    0 -0.17043569855E+03 -0.29390736543E+02 -0.18707952224E+03  0.25477615740E+03  0.00000000000E+00 0. -1.
</event>
<event>
 7    1  0.2749315E-009  0.4147429E+03  0.7561462E-02  0.1038791E+00
         -1   -1    0    0    0  501 -0.00000000000E+00  0.00000000000E+00  0.19788927161E+03  0.19788927161E+03  0.00000000000E+00 0.  1.
          1   -1    0    0  501    0  0.00000000000E+00 -0.00000000000E+00 -0.90044690265E+03  0.90044690265E+03  0.00000000000E+00 0. -1.
         25    2    1    2    0    0 -0.36652114804E+03 -0.17729382979E+03 -0.34046937846E+03  0.54528658280E+03  0.12508879116E+03 0.  0.
          5    1    3    3  502    0  0.19136793686E+01 -0.17217595927E+02 -0.39461016911E+02  0.43298406829E+02  0.41800000000E+01 0. -1.
         -5    1    3    3    0  502 -0.36843482741E+03 -0.16007623386E+03 -0.30100836155E+03  0.50198817597E+03  0.41800000000E+01 0. -1.
        -11    1    1    2    0    0  0.83748416090E+02  0.63610317493E+02 -0.14387880336E+03  0.17821666517E+03  0.00000000000E+00 0. -1.
         11    1    1    2    0    0  0.28277273195E+03  0.11368351229E+03 -0.21820944922E+03  0.37483292629E+03  0.00000000000E+00 0.  1.
</event>
<event>
 7    1  0.2749315E-009  0.3455275E+03  0.7561462E-02  0.1064466E+00
         -1   -1    0    0    0  501 -0.00000000000E+00  0.00000000000E+00  0.16192403419E+03  0.16192403419E+03  0.00000000000E+00 0.  1.
          1   -1    0    0  501    0  0.00000000000E+00 -0.00000000000E+00 -0.83561496582E+03  0.83561496582E+03  0.00000000000E+00 0. -1.
         25    2    1    2    0    0  0.28891389557E+02 -0.33137551787E+03 -0.18981130077E+03  0.40288933748E+03  0.12508813741E+03 0.  0.
          5    1    3    3  502    0 -0.46840895862E+02 -0.15560118108E+03 -0.69529503735E+02  0.17679825047E+03  0.41800000000E+01 0.  1.
         -5    1    3    3    0  502  0.75732285419E+02 -0.17577433679E+03 -0.12028179703E+03  0.22609108701E+03  0.41800000000E+01 0.  1.
        -11    1    1    2    0    0  0.16378900897E+02  0.89806659849E+02 -0.19538372909E+03  0.21565784507E+03  0.00000000000E+00 0. -1.
         11    1    1    2    0    0 -0.45270290454E+02  0.24156885802E+03 -0.28849590177E+03  0.37899181746E+03  0.00000000000E+00 0.  1.
</event>
<event>
 7    1  0.2749315E-009  0.1123114E+03  0.7561462E-02  0.1256348E+00
         -1   -1    0    0    0  501 -0.00000000000E+00  0.00000000000E+00  0.47243768413E+03  0.47243768413E+03  0.00000000000E+00 0.  1.
          1   -1    0    0  501    0  0.00000000000E+00 -0.00000000000E+00 -0.49369730323E+02  0.49369730323E+02  0.00000000000E+00 0. -1.
         25    2    1    2    0    0 -0.11348407917E+02  0.37653645915E+02  0.39891909551E+03  0.41991715792E+03  0.12508953329E+03 0.  0.
          5    1    3    3  502    0 -0.19485894024E+02  0.81580230247E+02  0.22072941932E+03  0.23616516040E+03  0.41800000000E+01 0. -1.
         -5    1    3    3    0  502  0.81374861074E+01 -0.43926584332E+02  0.17818967619E+03  0.18375199752E+03  0.41800000000E+01 0. -1.
        -11    1    1    2    0    0  0.36503304794E+02  0.13379889294E+02 -0.27108577424E+01  0.38972573024E+02  0.00000000000E+00 0.  1.
         11    1    1    2    0    0 -0.25154896878E+02 -0.51033535210E+02  0.26859716043E+02  0.62917683515E+02  0.00000000000E+00 0. -1.
</event>
<event>
 7    1  0.2749315E-009  0.2342048E+03  0.7561462E-02  0.1123715E+00
         -1   -1    0    0    0  501 -0.00000000000E+00  0.00000000000E+00  0.43403150558E+03  0.43403150558E+03  0.00000000000E+00 0.  1.
          1   -1    0    0  501    0  0.00000000000E+00 -0.00000000000E+00 -0.17191155519E+03  0.17191155519E+03  0.00000000000E+00 0. -1.
         25    2    1    2    0    0 -0.25214989869E+02  0.21067647125E+03 -0.13580192369E+02  0.24668007060E+03  0.12508502849E+03 0.  0.
          5    1    3    3  502    0  0.42649051467E+02  0.11837033403E+03 -0.33611576767E+02  0.13029845764E+03  0.41800000000E+01 0.  1.
         -5    1    3    3    0  502 -0.67864041335E+02  0.92306137214E+02  0.20031384398E+02  0.11638161296E+03  0.41800000000E+01 0.  1.
        -11    1    1    2    0    0  0.53821461271E+02 -0.10001512384E+03  0.11118786105E+03  0.15894186087E+03  0.00000000000E+00 0. -1.
         11    1    1    2    0    0 -0.28606471402E+02 -0.11066134741E+03  0.16451228171E+03  0.20032112931E+03  0.00000000000E+00 0.  1.
</event>
<event>
 7    1  0.2749315E-009  0.2561389E+03  0.7561462E-02  0.1109486E+00
          3   -1    0    0  501    0  0.00000000000E+00  0.00000000000E+00  0.25716051634E+03  0.25716051634E+03  0.00000000000E+00 0. -1.
         -3   -1    0    0    0  501 -0.00000000000E+00 -0.00000000000E+00 -0.33398390005E+03  0.33398390005E+03  0.00000000000E+00 0.  1.
         25    2    1    2    0    0 -0.88897036179E+01 -0.23960433127E+03  0.88495892439E+02  0.28454810600E+03  0.12508732652E+03 0.  0.
          5    1    3    3  502    0  0.45512067960E+02 -0.18163628318E+03  0.82659924727E+02  0.20472719227E+03  0.41800000000E+01 0.  1.
         -5    1    3    3    0  502 -0.54401771578E+02 -0.57968048093E+02  0.58359677122E+01  0.79820913736E+02  0.41800000000E+01 0.  1.
        -11    1    1    2    0    0 -0.21921626057E+02  0.90404195674E+02 -0.11106554158E+03  0.14487591522E+03  0.00000000000E+00 0.  1.
         11    1    1    2    0    0  0.30811329675E+02  0.14920013560E+03 -0.54253734561E+02  0.16172039517E+03  0.00000000000E+00 0. -1.
</event>
<event>
 7    1  0.2749315E-009  0.1296262E+03  0.7561462E-02  0.1228011E+00
         -2   -1    0    0    0  501 -0.00000000000E+00  0.00000000000E+00  0.25759521759E+02  0.25759521759E+02  0.00000000000E+00 0. -1.
          2   -1    0    0  501    0  0.00000000000E+00 -0.00000000000E+00 -0.77729014547E+03  0.77729014547E+03  0.00000000000E+00 0.  1.
         25    2    1    2    0    0  0.77993530481E+02 -0.36736462859E+02 -0.32491139181E+03  0.35867595695E+03  0.12509384904E+03 0.  0.
          5    1    3    3  502    0  0.45479768609E+02  0.34900071237E+02 -0.63498876914E+02  0.85650476323E+02  0.41800000000E+01 0. -1.
         -5    1    3    3    0  502  0.32513761872E+02 -0.71636534095E+02 -0.26141251490E+03  0.27302548063E+03  0.41800000000E+01 0. -1.
        -11    1    1    2    0    0 -0.63019242183E+02  0.65294823271E+02 -0.34149995911E+03  0.35335118637E+03  0.00000000000E+00 0.  1.
         11    1    1    2    0    0 -0.14974288298E+02 -0.28558360413E+02 -0.85119272780E+02  0.91022523906E+02  0.00000000000E+00 0. -1.
</event>
<event>
 7    1  0.2749315E-009  0.1700036E+03  0.7561462E-02  0.1177844E+00
         -1   -1    0    0    0  501 -0.00000000000E+00  0.00000000000E+00  0.12355215562E+03  0.12355215562E+03  0.00000000000E+00 0.  1.
          1   -1    0    0  501    0  0.00000000000E+00 -0.00000000000E+00 -0.39476736904E+03  0.39476736904E+03  0.00000000000E+00 0. -1.
         25    2    1    2    0    0 -0.15314764215E+02  0.16250374671E+03 -0.26024138673E+03  0.33168696069E+03  0.12509456756E+03 0.  0.
          5    1    3    3  502    0 -0.33355441841E+02  0.38055314588E+02 -0.10223818491E+02  0.51795669060E+02  0.41800000000E+01 0. -1.
         -5    1    3    3    0  502  0.18040677626E+02  0.12444843212E+03 -0.25001756823E+03  0.27989129163E+03  0.41800000000E+01 0. -1.
        -11    1    1    2    0    0  0.12012735174E+02 -0.85784080620E+02  0.39017639437E+02  0.95003107746E+02  0.00000000000E+00 0.  1.
         11    1    1    2    0    0  0.33020290410E+01 -0.76719666089E+02 -0.49991466133E+02  0.91629456218E+02  0.00000000000E+00 0. -1.
</event>
<event>
 7    1  0.2749315E-009  0.1140053E+03  0.7561462E-02  0.1253327E+00
          1   -1    0    0  501    0  0.00000000000E+00  0.00000000000E+00  0.90649600806E+02  0.90649600806E+02  0.00000000000E+00 0. -1.
         -1   -1    0    0    0  501 -0.00000000000E+00 -0.00000000000E+00 -0.21389422472E+03  0.21389422472E+03  0.00000000000E+00 0.  1.
         25    2    1    2    0    0 -0.13250977113E+01  0.74399818965E+02 -0.18741527296E+02  0.14674740542E+03  0.12508583936E+03 0.  0.
          5    1    3    3  502    0 -0.61742940877E+02  0.41696943715E+02  0.26618284640E+01  0.74668491307E+02  0.41800000000E+01 0.  1.
         -5    1    3    3    0  502  0.60417843166E+02  0.32702875250E+02 -0.21403355760E+02  0.72078914116E+02  0.41800000000E+01 0.  1.
        -11    1    1    2    0    0  0.15437609835E+02 -0.66744826603E+02 -0.11824941966E+03  0.13666059025E+03  0.00000000000E+00 0.  1.
         11    1    1    2    0    0 -0.14112512124E+02 -0.76549923618E+01  0.13746323044E+02  0.21135829857E+02  0.00000000000E+00 0. -1.
</event>
<event>
 7    1  0.2749315E-009  0.6640411E+02  0.7561462E-02  0.1372766E+00
         -2   -1    0    0    0  501 -0.00000000000E+00  0.00000000000E+00  0.16028143408E+03  0.16028143408E+03  0.00000000000E+00 0.  1.
          2   -1    0    0  501    0  0.00000000000E+00 -0.00000000000E+00 -0.89815406514E+02  0.89815406514E+02  0.00000000000E+00 0. -1.
         25    2    1    2    0    0  0.20604168302E+02 -0.33057793731E+01 -0.99653694058E+01  0.12720763186E+03  0.12508802136E+03 0.  0.
          5    1    3    3  502    0  0.45796689843E+02 -0.13296092466E+02  0.45051259145E+02  0.65735920363E+02  0.41800000000E+01 0.  1.
         -5    1    3    3    0  502 -0.25192521541E+02  0.99903130931E+01 -0.55016628551E+02  0.61471711497E+02  0.41800000000E+01 0.  1.
        -11    1    1    2    0    0  0.51078750736E+01  0.23983222719E+02  0.86000105028E+02  0.89427643514E+02  0.00000000000E+00 0.  1.
         11    1    1    2    0    0 -0.25712043375E+02 -0.20677443346E+02 -0.55687080516E+01  0.33461565224E+02  0.00000000000E+00 0. -1.
</event>
<event>
 7    1  0.2749315E-009  0.9439676E+02  0.7561462E-02  0.1292541E+00
         -2   -1    0    0    0  501 -0.00000000000E+00  0.00000000000E+00  0.19010582216E+03  0.19010582216E+03  0.00000000000E+00 0.  1.
          2   -1    0    0  501    0  0.00000000000E+00 -0.00000000000E+00 -0.74712144690E+02  0.74712144690E+02  0.00000000000E+00 0. -1.
         25    2    1    2    0    0  0.41785691840E+02  0.13059830355E+02  0.39680284835E+02  0.13834210382E+03  0.12508960578E+03 0.  0.
          5    1    3    3  502    0  0.39322862946E+02  0.58892709597E+02  0.55013296232E+02  0.89769560299E+02  0.41800000000E+01 0. -1.
         -5    1    3    3    0  502  0.24628288948E+01 -0.45832879243E+02 -0.15333011398E+02  0.48572543524E+02  0.41800000000E+01 0. -1.
        -11    1    1    2    0    0  0.14002443247E+02  0.15769062219E+01 -0.13973218888E+02  0.19844543235E+02  0.00000000000E+00 0. -1.
         11    1    1    2    0    0 -0.55788135087E+02 -0.14636736577E+02  0.89686611521E+02  0.10663131979E+03  0.00000000000E+00 0.  1.
</event>
<event>
 7    1  0.2749315E-009  0.1419669E+03  0.7561462E-02  0.1210707E+00
          1   -1    0    0  501    0  0.00000000000E+00  0.00000000000E+00  0.21755690850E+03  0.21755690850E+03  0.00000000000E+00 0. -1.
         -1   -1    0    0    0  501 -0.00000000000E+00 -0.00000000000E+00 -0.17786049953E+03  0.17786049953E+03  0.00000000000E+00 0.  1.
         25    2    1    2    0    0  0.49495192516E+02 -0.12578919190E+03  0.11427222190E+03  0.21674516611E+03  0.12509049306E+03 0.  0.
          5    1    3    3  502    0  0.31661484913E+02 -0.96668806151E+02  0.14048403546E+03  0.17349508445E+03  0.41800000000E+01 0. -1.
         -5    1    3    3    0  502  0.17833707603E+02 -0.29120385746E+02 -0.26211813565E+02  0.43250081656E+02  0.41800000000E+01 0. -1.
        -11    1    1    2    0    0  0.29174990992E+01  0.73943913079E+02 -0.27341388832E+00  0.74001951579E+02  0.00000000000E+00 0. -1.
         11    1    1    2    0    0 -0.52412691615E+02  0.51845278819E+02 -0.74302399031E+02  0.10467029034E+03  0.00000000000E+00 0.  1.
</event>
<event>
 7    1  0.2749315E-009  0.9319638E+02  0.7561462E-02  0.1295291E+00
         -2   -1    0    0    0  501 -0.00000000000E+00  0.00000000000E+00  0.52988137846E+02  0.52988137846E+02  0.00000000000E+00 0.  1.
          2   -1    0    0  501    0  0.00000000000E+00 -0.00000000000E+00 -0.25173674675E+03  0.25173674675E+03  0.00000000000E+00 0. -1.
         25    2    1    2    0    0  0.52670877790E+01  0.32371043114E+02 -0.14744070437E+03  0.19611566644E+03  0.12508783584E+03 0.  0.
          5    1    3    3  502    0 -0.37249578887E+01  0.68359678185E+02 -0.33728814624E+02  0.76433148887E+02  0.41800000000E+01 0. -1.
         -5    1    3    3    0  502  0.89920456677E+01 -0.35988635070E+02 -0.11371188974E+03  0.11968251755E+03  0.41800000000E+01 0. -1.
        -11    1    1    2    0    0 -0.36592683198E+02 -0.32806769595E+02 -0.58562323542E+02  0.76451647029E+02  0.00000000000E+00 0. -1.
         11    1    1    2    0    0  0.31325595419E+02  0.43572648033E+00  0.72544190001E+01  0.32157571129E+02  0.00000000000E+00 0.  1.
</event>
<event>
 7    1  0.2749315E-009  0.1161416E+03  0.7561462E-02  0.1249601E+00
          2   -1    0    0  501    0  0.00000000000E+00  0.00000000000E+00  0.40098598535E+02  0.40098598535E+02  0.00000000000E+00 0.  1.
         -2   -1    0    0    0  501 -0.00000000000E+00 -0.00000000000E+00 -0.36756274569E+03  0.36756274569E+03  0.00000000000E+00 0. -1.
         25    2    1    2    0    0 -0.43291845874E+02 -0.27642314414E+02 -0.21213763410E+03  0.25157166465E+03  0.12509054796E+03 0.  0.
          5    1    3    3  502    0 -0.76100347104E+02 -0.46498814621E+02 -0.18304339639E+03  0.20365598433E+03  0.41800000000E+01 0. -1.
         -5    1    3    3    0  502  0.32808501229E+02  0.18856500208E+02 -0.29094237714E+02  0.47915680326E+02  0.41800000000E+01 0. -1.
        -11    1    1    2    0    0  0.71800419539E+02  0.13311238490E+02 -0.75173290878E+02  0.10480225655E+03  0.00000000000E+00 0. -1.
         11    1    1    2    0    0 -0.28508573664E+02  0.14331075923E+02 -0.40153222175E+02  0.51287423025E+02  0.00000000000E+00 0.  1.
</event>
<event>
 7    1  0.2749315E-009  0.2812482E+03  0.7561462E-02  0.1095009E+00
          2   -1    0    0  501    0  0.00000000000E+00  0.00000000000E+00  0.51194122249E+02  0.51194122249E+02  0.00000000000E+00 0. -1.
         -2   -1    0    0    0  501 -0.00000000000E+00 -0.00000000000E+00 -0.15568547991E+04  0.15568547991E+04  0.00000000000E+00 0.  1.
         25    2    1    2    0    0  0.22742049296E+03  0.12615353224E+03 -0.78452811966E+03  0.83592254150E+03  0.12508929028E+03 0.  0.
          5    1    3    3  502    0  0.14468444032E+03  0.14311435091E+03 -0.53187546453E+03  0.56949476457E+03  0.41800000000E+01 0. -1.
         -5    1    3    3    0  502  0.82736052641E+02 -0.16960818667E+02 -0.25265265513E+03  0.26642777693E+03  0.41800000000E+01 0. -1.
        -11    1    1    2    0    0 -0.43946045323E+02 -0.69745658715E+02 -0.18063537261E+03  0.19855691790E+03  0.00000000000E+00 0.  1.
         11    1    1    2    0    0 -0.18347444764E+03 -0.56407873525E+02 -0.54049718459E+03  0.57356946195E+03  0.00000000000E+00 0. -1.
</event>
<event>
 7    1  0.2749315E-009  0.9424425E+02  0.7561462E-02  0.1292887E+00
          2   -1    0    0  501    0  0.00000000000E+00  0.00000000000E+00  0.13952584789E+03  0.13952584789E+03  0.00000000000E+00 0. -1.
         -2   -1    0    0    0  501 -0.00000000000E+00 -0.00000000000E+00 -0.12342286305E+03  0.12342286305E+03  0.00000000000E+00 0.  1.
         25    2    1    2    0    0 -0.40544815916E+01  0.32147319594E+02  0.77841071184E+02  0.15085269385E+03  0.12508962347E+03 0.  0.
          5    1    3    3  502    0 -0.28654862172E+02  0.72795547862E+02  0.31773966314E+02  0.84542002874E+02  0.41800000000E+01 0.  1.
         -5    1    3    3    0  502  0.24600380580E+02 -0.40648228269E+02  0.46067104870E+02  0.66310690972E+02  0.41800000000E+01 0.  1.
        -11    1    1    2    0    0 -0.18384377034E+02  0.49980031567E+01 -0.65806640072E+02  0.68508971909E+02  0.00000000000E+00 0.  1.
         11    1    1    2    0    0  0.22438858625E+02 -0.37145322750E+02  0.40685537207E+01  0.43587045186E+02  0.00000000000E+00 0. -1.
</event>
<event>
 7    1  0.2749315E-009  0.1101746E+03  0.7561462E-02  0.1260247E+00
         -2   -1    0    0    0  501 -0.00000000000E+00  0.00000000000E+00  0.38677616229E+02  0.38677616229E+02  0.00000000000E+00 0. -1.
          2   -1    0    0  501    0  0.00000000000E+00 -0.00000000000E+00 -0.36625339357E+03  0.36625339357E+03  0.00000000000E+00 0.  1.
         25    2    1    2    0    0 -0.11960528864E+02  0.23921899528E+02 -0.24790217244E+03  0.27896100045E+03  0.12509372944E+03 0.  0.
          5    1    3    3  502    0 -0.20123155407E+02  0.71612140446E+02 -0.11086474069E+03  0.13357283845E+03  0.41800000000E+01 0.  1.
         -5    1    3    3    0  502  0.81626265436E+01 -0.47690240917E+02 -0.13703743175E+03  0.14538816200E+03  0.41800000000E+01 0.  1.
        -11    1    1    2    0    0 -0.28255127844E+02 -0.44032475937E+02 -0.37981146343E+02  0.64651207755E+02  0.00000000000E+00 0.  1.
         11    1    1    2    0    0  0.40215656707E+02  0.20110576409E+02 -0.41692458559E+02  0.61318801591E+02  0.00000000000E+00 0. -1.
</event>
<event>
 7    1  0.2749315E-009  0.1250195E+03  0.7561462E-02  0.1235039E+00
         -2   -1    0    0    0  501 -0.00000000000E+00  0.00000000000E+00  0.64423997245E+02  0.64423997245E+02  0.00000000000E+00 0.  1.
          2   -1    0    0  501    0  0.00000000000E+00 -0.00000000000E+00 -0.35740666792E+03  0.35740666792E+03  0.00000000000E+00 0. -1.
         25    2    1    2    0    0  0.70332892685E+01  0.10292145237E+03 -0.18406641344E+03  0.24529779564E+03  0.12509305125E+03 0.  0.
          5    1    3    3  502    0  0.18717731714E+02 -0.85817380978E+01  0.83117280536E+01  0.22595506910E+02  0.41800000000E+01 0.  1.
         -5    1    3    3    0  502 -0.11684442445E+02  0.11150319047E+03 -0.19237814149E+03  0.22270228873E+03  0.41800000000E+01 0.  1.
        -11    1    1    2    0    0 -0.27028103778E+02 -0.87516677170E+02 -0.34373453246E+02  0.97832619635E+02  0.00000000000E+00 0.  1.
         11    1    1    2    0    0  0.19994814510E+02 -0.15404775202E+02 -0.74542803991E+02  0.78700249892E+02  0.00000000000E+00 0. -1.
</event>
<event>
 7    1  0.2749315E-009  0.1706366E+03  0.7561462E-02  0.1177186E+00
         -2   -1    0    0    0  501 -0.00000000000E+00  0.00000000000E+00  0.34845455225E+02  0.34845455225E+02  0.00000000000E+00 0.  1.
          2   -1    0    0  501    0  0.00000000000E+00 -0.00000000000E+00 -0.10269508114E+04  0.10269508114E+04  0.00000000000E+00 0. -1.
         25    2    1    2    0    0  0.14512616678E+03 -0.49920815021E+01 -0.37614969605E+03  0.42216370097E+03  0.12508825452E+03 0.  0.
          5    1    3    3  502    0  0.10099141096E+03 -0.61997536253E+02 -0.25284108370E+03  0.27926518866E+03  0.41800000000E+01 0.  1.
         -5    1    3    3    0  502  0.44134755816E+02  0.57005454751E+02 -0.12330861235E+03  0.14289851232E+03  0.41800000000E+01 0.  1.
        -11    1    1    2    0    0 -0.12527033790E+03  0.18269621814E+02 -0.59348946391E+03  0.60684114924E+03  0.00000000000E+00 0. -1.
         11    1    1    2    0    0 -0.19855828875E+02 -0.13277540312E+02 -0.22466196176E+02  0.32791416372E+02  0.00000000000E+00 0.  1.
</event>
<event>
 7    1  0.2749315E-009  0.6482358E+02  0.7561462E-02  0.1378636E+00
          2   -1    0    0  501    0  0.00000000000E+00  0.00000000000E+00  0.10463364775E+04  0.10463364775E+04  0.00000000000E+00 0. -1.
         -2   -1    0    0    0  501 -0.00000000000E+00 -0.00000000000E+00 -0.23111704528E+02  0.23111704528E+02  0.00000000000E+00 0.  1.
         25    2    1    2    0    0  0.15639126265E+01 -0.25975912824E+02  0.92060889911E+03  0.92943351838E+03  0.12509486842E+03 0.  0.
          5    1    3    3  502    0  0.15607244073E+01  0.16562060758E+02  0.14911293789E+02  0.22727885949E+02  0.41800000000E+01 0.  1.
         -5    1    3    3    0  502  0.31882192313E-02 -0.42537973582E+02  0.90569760532E+03  0.90670563243E+03  0.41800000000E+01 0.  1.
        -11    1    1    2    0    0 -0.22162289052E+02  0.39371633091E+02  0.12887385828E+02  0.46982733655E+02  0.00000000000E+00 0.  1.
         11    1    1    2    0    0  0.20598376425E+02 -0.13395720267E+02  0.89728488077E+02  0.93031930032E+02  0.00000000000E+00 0. -1.
</event>
<event>
 7    1  0.2749315E-009  0.1068204E+03  0.7561462E-02  0.1266574E+00
          3   -1    0    0  501    0  0.00000000000E+00  0.00000000000E+00  0.10181419437E+03  0.10181419437E+03  0.00000000000E+00 0. -1.
         -3   -1    0    0    0  501 -0.00000000000E+00 -0.00000000000E+00 -0.12656563796E+03  0.12656563796E+03  0.00000000000E+00 0.  1.
         25    2    1    2    0    0  0.27856573732E+02  0.20314722518E+02 -0.18703708260E+02  0.13109517114E+03  0.12508972197E+03 0.  0.
          5    1    3    3  502    0  0.68731186439E+02 -0.60107851574E+01  0.16330849360E+02  0.71023056597E+02  0.41800000000E+01 0.  1.
         -5    1    3    3    0  502 -0.40874612707E+02  0.26325507676E+02 -0.35034557620E+02  0.60072114545E+02  0.41800000000E+01 0.  1.
        -11    1    1    2    0    0  0.91429285628E+01  0.31079125538E+02  0.56539490379E+01  0.32885746558E+02  0.00000000000E+00 0. -1.
         11    1    1    2    0    0 -0.36999502295E+02 -0.51393848056E+02 -0.11701684364E+02  0.64398914627E+02  0.00000000000E+00 0.  1.
</event>
<event>
 7    1  0.2749315E-009  0.9848774E+02  0.7561462E-02  0.1283509E+00
         -2   -1    0    0    0  501 -0.00000000000E+00  0.00000000000E+00  0.21692861287E+02  0.21692861287E+02  0.00000000000E+00 0.  1.
          2   -1    0    0  501    0  0.00000000000E+00 -0.00000000000E+00 -0.59810226053E+03  0.59810226053E+03  0.00000000000E+00 0. -1.
         25    2    1    2    0    0  0.18893215524E+02  0.32538846429E+01 -0.24601838191E+03  0.27665858712E+03  0.12508952087E+03 0.  0.
          5    1    3    3  502    0 -0.40031531382E+02 -0.23760142267E+02 -0.17172952474E+03  0.17797631846E+03  0.41800000000E+01 0.  1.
         -5    1    3    3    0  502  0.58924746906E+02  0.27014026910E+02 -0.74288857170E+02  0.98682268658E+02  0.41800000000E+01 0.  1.
        -11    1    1    2    0    0  0.28544596533E+02 -0.20131007960E+02 -0.73755217930E+02  0.81608110165E+02  0.00000000000E+00 0.  1.
         11    1    1    2    0    0 -0.47437812057E+02  0.16877123317E+02 -0.25663579940E+03  0.26152842453E+03  0.00000000000E+00 0. -1.
</event>
<event>
 7    1  0.2749315E-009  0.7585395E+02  0.7561462E-02  0.1341247E+00
         -2   -1    0    0    0  501 -0.00000000000E+00  0.00000000000E+00  0.29365809241E+02  0.29365809241E+02  0.00000000000E+00 0.  1.
          2   -1    0    0  501    0  0.00000000000E+00 -0.00000000000E+00 -0.68570634544E+03  0.68570634544E+03  0.00000000000E+00 0. -1.
         25    2    1    2    0    0  0.36318843618E+02  0.36967140493E+02 -0.54351317484E+03  0.56012058510E+03  0.12507146256E+03 0.  0.
          5    1    3    3  502    0  0.41790100230E+02  0.37337856528E+02 -0.87099495836E+02  0.10365482421E+03  0.41800000000E+01 0.  1.
         -5    1    3    3    0  502 -0.54712566120E+01 -0.37071603503E+00 -0.45641367900E+03  0.45646576089E+03  0.41800000000E+01 0.  1.
        -11    1    1    2    0    0 -0.34196721094E+02  0.14472526448E+02 -0.92366695712E+02  0.99551374837E+02  0.00000000000E+00 0. -1.
         11    1    1    2    0    0 -0.21221225246E+01 -0.51439666941E+02 -0.20460665646E+02  0.55400194744E+02  0.00000000000E+00 0.  1.
</event>
<event>
 7    1  0.2749315E-009  0.3136650E+03  0.7561462E-02  0.1078602E+00
          1   -1    0    0  501    0  0.00000000000E+00  0.00000000000E+00  0.19294546748E+03  0.19294546748E+03  0.00000000000E+00 0. -1.
         -1   -1    0    0    0  501 -0.00000000000E+00 -0.00000000000E+00 -0.55294064853E+03  0.55294064853E+03  0.00000000000E+00 0.  1.
         25    2    1    2    0    0 -0.10951319487E+03  0.28540447663E+03 -0.22797316064E+03  0.40133256214E+03  0.12508880177E+03 0.  0.
          5    1    3    3  502    0 -0.91446465773E+02  0.28842976805E+03 -0.23296026274E+03  0.38189284311E+03  0.41800000000E+01 0.  1.
         -5    1    3    3    0  502 -0.18066729099E+02 -0.30252914198E+01  0.49871021043E+01  0.19439719028E+02  0.41800000000E+01 0.  1.
        -11    1    1    2    0    0  0.40384850757E+02 -0.89502310234E+02  0.40677866729E+00  0.98192490430E+02  0.00000000000E+00 0. -1.
         11    1    1    2    0    0  0.69128344114E+02 -0.19590216639E+03 -0.13242879908E+03  0.24636106345E+03  0.00000000000E+00 0.  1.
</event>
<event>
 7    1  0.2749315E-009  0.1651591E+03  0.7561462E-02  0.1182992E+00
         -1   -1    0    0    0  501 -0.00000000000E+00  0.00000000000E+00  0.50384598298E+03  0.50384598298E+03  0.00000000000E+00 0.  1.
          1   -1    0    0  501    0  0.00000000000E+00 -0.00000000000E+00 -0.59271031638E+02  0.59271031638E+02  0.00000000000E+00 0. -1.
         25    2    1    2    0    0 -0.12280498525E+03 -0.48106695730E+02  0.27589839425E+03  0.33039834448E+03  0.12509126071E+03 0.  0.
          5    1    3    3  502    0 -0.13936555819E+03 -0.57987535441E+02  0.27073741069E+03  0.31000246939E+03  0.41800000000E+01 0. -1.
         -5    1    3    3    0  502  0.16560572941E+02  0.98808397112E+01  0.51609835613E+01  0.20395875094E+02  0.41800000000E+01 0. -1.
        -11    1    1    2    0    0  0.12976198447E+03  0.20821193126E+02  0.14700951217E+03  0.19718897374E+03  0.00000000000E+00 0.  1.
         11    1    1    2    0    0 -0.69569992174E+01  0.27285502603E+02  0.21667044919E+02  0.35529696395E+02  0.00000000000E+00 0. -1.
</event>
<event>
 7    1  0.2749315E-009  0.1330788E+03  0.7561462E-02  0.1222958E+00
         -2   -1    0    0    0  501 -0.00000000000E+00  0.00000000000E+00  0.14017708229E+02  0.14017708229E+02  0.00000000000E+00 0.  1.
          2   -1    0    0  501    0  0.00000000000E+00 -0.00000000000E+00 -0.17156069298E+04  0.17156069298E+04  0.00000000000E+00 0. -1.
         25    2    1    2    0    0  0.89975432694E+02 -0.33738066044E+01 -0.13222607345E+04  0.13312120704E+04  0.12508063446E+03 0.  0.
          5    1    3    3  502    0 -0.18339794188E+02 -0.33723516522E+02 -0.46343305126E+03  0.46503901881E+03  0.41800000000E+01 0.  1.
         -5    1    3    3    0  502  0.10831522688E+03  0.30349709918E+02 -0.85882768329E+03  0.86617305156E+03  0.41800000000E+01 0.  1.
        -11    1    1    2    0    0 -0.40340464481E+02  0.37231211946E+02 -0.24784487405E+03  0.25385152710E+03  0.00000000000E+00 0. -1.
         11    1    1    2    0    0 -0.49634968214E+02 -0.33857405341E+02 -0.13148361294E+03  0.14456104053E+03  0.00000000000E+00 0.  1.
</event>
<event>
 7    1  0.2749315E-009  0.1426912E+03  0.7561462E-02  0.1209753E+00
          2   -1    0    0  501    0  0.00000000000E+00  0.00000000000E+00  0.38188557419E+03  0.38188557419E+03  0.00000000000E+00 0. -1.
         -2   -1    0    0    0  501 -0.00000000000E+00 -0.00000000000E+00 -0.68478227851E+02  0.68478227851E+02  0.00000000000E+00 0.  1.
         25    2    1    2    0    0  0.84848629560E+01 -0.12443118158E+03  0.16434855642E+03  0.24127412562E+03  0.12509054260E+03 0.  0.
          5    1    3    3  502    0  0.13804479563E+02  0.45555525848E-01 -0.16314484339E+02  0.21776145907E+02  0.41800000000E+01 0.  1.
         -5    1    3    3    0  502 -0.53196166074E+01 -0.12447673711E+03  0.18066304076E+03  0.21949797972E+03  0.41800000000E+01 0.  1.
        -11    1    1    2    0    0  0.32937055769E+02  0.36904117129E+02  0.57143072681E+02  0.75578398099E+02  0.00000000000E+00 0. -1.
         11    1    1    2    0    0 -0.41421918725E+02  0.87527064456E+02  0.91915717239E+02  0.13351127832E+03  0.00000000000E+00 0.  1.
</event>
<event>
 7    1  0.2749315E-009  0.1046640E+03  0.7561462E-02  0.1270783E+00
          1   -1    0    0  501    0  0.00000000000E+00  0.00000000000E+00  0.86871794759E+02  0.86871794759E+02  0.00000000000E+00 0. -1.
         -1   -1    0    0    0  501 -0.00000000000E+00 -0.00000000000E+00 -0.21519106955E+03  0.21519106955E+03  0.00000000000E+00 0.  1.
         25    2    1    2    0    0  0.38727572378E+02 -0.53943373669E+02 -0.12475578873E+03  0.18874109105E+03  0.12509788250E+03 0.  0.
          5    1    3    3  502    0  0.69908526870E+02 -0.75671614332E+02 -0.96259606244E+02  0.14105594471E+03  0.41800000000E+01 0. -1.
         -5    1    3    3    0  502 -0.31180954492E+02  0.21728240662E+02 -0.28496182485E+02  0.47685146341E+02  0.41800000000E+01 0. -1.
        -11    1    1    2    0    0 -0.28559260138E+01  0.14055188567E+02  0.41091570576E+02  0.43522658598E+02  0.00000000000E+00 0. -1.
         11    1    1    2    0    0 -0.35871646364E+02  0.39888185102E+02 -0.44655056640E+02  0.69799114659E+02  0.00000000000E+00 0.  1.
</event>
<event>
 7    1  0.2749315E-009  0.9922934E+02  0.7561462E-02  0.1281925E+00
          2   -1    0    0  501    0  0.00000000000E+00  0.00000000000E+00  0.64990137768E+03  0.64990137768E+03  0.00000000000E+00 0. -1.
         -2   -1    0    0    0  501 -0.00000000000E+00 -0.00000000000E+00 -0.19912164889E+02  0.19912164889E+02  0.00000000000E+00 0.  1.
         25    2    1    2    0    0  0.26101360679E+02 -0.21049657579E+02  0.36710493913E+03  0.38927508011E+03  0.12507870541E+03 0.  0.
          5    1    3    3  502    0 -0.22595580524E+02  0.36378439606E+02  0.65376851414E+02  0.78265932743E+02  0.41800000000E+01 0.  1.
         -5    1    3    3    0  502  0.48696941203E+02 -0.57428097185E+02  0.30172808772E+03  0.31100914737E+03  0.41800000000E+01 0.  1.
        -11    1    1    2    0    0 -0.22714304399E+02  0.47870164638E+02  0.23789539686E+03  0.24372466460E+03  0.00000000000E+00 0. -1.
         11    1    1    2    0    0 -0.33870562804E+01 -0.26820507059E+02  0.24988876802E+02  0.36813797862E+02  0.00000000000E+00 0.  1.
</event>
<event>
 7    1  0.2749315E-009  0.7467110E+02  0.7561462E-02  0.1344893E+00
         -1   -1    0    0    0  501 -0.00000000000E+00  0.00000000000E+00  0.11820141403E+03  0.11820141403E+03  0.00000000000E+00 0.  1.
          1   -1    0    0  501    0  0.00000000000E+00 -0.00000000000E+00 -0.15461368045E+03  0.15461368045E+03  0.00000000000E+00 0. -1.
         25    2    1    2    0    0 -0.31681758825E+02  0.20550713532E+02 -0.92372914002E+02  0.16002217575E+03  0.12509306864E+03 0.  0.
          5    1    3    3  502    0  0.13097268674E+02  0.12435790776E+02  0.26686338240E+02  0.32493389906E+02  0.41800000000E+01 0. -1.
         -5    1    3    3    0  502 -0.44779027499E+02  0.81149227565E+01 -0.11905925224E+03  0.12752878585E+03  0.41800000000E+01 0. -1.
        -11    1    1    2    0    0 -0.66019534695E+01 -0.41118601393E+02  0.55429445358E+02  0.69330718897E+02  0.00000000000E+00 0.  1.
         11    1    1    2    0    0  0.38283712295E+02  0.20567887861E+02  0.53120222769E+00  0.43462199829E+02  0.00000000000E+00 0. -1.
</event>
<event>
 7    1  0.2749315E-009  0.9159918E+02  0.7561462E-02  0.1299025E+00
         -1   -1    0    0    0  501 -0.00000000000E+00  0.00000000000E+00  0.36683673939E+02  0.36683673939E+02  0.00000000000E+00 0.  1.
          1   -1    0    0  501    0  0.00000000000E+00 -0.00000000000E+00 -0.56294839681E+03  0.56294839681E+03  0.00000000000E+00 0. -1.
         25    2    1    2    0    0 -0.25126794206E+00 -0.67102275324E+02 -0.35657537530E+03  0.38379147082E+03  0.12508843399E+03 0.  0.
          5    1    3    3  502    0 -0.16798363740E+02 -0.69621824717E+02 -0.35924135456E+03  0.36633482871E+03  0.41800000000E+01 0.  1.
         -5    1    3    3    0  502  0.16547095798E+02  0.25195493934E+01  0.26659792589E+01  0.17456642114E+02  0.41800000000E+01 0.  1.
        -11    1    1    2    0    0 -0.61552752429E+01 -0.12717326189E+02  0.11193610245E+02  0.18025390677E+02  0.00000000000E+00 0.  1.
         11    1    1    2    0    0  0.64065431850E+01  0.79819601513E+02 -0.18088295782E+03  0.19781520925E+03  0.00000000000E+00 0. -1.
</event>
<event>
 7    1  0.2749315E-009  0.9661051E+02  0.7561462E-02  0.1287589E+00
          1   -1    0    0  501    0  0.00000000000E+00  0.00000000000E+00  0.97555118525E+02  0.97555118525E+02  0.00000000000E+00 0. -1.
         -1   -1    0    0    0  501 -0.00000000000E+00 -0.00000000000E+00 -0.13203395223E+03  0.13203395223E+03  0.00000000000E+00 0.  1.
         25    2    1    2    0    0  0.16411622253E+02 -0.14145302088E+02 -0.47150872230E+02  0.13541500710E+03  0.12507832938E+03 0.  0.
          5    1    3    3  502    0  0.50091030691E+02 -0.48204692374E+02 -0.23301907388E+01  0.69682895401E+02  0.41800000000E+01 0.  1.
         -5    1    3    3    0  502 -0.33679408437E+02  0.34059390287E+02 -0.44820681491E+02  0.65732111701E+02  0.41800000000E+01 0.  1.
        -11    1    1    2    0    0 -0.32647888735E+02 -0.19577507526E+02 -0.21305088508E+02  0.43624193243E+02  0.00000000000E+00 0.  1.
         11    1    1    2    0    0  0.16236266481E+02  0.33722809614E+02  0.33977127031E+02  0.50549870413E+02  0.00000000000E+00 0. -1.
</event>
<event>
 7    1  0.2749315E-009  0.1194242E+03  0.7561462E-02  0.1244050E+00
         -2   -1    0    0    0  501 -0.00000000000E+00  0.00000000000E+00  0.25900938371E+03  0.25900938371E+03  0.00000000000E+00 0.  1.
          2   -1    0    0  501    0  0.00000000000E+00 -0.00000000000E+00 -0.81538616372E+02  0.81538616372E+02  0.00000000000E+00 0. -1.
         25    2    1    2    0    0 -0.36335777910E+02  0.74631691618E+02  0.40187974168E+02  0.15539876446E+03  0.12507407637E+03 0.  0.
          5    1    3    3  502    0  0.36639241847E+02 -0.85398061284E+01  0.75500466788E+00  0.37860332327E+02  0.41800000000E+01 0.  1.
         -5    1    3    3    0  502 -0.72975019757E+02  0.83171497746E+02  0.39432969500E+02  0.11753843214E+03  0.41800000000E+01 0.  1.
        -11    1    1    2    0    0  0.15612651881E+02 -0.65998044509E+02  0.14606582450E+03  0.16104260885E+03  0.00000000000E+00 0.  1.
         11    1    1    2    0    0  0.20723126029E+02 -0.86336471085E+01 -0.87830313310E+01  0.24106626769E+02  0.00000000000E+00 0. -1.
</event>
<event>
 7    1  0.2749315E-009  0.3238382E+03  0.7561462E-02  0.1073896E+00
         -2   -1    0    0    0  501 -0.00000000000E+00  0.00000000000E+00  0.41197639912E+03  0.41197639912E+03  0.00000000000E+00 0.  1.
          2   -1    0    0  501    0  0.00000000000E+00 -0.00000000000E+00 -0.54147973903E+03  0.54147973903E+03  0.00000000000E+00 0. -1.
         25    2    1    2    0    0 -0.19234641695E+03 -0.24809352382E+03 -0.40361945956E+03  0.52640387228E+03  0.12507928663E+03 0.  0.
          5    1    3    3  502    0 -0.10842930697E+03 -0.18772267630E+03 -0.34503179040E+03  0.40750598351E+03  0.41800000000E+01 0. -1.
         -5    1    3    3    0  502 -0.83917109980E+02 -0.60370847517E+02 -0.58587669156E+02  0.11889788877E+03  0.41800000000E+01 0. -1.
        -11    1    1    2    0    0  0.22125287637E+02  0.97929553060E+02  0.88389999451E+02  0.13376291608E+03  0.00000000000E+00 0. -1.
         11    1    1    2    0    0  0.17022112931E+03  0.15016397076E+03  0.18572612020E+03  0.29328934979E+03  0.00000000000E+00 0.  1.
</event>
<event>
 7    1  0.2749315E-009  0.1021577E+03  0.7561462E-02  0.1275823E+00
         -1   -1    0    0    0  501 -0.00000000000E+00  0.00000000000E+00  0.34718501832E+03  0.34718501832E+03  0.00000000000E+00 0.  1.
          1   -1    0    0  501    0  0.00000000000E+00 -0.00000000000E+00 -0.48389391277E+02  0.48389391277E+02  0.00000000000E+00 0. -1.
         25    2    1    2    0    0 -0.49284781575E+02  0.49448261261E+02  0.17806754629E+03  0.22853797529E+03  0.12508970729E+03 0.  0.
          5    1    3    3  502    0 -0.59183866893E+02 -0.32188740894E+01  0.21812145848E+02  0.63295602986E+02  0.41800000000E+01 0.  1.
         -5    1    3    3    0  502  0.98990853187E+01  0.52667135350E+02  0.15625540045E+03  0.16524237231E+03  0.41800000000E+01 0.  1.
        -11    1    1    2    0    0  0.50438713059E+02 -0.61217008317E+02  0.12981033074E+03  0.15212596047E+03  0.00000000000E+00 0.  1.
         11    1    1    2    0    0 -0.11539314838E+01  0.11768747057E+02 -0.90822499903E+01  0.14910473837E+02  0.00000000000E+00 0. -1.
</event>
<event>
 7    1  0.2749315E-009  0.1196515E+03  0.7561462E-02  0.1243673E+00
         -1   -1    0    0    0  501 -0.00000000000E+00  0.00000000000E+00  0.33812928389E+02  0.33812928389E+02  0.00000000000E+00 0.  1.
          1   -1    0    0  501    0  0.00000000000E+00 -0.00000000000E+00 -0.42976940128E+03  0.42976940128E+03  0.00000000000E+00 0. -1.
         25    2    1    2    0    0 -0.50712798785E+02  0.12257375738E+02 -0.22808328888E+03  0.26531094828E+03  0.12508349768E+03 0.  0.
          5    1    3    3  502    0 -0.87452211835E+02 -0.14019921138E+02 -0.16871801898E+03  0.19059824205E+03  0.41800000000E+01 0. -1.
         -5    1    3    3    0  502  0.36739413050E+02  0.26277296876E+02 -0.59365269907E+02  0.74712706238E+02  0.41800000000E+01 0. -1.
        -11    1    1    2    0    0  0.76315602535E+01  0.38183367861E+02 -0.55917783719E+02  0.68139627451E+02  0.00000000000E+00 0. -1.
         11    1    1    2    0    0  0.43081238532E+02 -0.50440743599E+02 -0.11195540029E+03  0.13013175394E+03  0.00000000000E+00 0.  1.
</event>
<event>
 7    1  0.2749315E-009  0.1422071E+03  0.7561462E-02  0.1210390E+00
         -1   -1    0    0    0  501 -0.00000000000E+00  0.00000000000E+00  0.15350773008E+03  0.15350773008E+03  0.00000000000E+00 0.  1.
          1   -1    0    0  501    0  0.00000000000E+00 -0.00000000000E+00 -0.23480163089E+03  0.23480163089E+03  0.00000000000E+00 0. -1.
         25    2    1    2    0    0  0.12917450504E+03 -0.38384703338E+02 -0.12244671401E+03  0.22090817390E+03  0.12509110808E+03 0.  0.
          5    1    3    3  502    0  0.48379981069E+02 -0.20842116425E+02  0.19713507330E+02  0.56401340024E+02  0.41800000000E+01 0. -1.
         -5    1    3    3    0  502  0.80794523973E+02 -0.17542586913E+02 -0.14216022134E+03  0.16450683387E+03  0.41800000000E+01 0. -1.
        -11    1    1    2    0    0  0.93151254408E+00  0.16892744960E+02 -0.16361149253E+02  0.23535499841E+02  0.00000000000E+00 0. -1.
         11    1    1    2    0    0 -0.13010601759E+03  0.21491958378E+02  0.57513962450E+02  0.14386568724E+03  0.00000000000E+00 0.  1.
</event>
<event>
 7    1  0.2749315E-009  0.1168152E+03  0.7561462E-02  0.1248445E+00
         -2   -1    0    0    0  501 -0.00000000000E+00  0.00000000000E+00  0.46596239763E+02  0.46596239763E+02  0.00000000000E+00 0.  1.
          2   -1    0    0  501    0  0.00000000000E+00 -0.00000000000E+00 -0.31674181694E+03  0.31674181694E+03  0.00000000000E+00 0. -1.
         25    2    1    2    0    0  0.40137791522E+02 -0.23128791277E+02 -0.10875011202E+03  0.17210264332E+03  0.12508696847E+03 0.  0.
          5    1    3    3  502    0  0.31835964522E+02  0.48866730790E+02 -0.64623869584E+02  0.87150461475E+02  0.41800000000E+01 0.  1.
         -5    1    3    3    0  502  0.83018270006E+01 -0.71995522067E+02 -0.44126242433E+02  0.84952181847E+02  0.41800000000E+01 0.  1.
        -11    1    1    2    0    0 -0.28183592485E+02  0.58658958372E+02 -0.10090203161E+03  0.12006834831E+03  0.00000000000E+00 0.  1.
         11    1    1    2    0    0 -0.11954199038E+02 -0.35530167095E+02 -0.60493433550E+02  0.71167065073E+02  0.00000000000E+00 0. -1.
</event>
<event>
 7    1  0.2749315E-009  0.6229545E+02  0.7561462E-02  0.1388444E+00
          1   -1    0    0  501    0  0.00000000000E+00  0.00000000000E+00  0.43366668792E+02  0.43366668792E+02  0.00000000000E+00 0. -1.
         -1   -1    0    0    0  501 -0.00000000000E+00 -0.00000000000E+00 -0.30626820663E+03  0.30626820663E+03  0.00000000000E+00 0.  1.
         25    2    1    2    0    0 -0.25662320325E+02  0.22169062982E+02 -0.11405491301E+03  0.17264284056E+03  0.12508798974E+03 0.  0.
          5    1    3    3  502    0 -0.37378469046E+02  0.83965236968E+01 -0.13746739267E+03  0.14276697099E+03  0.41800000000E+01 0. -1.
         -5    1    3    3    0  502  0.11716148720E+02  0.13772539285E+02  0.23412479656E+02  0.29875869574E+02  0.41800000000E+01 0. -1.
        -11    1    1    2    0    0  0.42005942314E+02 -0.27247073623E+01 -0.14538529492E+03  0.15135655651E+03  0.00000000000E+00 0.  1.
         11    1    1    2    0    0 -0.16343621989E+02 -0.19444355620E+02 -0.34613299007E+01  0.25635478343E+02  0.00000000000E+00 0. -1.
</event>
<event>
 7    1  0.2749315E-009  0.1930619E+03  0.7561462E-02  0.1155728E+00
         -2   -1    0    0    0  501 -0.00000000000E+00  0.00000000000E+00  0.27477694047E+02  0.27477694047E+02  0.00000000000E+00 0.  1.
          2   -1    0    0  501    0  0.00000000000E+00 -0.00000000000E+00 -0.15354552944E+04  0.15354552944E+04  0.00000000000E+00 0. -1.
         25    2    1    2    0    0  0.11535535822E+03 -0.12816817211E+03 -0.69772610231E+03  0.72952268505E+03  0.12509074766E+03 0.  0.
          5    1    3    3  502    0 -0.23046089730E+02 -0.42454109860E+02 -0.12432292477E+03  0.13344338020E+03  0.41800000000E+01 0.  1.
         -5    1    3    3    0  502  0.13840144795E+03 -0.85714062249E+02 -0.57340317754E+03  0.59607930485E+03  0.41800000000E+01 0.  1.
        -11    1    1    2    0    0 -0.10650107409E+03  0.10320575316E+03 -0.77635503979E+03  0.79039297446E+03  0.00000000000E+00 0. -1.
         11    1    1    2    0    0 -0.88542841239E+01  0.24962418949E+02 -0.33896458283E+02  0.43017328965E+02  0.00000000000E+00 0.  1.
</event>
<event>
 7    1  0.2749315E-009  0.1991191E+03  0.7561462E-02  0.1150484E+00
         -2   -1    0    0    0  501 -0.00000000000E+00  0.00000000000E+00  0.31381481313E+02  0.31381481313E+02  0.00000000000E+00 0.  1.
          2   -1    0    0  501    0  0.00000000000E+00 -0.00000000000E+00 -0.14001628380E+04  0.14001628380E+04  0.00000000000E+00 0. -1.
         25    2    1    2    0    0  0.16702093692E+03  0.16126827715E+02 -0.49846195881E+03  0.54061969813E+03  0.12509702506E+03 0.  0.
          5    1    3    3  502    0  0.43003172806E+02 -0.51776483227E+02 -0.17707254910E+03  0.18947885669E+03  0.41800000000E+01 0. -1.
         -5    1    3    3    0  502  0.12401776412E+03  0.67903310942E+02 -0.32138940971E+03  0.35114084144E+03  0.41800000000E+01 0. -1.
        -11    1    1    2    0    0 -0.11518731857E+03  0.31010563392E+02 -0.49969293712E+03  0.51373417718E+03  0.00000000000E+00 0. -1.
         11    1    1    2    0    0 -0.51833618351E+02 -0.47137391107E+02 -0.37062646074E+03  0.37719044399E+03  0.00000000000E+00 0.  1.
</event>
<event>
 7    1  0.2749315E-009  0.6166302E+02  0.7561462E-02  0.1390982E+00
          1   -1    0    0  501    0  0.00000000000E+00  0.00000000000E+00  0.68683073516E+02  0.68683073516E+02  0.00000000000E+00 0. -1.
         -1   -1    0    0    0  501 -0.00000000000E+00 -0.00000000000E+00 -0.17588859547E+03  0.17588859547E+03  0.00000000000E+00 0.  1.
         25    2    1    2    0    0  0.12624052457E+02 -0.23399864563E+02 -0.68669053848E+02  0.14515527285E+03  0.12509074274E+03 0.  0.
          5    1    3    3  502    0 -0.39848489298E+02 -0.69217657292E+01  0.16338883322E+02  0.43820593884E+02  0.41800000000E+01 0.  1.
         -5    1    3    3    0  502  0.52472541755E+02 -0.16478098834E+02 -0.85007937170E+02  0.10133467897E+03  0.41800000000E+01 0.  1.
        -11    1    1    2    0    0 -0.89009841897E+01  0.90929042413E+01 -0.66542408784E+02  0.67748067085E+02  0.00000000000E+00 0.  1.
         11    1    1    2    0    0 -0.37230682670E+01  0.14306960322E+02  0.28005940682E+02  0.31668329044E+02  0.00000000000E+00 0. -1.
</event>
<event>
 7    1  0.2749315E-009  0.8961996E+02  0.7561462E-02  0.1303775E+00
          3   -1    0    0  501    0  0.00000000000E+00  0.00000000000E+00  0.46157191825E+03  0.46157191825E+03  0.00000000000E+00 0. -1.
         -3   -1    0    0    0  501 -0.00000000000E+00 -0.00000000000E+00 -0.34773136355E+02  0.34773136355E+02  0.00000000000E+00 0.  1.
         25    2    1    2    0    0  0.62673133930E+02  0.21439010954E+02  0.20070500084E+03  0.24559938140E+03  0.12509598665E+03 0.  0.
          5    1    3    3  502    0  0.55256819373E+02  0.94506640914E+01  0.13493778965E+02  0.57811639051E+02  0.41800000000E+01 0. -1.
         -5    1    3    3    0  502  0.74163145572E+01  0.11988346863E+02  0.18721122188E+03  0.18778774235E+03  0.41800000000E+01 0. -1.
        -11    1    1    2    0    0 -0.77566950748E+02  0.52644814468E+01  0.15736380194E+03  0.17552126017E+03  0.00000000000E+00 0.  1.
         11    1    1    2    0    0  0.14893816817E+02 -0.26703492401E+02  0.68729979119E+02  0.75224413029E+02  0.00000000000E+00 0. -1.
</event>
<event>
 7    1  0.2749315E-009  0.1335389E+03  0.7561462E-02  0.1222297E+00
          1   -1    0    0  501    0  0.00000000000E+00  0.00000000000E+00  0.14110066871E+03  0.14110066871E+03  0.00000000000E+00 0. -1.
         -1   -1    0    0    0  501 -0.00000000000E+00 -0.00000000000E+00 -0.19598255191E+03  0.19598255191E+03  0.00000000000E+00 0.  1.
         25    2    1    2    0    0 -0.11360464961E+03  0.53620445773E+02 -0.30689821796E+02  0.17991733552E+03  0.12508882381E+03 0.  0.
          5    1    3    3  502    0 -0.19558905215E+01  0.73367641867E+01 -0.55745048652E+02  0.56414860327E+02  0.41800000000E+01 0. -1.
         -5    1    3    3    0  502 -0.11164875909E+03  0.46283681586E+02  0.25055226856E+02  0.12350247520E+03  0.41800000000E+01 0. -1.
        -11    1    1    2    0    0  0.75829315078E+02 -0.51224314228E+01 -0.49484790528E+02  0.90692165166E+02  0.00000000000E+00 0.  1.
         11    1    1    2    0    0  0.37775334530E+02 -0.48498014350E+02  0.25292729128E+02  0.66473719931E+02  0.00000000000E+00 0. -1.
</event>
<event>
 7    1  0.2749315E-009  0.9720517E+02  0.7561462E-02  0.1286285E+00
         -1   -1    0    0    0  501 -0.00000000000E+00  0.00000000000E+00  0.48302414437E+03  0.48302414437E+03  0.00000000000E+00 0.  1.
          1   -1    0    0  501    0  0.00000000000E+00 -0.00000000000E+00 -0.37731205204E+02  0.37731205204E+02  0.00000000000E+00 0. -1.
         25    2    1    2    0    0 -0.62862414275E+02 -0.45098886256E+02  0.27594334767E+03  0.31269334872E+03  0.12508719573E+03 0.  0.
          5    1    3    3  502    0 -0.36617247995E+02 -0.43382189519E+02  0.28002398811E+03  0.28575119166E+03  0.41800000000E+01 0.  1.
         -5    1    3    3    0  502 -0.26245166279E+02 -0.17166967366E+01 -0.40806404315E+01  0.26942157060E+02  0.41800000000E+01 0.  1.
        -11    1    1    2    0    0  0.59805783805E+02 -0.55972034924E+01  0.13198296212E+03  0.14500883681E+03  0.00000000000E+00 0.  1.
         11    1    1    2    0    0  0.30566304700E+01  0.50696089748E+02  0.37366629372E+02  0.63053164046E+02  0.00000000000E+00 0. -1.
</event>
<event>
 7    1  0.2749315E-009  0.1550428E+03  0.7561462E-02  0.1194410E+00
          2   -1    0    0  501    0  0.00000000000E+00  0.00000000000E+00  0.11963299803E+04  0.11963299803E+04  0.00000000000E+00 0. -1.
         -2   -1    0    0    0  501 -0.00000000000E+00 -0.00000000000E+00 -0.27096244868E+02  0.27096244868E+02  0.00000000000E+00 0.  1.
         25    2    1    2    0    0  0.41599732672E+02  0.13662519938E+03  0.57288547076E+03  0.60352464776E+03  0.12508898825E+03 0.  0.
          5    1    3    3  502    0  0.16410671463E+02  0.32629045440E+02  0.38898517100E+03  0.39071844134E+03  0.41800000000E+01 0.  1.
         -5    1    3    3    0  502  0.25189061209E+02  0.10399615394E+03  0.18390029976E+03  0.21280620642E+03  0.41800000000E+01 0.  1.
        -11    1    1    2    0    0  0.17430963799E+02 -0.88144815541E+02  0.26341844999E+03  0.27832108580E+03  0.00000000000E+00 0.  1.
         11    1    1    2    0    0 -0.59030696470E+02 -0.48480383843E+02  0.33292981472E+03  0.34158049164E+03  0.00000000000E+00 0. -1.
</event>
<event>
 7    1  0.2749315E-009  0.1209852E+03  0.7561462E-02  0.1241481E+00
          2   -1    0    0  501    0  0.00000000000E+00  0.00000000000E+00  0.10066851720E+04  0.10066851720E+04  0.00000000000E+00 0.  1.
         -2   -1    0    0    0  501 -0.00000000000E+00 -0.00000000000E+00 -0.23233732215E+02  0.23233732215E+02  0.00000000000E+00 0. -1.
         25    2    1    2    0    0 -0.14104403775E+02  0.10216346108E+03  0.43902329331E+03  0.46800303579E+03  0.12509629274E+03 0.  0.
          5    1    3    3  502    0 -0.20438246896E+02  0.85621904556E+01  0.29629442277E+03  0.29715129212E+03  0.41800000000E+01 0.  1.
         -5    1    3    3    0  502  0.63338431207E+01  0.93601270626E+02  0.14272887053E+03  0.17085174367E+03  0.41800000000E+01 0.  1.
        -11    1    1    2    0    0 -0.21231659910E+02 -0.82260143857E+02  0.46538256111E+03  0.47307340111E+03  0.00000000000E+00 0.  1.
         11    1    1    2    0    0  0.35336063685E+02 -0.19903317225E+02  0.79045585383E+02  0.88842467334E+02  0.00000000000E+00 0. -1.
</event>
<event>
 7    1  0.2749315E-009  0.9612591E+02  0.7561462E-02  0.1288660E+00
         -2   -1    0    0    0  501 -0.00000000000E+00  0.00000000000E+00  0.15804959741E+03  0.15804959741E+03  0.00000000000E+00 0.  1.
          2   -1    0    0  501    0  0.00000000000E+00 -0.00000000000E+00 -0.10049637773E+03  0.10049637773E+03  0.00000000000E+00 0. -1.
         25    2    1    2    0    0 -0.22084815978E+02 -0.34086759602E+02  0.81555062886E+02  0.15475862420E+03  0.12509739088E+03 0.  0.
          5    1    3    3  502    0  0.25388912890E+02 -0.65189740173E+02  0.24683665833E+02  0.74303801252E+02  0.41800000000E+01 0.  1.
         -5    1    3    3    0  502 -0.47473728868E+02  0.31102980571E+02  0.56871397053E+02  0.80454822949E+02  0.41800000000E+01 0.  1.
        -11    1    1    2    0    0 -0.12834884679E+02 -0.41377343364E+01  0.27582241877E+02  0.30702364357E+02  0.00000000000E+00 0.  1.
         11    1    1    2    0    0  0.34919700657E+02  0.38224493939E+02 -0.51584085075E+02  0.73084986583E+02  0.00000000000E+00 0. -1.
</event>
<event>
 7    1  0.2749315E-009  0.1723305E+03  0.7561462E-02  0.1175439E+00
         -1   -1    0    0    0  501 -0.00000000000E+00  0.00000000000E+00  0.13057565484E+03  0.13057565484E+03  0.00000000000E+00 0.  1.
          1   -1    0    0  501    0  0.00000000000E+00 -0.00000000000E+00 -0.29270279216E+03  0.29270279216E+03  0.00000000000E+00 0. -1.
         25    2    1    2    0    0  0.16011112623E+03 -0.23883588472E+02 -0.78751486306E+02  0.21921688876E+03  0.12509296216E+03 0.  0.
          5    1    3    3  502    0  0.71135664467E+01  0.17575198908E+02 -0.55691133124E+02  0.58978514333E+02  0.41800000000E+01 0.  1.
         -5    1    3    3    0  502  0.15299755979E+03 -0.41458787381E+02 -0.23060353181E+02  0.16023837443E+03  0.41800000000E+01 0.  1.
        -11    1    1    2    0    0 -0.10414654118E+03 -0.38459210656E+01 -0.56772739544E+01  0.10437204888E+03  0.00000000000E+00 0.  1.
         11    1    1    2    0    0 -0.55964585055E+02  0.27729509538E+02 -0.77698377058E+02  0.99689509363E+02  0.00000000000E+00 0. -1.
</event>
<event>
 7    1  0.2749315E-009  0.8832497E+02  0.7561462E-02  0.1306959E+00
          2   -1    0    0  501    0  0.00000000000E+00  0.00000000000E+00  0.32705617856E+03  0.32705617856E+03  0.00000000000E+00 0. -1.
         -2   -1    0    0    0  501 -0.00000000000E+00 -0.00000000000E+00 -0.38575237497E+02  0.38575237497E+02  0.00000000000E+00 0.  1.
         25    2    1    2    0    0 -0.95196624991E+01  0.29300153860E+02  0.17412036448E+03  0.21659670345E+03  0.12508839926E+03 0.  0.
          5    1    3    3  502    0 -0.14282924919E+02 -0.33549736614E+02  0.62447368108E+01  0.37229771809E+02  0.41800000000E+01 0.  1.
         -5    1    3    3    0  502  0.47632624201E+01  0.62849890474E+02  0.16787562767E+03  0.17936693164E+03  0.41800000000E+01 0.  1.
        -11    1    1    2    0    0  0.40151588386E+02 -0.19354874213E+02  0.19128452836E+02  0.48504215421E+02  0.00000000000E+00 0.  1.
         11    1    1    2    0    0 -0.30631925887E+02 -0.99452796467E+01  0.95232123744E+02  0.10053049718E+03  0.00000000000E+00 0. -1.
</event>
<event>
 7    1  0.2749315E-009  0.1177060E+03  0.7561462E-02  0.1246930E+00
         -2   -1    0    0    0  501 -0.00000000000E+00  0.00000000000E+00  0.13529853401E+03  0.13529853401E+03  0.00000000000E+00 0.  1.
          2   -1    0    0  501    0  0.00000000000E+00 -0.00000000000E+00 -0.12087156998E+03  0.12087156998E+03  0.00000000000E+00 0. -1.
         25    2    1    2    0    0 -0.51983302505E+02  0.39834679170E+02  0.17038949258E+02  0.14223372619E+03  0.12510412332E+03 0.  0.
          5    1    3    3  502    0  0.14985270853E+02 -0.29266046704E+02  0.30423355414E+02  0.44990140996E+02  0.41800000000E+01 0. -1.
         -5    1    3    3    0  502 -0.66968573357E+02  0.69100725874E+02 -0.13384406156E+02  0.97243585197E+02  0.41800000000E+01 0. -1.
        -11    1    1    2    0    0 -0.85903833246E+01 -0.44381933139E+02  0.19582113882E+02  0.49264691807E+02  0.00000000000E+00 0.  1.
         11    1    1    2    0    0  0.60573685829E+02  0.45472539683E+01 -0.22194099113E+02  0.64671685992E+02  0.00000000000E+00 0. -1.
</event>
<event>
 7    1  0.2749315E-009  0.1131317E+03  0.7561462E-02  0.1254878E+00
          2   -1    0    0  501    0  0.00000000000E+00  0.00000000000E+00  0.44998456194E+03  0.44998456194E+03  0.00000000000E+00 0. -1.
         -2   -1    0    0    0  501 -0.00000000000E+00 -0.00000000000E+00 -0.41419130194E+02  0.41419130194E+02  0.00000000000E+00 0.  1.
         25    2    1    2    0    0  0.55403489929E+02  0.61294895282E+02  0.21666809813E+03  0.26347606404E+03  0.12509180906E+03 0.  0.
          5    1    3    3  502    0  0.26422874330E+02 -0.30714585555E+02  0.22276318680E+02  0.46424786781E+02  0.41800000000E+01 0. -1.
         -5    1    3    3    0  502  0.28980615599E+02  0.92009480837E+02  0.19439177945E+03  0.21705127726E+03  0.41800000000E+01 0. -1.
        -11    1    1    2    0    0 -0.24623829731E+02 -0.50805397207E+02  0.18663384924E+03  0.19498644840E+03  0.00000000000E+00 0. -1.
         11    1    1    2    0    0 -0.30779660198E+02 -0.10489498075E+02  0.52634843751E+01  0.32941179692E+02  0.00000000000E+00 0.  1.
</event>
<event>
 7    1  0.2749315E-009  0.1279132E+03  0.7561462E-02  0.1230585E+00
          1   -1    0    0  501    0  0.00000000000E+00  0.00000000000E+00  0.12507124777E+03  0.12507124777E+03  0.00000000000E+00 0. -1.
         -1   -1    0    0    0  501 -0.00000000000E+00 -0.00000000000E+00 -0.18413901285E+03  0.18413901285E+03  0.00000000000E+00 0.  1.
         25    2    1    2    0    0 -0.62710934180E+02 -0.60254443690E+02  0.29333910682E+02  0.15514766228E+03  0.12508820706E+03 0.  0.
          5    1    3    3  502    0 -0.70133859459E+02 -0.81644429012E+02  0.54770755740E+02  0.12083823532E+03  0.41800000000E+01 0. -1.
         -5    1    3    3    0  502  0.74229252791E+01  0.21389985323E+02 -0.25436845059E+02  0.34309426960E+02  0.41800000000E+01 0. -1.
        -11    1    1    2    0    0  0.48368564741E+02  0.84242670911E+02 -0.59795683750E+02  0.11406958163E+03  0.00000000000E+00 0.  1.
         11    1    1    2    0    0  0.14342369439E+02 -0.23988227222E+02 -0.28605992016E+02  0.39993016710E+02  0.00000000000E+00 0. -1.
</event>
<event>
 7    1  0.2749315E-009  0.1188959E+03  0.7561462E-02  0.1244930E+00
         -2   -1    0    0    0  501 -0.00000000000E+00  0.00000000000E+00  0.19947153330E+02  0.19947153330E+02  0.00000000000E+00 0. -1.
          2   -1    0    0  501    0  0.00000000000E+00 -0.00000000000E+00 -0.91379114371E+03  0.91379114371E+03  0.00000000000E+00 0.  1.
         25    2    1    2    0    0 -0.30872866251E+02  0.56880052934E+02 -0.65221305162E+03  0.66724630910E+03  0.12508916025E+03 0.  0.
          5    1    3    3  502    0 -0.62338359987E+02  0.69661677335E+02 -0.32364295515E+03  0.33689917666E+03  0.41800000000E+01 0. -1.
         -5    1    3    3    0  502  0.31465493736E+02 -0.12781624401E+02 -0.32857009647E+03  0.33034713244E+03  0.41800000000E+01 0. -1.
        -11    1    1    2    0    0  0.51501331955E+02 -0.21911487188E+01 -0.86238341245E+02  0.10047009419E+03  0.00000000000E+00 0. -1.
         11    1    1    2    0    0 -0.20628465703E+02 -0.54688904215E+02 -0.15539259752E+03  0.16602189375E+03  0.00000000000E+00 0.  1.
</event>
<event>
 7    1  0.2749315E-009  0.1503955E+03  0.7561462E-02  0.1199988E+00
          1   -1    0    0  501    0  0.00000000000E+00  0.00000000000E+00  0.17632229274E+03  0.17632229274E+03  0.00000000000E+00 0. -1.
         -1   -1    0    0    0  501 -0.00000000000E+00 -0.00000000000E+00 -0.15333977411E+03  0.15333977411E+03  0.00000000000E+00 0.  1.
         25    2    1    2    0    0  0.24134447536E+02 -0.10921792795E+03 -0.37712739375E+02  0.17198740156E+03  0.12508552371E+03 0.  0.
          5    1    3    3  502    0 -0.32337376046E+02 -0.91919584194E+02  0.70138742201E+01  0.97783345615E+02  0.41800000000E+01 0.  1.
         -5    1    3    3    0  502  0.56471823582E+02 -0.17298343757E+02 -0.44726613595E+02  0.74204055948E+02  0.41800000000E+01 0.  1.
        -11    1    1    2    0    0 -0.48936703810E+02  0.22511995287E+02  0.12010440809E+02  0.55189143860E+02  0.00000000000E+00 0.  1.
         11    1    1    2    0    0  0.24802256274E+02  0.86705932665E+02  0.48684817200E+02  0.10248552142E+03  0.00000000000E+00 0. -1.
</event>
<event>
 7    1  0.2749315E-009  0.1005013E+03  0.7561462E-02  0.1279245E+00
         -2   -1    0    0    0  501 -0.00000000000E+00  0.00000000000E+00  0.46033453778E+02  0.46033453778E+02  0.00000000000E+00 0.  1.
          2   -1    0    0  501    0  0.00000000000E+00 -0.00000000000E+00 -0.37738350683E+03  0.37738350683E+03  0.00000000000E+00 0. -1.
         25    2    1    2    0    0 -0.43892408222E+02 -0.58039216249E+01 -0.27950836655E+03  0.30940501028E+03  0.12508518860E+03 0.  0.
          5    1    3    3  502    0 -0.54645261422E+02 -0.53546971040E+02 -0.21554643158E+03  0.22875995993E+03  0.41800000000E+01 0. -1.
         -5    1    3    3    0  502  0.10752853200E+02  0.47743049416E+02 -0.63961934975E+02  0.80645050345E+02  0.41800000000E+01 0. -1.
        -11    1    1    2    0    0 -0.12395508215E+02 -0.10945951502E+02 -0.52746254927E+02  0.55277752188E+02  0.00000000000E+00 0. -1.
         11    1    1    2    0    0  0.56287916437E+02  0.16749873127E+02  0.90456843074E+00  0.58734198136E+02  0.00000000000E+00 0.  1.
</event>
<event>
 7    1  0.2749315E-009  0.1085289E+03  0.7561462E-02  0.1263319E+00
          2   -1    0    0  501    0  0.00000000000E+00  0.00000000000E+00  0.49803737780E+02  0.49803737780E+02  0.00000000000E+00 0. -1.
         -2   -1    0    0    0  501 -0.00000000000E+00 -0.00000000000E+00 -0.27348748050E+03  0.27348748050E+03  0.00000000000E+00 0.  1.
         25    2    1    2    0    0  0.35130273842E+02  0.18928735828E+02 -0.10865504111E+03  0.17042587801E+03  0.12508648512E+03 0.  0.
          5    1    3    3  502    0  0.77031873198E+02 -0.13104595756E+02 -0.60964130787E+02  0.99195451312E+02  0.41800000000E+01 0. -1.
         -5    1    3    3    0  502 -0.41901599357E+02  0.32033331584E+02 -0.47690910321E+02  0.71230426703E+02  0.41800000000E+01 0. -1.
        -11    1    1    2    0    0  0.22664381062E+02  0.52265832431E+01 -0.75010687223E+02  0.78534034272E+02  0.00000000000E+00 0.  1.
         11    1    1    2    0    0 -0.57794654904E+02 -0.24155319071E+02 -0.40018014384E+02  0.74331305990E+02  0.00000000000E+00 0. -1.
</event>
<event>
 7    1  0.2749315E-009  0.1067290E+03  0.7561462E-02  0.1266750E+00
          2   -1    0    0  501    0  0.00000000000E+00  0.00000000000E+00  0.57828025396E+03  0.57828025396E+03  0.00000000000E+00 0. -1.
         -2   -1    0    0    0  501 -0.00000000000E+00 -0.00000000000E+00 -0.38454775476E+02  0.38454775476E+02  0.00000000000E+00 0.  1.
         25    2    1    2    0    0 -0.76961675810E+02 -0.27763038314E+02  0.14034718827E+03  0.20503329529E+03  0.12508970015E+03 0.  0.
          5    1    3    3  502    0 -0.53854593159E+02  0.22416374698E+02  0.13765798462E+03  0.14956605293E+03  0.41800000000E+01 0.  1.
         -5    1    3    3    0  502 -0.23107082651E+02 -0.50179413012E+02  0.26892036470E+01  0.55467242361E+02  0.41800000000E+01 0.  1.
        -11    1    1    2    0    0  0.79419640142E+02  0.81840992139E+01  0.32164832828E+03  0.33140927236E+03  0.00000000000E+00 0. -1.
         11    1    1    2    0    0 -0.24579643325E+01  0.19578939100E+02  0.77829961934E+02  0.80292461785E+02  0.00000000000E+00 0.  1.
</event>
<event>
 7    1  0.2749315E-009  0.1082850E+03  0.7561462E-02  0.1263779E+00
          3   -1    0    0  501    0  0.00000000000E+00  0.00000000000E+00  0.71113318905E+03  0.71113318905E+03  0.00000000000E+00 0. -1.
         -3   -1    0    0    0  501 -0.00000000000E+00 -0.00000000000E+00 -0.21502738166E+02  0.21502738166E+02  0.00000000000E+00 0.  1.
         25    2    1    2    0    0  0.19326560401E+02 -0.20098622514E+01  0.21900424700E+03  0.25295238955E+03  0.12507795846E+03 0.  0.
          5    1    3    3  502    0  0.70986639269E+02  0.60172453729E+01  0.15151735442E+03  0.16748221186E+03  0.41800000000E+01 0. -1.
         -5    1    3    3    0  502 -0.51660078868E+02 -0.80271076243E+01  0.67486892578E+02  0.85470177696E+02  0.41800000000E+01 0. -1.
        -11    1    1    2    0    0 -0.14161674160E+02 -0.44122135362E+02  0.23065006710E+03  0.23525894095E+03  0.00000000000E+00 0.  1.
         11    1    1    2    0    0 -0.51648862409E+01  0.46131997613E+02  0.23997613678E+03  0.24442459671E+03  0.00000000000E+00 0. -1.
</event>
<event>
 7    1  0.2749315E-009  0.5726787E+02  0.7561462E-02  0.1409668E+00
         -1   -1    0    0    0  501 -0.00000000000E+00  0.00000000000E+00  0.11463930576E+03  0.11463930576E+03  0.00000000000E+00 0.  1.
          1   -1    0    0  501    0  0.00000000000E+00 -0.00000000000E+00 -0.94044251649E+02  0.94044251649E+02  0.00000000000E+00 0. -1.
         25    2    1    2    0    0  0.49737414855E+01  0.24443619496E+00  0.17845908326E+02  0.12645100276E+03  0.12508629742E+03 0.  0.
          5    1    3    3  502    0 -0.27754209706E+01  0.17241951279E+02 -0.51484588908E+02  0.54526352716E+02  0.41800000000E+01 0. -1.
         -5    1    3    3    0  502  0.77491624561E+01 -0.16997515084E+02  0.69330497234E+02  0.71924650047E+02  0.41800000000E+01 0. -1.
        -11    1    1    2    0    0 -0.12044213590E+02  0.37318232063E+02 -0.12385124857E+02  0.41123045157E+02  0.00000000000E+00 0. -1.
         11    1    1    2    0    0  0.70704721050E+01 -0.37562668258E+02  0.15134270639E+02  0.41109509486E+02  0.00000000000E+00 0.  1.
</event>
<event>
 7    1  0.2749315E-009  0.1035580E+03  0.7561462E-02  0.1272987E+00
         -2   -1    0    0    0  501 -0.00000000000E+00  0.00000000000E+00  0.15090542188E+03  0.15090542188E+03  0.00000000000E+00 0. -1.
          2   -1    0    0  501    0  0.00000000000E+00 -0.00000000000E+00 -0.91554275942E+02  0.91554275942E+02  0.00000000000E+00 0.  1.
         25    2    1    2    0    0 -0.38061446214E+02 -0.17046859016E+02  0.15201014899E+02  0.13273775249E+03  0.12509584722E+03 0.  0.
          5    1    3    3  502    0 -0.56684638221E+02 -0.51474642314E+02  0.39722261500E+02  0.86360392949E+02  0.41800000000E+01 0. -1.
         -5    1    3    3    0  502  0.18623192008E+02  0.34427783298E+02 -0.24521246601E+02  0.46377359543E+02  0.41800000000E+01 0. -1.
        -11    1    1    2    0    0 -0.17795332519E+02  0.28927008135E+02 -0.50607632911E+01  0.34337399205E+02  0.00000000000E+00 0.  1.
         11    1    1    2    0    0  0.55856778732E+02 -0.11880149119E+02  0.49210894325E+02  0.75384546120E+02  0.00000000000E+00 0. -1.
</event>
<event>
 7    1  0.2749315E-009  0.1126036E+03  0.7561462E-02  0.1255823E+00
          1   -1    0    0  501    0  0.00000000000E+00  0.00000000000E+00  0.34839503536E+02  0.34839503536E+02  0.00000000000E+00 0. -1.
         -1   -1    0    0    0  501 -0.00000000000E+00 -0.00000000000E+00 -0.42325012349E+03  0.42325012349E+03  0.00000000000E+00 0.  1.
         25    2    1    2    0    0  0.13853435113E+02  0.40035270585E+02 -0.27609836236E+03  0.30606515949E+03  0.12510329972E+03 0.  0.
          5    1    3    3  502    0  0.42901857588E+02  0.71514305558E+02 -0.22032701053E+03  0.23561903414E+03  0.41800000000E+01 0.  1.
         -5    1    3    3    0  502 -0.29048422474E+02 -0.31479034973E+02 -0.55771351834E+02  0.70446125347E+02  0.41800000000E+01 0.  1.
        -11    1    1    2    0    0  0.15001140190E+02  0.24074287941E+02 -0.15337408528E+02  0.32246575745E+02  0.00000000000E+00 0. -1.
         11    1    1    2    0    0 -0.28854575303E+02 -0.64109558526E+02 -0.96974849068E+02  0.11977789179E+03  0.00000000000E+00 0.  1.
</event>
<event>
 7    1  0.2749315E-009  0.7809746E+02  0.7561462E-02  0.1334539E+00
         -2   -1    0    0    0  501 -0.00000000000E+00  0.00000000000E+00  0.42743399162E+02  0.42743399162E+02  0.00000000000E+00 0.  1.
          2   -1    0    0  501    0  0.00000000000E+00 -0.00000000000E+00 -0.27917091467E+03  0.27917091467E+03  0.00000000000E+00 0. -1.
         25    2    1    2    0    0  0.92585484582E+01 -0.22186752882E+01 -0.11853426343E+03  0.17259346569E+03  0.12508992587E+03 0.  0.
          5    1    3    3  502    0 -0.27220555286E+02  0.42071866951E+01 -0.13050281092E+03  0.13344330297E+03  0.41800000000E+01 0. -1.
         -5    1    3    3    0  502  0.36479103745E+02 -0.64258619834E+01  0.11968547488E+02  0.39150162723E+02  0.41800000000E+01 0. -1.
        -11    1    1    2    0    0  0.72297713618E+01  0.44809452101E+02 -0.67153726659E+02  0.81054176917E+02  0.00000000000E+00 0.  1.
         11    1    1    2    0    0 -0.16488319820E+02 -0.42590776813E+02 -0.50739525419E+02  0.68266671222E+02  0.00000000000E+00 0. -1.
</event>
<event>
 7    1  0.4201746E-009  0.8878697E+02  0.7561462E-02  0.1305816E+00
         -1   -1    0    0    0  501 -0.00000000000E+00  0.00000000000E+00  0.14184544410E+03  0.14184544410E+03  0.00000000000E+00 0.  1.
          1   -1    0    0  501    0  0.00000000000E+00 -0.00000000000E+00 -0.16272920123E+03  0.16272920123E+03  0.00000000000E+00 0. -1.
         25    2    1    2    0    0  0.16452634763E-01 -0.84983868236E+02  0.52109481351E+02  0.15995274206E+03  0.12508886247E+03 0.  0.
          5    1    3    3  502    0 -0.17028446661E+02 -0.33863419185E+02  0.87431245458E+02  0.95385503285E+02  0.41800000000E+01 0.  1.
         -5    1    3    3    0  502  0.17044899295E+02 -0.51120449051E+02 -0.35321764108E+02  0.64567238774E+02  0.41800000000E+01 0.  1.
        -11    1    1    2    0    0  0.29840590684E+01  0.72135261230E+02 -0.18031943349E+01  0.72219471273E+02  0.00000000000E+00 0.  1.
         11    1    1    2    0    0 -0.30005117031E+01  0.12848607006E+02 -0.71190044153E+02  0.72402431996E+02  0.00000000000E+00 0. -1.
</event>
<event>
 7    1  0.2749315E-009  0.1000280E+03  0.7561462E-02  0.1280237E+00
          1   -1    0    0  501    0  0.00000000000E+00  0.00000000000E+00  0.25412945352E+03  0.25412945352E+03  0.00000000000E+00 0. -1.
         -1   -1    0    0    0  501 -0.00000000000E+00 -0.00000000000E+00 -0.58870830925E+02  0.58870830925E+02  0.00000000000E+00 0.  1.
         25    2    1    2    0    0 -0.41720055949E+02  0.39306399418E+02  0.10319200776E+03  0.17199230625E+03  0.12508879582E+03 0.  0.
          5    1    3    3  502    0 -0.31165704852E+02 -0.42671739018E+02  0.26939696619E+02  0.59459213951E+02  0.41800000000E+01 0.  1.
         -5    1    3    3    0  502 -0.10554351097E+02  0.81978138436E+02  0.76252311144E+02  0.11253309230E+03  0.41800000000E+01 0.  1.
        -11    1    1    2    0    0  0.30577392463E+02 -0.88101931726E+01  0.10216476168E+03  0.10700577069E+03  0.00000000000E+00 0. -1.
         11    1    1    2    0    0  0.11142663486E+02 -0.30496206245E+02 -0.10098146845E+02  0.34002207496E+02  0.00000000000E+00 0.  1.
</event>
<event>
 7    1  0.2749315E-009  0.1112342E+03  0.7561462E-02  0.1258301E+00
          1   -1    0    0  501    0  0.00000000000E+00  0.00000000000E+00  0.10695584975E+04  0.10695584975E+04  0.00000000000E+00 0. -1.
         -1   -1    0    0    0  501 -0.00000000000E+00 -0.00000000000E+00 -0.14618929400E+02  0.14618929400E+02  0.00000000000E+00 0.  1.
         25    2    1    2    0    0 -0.43298566943E+01  0.40170313404E+02  0.78100760197E+03  0.79199295462E+03  0.12509022384E+03 0.  0.
          5    1    3    3  502    0 -0.12745126261E+02  0.80442760122E+02  0.63588086808E+03  0.64108925017E+03  0.41800000000E+01 0. -1.
         -5    1    3    3    0  502  0.84152695670E+01 -0.40272446718E+02  0.14512673389E+03  0.15090370445E+03  0.41800000000E+01 0. -1.
        -11    1    1    2    0    0  0.69105143861E+01 -0.69638247879E+02  0.16323271091E+03  0.17760112243E+03  0.00000000000E+00 0. -1.
         11    1    1    2    0    0 -0.25806576918E+01  0.29467934475E+02  0.11069925519E+03  0.11458334982E+03  0.00000000000E+00 0.  1.
</event>
<event>
 7    1  0.2749315E-009  0.1012703E+03  0.7561462E-02  0.1277647E+00
         -1   -1    0    0    0  501 -0.00000000000E+00  0.00000000000E+00  0.46912225523E+02  0.46912225523E+02  0.00000000000E+00 0.  1.
          1   -1    0    0  501    0  0.00000000000E+00 -0.00000000000E+00 -0.35197621361E+03  0.35197621361E+03  0.00000000000E+00 0. -1.
         25    2    1    2    0    0 -0.44726316463E+02 -0.28716302919E+02 -0.10026631147E+03  0.16889174148E+03  0.12508404249E+03 0.  0.
          5    1    3    3  502    0 -0.86707764662E+02 -0.86114332850E+01 -0.78428169514E+02  0.11730662134E+03  0.41800000000E+01 0.  1.
         -5    1    3    3    0  502  0.41981448198E+02 -0.20104869634E+02 -0.21838141957E+02  0.51585120141E+02  0.41800000000E+01 0.  1.
        -11    1    1    2    0    0  0.42046723533E+02  0.23958745959E+01 -0.19834205102E+03  0.20276399182E+03  0.00000000000E+00 0. -1.
         11    1    1    2    0    0  0.26795929300E+01  0.26320428323E+02 -0.64556255933E+01  0.27232705836E+02  0.00000000000E+00 0.  1.
</event>
<event>
 7    1  0.2749315E-009  0.1338240E+03  0.7561462E-02  0.1221889E+00
         -2   -1    0    0    0  501 -0.00000000000E+00  0.00000000000E+00  0.22993430459E+02  0.22993430459E+02  0.00000000000E+00 0.  1.
          2   -1    0    0  501    0  0.00000000000E+00 -0.00000000000E+00 -0.86630762717E+03  0.86630762717E+03  0.00000000000E+00 0. -1.
         25    2    1    2    0    0  0.68147812863E+02  0.39635715049E+02 -0.32582082161E+03  0.35780078928E+03  0.12508829964E+03 0.  0.
          5    1    3    3  502    0 -0.17933702235E+00  0.71986885869E+02 -0.16288152275E+03  0.17812918557E+03  0.41800000000E+01 0.  1.
         -5    1    3    3    0  502  0.68327149885E+02 -0.32351170821E+02 -0.16293929886E+03  0.17967160370E+03  0.41800000000E+01 0.  1.
        -11    1    1    2    0    0 -0.49102221385E+02  0.23098430876E+02 -0.27486165105E+03  0.28016690181E+03  0.00000000000E+00 0. -1.
         11    1    1    2    0    0 -0.19045591478E+02 -0.62734145925E+02 -0.24263172405E+03  0.25133336654E+03  0.00000000000E+00 0.  1.
</event>
<event>
 7    1  0.2749315E-009  0.1298427E+03  0.7561462E-02  0.1227689E+00
         -2   -1    0    0    0  501 -0.00000000000E+00  0.00000000000E+00  0.70498945667E+02  0.70498945667E+02  0.00000000000E+00 0. -1.
          2   -1    0    0  501    0  0.00000000000E+00 -0.00000000000E+00 -0.28524651753E+03  0.28524651753E+03  0.00000000000E+00 0.  1.
         25    2    1    2    0    0 -0.33165074039E+02  0.71400509775E+02 -0.16197950882E+03  0.21927748798E+03  0.12508917030E+03 0.  0.
          5    1    3    3  502    0 -0.77181229479E+02  0.68674570877E+02 -0.11718768136E+03  0.15628040162E+03  0.41800000000E+01 0. -1.
         -5    1    3    3    0  502  0.44016155439E+02  0.27259388985E+01 -0.44791827465E+02  0.62997086362E+02  0.41800000000E+01 0. -1.
        -11    1    1    2    0    0 -0.13382877251E+02 -0.63355796258E+02 -0.60479234495E+02  0.88604718431E+02  0.00000000000E+00 0.  1.
         11    1    1    2    0    0  0.46547951290E+02 -0.80447135173E+01  0.77111714513E+01  0.47863256784E+02  0.00000000000E+00 0. -1.
</event>
<event>
 7    1  0.2749315E-009  0.1287599E+03  0.7561462E-02  0.1229307E+00
         -2   -1    0    0    0  501 -0.00000000000E+00  0.00000000000E+00  0.63943269382E+02  0.63943269382E+02  0.00000000000E+00 0.  1.
          2   -1    0    0  501    0  0.00000000000E+00 -0.00000000000E+00 -0.39172286731E+03  0.39172286731E+03  0.00000000000E+00 0. -1.
         25    2    1    2    0    0 -0.90607283122E+02  0.65669992739E+02 -0.17981917066E+03  0.24597610321E+03  0.12508829486E+03 0.  0.
          5    1    3    3  502    0 -0.46998962007E+02  0.51947511632E+02 -0.18679434367E+03  0.19954208985E+03  0.41800000000E+01 0. -1.
         -5    1    3    3    0  502 -0.43608321115E+02  0.13722481107E+02  0.69751730074E+01  0.46434013360E+02  0.41800000000E+01 0. -1.
        -11    1    1    2    0    0  0.24279860378E+01 -0.52172136518E+02 -0.25333052702E+02  0.58048173995E+02  0.00000000000E+00 0.  1.
         11    1    1    2    0    0  0.88179297084E+02 -0.13497856221E+02 -0.12262737457E+03  0.15164185950E+03  0.00000000000E+00 0. -1.
</event>
<event>
 7    1  0.2749315E-009  0.1768462E+03  0.7561462E-02  0.1170891E+00
         -1   -1    0    0    0  501 -0.00000000000E+00  0.00000000000E+00  0.44922688032E+02  0.44922688032E+02  0.00000000000E+00 0.  1.
          1   -1    0    0  501    0  0.00000000000E+00 -0.00000000000E+00 -0.91352958136E+03  0.91352958136E+03  0.00000000000E+00 0. -1.
         25    2    1    2    0    0  0.12134634354E+03  0.11890329449E+03 -0.48162482180E+03  0.52580684768E+03  0.12508974202E+03 0.  0.
          5    1    3    3  502    0  0.98830767925E+02  0.93530886218E+02 -0.19892305436E+03  0.24104647129E+03  0.41800000000E+01 0.  1.
         -5    1    3    3    0  502  0.22515575618E+02  0.25372408269E+02 -0.28270176744E+03  0.28476037639E+03  0.41800000000E+01 0.  1.
        -11    1    1    2    0    0 -0.72524434189E+02 -0.11290125647E+03 -0.33598862013E+03  0.36179391941E+03  0.00000000000E+00 0.  1.
         11    1    1    2    0    0 -0.48821909353E+02 -0.60020380202E+01 -0.50993451401E+02  0.70851502306E+02  0.00000000000E+00 0. -1.
</event>
<event>
 7    1  0.2749315E-009  0.7107337E+02  0.7561462E-02  0.1356481E+00
         -2   -1    0    0    0  501 -0.00000000000E+00  0.00000000000E+00  0.67736219330E+02  0.67736219330E+02  0.00000000000E+00 0.  1.
          2   -1    0    0  501    0  0.00000000000E+00 -0.00000000000E+00 -0.19066013523E+03  0.19066013523E+03  0.00000000000E+00 0. -1.
         25    2    1    2    0    0 -0.49254191874E+01  0.25368233299E+01 -0.11216729918E+03  0.16810522976E+03  0.12508864873E+03 0.  0.
          5    1    3    3  502    0  0.44688510693E+02  0.14761562787E+02 -0.28165961293E+01  0.47332571636E+02  0.41800000000E+01 0.  1.
         -5    1    3    3    0  502 -0.49613929881E+02 -0.12224739457E+02 -0.10935070305E+03  0.12077265813E+03  0.41800000000E+01 0.  1.
        -11    1    1    2    0    0  0.21302288108E+02 -0.12265358254E+02 -0.44903055879E+02  0.51190926140E+02  0.00000000000E+00 0. -1.
         11    1    1    2    0    0 -0.16376868921E+02  0.97285349241E+01  0.34146439162E+02  0.39100198655E+02  0.00000000000E+00 0.  1.
</event>
<event>
 7    1  0.2749315E-009  0.1156387E+03  0.7561462E-02  0.1250470E+00
         -2   -1    0    0    0  501 -0.00000000000E+00  0.00000000000E+00  0.25603298929E+02  0.25603298929E+02  0.00000000000E+00 0.  1.
          2   -1    0    0  501    0  0.00000000000E+00 -0.00000000000E+00 -0.13939461167E+04  0.13939461167E+04  0.00000000000E+00 0. -1.
         25    2    1    2    0    0  0.49739653158E+02 -0.52549743483E+02 -0.12317043340E+04  0.12401528850E+04  0.12509237826E+03 0.  0.
          5    1    3    3  502    0 -0.41090444062E+02 -0.41736415333E+01 -0.34942909007E+03  0.35188635276E+03  0.41800000000E+01 0.  1.
         -5    1    3    3    0  502  0.90830097220E+02 -0.48376101949E+02 -0.88227524392E+03  0.88826653220E+03  0.41800000000E+01 0.  1.
        -11    1    1    2    0    0 -0.27408232865E+02 -0.23436584673E+01  0.30308747361E+01  0.27674720693E+02  0.00000000000E+00 0.  1.
         11    1    1    2    0    0 -0.22331420293E+02  0.54893401950E+02 -0.13966935851E+03  0.15172180996E+03  0.00000000000E+00 0. -1.
</event>
<event>
 7    1  0.2749315E-009  0.9897866E+02  0.7561462E-02  0.1282458E+00
         -3   -1    0    0    0  501 -0.00000000000E+00  0.00000000000E+00  0.70745276934E+02  0.70745276934E+02  0.00000000000E+00 0.  1.
          3   -1    0    0  501    0  0.00000000000E+00 -0.00000000000E+00 -0.19215565239E+03  0.19215565239E+03  0.00000000000E+00 0. -1.
         25    2    1    2    0    0 -0.17899063392E+02  0.37354371626E+02 -0.78297074661E+02  0.15327686931E+03  0.12509053208E+03 0.  0.
          5    1    3    3  502    0 -0.54558739555E+02  0.61308744908E+02 -0.28848946393E+02  0.87092780252E+02  0.41800000000E+01 0.  1.
         -5    1    3    3    0  502  0.36659676163E+02 -0.23954373282E+02 -0.49448128268E+02  0.66184089062E+02  0.41800000000E+01 0.  1.
        -11    1    1    2    0    0  0.32904359241E+02 -0.44358963811E+02 -0.62975971909E+02  0.83763879836E+02  0.00000000000E+00 0. -1.
         11    1    1    2    0    0 -0.15005295849E+02  0.70045921854E+01  0.19862671110E+02  0.25860180177E+02  0.00000000000E+00 0.  1.
</event>
<event>
 7    1  0.2749315E-009  0.2251910E+03  0.7561462E-02  0.1130071E+00
         -2   -1    0    0    0  501 -0.00000000000E+00  0.00000000000E+00  0.81485411903E+03  0.81485411903E+03  0.00000000000E+00 0.  1.
          2   -1    0    0  501    0  0.00000000000E+00 -0.00000000000E+00 -0.81063397751E+02  0.81063397751E+02  0.00000000000E+00 0. -1.
         25    2    1    2    0    0 -0.21048480886E+03 -0.31112757488E+02  0.21245092440E+03  0.32566142592E+03  0.12509240830E+03 0.  0.
          5    1    3    3  502    0 -0.11602221171E+03  0.19343785963E+02  0.43289836911E+02  0.12540661085E+03  0.41800000000E+01 0.  1.
         -5    1    3    3    0  502 -0.94462597147E+02 -0.50456543451E+02  0.16916108749E+03  0.20025481506E+03  0.41800000000E+01 0.  1.
        -11    1    1    2    0    0  0.44446230197E+02  0.39214731613E+02  0.87765098858E+02  0.10590550095E+03  0.00000000000E+00 0. -1.
         11    1    1    2    0    0  0.16603857866E+03 -0.81019741247E+01  0.43357469802E+03  0.46435058991E+03  0.00000000000E+00 0.  1.
</event>
<event>
 7    1  0.2951359E-009  0.1121906E+03  0.7561462E-02  0.1256566E+00
         -2   -1    0    0    0  501 -0.00000000000E+00  0.00000000000E+00  0.28110447154E+02  0.28110447154E+02  0.00000000000E+00 0. -1.
          2   -1    0    0  501    0  0.00000000000E+00 -0.00000000000E+00 -0.60531315985E+03  0.60531315985E+03  0.00000000000E+00 0.  1.
         25    2    1    2    0    0 -0.43079929562E+02 -0.40278466472E+02 -0.42103653078E+03  0.44316796337E+03  0.12509135987E+03 0.  0.
          5    1    3    3  502    0 -0.54005250637E+02 -0.79661330256E+02 -0.31697724866E+03  0.33129223233E+03  0.41800000000E+01 0.  1.
         -5    1    3    3    0  502  0.10925321076E+02  0.39382863784E+02 -0.10405928212E+03  0.11187573104E+03  0.41800000000E+01 0.  1.
        -11    1    1    2    0    0 -0.16309789811E+02  0.15865881444E+02 -0.10697342510E+03  0.10936658135E+03  0.00000000000E+00 0.  1.
         11    1    1    2    0    0  0.59389719372E+02  0.24412585028E+02 -0.49192756820E+02  0.80889062291E+02  0.00000000000E+00 0. -1.
</event>
<event>
 7    1  0.2749315E-009  0.6979486E+02  0.7561462E-02  0.1360792E+00
         -1   -1    0    0    0  501 -0.00000000000E+00  0.00000000000E+00  0.44457580602E+02  0.44457580602E+02  0.00000000000E+00 0.  1.
          1   -1    0    0  501    0  0.00000000000E+00 -0.00000000000E+00 -0.31559582528E+03  0.31559582528E+03  0.00000000000E+00 0. -1.
         25    2    1    2    0    0  0.27785368445E+02  0.17479199879E+02 -0.20541073012E+03  0.24272451436E+03  0.12507626752E+03 0.  0.
          5    1    3    3  502    0  0.47387965959E+02  0.14895981909E+02 -0.21475138862E+03  0.22046120046E+03  0.41800000000E+01 0. -1.
         -5    1    3    3    0  502 -0.19602597513E+02  0.25832179703E+01  0.93406585077E+01  0.22263313898E+02  0.41800000000E+01 0. -1.
        -11    1    1    2    0    0 -0.34004892975E+02  0.14489322761E+02 -0.74874132074E+02  0.83500951337E+02  0.00000000000E+00 0. -1.
         11    1    1    2    0    0  0.62195245296E+01 -0.31968522640E+02  0.91466175115E+01  0.33827940184E+02  0.00000000000E+00 0.  1.
</event>
<event>
 7    1  0.2749315E-009  0.1055916E+03  0.7561462E-02  0.1268958E+00
         -1   -1    0    0    0  501 -0.00000000000E+00  0.00000000000E+00  0.32451340211E+02  0.32451340211E+02  0.00000000000E+00 0.  1.
          1   -1    0    0  501    0  0.00000000000E+00 -0.00000000000E+00 -0.58647182855E+03  0.58647182855E+03  0.00000000000E+00 0. -1.
         25    2    1    2    0    0  0.24974656481E+02 -0.40159979119E+02 -0.45968779120E+03  0.47874584155E+03  0.12509259780E+03 0.  0.
          5    1    3    3  502    0 -0.27970556801E+01 -0.72937448538E+02 -0.15933969700E+03  0.17531202571E+03  0.41800000000E+01 0.  1.
         -5    1    3    3    0  502  0.27771712161E+02  0.32777469420E+02 -0.30034809420E+03  0.30343381583E+03  0.41800000000E+01 0.  1.
        -11    1    1    2    0    0  0.21090014213E+02  0.43889217036E+02 -0.76413799134E+02  0.90609716750E+02  0.00000000000E+00 0. -1.
         11    1    1    2    0    0 -0.46064670694E+02 -0.37292379170E+01 -0.17918897998E+02  0.49567610463E+02  0.00000000000E+00 0.  1.
</event>
<event>
 7    1  0.2749315E-009  0.1862719E+03  0.7561462E-02  0.1161867E+00
          1   -1    0    0  501    0  0.00000000000E+00  0.00000000000E+00  0.15749951686E+03  0.15749951686E+03  0.00000000000E+00 0. -1.
         -1   -1    0    0    0  501 -0.00000000000E+00 -0.00000000000E+00 -0.56391590210E+03  0.56391590210E+03  0.00000000000E+00 0.  1.
         25    2    1    2    0    0  0.17308100432E+03  0.17475855759E+02 -0.46768667062E+03  0.51443077931E+03  0.12508303337E+03 0.  0.
          5    1    3    3  502    0  0.60989486134E+01  0.11463388567E+02  0.38281048270E+01  0.14168035791E+02  0.41800000000E+01 0.  1.
         -5    1    3    3    0  502  0.16698205571E+03  0.60124671922E+01 -0.47151477545E+03  0.50026274352E+03  0.41800000000E+01 0.  1.
        -11    1    1    2    0    0  0.59868994665E+01 -0.11061181656E+02 -0.79689882240E+01  0.14889508996E+02  0.00000000000E+00 0.  1.
         11    1    1    2    0    0 -0.17906790379E+03 -0.64146741034E+01  0.69239273611E+02  0.19209513065E+03  0.00000000000E+00 0. -1.
</event>
<event>
 7    1  0.2749315E-009  0.1786135E+03  0.7561462E-02  0.1169152E+00
         -1   -1    0    0    0  501 -0.00000000000E+00  0.00000000000E+00  0.48028393129E+02  0.48028393129E+02  0.00000000000E+00 0.  1.
          1   -1    0    0  501    0  0.00000000000E+00 -0.00000000000E+00 -0.84362960797E+03  0.84362960797E+03  0.00000000000E+00 0. -1.
         25    2    1    2    0    0 -0.14672400333E+02  0.14224732257E+03 -0.61961896674E+03  0.64809299951E+03  0.12508913608E+03 0.  0.
          5    1    3    3  502    0  0.43269101666E+02  0.11830690886E+03 -0.37914895130E+03  0.39954992118E+03  0.41800000000E+01 0.  1.
         -5    1    3    3    0  502 -0.57941501999E+02  0.23940413719E+02 -0.24047001544E+03  0.24854307834E+03  0.41800000000E+01 0.  1.
        -11    1    1    2    0    0 -0.34510298105E+02 -0.91004182250E+02 -0.10408764584E+03  0.14250249078E+03  0.00000000000E+00 0.  1.
         11    1    1    2    0    0  0.49182698438E+02 -0.51243140325E+02 -0.71894602263E+02  0.10106251081E+03  0.00000000000E+00 0. -1.
</event>
<event>
 7    1  0.2749315E-009  0.1445722E+03  0.7561462E-02  0.1207306E+00
         -2   -1    0    0    0  501 -0.00000000000E+00  0.00000000000E+00  0.72463703446E+02  0.72463703446E+02  0.00000000000E+00 0.  1.
          2   -1    0    0  501    0  0.00000000000E+00 -0.00000000000E+00 -0.43407121709E+03  0.43407121709E+03  0.00000000000E+00 0. -1.
         25    2    1    2    0    0  0.11217874311E+03 -0.80177904524E+02 -0.21797003411E+03  0.28665248526E+03  0.12508455044E+03 0.  0.
          5    1    3    3  502    0  0.35589515919E+02 -0.38581091042E+02 -0.85783022148E+00  0.52662344251E+02  0.41800000000E+01 0.  1.
         -5    1    3    3    0  502  0.76589227186E+02 -0.41596813483E+02 -0.21711220389E+03  0.23399014101E+03  0.41800000000E+01 0.  1.
        -11    1    1    2    0    0 -0.69849619231E+02  0.14882879510E+02 -0.20646415054E+02  0.74342073308E+02  0.00000000000E+00 0. -1.
         11    1    1    2    0    0 -0.42329123875E+02  0.65295025014E+02 -0.12299106448E+03  0.14554036197E+03  0.00000000000E+00 0.  1.
</event>
<event>
 7    1  0.2749315E-009  0.1153511E+03  0.7561462E-02  0.1250969E+00
         -2   -1    0    0    0  501 -0.00000000000E+00  0.00000000000E+00  0.18628676232E+03  0.18628676232E+03  0.00000000000E+00 0. -1.
          2   -1    0    0  501    0  0.00000000000E+00 -0.00000000000E+00 -0.92765524047E+02  0.92765524047E+02  0.00000000000E+00 0.  1.
         25    2    1    2    0    0 -0.42043300557E+02  0.55469553725E+02  0.79150559762E+02  0.16357649272E+03  0.12509175571E+03 0.  0.
          5    1    3    3  502    0  0.32077725691E+02  0.17298395259E+02  0.70728388234E+02  0.79675543715E+02  0.41800000000E+01 0. -1.
         -5    1    3    3    0  502 -0.74121026248E+02  0.38171158466E+02  0.84221715279E+01  0.83900949005E+02  0.41800000000E+01 0. -1.
        -11    1    1    2    0    0  0.34528173532E+02 -0.78798816355E+02 -0.19075298740E+01  0.86052814577E+02  0.00000000000E+00 0.  1.
         11    1    1    2    0    0  0.75151270249E+01  0.23329262630E+02  0.16278208380E+02  0.29422979066E+02  0.00000000000E+00 0. -1.
</event>
<event>
 7    1  0.2749315E-009  0.1281166E+03  0.7561462E-02  0.1230277E+00
         -1   -1    0    0    0  501 -0.00000000000E+00  0.00000000000E+00  0.11793634731E+02  0.11793634731E+02  0.00000000000E+00 0.  1.
          1   -1    0    0  501    0  0.00000000000E+00 -0.00000000000E+00 -0.17986575193E+04  0.17986575193E+04  0.00000000000E+00 0. -1.
         25    2    1    2    0    0 -0.24669999433E+02  0.71950656651E+02 -0.13521623464E+04  0.13600650981E+04  0.12509418151E+03 0.  0.
          5    1    3    3  502    0  0.46630795334E+02  0.27730910545E+02 -0.32994035913E+03  0.33439728984E+03  0.41800000000E+01 0. -1.
         -5    1    3    3    0  502 -0.71300794767E+02  0.44219746107E+02 -0.10222219872E+04  0.10256678082E+04  0.41800000000E+01 0. -1.
        -11    1    1    2    0    0  0.58966482792E+02 -0.44058692720E+02 -0.26910023655E+03  0.27898593479E+03  0.00000000000E+00 0.  1.
         11    1    1    2    0    0 -0.34296483359E+02 -0.27891963931E+02 -0.16560130166E+03  0.17140012116E+03  0.00000000000E+00 0. -1.
</event>
<event>
 7    1  0.2749315E-009  0.1154790E+03  0.7561462E-02  0.1250747E+00
         -1   -1    0    0    0  501 -0.00000000000E+00  0.00000000000E+00  0.18533692079E+02  0.18533692079E+02  0.00000000000E+00 0.  1.
          1   -1    0    0  501    0  0.00000000000E+00 -0.00000000000E+00 -0.10537372167E+04  0.10537372167E+04  0.00000000000E+00 0. -1.
         25    2    1    2    0    0 -0.72039106753E+02  0.17300320597E+02 -0.74457655354E+03  0.75863834736E+03  0.12509581928E+03 0.  0.
          5    1    3    3  502    0  0.81276236284E+01  0.50144856593E+02 -0.40348600738E+03  0.40669275314E+03  0.41800000000E+01 0.  1.
         -5    1    3    3    0  502 -0.80166730381E+02 -0.32844535997E+02 -0.34109054616E+03  0.35194559421E+03  0.41800000000E+01 0.  1.
        -11    1    1    2    0    0  0.21956734986E+02 -0.33987443162E+02 -0.37864018066E+02  0.55415957702E+02  0.00000000000E+00 0.  1.
         11    1    1    2    0    0  0.50082371767E+02  0.16687122565E+02 -0.25276295303E+03  0.25821660374E+03  0.00000000000E+00 0. -1.
</event>
<event>
 7    1  0.2749315E-009  0.9935660E+02  0.7561462E-02  0.1281655E+00
         -3   -1    0    0    0  501 -0.00000000000E+00  0.00000000000E+00  0.41972501519E+03  0.41972501519E+03  0.00000000000E+00 0.  1.
          3   -1    0    0  501    0  0.00000000000E+00 -0.00000000000E+00 -0.44008981145E+02  0.44008981145E+02  0.00000000000E+00 0. -1.
         25    2    1    2    0    0  0.62425827783E+02  0.35997574808E+02  0.14284639309E+03  0.20309924529E+03  0.12510556362E+03 0.  0.
          5    1    3    3  502    0  0.57220203140E+02  0.54099933890E+02  0.23615297840E+02  0.82317125717E+02  0.41800000000E+01 0.  1.
         -5    1    3    3    0  502  0.52056246427E+01 -0.18102359082E+02  0.11923109525E+03  0.12078211957E+03  0.41800000000E+01 0.  1.
        -11    1    1    2    0    0 -0.99474292767E+01 -0.46064878587E+02  0.17764660231E+03  0.18379129386E+03  0.00000000000E+00 0.  1.
         11    1    1    2    0    0 -0.52478398506E+02  0.10067303779E+02  0.55223038641E+02  0.76843457183E+02  0.00000000000E+00 0. -1.
</event>
<event>
 7    1  0.2749315E-009  0.1615766E+03  0.7561462E-02  0.1186928E+00
         -2   -1    0    0    0  501 -0.00000000000E+00  0.00000000000E+00  0.16791537519E+02  0.16791537519E+02  0.00000000000E+00 0.  1.
          2   -1    0    0  501    0  0.00000000000E+00 -0.00000000000E+00 -0.15859199388E+04  0.15859199388E+04  0.00000000000E+00 0. -1.
         25    2    1    2    0    0  0.86094559773E+02 -0.85724943579E+02 -0.89310370591E+03  0.90996864054E+03  0.12509059955E+03 0.  0.
          5    1    3    3  502    0 -0.22638633898E+02  0.12270567545E+02 -0.18957904406E+03  0.19136551654E+03  0.41800000000E+01 0. -1.
         -5    1    3    3    0  502  0.10873319367E+03 -0.97995511123E+02 -0.70352466184E+03  0.71860312400E+03  0.41800000000E+01 0. -1.
        -11    1    1    2    0    0 -0.41243849320E+02 -0.12126254265E+02 -0.22298985896E+03  0.22709596727E+03  0.00000000000E+00 0. -1.
         11    1    1    2    0    0 -0.44850710453E+02  0.97851197843E+02 -0.45303483642E+03  0.46564686852E+03  0.00000000000E+00 0.  1.
</event>
<event>
 7    1  0.2749315E-009  0.9438106E+02  0.7561462E-02  0.1292576E+00
         -3   -1    0    0    0  501 -0.00000000000E+00  0.00000000000E+00  0.44145410064E+02  0.44145410064E+02  0.00000000000E+00 0.  1.
          3   -1    0    0  501    0  0.00000000000E+00 -0.00000000000E+00 -0.32576318807E+03  0.32576318807E+03  0.00000000000E+00 0. -1.
         25    2    1    2    0    0 -0.25934248776E+02 -0.43231638758E+02 -0.13474303081E+03  0.19065072219E+03  0.12510177324E+03 0.  0.
          5    1    3    3  502    0  0.20527173977E+02 -0.39741118087E+02  0.31541995157E+01  0.45034905495E+02  0.41800000000E+01 0.  1.
         -5    1    3    3    0  502 -0.46461422753E+02 -0.34905206709E+01 -0.13789723033E+03  0.14561581669E+03  0.41800000000E+01 0.  1.
        -11    1    1    2    0    0  0.56385633246E+02  0.29803856356E+02 -0.12215137714E+03  0.13779901461E+03  0.00000000000E+00 0. -1.
         11    1    1    2    0    0 -0.30451384470E+02  0.13427782402E+02 -0.24723370049E+02  0.41458861332E+02  0.00000000000E+00 0.  1.
</event>
<event>
 7    1  0.2749315E-009  0.1022084E+03  0.7561462E-02  0.1275719E+00
          2   -1    0    0  501    0  0.00000000000E+00  0.00000000000E+00  0.87070557150E+03  0.87070557150E+03  0.00000000000E+00 0. -1.
         -2   -1    0    0    0  501 -0.00000000000E+00 -0.00000000000E+00 -0.15387453939E+02  0.15387453939E+02  0.00000000000E+00 0.  1.
         25    2    1    2    0    0 -0.12291051392E+02 -0.41487951471E+02  0.51993979970E+03  0.53652743278E+03  0.12510783649E+03 0.  0.
          5    1    3    3  502    0  0.24040948717E+02  0.24679751528E+02  0.51990422576E+02  0.62510269479E+02  0.41800000000E+01 0. -1.
         -5    1    3    3    0  502 -0.36332000109E+02 -0.66167703000E+02  0.46794937712E+03  0.47401716330E+03  0.41800000000E+01 0. -1.
        -11    1    1    2    0    0  0.20653222282E+02 -0.21939997973E+02  0.63859458169E+02  0.70611256180E+02  0.00000000000E+00 0.  1.
         11    1    1    2    0    0 -0.83621708898E+01  0.63427949445E+02  0.27151885970E+03  0.27895433649E+03  0.00000000000E+00 0. -1.
</event>
<event>
 7    1  0.2749315E-009  0.1635000E+03  0.7561462E-02  0.1184801E+00
          1   -1    0    0  501    0  0.00000000000E+00  0.00000000000E+00  0.48821107108E+03  0.48821107108E+03  0.00000000000E+00 0. -1.
         -1   -1    0    0    0  501 -0.00000000000E+00 -0.00000000000E+00 -0.73067925761E+02  0.73067925761E+02  0.00000000000E+00 0.  1.
         25    2    1    2    0    0 -0.14421209280E+03 -0.47394683971E+02  0.18805498450E+03  0.27213040306E+03  0.12508755053E+03 0.  0.
          5    1    3    3  502    0 -0.12902763279E+03 -0.45253525598E+02  0.71233440147E+02  0.15423257437E+03  0.41800000000E+01 0.  1.
         -5    1    3    3    0  502 -0.15184460006E+02 -0.21411583732E+01  0.11682154435E+03  0.11789782869E+03  0.41800000000E+01 0.  1.
        -11    1    1    2    0    0  0.30143232547E+02  0.52046032427E+02  0.11149511323E+03  0.12668292795E+03  0.00000000000E+00 0. -1.
         11    1    1    2    0    0  0.11406886025E+03 -0.46513484565E+01  0.11559304759E+03  0.16246566583E+03  0.00000000000E+00 0.  1.
</event>
<event>
 7    1  0.2749315E-009  0.2857415E+03  0.7561462E-02  0.1092594E+00
          1   -1    0    0  501    0  0.00000000000E+00  0.00000000000E+00  0.12352401059E+03  0.12352401059E+03  0.00000000000E+00 0. -1.
         -1   -1    0    0    0  501 -0.00000000000E+00 -0.00000000000E+00 -0.70672731956E+03  0.70672731956E+03  0.00000000000E+00 0.  1.
         25    2    1    2    0    0 -0.22907750028E+03 -0.14982011353E+03 -0.32958586999E+03  0.44631449654E+03  0.12508883472E+03 0.  0.
          5    1    3    3  502    0  0.73330530986E+01 -0.31315928603E+02 -0.16246155122E+02  0.36274936365E+02  0.41800000000E+01 0. -1.
         -5    1    3    3    0  502 -0.23641055338E+03 -0.11850418493E+03 -0.31333971487E+03  0.41003956018E+03  0.41800000000E+01 0. -1.
        -11    1    1    2    0    0  0.87961825805E+02  0.70196726130E+02 -0.16363518437E+03  0.19859843081E+03  0.00000000000E+00 0. -1.
         11    1    1    2    0    0  0.14111567448E+03  0.79623387400E+02 -0.89982254609E+02  0.18533840279E+03  0.00000000000E+00 0.  1.
</event>
<event>
 7    1  0.2749315E-009  0.1177403E+03  0.7561462E-02  0.1246872E+00
         -1   -1    0    0    0  501 -0.00000000000E+00  0.00000000000E+00  0.89759091856E+02  0.89759091856E+02  0.00000000000E+00 0.  1.
          1   -1    0    0  501    0  0.00000000000E+00 -0.00000000000E+00 -0.17765224031E+03  0.17765224031E+03  0.00000000000E+00 0. -1.
         25    2    1    2    0    0  0.22687377155E+02 -0.54139741871E+02 -0.18914183415E+02  0.13947340792E+03  0.12509698817E+03 0.  0.
          5    1    3    3  502    0  0.44198704988E+02  0.27471145388E+02  0.26111960965E+01  0.52273129776E+02  0.41800000000E+01 0. -1.
         -5    1    3    3    0  502 -0.21511327833E+02 -0.81610887260E+02 -0.21525379511E+02  0.87200278139E+02  0.41800000000E+01 0. -1.
        -11    1    1    2    0    0  0.21603012641E+02  0.49781270538E+02 -0.62813694824E+02  0.83008585755E+02  0.00000000000E+00 0. -1.
         11    1    1    2    0    0 -0.44290389796E+02  0.43584713331E+01 -0.61652702125E+01  0.44929338493E+02  0.00000000000E+00 0.  1.
</event>
<event>
 7    1  0.2749315E-009  0.9914376E+02  0.7561462E-02  0.1282107E+00
         -2   -1    0    0    0  501 -0.00000000000E+00  0.00000000000E+00  0.60115560379E+02  0.60115560379E+02  0.00000000000E+00 0.  1.
          2   -1    0    0  501    0  0.00000000000E+00 -0.00000000000E+00 -0.21550106749E+03  0.21550106749E+03  0.00000000000E+00 0. -1.
         25    2    1    2    0    0  0.14843154850E+02 -0.13953523101E+02 -0.11078320725E+03  0.16832592300E+03  0.12508268183E+03 0.  0.
          5    1    3    3  502    0  0.24622272065E+02 -0.64437350163E+02 -0.37274997708E+02  0.78519591389E+02  0.41800000000E+01 0. -1.
         -5    1    3    3    0  502 -0.97791172151E+01  0.50483827062E+02 -0.73508209539E+02  0.89806331614E+02  0.41800000000E+01 0. -1.
        -11    1    1    2    0    0 -0.45582745360E+02  0.84562073077E+01  0.70888654521E+01  0.46899319078E+02  0.00000000000E+00 0.  1.
         11    1    1    2    0    0  0.30739590510E+02  0.54973157934E+01 -0.51691165316E+02  0.60391385788E+02  0.00000000000E+00 0. -1.
</event>
<event>
 7    1  0.2749315E-009  0.1298771E+03  0.7561462E-02  0.1227638E+00
          1   -1    0    0  501    0  0.00000000000E+00  0.00000000000E+00  0.43143102998E+03  0.43143102998E+03  0.00000000000E+00 0. -1.
         -1   -1    0    0    0  501 -0.00000000000E+00 -0.00000000000E+00 -0.53740552088E+02  0.53740552088E+02  0.00000000000E+00 0.  1.
         25    2    1    2    0    0 -0.65224971665E+02  0.70961165795E+02  0.13431198515E+03  0.20731408404E+03  0.12509850561E+03 0.  0.
          5    1    3    3  502    0 -0.43252816609E+02  0.10650832416E+03  0.88281896823E+02  0.14500343088E+03  0.41800000000E+01 0. -1.
         -5    1    3    3    0  502 -0.21972155057E+02 -0.35547158366E+02  0.46030088324E+02  0.62310653157E+02  0.41800000000E+01 0. -1.
        -11    1    1    2    0    0 -0.38440724893E+01 -0.95783230462E+01 -0.59804652538E+01  0.11928416925E+02  0.00000000000E+00 0.  1.
         11    1    1    2    0    0  0.69069044155E+02 -0.61382842749E+02  0.24935895800E+03  0.26592908111E+03  0.00000000000E+00 0. -1.
</event>
<event>
 7    1  0.2749315E-009  0.1007192E+03  0.7561462E-02  0.1278791E+00
          2   -1    0    0  501    0  0.00000000000E+00  0.00000000000E+00  0.14056628147E+03  0.14056628147E+03  0.00000000000E+00 0. -1.
         -2   -1    0    0    0  501 -0.00000000000E+00 -0.00000000000E+00 -0.88568365792E+02  0.88568365792E+02  0.00000000000E+00 0.  1.
         25    2    1    2    0    0 -0.28477882378E+02  0.13415633495E+02  0.21308351461E+02  0.13073056434E+03  0.12508183562E+03 0.  0.
          5    1    3    3  502    0 -0.40676629773E+02  0.63939485468E+02  0.20352815600E+02  0.78578339983E+02  0.41800000000E+01 0. -1.
         -5    1    3    3    0  502  0.12198747395E+02 -0.50523851973E+02  0.95553586086E+00  0.52152224353E+02  0.41800000000E+01 0. -1.
        -11    1    1    2    0    0  0.23655859214E+01 -0.37679054665E+02 -0.14853742714E+02  0.40570196325E+02  0.00000000000E+00 0.  1.
         11    1    1    2    0    0  0.26112296457E+02  0.24263421170E+02  0.45543306931E+02  0.57833886601E+02  0.00000000000E+00 0. -1.
</event>
<event>
 7    1  0.2749315E-009  0.2055381E+03  0.7561462E-02  0.1145149E+00
          1   -1    0    0  501    0  0.00000000000E+00  0.00000000000E+00  0.21542140937E+03  0.21542140937E+03  0.00000000000E+00 0. -1.
         -1   -1    0    0    0  501 -0.00000000000E+00 -0.00000000000E+00 -0.23922444053E+03  0.23922444053E+03  0.00000000000E+00 0.  1.
         25    2    1    2    0    0 -0.62032964647E+02  0.18544081053E+03  0.27194380302E+02  0.23371643184E+03  0.12508978087E+03 0.  0.
          5    1    3    3  502    0 -0.75505774308E+02  0.11270679159E+03  0.65058297681E+02  0.15051244906E+03  0.41800000000E+01 0.  1.
         -5    1    3    3    0  502  0.13472809660E+02  0.72734018944E+02 -0.37863917380E+02  0.83203982784E+02  0.41800000000E+01 0.  1.
        -11    1    1    2    0    0  0.67169804251E+02 -0.13732760028E+03 -0.31888247216E+01  0.15290788405E+03  0.00000000000E+00 0.  1.
         11    1    1    2    0    0 -0.51368396035E+01 -0.48113210248E+02 -0.47808586744E+02  0.68021534002E+02  0.00000000000E+00 0. -1.
</event>
<event>
 7    1  0.2749315E-009  0.1136891E+03  0.7561462E-02  0.1253887E+00
         -1   -1    0    0    0  501 -0.00000000000E+00  0.00000000000E+00  0.21086574862E+03  0.21086574862E+03  0.00000000000E+00 0.  1.
          1   -1    0    0  501    0  0.00000000000E+00 -0.00000000000E+00 -0.93308580517E+02  0.93308580517E+02  0.00000000000E+00 0. -1.
         25    2    1    2    0    0 -0.72204474246E+01  0.68854755318E+02  0.12502657565E+03  0.18992720278E+03  0.12509030956E+03 0.  0.
          5    1    3    3  502    0  0.57768623855E+02  0.32108683720E+02  0.43137937889E+02  0.79035027410E+02  0.41800000000E+01 0. -1.
         -5    1    3    3    0  502 -0.64989071280E+02  0.36746071599E+02  0.81888637764E+02  0.11089217537E+03  0.41800000000E+01 0. -1.
        -11    1    1    2    0    0 -0.22416785765E+02 -0.32351227249E+02 -0.40739934752E+02  0.56646769300E+02  0.00000000000E+00 0. -1.
         11    1    1    2    0    0  0.29637233189E+02 -0.36503528069E+02  0.33270527198E+02  0.57600357053E+02  0.00000000000E+00 0.  1.
</event>
<event>
 7    1  0.2749315E-009  0.7578335E+02  0.7561462E-02  0.1341462E+00
         -2   -1    0    0    0  501 -0.00000000000E+00  0.00000000000E+00  0.37267226056E+02  0.37267226056E+02  0.00000000000E+00 0.  1.
          2   -1    0    0  501    0  0.00000000000E+00 -0.00000000000E+00 -0.34132424841E+03  0.34132424841E+03  0.00000000000E+00 0. -1.
         25    2    1    2    0    0 -0.18617525589E+02 -0.12304710151E+02 -0.21161125821E+03  0.24683073615E+03  0.12509224419E+03 0.  0.
          5    1    3    3  502    0  0.15407670691E+02  0.36772506354E+02 -0.16812598780E+03  0.17283932919E+03  0.41800000000E+01 0.  1.
         -5    1    3    3    0  502 -0.34025196280E+02 -0.49077216505E+02 -0.43485270406E+02  0.73991406961E+02  0.41800000000E+01 0.  1.
        -11    1    1    2    0    0  0.20624093072E+02  0.28563790651E+02 -0.10523594274E+03  0.11097678584E+03  0.00000000000E+00 0. -1.
         11    1    1    2    0    0 -0.20065674823E+01 -0.16259080500E+02  0.12790178599E+02  0.20783952472E+02  0.00000000000E+00 0.  1.
</event>
<event>
 7    1  0.2749315E-009  0.1003978E+03  0.7561462E-02  0.1279462E+00
          2   -1    0    0  501    0  0.00000000000E+00  0.00000000000E+00  0.51600845595E+03  0.51600845595E+03  0.00000000000E+00 0. -1.
         -2   -1    0    0    0  501 -0.00000000000E+00 -0.00000000000E+00 -0.38081533824E+02  0.38081533824E+02  0.00000000000E+00 0.  1.
         25    2    1    2    0    0 -0.76702786243E+02 -0.27791953740E+02  0.32501452887E+03  0.35768233815E+03  0.12508597417E+03 0.  0.
          5    1    3    3  502    0 -0.52685382135E+02 -0.39827903783E+02  0.54293277674E+02  0.85599321323E+02  0.41800000000E+01 0. -1.
         -5    1    3    3    0  502 -0.24017404108E+02  0.12035950042E+02  0.27072125120E+03  0.27208301682E+03  0.41800000000E+01 0. -1.
        -11    1    1    2    0    0  0.89863267171E+01 -0.21745080150E+02  0.18400962604E+01  0.23600604502E+02  0.00000000000E+00 0.  1.
         11    1    1    2    0    0  0.67716459526E+02  0.49537033890E+02  0.15107229700E+03  0.17280704713E+03  0.00000000000E+00 0. -1.
</event>
<event>
 7    1  0.2749315E-009  0.3475453E+03  0.7561462E-02  0.1063627E+00
          1   -1    0    0  501    0  0.00000000000E+00  0.00000000000E+00  0.15586022043E+04  0.15586022043E+04  0.00000000000E+00 0. -1.
         -1   -1    0    0    0  501 -0.00000000000E+00 -0.00000000000E+00 -0.10270083420E+03  0.10270083420E+03  0.00000000000E+00 0.  1.
         25    2    1    2    0    0  0.20376578083E+03  0.26316906807E+03  0.33328152649E+03  0.48734152046E+03  0.12508688916E+03 0.  0.
          5    1    3    3  502    0  0.20820508116E+03  0.19146816133E+03  0.25287997793E+03  0.37944059912E+03  0.41800000000E+01 0. -1.
         -5    1    3    3    0  502 -0.44393003334E+01  0.71700906737E+02  0.80401548560E+02  0.10790092134E+03  0.41800000000E+01 0. -1.
        -11    1    1    2    0    0 -0.12503512724E+03 -0.10388150462E+03  0.45768852037E+03  0.48569942529E+03  0.00000000000E+00 0.  1.
         11    1    1    2    0    0 -0.78730653591E+02 -0.15928756344E+03  0.66493132327E+03  0.68826209278E+03  0.00000000000E+00 0. -1.
</event>
<event>
 7    1  0.2749315E-009  0.3532363E+03  0.7561462E-02  0.1061295E+00
         -2   -1    0    0    0  501 -0.00000000000E+00  0.00000000000E+00  0.47223602277E+02  0.47223602277E+02  0.00000000000E+00 0.  1.
          2   -1    0    0  501    0  0.00000000000E+00 -0.00000000000E+00 -0.27020794040E+04  0.27020794040E+04  0.00000000000E+00 0. -1.
         25    2    1    2    0    0 -0.25297916855E+03 -0.22691156337E+03 -0.13768681533E+04  0.14236926544E+04  0.12509014891E+03 0.  0.
          5    1    3    3  502    0 -0.17434160881E+03 -0.21155279075E+03 -0.11727773992E+04  0.12043977252E+04  0.41800000000E+01 0.  1.
         -5    1    3    3    0  502 -0.78637559738E+02 -0.15358772622E+02 -0.20409075403E+03  0.21929492921E+03  0.41800000000E+01 0.  1.
        -11    1    1    2    0    0  0.20436323916E+03  0.12605752172E+03 -0.88176208769E+03  0.91387045668E+03  0.00000000000E+00 0.  1.
         11    1    1    2    0    0  0.48615929382E+02  0.10085404165E+03 -0.39622556079E+03  0.41173989524E+03  0.00000000000E+00 0. -1.
</event>
<event>
 7    1  0.2749315E-009  0.1420252E+03  0.7561462E-02  0.1210630E+00
          2   -1    0    0  501    0  0.00000000000E+00  0.00000000000E+00  0.40635948944E+03  0.40635948944E+03  0.00000000000E+00 0. -1.
         -2   -1    0    0    0  501 -0.00000000000E+00 -0.00000000000E+00 -0.51516512907E+02  0.51516512907E+02  0.00000000000E+00 0.  1.
         25    2    1    2    0    0  0.86851954684E+02  0.31857222046E+02  0.16340205633E+03  0.22562366446E+03  0.12509061245E+03 0.  0.
          5    1    3    3  502    0  0.64569841880E+00  0.63512043475E+02  0.66886228289E+02  0.92333290462E+02  0.41800000000E+01 0. -1.
         -5    1    3    3    0  502  0.86206256265E+02 -0.31654821429E+02  0.96515828040E+02  0.13329037400E+03  0.41800000000E+01 0. -1.
        -11    1    1    2    0    0 -0.92085510905E+02  0.40568838574E+01  0.15789312061E+03  0.18282898337E+03  0.00000000000E+00 0. -1.
         11    1    1    2    0    0  0.52335562213E+01 -0.35914105903E+02  0.33547799592E+02  0.49423354510E+02  0.00000000000E+00 0.  1.
</event>
<event>
 7    1  0.2749315E-009  0.8688344E+02  0.7561462E-02  0.1310579E+00
          2   -1    0    0  501    0  0.00000000000E+00  0.00000000000E+00  0.25424094135E+02  0.25424094135E+02  0.00000000000E+00 0. -1.
         -2   -1    0    0    0  501 -0.00000000000E+00 -0.00000000000E+00 -0.68805803488E+03  0.68805803488E+03  0.00000000000E+00 0.  1.
         25    2    1    2    0    0 -0.45985219293E+02 -0.18541988737E+02 -0.53613842513E+03  0.55276556164E+03  0.12508760726E+03 0.  0.
          5    1    3    3  502    0 -0.20436937210E+02  0.41359212515E+02 -0.38972526644E+03  0.39246848098E+03  0.41800000000E+01 0.  1.
         -5    1    3    3    0  502 -0.25548282083E+02 -0.59901201252E+02 -0.14641315870E+03  0.16029708066E+03  0.41800000000E+01 0.  1.
        -11    1    1    2    0    0  0.41743625737E+02 -0.14333559665E+01 -0.13290487226E+03  0.13931363849E+03  0.00000000000E+00 0.  1.
         11    1    1    2    0    0  0.42415935554E+01  0.19975344703E+02  0.64093566540E+01  0.21402928879E+02  0.00000000000E+00 0. -1.
</event>
<event>
 7    1  0.2749315E-009  0.1053470E+03  0.7561462E-02  0.1269437E+00
          1   -1    0    0  501    0  0.00000000000E+00  0.00000000000E+00  0.25176326803E+03  0.25176326803E+03  0.00000000000E+00 0. -1.
         -1   -1    0    0    0  501 -0.00000000000E+00 -0.00000000000E+00 -0.71868297420E+02  0.71868297420E+02  0.00000000000E+00 0.  1.
         25    2    1    2    0    0  0.22951762394E+02  0.15470408816E+02  0.18811329302E+03  0.22759936409E+03  0.12509493426E+03 0.  0.
          5    1    3    3  502    0  0.32613660178E+02  0.67142747739E+02  0.99087028456E+02  0.12412699550E+03  0.41800000000E+01 0. -1.
         -5    1    3    3    0  502 -0.96618977840E+01 -0.51672338924E+02  0.89026264566E+02  0.10347236859E+03  0.41800000000E+01 0. -1.
        -11    1    1    2    0    0 -0.21722734622E+02 -0.46930835573E+02  0.18311446896E+02  0.54860638116E+02  0.00000000000E+00 0. -1.
         11    1    1    2    0    0 -0.12290277719E+01  0.31460426757E+02 -0.26529769304E+02  0.41171563249E+02  0.00000000000E+00 0.  1.
</event>
<event>
 7    1  0.2749315E-009  0.1225966E+03  0.7561462E-02  0.1238874E+00
          2   -1    0    0  501    0  0.00000000000E+00  0.00000000000E+00  0.53606275361E+03  0.53606275361E+03  0.00000000000E+00 0. -1.
         -2   -1    0    0    0  501 -0.00000000000E+00 -0.00000000000E+00 -0.31087634429E+02  0.31087634429E+02  0.00000000000E+00 0.  1.
         25    2    1    2    0    0  0.36772568814E+02  0.59100924952E+02  0.27042841244E+03  0.30598186499E+03  0.12509290269E+03 0.  0.
          5    1    3    3  502    0 -0.28472910404E+02 -0.17086558608E+02  0.28171789669E+02  0.43746762682E+02  0.41800000000E+01 0. -1.
         -5    1    3    3    0  502  0.65245479218E+02  0.76187483560E+02  0.24225662277E+03  0.26223510231E+03  0.41800000000E+01 0. -1.
        -11    1    1    2    0    0  0.10773551961E+00  0.22124498454E+02  0.24769505223E+02  0.33211947064E+02  0.00000000000E+00 0.  1.
         11    1    1    2    0    0 -0.36880304333E+02 -0.81225423405E+02  0.20977720152E+03  0.22795657598E+03  0.00000000000E+00 0. -1.
</event>
<event>
 7    1  0.2749315E-009  0.1147434E+03  0.7561462E-02  0.1252030E+00
         -2   -1    0    0    0  501 -0.00000000000E+00  0.00000000000E+00  0.20335958723E+02  0.20335958723E+02  0.00000000000E+00 0.  1.
          2   -1    0    0  501    0  0.00000000000E+00 -0.00000000000E+00 -0.99697138367E+03  0.99697138367E+03  0.00000000000E+00 0. -1.
         25    2    1    2    0    0  0.18999183772E+02  0.89914886939E+02 -0.69348066267E+03  0.71064140687E+03  0.12510045472E+03 0.  0.
          5    1    3    3  502    0 -0.24975873093E+02  0.27897925423E+02 -0.51782041389E+03  0.51918931222E+03  0.41800000000E+01 0.  1.
         -5    1    3    3    0  502  0.43975056865E+02  0.62016961516E+02 -0.17566024878E+03  0.19145209465E+03  0.41800000000E+01 0.  1.
        -11    1    1    2    0    0 -0.44473323075E+02 -0.40857429929E+02 -0.17635431380E+03  0.18640828855E+03  0.00000000000E+00 0.  1.
         11    1    1    2    0    0  0.25474139304E+02 -0.49057457010E+02 -0.10680044847E+03  0.12025764697E+03  0.00000000000E+00 0. -1.
</event>
<event>
 7    1  0.2749315E-009  0.1152848E+03  0.7561462E-02  0.1251085E+00
          1   -1    0    0  501    0  0.00000000000E+00  0.00000000000E+00  0.45506972524E+03  0.45506972524E+03  0.00000000000E+00 0. -1.
         -1   -1    0    0    0  501 -0.00000000000E+00 -0.00000000000E+00 -0.42744053109E+02  0.42744053109E+02  0.00000000000E+00 0.  1.
         25    2    1    2    0    0 -0.43353858136E+02 -0.56596438841E+02  0.13539006004E+03  0.19764695350E+03  0.12510450018E+03 0.  0.
          5    1    3    3  502    0  0.25433290838E+02 -0.59772485561E+02  0.29971129734E+02  0.71661309858E+02  0.41800000000E+01 0.  1.
         -5    1    3    3    0  502 -0.68787148975E+02  0.31760467198E+01  0.10541893030E+03  0.12598564364E+03  0.41800000000E+01 0.  1.
        -11    1    1    2    0    0  0.49031779024E+02  0.10626065555E+02  0.59388929319E+02  0.77743639928E+02  0.00000000000E+00 0.  1.
         11    1    1    2    0    0 -0.56779208880E+01  0.45970373286E+02  0.21754668278E+03  0.22242318493E+03  0.00000000000E+00 0. -1.
</event>
<event>
 7    1  0.2749315E-009  0.1139774E+03  0.7561462E-02  0.1253377E+00
          2   -1    0    0  501    0  0.00000000000E+00  0.00000000000E+00  0.11336660362E+03  0.11336660362E+03  0.00000000000E+00 0. -1.
         -2   -1    0    0    0  501 -0.00000000000E+00 -0.00000000000E+00 -0.12519885000E+03  0.12519885000E+03  0.00000000000E+00 0.  1.
         25    2    1    2    0    0 -0.38599253093E+02 -0.24612331477E+02  0.11603641994E+02  0.13370728731E+03  0.12508926802E+03 0.  0.
          5    1    3    3  502    0 -0.47695053639E+02  0.41471629897E+02 -0.85045110183E+01  0.63910197430E+02  0.41800000000E+01 0. -1.
         -5    1    3    3    0  502  0.90958005459E+01 -0.66083961373E+02  0.20108153012E+02  0.69797089881E+02  0.41800000000E+01 0. -1.
        -11    1    1    2    0    0  0.40583450981E+02 -0.25299787533E+02 -0.26750518138E+02  0.54796769643E+02  0.00000000000E+00 0.  1.
         11    1    1    2    0    0 -0.19841978878E+01  0.49912119009E+02  0.33146297680E+01  0.50061396662E+02  0.00000000000E+00 0. -1.
</event>
<event>
 7    1  0.2749315E-009  0.2322421E+03  0.7561462E-02  0.1125072E+00
          2   -1    0    0  501    0  0.00000000000E+00  0.00000000000E+00  0.89990012223E+03  0.89990012223E+03  0.00000000000E+00 0. -1.
         -2   -1    0    0    0  501 -0.00000000000E+00 -0.00000000000E+00 -0.73916150015E+02  0.73916150015E+02  0.00000000000E+00 0.  1.
         25    2    1    2    0    0  0.20429973289E+03 -0.62183271111E+02  0.60741161548E+03  0.65589744376E+03  0.12508975195E+03 0.  0.
          5    1    3    3  502    0  0.87837778923E+02  0.32948543173E+02  0.18444540484E+03  0.20697502668E+03  0.41800000000E+01 0.  1.
         -5    1    3    3    0  502  0.11646195397E+03 -0.95131814283E+02  0.42296621064E+03  0.44892241708E+03  0.41800000000E+01 0.  1.
        -11    1    1    2    0    0 -0.63031376569E+02  0.45825478808E+02  0.34279470721E+02  0.85135251530E+02  0.00000000000E+00 0.  1.
         11    1    1    2    0    0 -0.14126835632E+03  0.16357792302E+02  0.18429288602E+03  0.23278357696E+03  0.00000000000E+00 0. -1.
</event>
<event>
 7    1  0.2749315E-009  0.1500794E+03  0.7561462E-02  0.1200375E+00
         -2   -1    0    0    0  501 -0.00000000000E+00  0.00000000000E+00  0.86189876474E+02  0.86189876474E+02  0.00000000000E+00 0.  1.
          2   -1    0    0  501    0  0.00000000000E+00 -0.00000000000E+00 -0.33938386691E+03  0.33938386691E+03  0.00000000000E+00 0. -1.
         25    2    1    2    0    0  0.91503307260E+02 -0.93598053112E+02 -0.11314698501E+03  0.21350243083E+03  0.12509035522E+03 0.  0.
          5    1    3    3  502    0  0.10594207969E+03 -0.10569063239E+03 -0.68037748430E+02  0.16444099743E+03  0.41800000000E+01 0.  1.
         -5    1    3    3    0  502 -0.14438772430E+02  0.12092579277E+02 -0.45109236581E+02  0.49061433406E+02  0.41800000000E+01 0.  1.
        -11    1    1    2    0    0 -0.11783685608E+02  0.16357813555E+02  0.12268968260E+02  0.23600018919E+02  0.00000000000E+00 0.  1.
         11    1    1    2    0    0 -0.79719621652E+02  0.77240239557E+02 -0.15231597369E+03  0.18847129363E+03  0.00000000000E+00 0. -1.
</event>
<event>
 7    1  0.2749315E-009  0.2802267E+03  0.7561462E-02  0.1095565E+00
         -3   -1    0    0    0  501 -0.00000000000E+00  0.00000000000E+00  0.55424144652E+03  0.55424144652E+03  0.00000000000E+00 0. -1.
          3   -1    0    0  501    0  0.00000000000E+00 -0.00000000000E+00 -0.16131156764E+03  0.16131156764E+03  0.00000000000E+00 0.  1.
         25    2    1    2    0    0 -0.21931511941E+03 -0.17056306779E+03  0.18458419210E+03  0.35624386750E+03  0.12508991753E+03 0.  0.
          5    1    3    3  502    0 -0.87873101151E+02 -0.75487326852E+02  0.15127691810E+03  0.19058383135E+03  0.41800000000E+01 0.  1.
         -5    1    3    3    0  502 -0.13144201826E+03 -0.95075740935E+02  0.33307273995E+02  0.16566003615E+03  0.41800000000E+01 0.  1.
        -11    1    1    2    0    0  0.12141711329E+03  0.12504349630E+03  0.17333550944E+03  0.24581128982E+03  0.00000000000E+00 0. -1.
         11    1    1    2    0    0  0.97898006115E+02  0.45519571482E+02  0.35010177347E+02  0.11349785684E+03  0.00000000000E+00 0.  1.
</event>
<event>
 7    1  0.2749315E-009  0.2271292E+03  0.7561462E-02  0.1128677E+00
         -2   -1    0    0    0  501 -0.00000000000E+00  0.00000000000E+00  0.63340063558E+03  0.63340063558E+03  0.00000000000E+00 0. -1.
          2   -1    0    0  501    0  0.00000000000E+00 -0.00000000000E+00 -0.92397231212E+02  0.92397231212E+02  0.00000000000E+00 0.  1.
         25    2    1    2    0    0 -0.19815355024E+03  0.42740367217E+02  0.39671641372E+03  0.46273243319E+03  0.12508326568E+03 0.  0.
          5    1    3    3  502    0 -0.17886034027E+03  0.80005223955E+02  0.32308910160E+03  0.37788344388E+03  0.41800000000E+01 0. -1.
         -5    1    3    3    0  502 -0.19293209966E+02 -0.37264856738E+02  0.73627312115E+02  0.84848989315E+02  0.41800000000E+01 0. -1.
        -11    1    1    2    0    0  0.15974339647E+03 -0.15037723216E+01  0.12711509800E+03  0.20415303619E+03  0.00000000000E+00 0. -1.
         11    1    1    2    0    0  0.38410153771E+02 -0.41236594896E+02  0.17171892649E+02  0.58912397409E+02  0.00000000000E+00 0.  1.
</event>
<event>
 7    1  0.2749315E-009  0.9952652E+02  0.7561462E-02  0.1281295E+00
         -1   -1    0    0    0  501 -0.00000000000E+00  0.00000000000E+00  0.32273422436E+03  0.32273422436E+03  0.00000000000E+00 0.  1.
          1   -1    0    0  501    0  0.00000000000E+00 -0.00000000000E+00 -0.50821131537E+02  0.50821131537E+02  0.00000000000E+00 0. -1.
         25    2    1    2    0    0  0.11400478699E+02  0.30628989045E+02  0.64707458987E+02  0.14457481455E+03  0.12508683331E+03 0.  0.
          5    1    3    3  502    0 -0.41494163320E+02  0.48989277382E+02  0.60428770114E+02  0.88265641932E+02  0.41800000000E+01 0. -1.
         -5    1    3    3    0  502  0.52894642019E+02 -0.18360288337E+02  0.42786888728E+01  0.56309172615E+02  0.41800000000E+01 0. -1.
        -11    1    1    2    0    0 -0.43068744635E+01  0.23544011186E+02  0.13002652671E+02  0.27238550014E+02  0.00000000000E+00 0. -1.
         11    1    1    2    0    0 -0.70936042355E+01 -0.54173000232E+02  0.19420298117E+03  0.20174199134E+03  0.00000000000E+00 0.  1.
</event>
<event>
 7    1  0.2749315E-009  0.9355581E+02  0.7561462E-02  0.1294462E+00
          2   -1    0    0  501    0  0.00000000000E+00  0.00000000000E+00  0.33078123986E+03  0.33078123986E+03  0.00000000000E+00 0. -1.
         -2   -1    0    0    0  501 -0.00000000000E+00 -0.00000000000E+00 -0.42633610986E+02  0.42633610986E+02  0.00000000000E+00 0.  1.
         25    2    1    2    0    0  0.43867342291E+02  0.17212534202E+02  0.18867409482E+03  0.23123038432E+03  0.12509580937E+03 0.  0.
          5    1    3    3  502    0  0.77235496778E+02 -0.86668901374E+01  0.16548201291E+03  0.18287210270E+03  0.41800000000E+01 0.  1.
         -5    1    3    3    0  502 -0.33368154487E+02  0.25879424339E+02  0.23192081908E+02  0.48358281620E+02  0.41800000000E+01 0.  1.
        -11    1    1    2    0    0 -0.26397627289E+02 -0.33710573755E+02  0.10840138731E+03  0.11655083989E+03  0.00000000000E+00 0. -1.
         11    1    1    2    0    0 -0.17469715001E+02  0.16498039553E+02 -0.89278532458E+01  0.25633626644E+02  0.00000000000E+00 0.  1.
</event>
<event>
 7    1  0.2749315E-009  0.1310995E+03  0.7561462E-02  0.1225833E+00
          2   -1    0    0  501    0  0.00000000000E+00  0.00000000000E+00  0.91446620378E+02  0.91446620378E+02  0.00000000000E+00 0. -1.
         -2   -1    0    0    0  501 -0.00000000000E+00 -0.00000000000E+00 -0.21058386262E+03  0.21058386262E+03  0.00000000000E+00 0.  1.
         25    2    1    2    0    0  0.84227832510E+02  0.59421532657E+01 -0.41849575129E+02  0.15661687262E+03  0.12509125027E+03 0.  0.
          5    1    3    3  502    0 -0.23886024137E+02  0.26594191480E+02 -0.28005338960E+02  0.45602243145E+02  0.41800000000E+01 0.  1.
         -5    1    3    3    0  502  0.10811385665E+03 -0.20652038215E+02 -0.13844236169E+02  0.11101462947E+03  0.41800000000E+01 0.  1.
        -11    1    1    2    0    0  0.15643571871E+02  0.24646654815E+01  0.40394370632E+01  0.16343591056E+02  0.00000000000E+00 0. -1.
         11    1    1    2    0    0 -0.99871404382E+02 -0.84068187472E+01 -0.81327104172E+02  0.12907001932E+03  0.00000000000E+00 0.  1.
</event>
<event>
 7    1  0.2749315E-009  0.7476716E+02  0.7561462E-02  0.1344594E+00
         -1   -1    0    0    0  501 -0.00000000000E+00  0.00000000000E+00  0.34970351840E+02  0.34970351840E+02  0.00000000000E+00 0.  1.
          1   -1    0    0  501    0  0.00000000000E+00 -0.00000000000E+00 -0.39492688183E+03  0.39492688183E+03  0.00000000000E+00 0. -1.
         25    2    1    2    0    0  0.17771854708E+02  0.39334416818E+02 -0.19736299987E+03  0.23761643443E+03  0.12508549486E+03 0.  0.
          5    1    3    3  502    0 -0.12259384149E+02 -0.96178330622E-01  0.14819191017E+02  0.19682036794E+02  0.41800000000E+01 0.  1.
         -5    1    3    3    0  502  0.30031238856E+02  0.39430595148E+02 -0.21218219089E+03  0.21793439763E+03  0.41800000000E+01 0.  1.
        -11    1    1    2    0    0 -0.13693046201E+02  0.21706171106E+02 -0.94135630878E+01  0.27336286295E+02  0.00000000000E+00 0.  1.
         11    1    1    2    0    0 -0.40788085060E+01 -0.61040587924E+02 -0.15317996703E+03  0.16494451295E+03  0.00000000000E+00 0. -1.
</event>
<event>
 7    1  0.2749315E-009  0.1611619E+03  0.7561462E-02  0.1187391E+00
         -2   -1    0    0    0  501 -0.00000000000E+00  0.00000000000E+00  0.23349321587E+03  0.23349321587E+03  0.00000000000E+00 0.  1.
          2   -1    0    0  501    0  0.00000000000E+00 -0.00000000000E+00 -0.15648439303E+03  0.15648439303E+03  0.00000000000E+00 0. -1.
         25    2    1    2    0    0 -0.72848758464E+02  0.95053396170E+02  0.14484172870E+03  0.22576049602E+03  0.12508631203E+03 0.  0.
          5    1    3    3  502    0  0.22531390172E+02  0.70621022889E+02  0.54899138633E+02  0.92338400678E+02  0.41800000000E+01 0. -1.
         -5    1    3    3    0  502 -0.95380148636E+02  0.24432373281E+02  0.89942590065E+02  0.13342209534E+03  0.41800000000E+01 0. -1.
        -11    1    1    2    0    0  0.81828801826E+02 -0.10692526746E+03 -0.60208773916E+02  0.14749258316E+03  0.00000000000E+00 0. -1.
         11    1    1    2    0    0 -0.89800433617E+01  0.11871871289E+02 -0.76241319427E+01  0.16724529726E+02  0.00000000000E+00 0.  1.
</event>
<event>
 7    1  0.2749315E-009  0.1056542E+03  0.7561462E-02  0.1268836E+00
          1   -1    0    0  501    0  0.00000000000E+00  0.00000000000E+00  0.38482531315E+03  0.38482531315E+03  0.00000000000E+00 0. -1.
         -1   -1    0    0    0  501 -0.00000000000E+00 -0.00000000000E+00 -0.39017175211E+02  0.39017175211E+02  0.00000000000E+00 0.  1.
         25    2    1    2    0    0  0.35985353407E+02  0.43774170015E+02  0.17954926517E+03  0.22604448399E+03  0.12508815490E+03 0.  0.
          5    1    3    3  502    0 -0.10388540113E+02  0.78398363161E+02  0.10799999667E+03  0.13392422033E+03  0.41800000000E+01 0. -1.
         -5    1    3    3    0  502  0.46373893520E+02 -0.34624193146E+02  0.71549268507E+02  0.92120263651E+02  0.41800000000E+01 0. -1.
        -11    1    1    2    0    0 -0.47825697570E+02 -0.33248720571E+02  0.17149179935E+03  0.18111380956E+03  0.00000000000E+00 0. -1.
         11    1    1    2    0    0  0.11840344163E+02 -0.10525449443E+02 -0.52329265916E+01  0.16684194814E+02  0.00000000000E+00 0.  1.
</event>
<event>
 7    1  0.2749315E-009  0.1815622E+03  0.7561462E-02  0.1166300E+00
         -2   -1    0    0    0  501 -0.00000000000E+00  0.00000000000E+00  0.52319292039E+02  0.52319292039E+02  0.00000000000E+00 0.  1.
          2   -1    0    0  501    0  0.00000000000E+00 -0.00000000000E+00 -0.14511507677E+04  0.14511507677E+04  0.00000000000E+00 0. -1.
         25    2    1    2    0    0  0.92845353645E+01 -0.17130723273E+03 -0.12247690841E+04  0.12430362751E+04  0.12508997243E+03 0.  0.
          5    1    3    3  502    0 -0.15454774386E+01 -0.54482860717E+02 -0.11787396899E+03  0.12993273482E+03  0.41800000000E+01 0. -1.
         -5    1    3    3    0  502  0.10830012803E+02 -0.11682437201E+03 -0.11068951151E+04  0.11131035403E+04  0.41800000000E+01 0. -1.
        -11    1    1    2    0    0  0.37503810773E+02  0.68155697159E+02 -0.50164883722E+02  0.92564844496E+02  0.00000000000E+00 0.  1.
         11    1    1    2    0    0 -0.46788346138E+02  0.10315153557E+03 -0.12389750783E+03  0.16786894016E+03  0.00000000000E+00 0. -1.
</event>
<event>
 7    1  0.2749315E-009  0.1133516E+03  0.7561462E-02  0.1254486E+00
          3   -1    0    0  501    0  0.00000000000E+00  0.00000000000E+00  0.35984122927E+02  0.35984122927E+02  0.00000000000E+00 0. -1.
         -3   -1    0    0    0  501 -0.00000000000E+00 -0.00000000000E+00 -0.44007920734E+03  0.44007920734E+03  0.00000000000E+00 0.  1.
         25    2    1    2    0    0 -0.41614301063E+02 -0.51307727043E+02 -0.22976104096E+03  0.26981750385E+03  0.12508843485E+03 0.  0.
          5    1    3    3  502    0 -0.81814422499E+02 -0.38944578041E+02 -0.10861098397E+03  0.14150653034E+03  0.41800000000E+01 0. -1.
         -5    1    3    3    0  502  0.40200121436E+02 -0.12363149002E+02 -0.12115005698E+03  0.12831097351E+03  0.41800000000E+01 0. -1.
        -11    1    1    2    0    0 -0.13737017685E+02 -0.51456052368E+01 -0.87863832571E+02  0.89079941526E+02  0.00000000000E+00 0.  1.
         11    1    1    2    0    0  0.55351318749E+02  0.56453332280E+02 -0.86470210888E+02  0.11716588490E+03  0.00000000000E+00 0. -1.
</event>
<event>
 7    1  0.2749315E-009  0.1381130E+03  0.7561462E-02  0.1215891E+00
          1   -1    0    0  501    0  0.00000000000E+00  0.00000000000E+00  0.10559314412E+03  0.10559314412E+03  0.00000000000E+00 0. -1.
         -1   -1    0    0    0  501 -0.00000000000E+00 -0.00000000000E+00 -0.20043680870E+03  0.20043680870E+03  0.00000000000E+00 0.  1.
         25    2    1    2    0    0 -0.92215641908E+02 -0.13654266512E+02 -0.79938932905E+02  0.17529656859E+03  0.12509392614E+03 0.  0.
          5    1    3    3  502    0 -0.90852285610E+01 -0.59713836380E+02 -0.25542373059E+02  0.65712775430E+02  0.41800000000E+01 0.  1.
         -5    1    3    3    0  502 -0.83130413347E+02  0.46059569868E+02 -0.54396559846E+02  0.10958379316E+03  0.41800000000E+01 0.  1.
        -11    1    1    2    0    0  0.28106025015E+02  0.41933556172E+02 -0.30458201591E+02  0.58958237927E+02  0.00000000000E+00 0.  1.
         11    1    1    2    0    0  0.64109616892E+02 -0.28279289660E+02  0.15553469912E+02  0.71775146312E+02  0.00000000000E+00 0. -1.
</event>
<event>
 7    1  0.2749315E-009  0.1598705E+03  0.7561462E-02  0.1188843E+00
         -1   -1    0    0    0  501 -0.00000000000E+00  0.00000000000E+00  0.29659671617E+03  0.29659671617E+03  0.00000000000E+00 0.  1.
          1   -1    0    0  501    0  0.00000000000E+00 -0.00000000000E+00 -0.17758914993E+03  0.17758914993E+03  0.00000000000E+00 0. -1.
         25    2    1    2    0    0  0.12818318729E+03  0.26849007030E+02 -0.97217048285E+02  0.20554994666E+03  0.12509127633E+03 0.  0.
          5    1    3    3  502    0  0.14127140800E+03  0.96334459827E+01 -0.11064769216E+03  0.17975204639E+03  0.41800000000E+01 0.  1.
         -5    1    3    3    0  502 -0.13088220714E+02  0.17215561047E+02  0.13430643873E+02  0.25797900273E+02  0.41800000000E+01 0.  1.
        -11    1    1    2    0    0  0.11105518795E+02 -0.11392822885E+02  0.42817918766E+02  0.45678256626E+02  0.00000000000E+00 0.  1.
         11    1    1    2    0    0 -0.13928870608E+03 -0.15456184145E+02  0.17340669576E+03  0.22295766281E+03  0.00000000000E+00 0. -1.
</event>
<event>
 7    1  0.2749315E-009  0.1317562E+03  0.7561462E-02  0.1224873E+00
         -2   -1    0    0    0  501 -0.00000000000E+00  0.00000000000E+00  0.25744630944E+03  0.25744630944E+03  0.00000000000E+00 0.  1.
          2   -1    0    0  501    0  0.00000000000E+00 -0.00000000000E+00 -0.75322916525E+02  0.75322916525E+02  0.00000000000E+00 0. -1.
         25    2    1    2    0    0 -0.85320607541E+02  0.14961744282E+02  0.11031576299E+03  0.18792720467E+03  0.12507440516E+03 0.  0.
          5    1    3    3  502    0 -0.56705374689E+02 -0.49549777127E+02  0.82970636331E+02  0.11212617368E+03  0.41800000000E+01 0. -1.
         -5    1    3    3    0  502 -0.28615232852E+02  0.64511521409E+02  0.27345126661E+02  0.75801030981E+02  0.41800000000E+01 0. -1.
        -11    1    1    2    0    0 -0.65989693669E+01  0.18448039539E+02 -0.53021141975E+01  0.20297511535E+02  0.00000000000E+00 0. -1.
         11    1    1    2    0    0  0.91919576908E+02 -0.33409783821E+02  0.77109744117E+02  0.12454450976E+03  0.00000000000E+00 0.  1.
</event>
<event>
 7    1  0.2749315E-009  0.1239504E+03  0.7561462E-02  0.1236719E+00
          2   -1    0    0  501    0  0.00000000000E+00  0.00000000000E+00  0.46166523581E+03  0.46166523581E+03  0.00000000000E+00 0. -1.
         -2   -1    0    0    0  501 -0.00000000000E+00 -0.00000000000E+00 -0.53487584130E+02  0.53487584130E+02  0.00000000000E+00 0.  1.
         25    2    1    2    0    0  0.53793362698E+02  0.82688263578E+02  0.12802264013E+03  0.20436139788E+03  0.12507081895E+03 0.  0.
          5    1    3    3  502    0  0.48255418555E+02  0.58045831944E+01  0.11651138244E+03  0.12631173043E+03  0.41800000000E+01 0. -1.
         -5    1    3    3    0  502  0.55379441428E+01  0.76883680383E+02  0.11511257688E+02  0.78049667444E+02  0.41800000000E+01 0. -1.
        -11    1    1    2    0    0  0.87922625739E+01 -0.51035825454E+02  0.18788957977E+03  0.19489600700E+03  0.00000000000E+00 0. -1.
         11    1    1    2    0    0 -0.62585625272E+02 -0.31652438124E+02  0.92265431778E+02  0.11589541506E+03  0.00000000000E+00 0.  1.
</event>
<event>
 7    1  0.2749315E-009  0.2674849E+03  0.7561462E-02  0.1102728E+00
         -1   -1    0    0    0  501 -0.00000000000E+00  0.00000000000E+00  0.33680493053E+03  0.33680493053E+03  0.00000000000E+00 0.  1.
          1   -1    0    0  501    0  0.00000000000E+00 -0.00000000000E+00 -0.24700616881E+03  0.24700616881E+03  0.00000000000E+00 0. -1.
         25    2    1    2    0    0 -0.13480250821E+03 -0.21722019590E+03  0.12306186324E+03  0.31007427000E+03  0.12508197713E+03 0.  0.
          5    1    3    3  502    0 -0.12040888602E+03 -0.12924173884E+03  0.26635475069E+02  0.17868589150E+03  0.41800000000E+01 0.  1.
         -5    1    3    3    0  502 -0.14393622191E+02 -0.87978457068E+02  0.96426388172E+02  0.13138837850E+03  0.41800000000E+01 0.  1.
        -11    1    1    2    0    0  0.12112919779E+03  0.11878229128E+03 -0.39394110947E+02  0.17416489674E+03  0.00000000000E+00 0. -1.
         11    1    1    2    0    0  0.13673310421E+02  0.98437904627E+02  0.61310094334E+01  0.99571932601E+02  0.00000000000E+00 0.  1.
</event>
<event>
 7    1  0.2749315E-009  0.1068398E+03  0.7561462E-02  0.1266537E+00
         -4   -1    0    0    0  501 -0.00000000000E+00  0.00000000000E+00  0.20959639926E+02  0.20959639926E+02  0.00000000000E+00 0.  1.
          4   -1    0    0  501    0  0.00000000000E+00 -0.00000000000E+00 -0.61795766622E+03  0.61795766622E+03  0.00000000000E+00 0. -1.
         25    2    1    2    0    0  0.47629092465E+01 -0.25922671480E+02 -0.38324775368E+03  0.40400601818E+03  0.12508937534E+03 0.  0.
          5    1    3    3  502    0  0.20507912509E+02 -0.73121677791E+02 -0.19673278613E+03  0.21092324617E+03  0.41800000000E+01 0.  1.
         -5    1    3    3    0  502 -0.15745003262E+02  0.47199006311E+02 -0.18651496755E+03  0.19308277200E+03  0.41800000000E+01 0.  1.
        -11    1    1    2    0    0  0.23632183823E+02  0.46812128318E+02 -0.73437612464E+02  0.90238231334E+02  0.00000000000E+00 0.  1.
         11    1    1    2    0    0 -0.28395093070E+02 -0.20889456838E+02 -0.14031266015E+03  0.14467305664E+03  0.00000000000E+00 0. -1.
</event>
<event>
 7    1  0.2749315E-009  0.1497044E+03  0.7561462E-02  0.1200837E+00
         -2   -1    0    0    0  501 -0.00000000000E+00  0.00000000000E+00  0.56488970248E+02  0.56488970248E+02  0.00000000000E+00 0.  1.
          2   -1    0    0  501    0  0.00000000000E+00 -0.00000000000E+00 -0.56985866947E+03  0.56985866947E+03  0.00000000000E+00 0. -1.
         25    2    1    2    0    0  0.51464311301E+02  0.11096001139E+03 -0.39063174472E+03  0.42801774478E+03  0.12508129513E+03 0.  0.
          5    1    3    3  502    0 -0.15869848475E+02  0.99045221843E+02 -0.17486207388E+03  0.20163339342E+03  0.41800000000E+01 0.  1.
         -5    1    3    3    0  502  0.67334159777E+02  0.11914789546E+02 -0.21576967085E+03  0.22638435136E+03  0.41800000000E+01 0.  1.
        -11    1    1    2    0    0  0.80815300933E+01 -0.69622859619E+01  0.13291238029E+02  0.17042346165E+02  0.00000000000E+00 0.  1.
         11    1    1    2    0    0 -0.59545841395E+02 -0.10399772543E+03 -0.13602919253E+03  0.18128754877E+03  0.00000000000E+00 0. -1.
</event>
<event>
 7    1  0.2749315E-009  0.1035660E+03  0.7561462E-02  0.1272971E+00
         -1   -1    0    0    0  501 -0.00000000000E+00  0.00000000000E+00  0.83306349011E+02  0.83306349011E+02  0.00000000000E+00 0.  1.
          1   -1    0    0  501    0  0.00000000000E+00 -0.00000000000E+00 -0.14549442160E+03  0.14549442160E+03  0.00000000000E+00 0. -1.
         25    2    1    2    0    0  0.92299537260E+01 -0.94964818445E+01 -0.56358853377E+02  0.13782248561E+03  0.12507334637E+03 0.  0.
          5    1    3    3  502    0 -0.15230545252E+02 -0.62094928906E+02 -0.45688496115E+02  0.78693460858E+02  0.41800000000E+01 0.  1.
         -5    1    3    3    0  502  0.24460498978E+02  0.52598447062E+02 -0.10670357263E+02  0.59129024748E+02  0.41800000000E+01 0.  1.
        -11    1    1    2    0    0  0.33576545511E+01 -0.36785570310E+02  0.13414031328E+02  0.39298705622E+02  0.00000000000E+00 0.  1.
         11    1    1    2    0    0 -0.12587608277E+02  0.46282052155E+02 -0.19243250540E+02  0.51679579382E+02  0.00000000000E+00 0. -1.
</event>
<event>
 7    1  0.2749315E-009  0.1206416E+03  0.7561462E-02  0.1242042E+00
         -2   -1    0    0    0  501 -0.00000000000E+00  0.00000000000E+00  0.49771890596E+02  0.49771890596E+02  0.00000000000E+00 0.  1.
          2   -1    0    0  501    0  0.00000000000E+00 -0.00000000000E+00 -0.31105405779E+03  0.31105405779E+03  0.00000000000E+00 0. -1.
         25    2    1    2    0    0  0.48329641631E+02  0.27568088858E+02 -0.15489472234E+03  0.20671434538E+03  0.12507074716E+03 0.  0.
          5    1    3    3  502    0  0.85466476600E+02 -0.12595003876E+00 -0.12478457728E+03  0.15130498212E+03  0.41800000000E+01 0.  1.
         -5    1    3    3    0  502 -0.37136834968E+02  0.27694038897E+02 -0.30110145054E+02  0.55409363262E+02  0.41800000000E+01 0.  1.
        -11    1    1    2    0    0 -0.74074244522E+02 -0.38161008070E+01 -0.56907266462E+02  0.93487931323E+02  0.00000000000E+00 0.  1.
         11    1    1    2    0    0  0.25744602891E+02 -0.23751988051E+02 -0.49480178392E+02  0.60623671681E+02  0.00000000000E+00 0. -1.
</event>
<event>
 7    1  0.2749315E-009  0.1692897E+03  0.7561462E-02  0.1178591E+00
          1   -1    0    0  501    0  0.00000000000E+00  0.00000000000E+00  0.27822132334E+03  0.27822132334E+03  0.00000000000E+00 0. -1.
         -1   -1    0    0    0  501 -0.00000000000E+00 -0.00000000000E+00 -0.11842428149E+03  0.11842428149E+03  0.00000000000E+00 0.  1.
         25    2    1    2    0    0  0.23104533930E+02 -0.14348019575E+03  0.92583864680E+02  0.21293166222E+03  0.12509090581E+03 0.  0.
          5    1    3    3  502    0  0.17964940915E+02  0.19948098705E+02  0.21243316569E+02  0.34487920245E+02  0.41800000000E+01 0. -1.
         -5    1    3    3    0  502  0.51395930146E+01 -0.16342829446E+03  0.71340548111E+02  0.17844374198E+03  0.41800000000E+01 0. -1.
        -11    1    1    2    0    0  0.24018871992E+01  0.70467529015E+02  0.78543540268E+02  0.10554870641E+03  0.00000000000E+00 0. -1.
         11    1    1    2    0    0 -0.25506421129E+02  0.73012666737E+02 -0.11330363095E+02  0.78165236203E+02  0.00000000000E+00 0.  1.
</event>
<event>
 7    1  0.2749315E-009  0.2003138E+03  0.7561462E-02  0.1149475E+00
         -1   -1    0    0    0  501 -0.00000000000E+00  0.00000000000E+00  0.67336014444E+02  0.67336014444E+02  0.00000000000E+00 0.  1.
          1   -1    0    0  501    0  0.00000000000E+00 -0.00000000000E+00 -0.75216502223E+03  0.75216502223E+03  0.00000000000E+00 0. -1.
         25    2    1    2    0    0 -0.13805117845E+03  0.12310814290E+03 -0.49570274069E+03  0.54367507930E+03  0.12509053523E+03 0.  0.
          5    1    3    3  502    0 -0.89815451707E+02  0.22095200072E+02 -0.33655295360E+03  0.34905640835E+03  0.41800000000E+01 0.  1.
         -5    1    3    3    0  502 -0.48235726742E+02  0.10101294282E+03 -0.15914978709E+03  0.19461867095E+03  0.41800000000E+01 0.  1.
        -11    1    1    2    0    0  0.10212191921E+03 -0.48160958372E+02 -0.78761660791E+02  0.13766540417E+03  0.00000000000E+00 0.  1.
         11    1    1    2    0    0  0.35929259241E+02 -0.74947184523E+02 -0.11036460630E+03  0.13816055321E+03  0.00000000000E+00 0. -1.
</event>
<event>
 7    1  0.2749315E-009  0.1149128E+03  0.7561462E-02  0.1251733E+00
          4   -1    0    0  501    0  0.00000000000E+00  0.00000000000E+00  0.67587895253E+03  0.67587895253E+03  0.00000000000E+00 0. -1.
         -4   -1    0    0    0  501 -0.00000000000E+00 -0.00000000000E+00 -0.26769322028E+02  0.26769322028E+02  0.00000000000E+00 0.  1.
         25    2    1    2    0    0 -0.39751430888E+02  0.50104431422E+02  0.24408701870E+03  0.28163353661E+03  0.12509334890E+03 0.  0.
          5    1    3    3  502    0 -0.86794873587E+01  0.77442632955E+02  0.77696544253E+02  0.11012229696E+03  0.41800000000E+01 0.  1.
         -5    1    3    3    0  502 -0.31071943530E+02 -0.27338201534E+02  0.16639047445E+03  0.17151123965E+03  0.41800000000E+01 0.  1.
        -11    1    1    2    0    0  0.68891515380E+02 -0.37538015889E+02  0.33613099235E+03  0.34516544953E+03  0.00000000000E+00 0.  1.
         11    1    1    2    0    0 -0.29140084491E+02 -0.12566415533E+02  0.68891619443E+02  0.75849288414E+02  0.00000000000E+00 0. -1.
</event>
<event>
 7    1  0.2749315E-009  0.1044162E+03  0.7561462E-02  0.1271274E+00
         -1   -1    0    0    0  501 -0.00000000000E+00  0.00000000000E+00  0.85371961250E+03  0.85371961250E+03  0.00000000000E+00 0.  1.
          1   -1    0    0  501    0  0.00000000000E+00 -0.00000000000E+00 -0.17905610381E+02  0.17905610381E+02  0.00000000000E+00 0. -1.
         25    2    1    2    0    0 -0.17954606822E+02 -0.55919770587E+02  0.43427488963E+03  0.45573297821E+03  0.12509388081E+03 0.  0.
          5    1    3    3  502    0 -0.77002279769E+01 -0.76998329908E+02  0.42178614153E+03  0.42884619377E+03  0.41800000000E+01 0. -1.
         -5    1    3    3    0  502 -0.10254378845E+02  0.21078559321E+02  0.12488748095E+02  0.26886784440E+02  0.41800000000E+01 0. -1.
        -11    1    1    2    0    0  0.37689420701E+02 -0.97713565423E+01  0.12208158417E+03  0.12814009925E+03  0.00000000000E+00 0. -1.
         11    1    1    2    0    0 -0.19734813879E+02  0.65691127129E+02  0.27945752832E+03  0.28775214543E+03  0.00000000000E+00 0.  1.
</event>
<event>
 7    1  0.2749315E-009  0.1405871E+03  0.7561462E-02  0.1212541E+00
         -2   -1    0    0    0  501 -0.00000000000E+00  0.00000000000E+00  0.37617679015E+02  0.37617679015E+02  0.00000000000E+00 0.  1.
          2   -1    0    0  501    0  0.00000000000E+00 -0.00000000000E+00 -0.55248122936E+03  0.55248122936E+03  0.00000000000E+00 0. -1.
         25    2    1    2    0    0 -0.51457332164E+02  0.78549729151E+02 -0.26491863805E+03  0.30764810386E+03  0.12509018363E+03 0.  0.
          5    1    3    3  502    0  0.34876670778E+02  0.39182349411E-01 -0.34005981085E+02  0.48890314474E+02  0.41800000000E+01 0.  1.
         -5    1    3    3    0  502 -0.86334002942E+02  0.78510546801E+02 -0.23091265696E+03  0.25875778939E+03  0.41800000000E+01 0.  1.
        -11    1    1    2    0    0 -0.19112953722E+02 -0.49322043453E+02 -0.12876472725E+03  0.13920604856E+03  0.00000000000E+00 0. -1.
         11    1    1    2    0    0  0.70570285886E+02 -0.29227685698E+02 -0.12118018504E+03  0.14324475595E+03  0.00000000000E+00 0.  1.
</event>
<event>
 7    1  0.2749315E-009  0.2174162E+03  0.7561462E-02  0.1135824E+00
          2   -1    0    0  501    0  0.00000000000E+00  0.00000000000E+00  0.10246880371E+04  0.10246880371E+04  0.00000000000E+00 0. -1.
         -2   -1    0    0    0  501 -0.00000000000E+00 -0.00000000000E+00 -0.56296198114E+02  0.56296198114E+02  0.00000000000E+00 0.  1.
         25    2    1    2    0    0  0.98193375983E+02  0.18525674170E+03  0.59591684678E+03  0.64399085944E+03  0.12508133090E+03 0.  0.
          5    1    3    3  502    0  0.51457992166E+02  0.15093060728E+03  0.27555037239E+03  0.31839198058E+03  0.41800000000E+01 0. -1.
         -5    1    3    3    0  502  0.46735383817E+02  0.34326134410E+02  0.32036647439E+03  0.32559887886E+03  0.41800000000E+01 0. -1.
        -11    1    1    2    0    0 -0.10484510246E+03 -0.16182044784E+03  0.36265363883E+03  0.41072620394E+03  0.00000000000E+00 0.  1.
         11    1    1    2    0    0  0.66517264778E+01 -0.23436293854E+02  0.98213534093E+01  0.26267171860E+02  0.00000000000E+00 0. -1.
</event>
<event>
 7    1  0.2749315E-009  0.9830806E+02  0.7561462E-02  0.1283895E+00
          2   -1    0    0  501    0  0.00000000000E+00  0.00000000000E+00  0.19704222473E+03  0.19704222473E+03  0.00000000000E+00 0. -1.
         -2   -1    0    0    0  501 -0.00000000000E+00 -0.00000000000E+00 -0.18044666817E+03  0.18044666817E+03  0.00000000000E+00 0.  1.
         25    2    1    2    0    0 -0.24318513710E+02 -0.66700286951E+01  0.16012827616E+03  0.20475397333E+03  0.12508894987E+03 0.  0.
          5    1    3    3  502    0  0.50638850550E+01 -0.56894009796E+02  0.36123509143E+02  0.67712270641E+02  0.41800000000E+01 0. -1.
         -5    1    3    3    0  502 -0.29382398765E+02  0.50223981101E+02  0.12400476701E+03  0.13704170269E+03  0.41800000000E+01 0. -1.
        -11    1    1    2    0    0  0.29736036132E+02  0.38541004778E+02 -0.36267539921E+02  0.60703997777E+02  0.00000000000E+00 0. -1.
         11    1    1    2    0    0 -0.54175224224E+01 -0.31870976083E+02 -0.10726517967E+03  0.11203092179E+03  0.00000000000E+00 0.  1.
</event>
<event>
 7    1  0.2749315E-009  0.6244913E+02  0.7561462E-02  0.1387832E+00
          3   -1    0    0  501    0  0.00000000000E+00  0.00000000000E+00  0.59846872385E+02  0.59846872385E+02  0.00000000000E+00 0. -1.
         -3   -1    0    0    0  501 -0.00000000000E+00 -0.00000000000E+00 -0.24328046339E+03  0.24328046339E+03  0.00000000000E+00 0.  1.
         25    2    1    2    0    0 -0.43777858647E+02  0.27661352210E+02 -0.11026946672E+03  0.17461291144E+03  0.12509461314E+03 0.  0.
          5    1    3    3  502    0 -0.17490525135E+02  0.81552753297E+01  0.26990228814E+02  0.33442066871E+02  0.41800000000E+01 0.  1.
         -5    1    3    3    0  502 -0.26287333512E+02  0.19506076880E+02 -0.13725969553E+03  0.14117084457E+03  0.41800000000E+01 0.  1.
        -11    1    1    2    0    0 -0.23619563639E+01 -0.25870478401E+02  0.14267988406E+02  0.29638420735E+02  0.00000000000E+00 0. -1.
         11    1    1    2    0    0  0.46139815011E+02 -0.17908738095E+01 -0.87432112689E+02  0.98876003598E+02  0.00000000000E+00 0.  1.
</event>
<event>
 7    1  0.2749315E-009  0.2638974E+03  0.7561462E-02  0.1104824E+00
         -1   -1    0    0    0  501 -0.00000000000E+00  0.00000000000E+00  0.35339011751E+03  0.35339011751E+03  0.00000000000E+00 0.  1.
          1   -1    0    0  501    0  0.00000000000E+00 -0.00000000000E+00 -0.22234657582E+03  0.22234657582E+03  0.00000000000E+00 0. -1.
         25    2    1    2    0    0 -0.24459909649E+03  0.71574596165E+02  0.32976149174E+02  0.28580942515E+03  0.12509180736E+03 0.  0.
          5    1    3    3  502    0 -0.57353338361E+02  0.39314305377E+02  0.62367496228E+02  0.93499716653E+02  0.41800000000E+01 0.  1.
         -5    1    3    3    0  502 -0.18724575813E+03  0.32260290788E+02 -0.29391347054E+02  0.19230970850E+03  0.41800000000E+01 0.  1.
        -11    1    1    2    0    0  0.28512865735E+02 -0.40861933886E+02 -0.19044878544E+01  0.49862894293E+02  0.00000000000E+00 0. -1.
         11    1    1    2    0    0  0.21608623076E+03 -0.30712662279E+02  0.99971880368E+02  0.24006437389E+03  0.00000000000E+00 0.  1.
</event>
<event>
 7    1  0.2749315E-009  0.8303221E+02  0.7561462E-02  0.1320660E+00
          2   -1    0    0  501    0  0.00000000000E+00  0.00000000000E+00  0.15503356560E+03  0.15503356560E+03  0.00000000000E+00 0. -1.
         -2   -1    0    0    0  501 -0.00000000000E+00 -0.00000000000E+00 -0.10340570387E+03  0.10340570387E+03  0.00000000000E+00 0.  1.
         25    2    1    2    0    0  0.57739373951E+02 -0.16316105041E+02  0.55463132693E+02  0.14941038308E+03  0.12508897992E+03 0.  0.
          5    1    3    3  502    0  0.17598332489E+02  0.12747164123E+02  0.87497666132E+02  0.90252454139E+02  0.41800000000E+01 0.  1.
         -5    1    3    3    0  502  0.40141041462E+02 -0.29063269165E+02 -0.32034533439E+02  0.59157928943E+02  0.41800000000E+01 0.  1.
        -11    1    1    2    0    0 -0.62161183238E+00 -0.24178316685E+02  0.23634828846E+02  0.33816897161E+02  0.00000000000E+00 0. -1.
         11    1    1    2    0    0 -0.57117762119E+02  0.40494421727E+02 -0.27470099803E+02  0.75211989228E+02  0.00000000000E+00 0.  1.
</event>
<event>
 7    1  0.2749315E-009  0.1386251E+03  0.7561462E-02  0.1215191E+00
         -1   -1    0    0    0  501 -0.00000000000E+00  0.00000000000E+00  0.11312129364E+03  0.11312129364E+03  0.00000000000E+00 0.  1.
          1   -1    0    0  501    0  0.00000000000E+00 -0.00000000000E+00 -0.19363732651E+03  0.19363732651E+03  0.00000000000E+00 0. -1.
         25    2    1    2    0    0  0.48643989668E+02  0.86771832892E+02 -0.48685295191E+02  0.16707313787E+03  0.12509031424E+03 0.  0.
          5    1    3    3  502    0 -0.67281347720E+01 -0.27003849222E+02 -0.26276025020E+02  0.38501656603E+02  0.41800000000E+01 0. -1.
         -5    1    3    3    0  502  0.55372124440E+02  0.11377568211E+03 -0.22409270171E+02  0.12857148127E+03  0.41800000000E+01 0. -1.
        -11    1    1    2    0    0 -0.54801461024E+02 -0.24669380761E+02 -0.46009773065E+02  0.75688028744E+02  0.00000000000E+00 0. -1.
         11    1    1    2    0    0  0.61574713561E+01 -0.62102452131E+02  0.14179035392E+02  0.63997453534E+02  0.00000000000E+00 0.  1.
</event>
<event>
 7    1  0.2749315E-009  0.6942137E+02  0.7561462E-02  0.1362072E+00
          2   -1    0    0  501    0  0.00000000000E+00  0.00000000000E+00  0.14677228365E+04  0.14677228365E+04  0.00000000000E+00 0.  1.
         -2   -1    0    0    0  501 -0.00000000000E+00 -0.00000000000E+00 -0.18994687490E+02  0.18994687490E+02  0.00000000000E+00 0. -1.
         25    2    1    2    0    0 -0.54494189139E+02 -0.21249558173E+02  0.12770233440E+04  0.12844678502E+04  0.12509147293E+03 0.  0.
          5    1    3    3  502    0 -0.33760845685E+02  0.14988901871E+02  0.11518389881E+04  0.11524387137E+04  0.41800000000E+01 0.  1.
         -5    1    3    3    0  502 -0.20733343454E+02 -0.36238460045E+02  0.12518435588E+03  0.13202913646E+03  0.41800000000E+01 0.  1.
        -11    1    1    2    0    0  0.37626053068E+02  0.20444934352E+02  0.17885586210E+03  0.18391067022E+03  0.00000000000E+00 0.  1.
         11    1    1    2    0    0  0.16868136072E+02  0.80462382112E+00 -0.71510571330E+01  0.18339003576E+02  0.00000000000E+00 0. -1.
</event>
<event>
 7    1  0.2749315E-009  0.1096307E+03  0.7561462E-02  0.1261255E+00
          2   -1    0    0  501    0  0.00000000000E+00  0.00000000000E+00  0.60433528979E+03  0.60433528979E+03  0.00000000000E+00 0. -1.
         -2   -1    0    0    0  501 -0.00000000000E+00 -0.00000000000E+00 -0.36615926624E+02  0.36615926624E+02  0.00000000000E+00 0.  1.
         25    2    1    2    0    0  0.79699809020E+02 -0.42090595890E+02  0.20546374524E+03  0.25687822467E+03  0.12508954346E+03 0.  0.
          5    1    3    3  502    0  0.72645490477E+02 -0.20664540224E+02  0.32382167283E+02  0.82282851599E+02  0.41800000000E+01 0.  1.
         -5    1    3    3    0  502  0.70543185431E+01 -0.21426055666E+02  0.17308157795E+03  0.17459537307E+03  0.41800000000E+01 0.  1.
        -11    1    1    2    0    0 -0.11990587395E+02  0.50994007075E+02  0.97846469645E+02  0.11098691169E+03  0.00000000000E+00 0.  1.
         11    1    1    2    0    0 -0.67709221625E+02 -0.89034111853E+01  0.26440914828E+03  0.27308608006E+03  0.00000000000E+00 0. -1.
</event>
<event>
 7    1  0.2749315E-009  0.1543513E+03  0.7561462E-02  0.1195226E+00
         -2   -1    0    0    0  501 -0.00000000000E+00  0.00000000000E+00  0.48978915695E+02  0.48978915695E+02  0.00000000000E+00 0.  1.
          2   -1    0    0  501    0  0.00000000000E+00 -0.00000000000E+00 -0.61927823086E+03  0.61927823086E+03  0.00000000000E+00 0. -1.
         25    2    1    2    0    0 -0.12666928431E+03  0.11491309477E+02 -0.21154407510E+03  0.27672511494E+03  0.12509490696E+03 0.  0.
          5    1    3    3  502    0 -0.13458820230E+03 -0.41369515434E+01 -0.21909166697E+03  0.25719589714E+03  0.41800000000E+01 0. -1.
         -5    1    3    3    0  502  0.79189179947E+01  0.15628261020E+02  0.75475918752E+01  0.19529217799E+02  0.41800000000E+01 0. -1.
        -11    1    1    2    0    0  0.97180882778E+02 -0.48534779168E+02 -0.26776829680E+03  0.28896298991E+03  0.00000000000E+00 0.  1.
         11    1    1    2    0    0  0.29488401531E+02  0.37043469691E+02 -0.90986943263E+02  0.10256904170E+03  0.00000000000E+00 0. -1.
</event>
<event>
 7    1  0.2749315E-009  0.1019116E+03  0.7561462E-02  0.1276327E+00
         -2   -1    0    0    0  501 -0.00000000000E+00  0.00000000000E+00  0.31128135255E+02  0.31128135255E+02  0.00000000000E+00 0.  1.
          2   -1    0    0  501    0  0.00000000000E+00 -0.00000000000E+00 -0.41831679205E+03  0.41831679205E+03  0.00000000000E+00 0. -1.
         25    2    1    2    0    0 -0.25967532352E+02 -0.15079098084E+02 -0.25740615657E+03  0.28776194474E+03  0.12508923002E+03 0.  0.
          5    1    3    3  502    0 -0.38951604603E+02 -0.61659560343E+02 -0.10575502630E+03  0.12853297970E+03  0.41800000000E+01 0. -1.
         -5    1    3    3    0  502  0.12984072251E+02  0.46580462259E+02 -0.15165113027E+03  0.15922896504E+03  0.41800000000E+01 0. -1.
        -11    1    1    2    0    0  0.76574798894E+01 -0.31378265942E+02 -0.96271864395E+02  0.10154557817E+03  0.00000000000E+00 0. -1.
         11    1    1    2    0    0  0.18310052462E+02  0.46457364027E+02 -0.33510635836E+02  0.60137404397E+02  0.00000000000E+00 0.  1.
</event>
<event>
 7    1  0.2749315E-009  0.1556522E+03  0.7561462E-02  0.1193695E+00
         -1   -1    0    0    0  501 -0.00000000000E+00  0.00000000000E+00  0.76450028780E+02  0.76450028780E+02  0.00000000000E+00 0.  1.
          1   -1    0    0  501    0  0.00000000000E+00 -0.00000000000E+00 -0.52820372005E+03  0.52820372005E+03  0.00000000000E+00 0. -1.
         25    2    1    2    0    0  0.21627914183E+02 -0.13836907424E+03 -0.37816234203E+03  0.42221756478E+03  0.12508855943E+03 0.  0.
          5    1    3    3  502    0  0.22259347620E+02 -0.60447545182E+00 -0.33958503575E+01  0.22909564524E+02  0.41800000000E+01 0. -1.
         -5    1    3    3    0  502 -0.63143343696E+00 -0.13776459879E+03 -0.37476649167E+03  0.39930800025E+03  0.41800000000E+01 0. -1.
        -11    1    1    2    0    0 -0.39804359538E+02  0.75179835449E+02 -0.18015123095E+01  0.85086074906E+02  0.00000000000E+00 0.  1.
         11    1    1    2    0    0  0.18176445355E+02  0.63189238788E+02 -0.71789836935E+02  0.97350109150E+02  0.00000000000E+00 0. -1.
</event>
<event>
 7    1  0.2749315E-009  0.9021356E+02  0.7561462E-02  0.1302335E+00
          2   -1    0    0  501    0  0.00000000000E+00  0.00000000000E+00  0.39542772524E+03  0.39542772524E+03  0.00000000000E+00 0. -1.
         -2   -1    0    0    0  501 -0.00000000000E+00 -0.00000000000E+00 -0.54315570178E+02  0.54315570178E+02  0.00000000000E+00 0.  1.
         25    2    1    2    0    0  0.31301495853E+02  0.55985845401E+01  0.42245447422E+02  0.13580472522E+03  0.12508843980E+03 0.  0.
          5    1    3    3  502    0  0.58449454789E+02 -0.79183832156E+00 -0.24367317796E+02  0.63468136491E+02  0.41800000000E+01 0.  1.
         -5    1    3    3    0  502 -0.27147958936E+02  0.63904228616E+01  0.66612765218E+02  0.72336588727E+02  0.41800000000E+01 0.  1.
        -11    1    1    2    0    0  0.17772100712E+02  0.28695031945E+02  0.14399218587E+03  0.14789524000E+03  0.00000000000E+00 0. -1.
         11    1    1    2    0    0 -0.49073596565E+02 -0.34293616485E+02  0.15487452177E+03  0.16604333020E+03  0.00000000000E+00 0.  1.
</event>
<event>
 7    1  0.2749315E-009  0.1259265E+03  0.7561462E-02  0.1233628E+00
         -1   -1    0    0    0  501 -0.00000000000E+00  0.00000000000E+00  0.12777155171E+02  0.12777155171E+02  0.00000000000E+00 0.  1.
          1   -1    0    0  501    0  0.00000000000E+00 -0.00000000000E+00 -0.19371370046E+04  0.19371370046E+04  0.00000000000E+00 0. -1.
         25    2    1    2    0    0 -0.89047480861E+02  0.34275898118E+02 -0.14173047531E+04  0.14260100799E+04  0.12509074205E+03 0.  0.
          5    1    3    3  502    0 -0.11835259845E+03  0.29083497261E+02 -0.12578896040E+04  0.12637867366E+04  0.41800000000E+01 0.  1.
         -5    1    3    3    0  502  0.29305117586E+02  0.51924008569E+01 -0.15941514913E+03  0.16222334331E+03  0.41800000000E+01 0.  1.
        -11    1    1    2    0    0  0.34874775266E+01 -0.10482125148E+02 -0.21574338226E+01  0.11255752654E+02  0.00000000000E+00 0.  1.
         11    1    1    2    0    0  0.85560003334E+02 -0.23793772970E+02 -0.50489766246E+03  0.51264832718E+03  0.00000000000E+00 0. -1.
</event>
<event>
 7    1  0.2749315E-009  0.1213185E+03  0.7561462E-02  0.1240938E+00
          2   -1    0    0  501    0  0.00000000000E+00  0.00000000000E+00  0.39444025250E+03  0.39444025250E+03  0.00000000000E+00 0. -1.
         -2   -1    0    0    0  501 -0.00000000000E+00 -0.00000000000E+00 -0.38899564814E+02  0.38899564814E+02  0.00000000000E+00 0.  1.
         25    2    1    2    0    0 -0.57543515005E+02  0.11006043503E+02  0.21656725903E+03  0.25687322820E+03  0.12510031404E+03 0.  0.
          5    1    3    3  502    0 -0.67592846357E+02 -0.42100565458E+02  0.15853254142E+03  0.17745785297E+03  0.41800000000E+01 0.  1.
         -5    1    3    3    0  502  0.10049331352E+02  0.53106608961E+02  0.58034717606E+02  0.79415375234E+02  0.41800000000E+01 0.  1.
        -11    1    1    2    0    0  0.51043703654E+02  0.35212791585E+02  0.82331886817E+02  0.10307249857E+03  0.00000000000E+00 0.  1.
         11    1    1    2    0    0  0.64998113508E+01 -0.46218835088E+02  0.56641541836E+02  0.73394090539E+02  0.00000000000E+00 0. -1.
</event>
<event>
 7    1  0.2749315E-009  0.1136098E+03  0.7561462E-02  0.1254027E+00
         -1   -1    0    0    0  501 -0.00000000000E+00  0.00000000000E+00  0.18105724633E+03  0.18105724633E+03  0.00000000000E+00 0.  1.
          1   -1    0    0  501    0  0.00000000000E+00 -0.00000000000E+00 -0.88998704021E+02  0.88998704021E+02  0.00000000000E+00 0. -1.
         25    2    1    2    0    0  0.37943653934E+02 -0.39570621446E+02  0.61590657545E+02  0.14981779229E+03  0.12508559803E+03 0.  0.
          5    1    3    3  502    0 -0.47798157261E+01 -0.77373325613E+02  0.47126049115E+02  0.90817482128E+02  0.41800000000E+01 0. -1.
         -5    1    3    3    0  502  0.42723469660E+02  0.37802704167E+02  0.14464608430E+02  0.59000310162E+02  0.41800000000E+01 0. -1.
        -11    1    1    2    0    0 -0.23960110157E+02  0.61711383256E+02  0.53692260310E+02  0.85236380257E+02  0.00000000000E+00 0.  1.
         11    1    1    2    0    0 -0.13983543777E+02 -0.22140761810E+02 -0.23224375545E+02  0.35001777805E+02  0.00000000000E+00 0. -1.
</event>
<event>
 7    1  0.2749315E-009  0.1472425E+03  0.7561462E-02  0.1203903E+00
          1   -1    0    0  501    0  0.00000000000E+00  0.00000000000E+00  0.43628861935E+03  0.43628861935E+03  0.00000000000E+00 0. -1.
         -1   -1    0    0    0  501 -0.00000000000E+00 -0.00000000000E+00 -0.78021249383E+02  0.78021249383E+02  0.00000000000E+00 0.  1.
         25    2    1    2    0    0  0.78050570647E+02 -0.11874777828E+03  0.12604344454E+03  0.22743565886E+03  0.12508837910E+03 0.  0.
          5    1    3    3  502    0  0.43046621454E+02 -0.55961569298E+02  0.13740483600E+03  0.15453889547E+03  0.41800000000E+01 0. -1.
         -5    1    3    3    0  502  0.35003949193E+02 -0.62786208984E+02 -0.11361391456E+02  0.72896763395E+02  0.41800000000E+01 0. -1.
        -11    1    1    2    0    0 -0.40622787728E+02  0.18291680717E+02  0.13496402094E+03  0.14212699749E+03  0.00000000000E+00 0. -1.
         11    1    1    2    0    0 -0.37427782919E+02  0.10045609756E+03  0.97259904484E+02  0.14474721238E+03  0.00000000000E+00 0.  1.
</event>
<event>
 7    1  0.2749315E-009  0.8929370E+02  0.7561462E-02  0.1304571E+00
         -2   -1    0    0    0  501 -0.00000000000E+00  0.00000000000E+00  0.81017679979E+02  0.81017679979E+02  0.00000000000E+00 0. -1.
          2   -1    0    0  501    0  0.00000000000E+00 -0.00000000000E+00 -0.19442774803E+03  0.19442774803E+03  0.00000000000E+00 0.  1.
         25    2    1    2    0    0  0.42704809845E+02 -0.94787365767E+01 -0.16167659861E+02  0.13349796846E+03  0.12508703820E+03 0.  0.
          5    1    3    3  502    0  0.10976821161E+02 -0.48857674880E+02  0.35154474149E+02  0.61325952501E+02  0.41800000000E+01 0. -1.
         -5    1    3    3    0  502  0.31727988684E+02  0.39378938303E+02 -0.51322134010E+02  0.72172015956E+02  0.41800000000E+01 0. -1.
        -11    1    1    2    0    0 -0.10483592146E+02  0.34971116084E+02 -0.93874069187E+02  0.10072351031E+03  0.00000000000E+00 0.  1.
         11    1    1    2    0    0 -0.32221217699E+02 -0.25492379508E+02 -0.33683390013E+01  0.41223949235E+02  0.00000000000E+00 0. -1.
</event>
<event>
 7    1  0.2749315E-009  0.1143277E+03  0.7561462E-02  0.1252759E+00
         -2   -1    0    0    0  501 -0.00000000000E+00  0.00000000000E+00  0.69702034579E+02  0.69702034579E+02  0.00000000000E+00 0.  1.
          2   -1    0    0  501    0  0.00000000000E+00 -0.00000000000E+00 -0.23984179271E+03  0.23984179271E+03  0.00000000000E+00 0. -1.
         25    2    1    2    0    0 -0.24422438778E+02  0.65746880385E+02 -0.10562558919E+03  0.17811059754E+03  0.12509001586E+03 0.  0.
          5    1    3    3  502    0 -0.29734639397E+02  0.96429511899E+02 -0.46567007032E+02  0.11121491846E+03  0.41800000000E+01 0.  1.
         -5    1    3    3    0  502  0.53122006199E+01 -0.30682631515E+02 -0.59058582163E+02  0.66895679077E+02  0.41800000000E+01 0.  1.
        -11    1    1    2    0    0  0.47298300253E+02 -0.46780614984E+02 -0.72508931512E+01  0.66918835887E+02  0.00000000000E+00 0.  1.
         11    1    1    2    0    0 -0.22875861475E+02 -0.18966265401E+02 -0.57263275786E+02  0.64514393861E+02  0.00000000000E+00 0. -1.
</event>
<event>
 7    1  0.2749315E-009  0.1031663E+03  0.7561462E-02  0.1273775E+00
          3   -1    0    0  501    0  0.00000000000E+00  0.00000000000E+00  0.16232611424E+03  0.16232611424E+03  0.00000000000E+00 0. -1.
         -3   -1    0    0    0  501 -0.00000000000E+00 -0.00000000000E+00 -0.79324623728E+02  0.79324623728E+02  0.00000000000E+00 0.  1.
         25    2    1    2    0    0  0.24836362134E+01  0.31942850768E+02  0.41520563778E+02  0.13563863914E+03  0.12508944418E+03 0.  0.
          5    1    3    3  502    0  0.46873724814E+02  0.47234886746E+02 -0.81380725137E+01  0.67171282763E+02  0.41800000000E+01 0.  1.
         -5    1    3    3    0  502 -0.44390088600E+02 -0.15292035978E+02  0.49658636291E+02  0.68467356372E+02  0.41800000000E+01 0.  1.
        -11    1    1    2    0    0  0.98542685890E+01 -0.60560042363E+02  0.10837315804E+02  0.62306281821E+02  0.00000000000E+00 0.  1.
         11    1    1    2    0    0 -0.12337904802E+02  0.28617191595E+02  0.30643610927E+02  0.43705817008E+02  0.00000000000E+00 0. -1.
</event>
<event>
 7    1  0.2749315E-009  0.1266592E+03  0.7561462E-02  0.1232499E+00
         -1   -1    0    0    0  501 -0.00000000000E+00  0.00000000000E+00  0.51564916078E+02  0.51564916078E+02  0.00000000000E+00 0.  1.
          1   -1    0    0  501    0  0.00000000000E+00 -0.00000000000E+00 -0.31361505984E+03  0.31361505984E+03  0.00000000000E+00 0. -1.
         25    2    1    2    0    0  0.58055763750E+02  0.12403457231E+02 -0.14971165356E+03  0.20392418779E+03  0.12508867933E+03 0.  0.
          5    1    3    3  502    0  0.91081345969E+02 -0.18440653145E+02 -0.97881823778E+02  0.13503404422E+03  0.41800000000E+01 0.  1.
         -5    1    3    3    0  502 -0.33025582219E+02  0.30844110376E+02 -0.51829829778E+02  0.68890143567E+02  0.41800000000E+01 0.  1.
        -11    1    1    2    0    0  0.86464271624E+01 -0.41318368223E+02 -0.32484739860E+02  0.53265622864E+02  0.00000000000E+00 0.  1.
         11    1    1    2    0    0 -0.66702190913E+02  0.28914910992E+02 -0.79853750343E+02  0.10799016527E+03  0.00000000000E+00 0. -1.
</event>
<event>
 7    1  0.2749315E-009  0.1231653E+03  0.7561462E-02  0.1237965E+00
          1   -1    0    0  501    0  0.00000000000E+00  0.00000000000E+00  0.20870820190E+03  0.20870820190E+03  0.00000000000E+00 0. -1.
         -1   -1    0    0    0  501 -0.00000000000E+00 -0.00000000000E+00 -0.14213245196E+03  0.14213245196E+03  0.00000000000E+00 0.  1.
         25    2    1    2    0    0 -0.72277621677E+02  0.54295074321E+02  0.13466792462E+03  0.20482883636E+03  0.12508953830E+03 0.  0.
          5    1    3    3  502    0 -0.80726191477E+02 -0.84954820146E+01  0.10986397049E+03  0.13666182941E+03  0.41800000000E+01 0. -1.
         -5    1    3    3    0  502  0.84485698008E+01  0.62790556335E+02  0.24803954131E+02  0.68167006954E+02  0.41800000000E+01 0. -1.
        -11    1    1    2    0    0  0.11979773891E+02 -0.36906242880E+02 -0.73407934884E+02  0.83031985704E+02  0.00000000000E+00 0.  1.
         11    1    1    2    0    0  0.60297847785E+02 -0.17388831440E+02  0.53157601954E+01  0.62979831794E+02  0.00000000000E+00 0. -1.
</event>
<event>
 7    1  0.2749315E-009  0.1191644E+03  0.7561462E-02  0.1244482E+00
          4   -1    0    0  501    0  0.00000000000E+00  0.00000000000E+00  0.79834016627E+03  0.79834016627E+03  0.00000000000E+00 0. -1.
         -4   -1    0    0    0  501 -0.00000000000E+00 -0.00000000000E+00 -0.18940525309E+02  0.18940525309E+02  0.00000000000E+00 0.  1.
         25    2    1    2    0    0  0.65631003252E+02  0.31294423847E+01  0.47057724532E+03  0.49133254741E+03  0.12508999293E+03 0.  0.
          5    1    3    3  502    0 -0.36108512073E+02 -0.64947114144E+01  0.16541474485E+03  0.16948603522E+03  0.41800000000E+01 0.  1.
         -5    1    3    3    0  502  0.10173951533E+03  0.96241537991E+01  0.30516250047E+03  0.32184651219E+03  0.41800000000E+01 0.  1.
        -11    1    1    2    0    0 -0.48163776492E+02  0.33415005321E+02  0.13015026206E+03  0.14274243469E+03  0.00000000000E+00 0.  1.
         11    1    1    2    0    0 -0.17467226760E+02 -0.36544447706E+02  0.17867213358E+03  0.18320570948E+03  0.00000000000E+00 0. -1.
</event>
<event>
 7    1  0.2749315E-009  0.5518073E+02  0.7561462E-02  0.1419246E+00
         -1   -1    0    0    0  501 -0.00000000000E+00  0.00000000000E+00  0.96126252631E+02  0.96126252631E+02  0.00000000000E+00 0.  1.
          1   -1    0    0  501    0  0.00000000000E+00 -0.00000000000E+00 -0.69256396570E+02  0.69256396570E+02  0.00000000000E+00 0. -1.
         25    2    1    2    0    0 -0.12437531888E+02 -0.45934944218E+00  0.29059537916E+02  0.12902668466E+03  0.12509406624E+03 0.  0.
          5    1    3    3  502    0 -0.33315856540E+02 -0.25118746768E+02 -0.36644639147E+02  0.55688416339E+02  0.41800000000E+01 0.  1.
         -5    1    3    3    0  502  0.20878324652E+02  0.24659397326E+02  0.65704177063E+02  0.73338268321E+02  0.41800000000E+01 0.  1.
        -11    1    1    2    0    0 -0.10204858982E+02  0.68870321654E+01  0.19279950233E+01  0.12461441478E+02  0.00000000000E+00 0.  1.
         11    1    1    2    0    0  0.22642390871E+02 -0.64276827232E+01 -0.41176768782E+01  0.23894523063E+02  0.00000000000E+00 0. -1.
</event>
<event>
 7    1  0.2749315E-009  0.1412210E+03  0.7561462E-02  0.1211695E+00
         -2   -1    0    0    0  501 -0.00000000000E+00  0.00000000000E+00  0.22483109294E+03  0.22483109294E+03  0.00000000000E+00 0. -1.
          2   -1    0    0  501    0  0.00000000000E+00 -0.00000000000E+00 -0.11375209056E+03  0.11375209056E+03  0.00000000000E+00 0.  1.
         25    2    1    2    0    0  0.86471252345E+02  0.77716246246E+02  0.53160992751E+02  0.17885917361E+03  0.12508964954E+03 0.  0.
          5    1    3    3  502    0  0.11448013615E+03  0.67771281378E+02  0.20792256566E+02  0.13471614041E+03  0.41800000000E+01 0. -1.
         -5    1    3    3    0  502 -0.28008883806E+02  0.99449648677E+01  0.32368736186E+02  0.44143033205E+02  0.41800000000E+01 0. -1.
        -11    1    1    2    0    0 -0.45709856064E+02 -0.23213676782E+02 -0.21097932224E+02  0.55438149999E+02  0.00000000000E+00 0.  1.
         11    1    1    2    0    0 -0.40761396280E+02 -0.54502569464E+02  0.79015941853E+02  0.10428585988E+03  0.00000000000E+00 0. -1.
</event>
<event>
 7    1  0.2749315E-009  0.9941976E+02  0.7561462E-02  0.1281521E+00
          1   -1    0    0  501    0  0.00000000000E+00  0.00000000000E+00  0.17517529724E+03  0.17517529724E+03  0.00000000000E+00 0. -1.
         -1   -1    0    0    0  501 -0.00000000000E+00 -0.00000000000E+00 -0.87910541924E+02  0.87910541924E+02  0.00000000000E+00 0.  1.
         25    2    1    2    0    0  0.54679508561E+02 -0.22952683930E+02  0.33913702346E+02  0.14253501051E+03  0.12509762451E+03 0.  0.
          5    1    3    3  502    0  0.71226894652E+02 -0.62611152048E+02  0.18644152098E+02  0.96739359570E+02  0.41800000000E+01 0. -1.
         -5    1    3    3    0  502 -0.16547386092E+02  0.39658468119E+02  0.15269550249E+02  0.45795650937E+02  0.41800000000E+01 0. -1.
        -11    1    1    2    0    0 -0.79169866592E+01  0.88970662871E+01  0.68420401296E+02  0.69449174076E+02  0.00000000000E+00 0. -1.
         11    1    1    2    0    0 -0.46762521901E+02  0.14055617643E+02 -0.15069348327E+02  0.51101654581E+02  0.00000000000E+00 0.  1.
</event>
<event>
 7    1  0.2749315E-009  0.1260895E+03  0.7561462E-02  0.1233376E+00
         -3   -1    0    0    0  501 -0.00000000000E+00  0.00000000000E+00  0.13895679655E+03  0.13895679655E+03  0.00000000000E+00 0.  1.
          3   -1    0    0  501    0  0.00000000000E+00 -0.00000000000E+00 -0.14557895704E+03  0.14557895704E+03  0.00000000000E+00 0. -1.
         25    2    1    2    0    0  0.16940008151E+02 -0.68188623630E+02  0.54717929496E+02  0.15355104286E+03  0.12508884317E+03 0.  0.
          5    1    3    3  502    0 -0.71977649518E+01  0.35479243571E+02  0.19660210459E+02  0.41407497147E+02  0.41800000000E+01 0. -1.
         -5    1    3    3    0  502  0.24137773103E+02 -0.10366786720E+03  0.35057719037E+02  0.11214354571E+03  0.41800000000E+01 0. -1.
        -11    1    1    2    0    0 -0.38064493406E+02  0.24874814330E+00 -0.43165267273E+02  0.57551783923E+02  0.00000000000E+00 0.  1.
         11    1    1    2    0    0  0.21124485255E+02  0.67939875487E+02 -0.18174822714E+02  0.73432926805E+02  0.00000000000E+00 0. -1.
</event>
<event>
 7    1  0.3219301E-009  0.1162275E+03  0.7561462E-02  0.1249454E+00
          2   -1    0    0  501    0  0.00000000000E+00  0.00000000000E+00  0.56835953309E+03  0.56835953309E+03  0.00000000000E+00 0. -1.
         -2   -1    0    0    0  501 -0.00000000000E+00 -0.00000000000E+00 -0.33536492636E+02  0.33536492636E+02  0.00000000000E+00 0.  1.
         25    2    1    2    0    0  0.58474805149E+02  0.58477033176E+02  0.33673048308E+03  0.36861030905E+03  0.12508907010E+03 0.  0.
          5    1    3    3  502    0  0.34149294580E+02  0.97604611475E+02  0.22371212514E+03  0.24649020637E+03  0.41800000000E+01 0.  1.
         -5    1    3    3    0  502  0.24325510569E+02 -0.39127578299E+02  0.11301835794E+03  0.12212010268E+03  0.41800000000E+01 0.  1.
        -11    1    1    2    0    0 -0.29730374709E+02 -0.29092842511E+02  0.12848624638E+02  0.43535914149E+02  0.00000000000E+00 0.  1.
         11    1    1    2    0    0 -0.28744430440E+02 -0.29384190666E+02  0.18524393274E+03  0.18974980253E+03  0.00000000000E+00 0. -1.
</event>
<event>
 7    1  0.2749315E-009  0.8393428E+02  0.7561462E-02  0.1318243E+00
         -2   -1    0    0    0  501 -0.00000000000E+00  0.00000000000E+00  0.34115357397E+02  0.34115357397E+02  0.00000000000E+00 0.  1.
          2   -1    0    0  501    0  0.00000000000E+00 -0.00000000000E+00 -0.46572422632E+03  0.46572422632E+03  0.00000000000E+00 0. -1.
         25    2    1    2    0    0  0.46594626496E+02  0.44798385355E+02 -0.24533073774E+03  0.28286460488E+03  0.12508900538E+03 0.  0.
          5    1    3    3  502    0  0.54539748864E+02  0.54213516638E+02 -0.25517944805E+03  0.26654776814E+03  0.41800000000E+01 0. -1.
         -5    1    3    3    0  502 -0.79451223674E+01 -0.94151312831E+01  0.98487103128E+01  0.16316836744E+02  0.41800000000E+01 0. -1.
        -11    1    1    2    0    0 -0.38147478249E+02 -0.65878773352E+01 -0.17040210422E+03  0.17474411963E+03  0.00000000000E+00 0. -1.
         11    1    1    2    0    0 -0.84471482470E+01 -0.38210508020E+02 -0.15876026969E+02  0.42230859202E+02  0.00000000000E+00 0.  1.
</event>
<event>
 7    1  0.2749315E-009  0.1001865E+03  0.7561462E-02  0.1279904E+00
          1   -1    0    0  501    0  0.00000000000E+00  0.00000000000E+00  0.17332244963E+04  0.17332244963E+04  0.00000000000E+00 0. -1.
         -1   -1    0    0    0  501 -0.00000000000E+00 -0.00000000000E+00 -0.96632717102E+01  0.96632717102E+01  0.00000000000E+00 0.  1.
         25    2    1    2    0    0  0.63319374537E+02  0.21933935599E+02  0.11086116478E+04  0.11176571881E+04  0.12508942311E+03 0.  0.
          5    1    3    3  502    0  0.55613327376E+02 -0.81271125648E+01  0.10472702099E+04  0.10487856107E+04  0.41800000000E+01 0.  1.
         -5    1    3    3    0  502  0.77060471615E+01  0.30061048164E+02  0.61341437891E+02  0.68871577462E+02  0.41800000000E+01 0.  1.
        -11    1    1    2    0    0 -0.11982379661E+02  0.34433562760E+02  0.18123445370E+03  0.18486528845E+03  0.00000000000E+00 0. -1.
         11    1    1    2    0    0 -0.51336994876E+02 -0.56367498359E+02  0.43371512305E+03  0.44036529140E+03  0.00000000000E+00 0.  1.
</event>
<event>
 7    1  0.2749315E-009  0.1093371E+03  0.7561462E-02  0.1261802E+00
          1   -1    0    0  501    0  0.00000000000E+00  0.00000000000E+00  0.45576883483E+03  0.45576883483E+03  0.00000000000E+00 0. -1.
         -1   -1    0    0    0  501 -0.00000000000E+00 -0.00000000000E+00 -0.29257720756E+02  0.29257720756E+02  0.00000000000E+00 0.  1.
         25    2    1    2    0    0 -0.13857178410E+02  0.25021282537E+02  0.18040353951E+03  0.22138626718E+03  0.12509339013E+03 0.  0.
          5    1    3    3  502    0 -0.16325454116E+02  0.74699725517E+02  0.90457313615E+02  0.11851821561E+03  0.41800000000E+01 0. -1.
         -5    1    3    3    0  502  0.24682757057E+01 -0.49678442979E+02  0.89946225892E+02  0.10286805157E+03  0.41800000000E+01 0. -1.
        -11    1    1    2    0    0  0.24111882500E+02 -0.55238857028E+02  0.18694323041E+03  0.19641915792E+03  0.00000000000E+00 0. -1.
         11    1    1    2    0    0 -0.10254704089E+02  0.30217574490E+02  0.59164344153E+02  0.67221130480E+02  0.00000000000E+00 0.  1.
</event>
<event>
 7    1  0.2749315E-009  0.9516629E+02  0.7561462E-02  0.1290802E+00
         -1   -1    0    0    0  501 -0.00000000000E+00  0.00000000000E+00  0.10766811668E+03  0.10766811668E+03  0.00000000000E+00 0.  1.
          1   -1    0    0  501    0  0.00000000000E+00 -0.00000000000E+00 -0.13302635680E+03  0.13302635680E+03  0.00000000000E+00 0. -1.
         25    2    1    2    0    0 -0.19698659356E+02  0.39328299665E+02  0.12007054325E+02  0.13314351787E+03  0.12509306401E+03 0.  0.
          5    1    3    3  502    0  0.10089039255E+02  0.69366972943E+02 -0.27208093104E+02  0.75308156123E+02  0.41800000000E+01 0. -1.
         -5    1    3    3    0  502 -0.29787698610E+02 -0.30038673277E+02  0.39215147429E+02  0.57835361749E+02  0.41800000000E+01 0. -1.
        -11    1    1    2    0    0  0.13800168918E+02  0.16472654578E+02  0.18511280107E+02  0.28363012925E+02  0.00000000000E+00 0.  1.
         11    1    1    2    0    0  0.58984904377E+01 -0.55800954244E+02 -0.55876574545E+02  0.79187942686E+02  0.00000000000E+00 0. -1.
</event>
<event>
 7    1  0.2749315E-009  0.1110622E+03  0.7561462E-02  0.1258615E+00
         -1   -1    0    0    0  501 -0.00000000000E+00  0.00000000000E+00  0.47733652527E+02  0.47733652527E+02  0.00000000000E+00 0.  1.
          1   -1    0    0  501    0  0.00000000000E+00 -0.00000000000E+00 -0.37846371543E+03  0.37846371543E+03  0.00000000000E+00 0. -1.
         25    2    1    2    0    0  0.58711092525E+02 -0.34247643881E+02 -0.11823051162E+03  0.18505881704E+03  0.12509363849E+03 0.  0.
          5    1    3    3  502    0  0.94181986519E+02 -0.23539515665E+02 -0.11019174920E+03  0.14691510941E+03  0.41800000000E+01 0.  1.
         -5    1    3    3    0  502 -0.35470893994E+02 -0.10708128215E+02 -0.80387624199E+01  0.38143707631E+02  0.41800000000E+01 0.  1.
        -11    1    1    2    0    0 -0.69562081156E+02  0.32080012760E+02 -0.21628009072E+03  0.22944517427E+03  0.00000000000E+00 0. -1.
         11    1    1    2    0    0  0.10850988631E+02  0.21676311213E+01  0.37805394339E+01  0.11693376645E+02  0.00000000000E+00 0.  1.
</event>
<event>
 7    1  0.2749315E-009  0.8351111E+02  0.7561462E-02  0.1319373E+00
         -1   -1    0    0    0  501 -0.00000000000E+00  0.00000000000E+00  0.19469553498E+02  0.19469553498E+02  0.00000000000E+00 0.  1.
          1   -1    0    0  501    0  0.00000000000E+00 -0.00000000000E+00 -0.66175623197E+03  0.66175623197E+03  0.00000000000E+00 0. -1.
         25    2    1    2    0    0 -0.11777460200E+02 -0.18935104753E+01 -0.28273256208E+03  0.30939835473E+03  0.12508935326E+03 0.  0.
          5    1    3    3  502    0  0.29591500758E+02 -0.86364295397E+01 -0.89158871374E+01  0.32360628482E+02  0.41800000000E+01 0. -1.
         -5    1    3    3    0  502 -0.41368960957E+02  0.67429190644E+01 -0.27381667494E+03  0.27703772625E+03  0.41800000000E+01 0. -1.
        -11    1    1    2    0    0  0.46657060583E+02 -0.21928183608E+02 -0.22344971266E+03  0.22931964728E+03  0.00000000000E+00 0. -1.
         11    1    1    2    0    0 -0.34879600383E+02  0.23821694083E+02 -0.13610440373E+03  0.14250778346E+03  0.00000000000E+00 0.  1.
</event>
<event>
 7    1  0.2749315E-009  0.1175464E+03  0.7561462E-02  0.1247201E+00
         -2   -1    0    0    0  501 -0.00000000000E+00  0.00000000000E+00  0.14142556569E+02  0.14142556569E+02  0.00000000000E+00 0.  1.
          2   -1    0    0  501    0  0.00000000000E+00 -0.00000000000E+00 -0.13001549894E+04  0.13001549894E+04  0.00000000000E+00 0. -1.
         25    2    1    2    0    0  0.47763502238E+02 -0.65509533952E+02 -0.65323224103E+03  0.67002361844E+03  0.12508572005E+03 0.  0.
          5    1    3    3  502    0  0.94218902424E+00  0.18135747896E+02 -0.13193114669E+02  0.22832515117E+02  0.41800000000E+01 0. -1.
         -5    1    3    3    0  502  0.46821313214E+02 -0.83645281848E+02 -0.64003912636E+03  0.64719110332E+03  0.41800000000E+01 0. -1.
        -11    1    1    2    0    0 -0.68070525026E+02  0.20436404934E+02 -0.40524714033E+03  0.41143223959E+03  0.00000000000E+00 0.  1.
         11    1    1    2    0    0  0.20307022788E+02  0.45073129018E+02 -0.22753305149E+03  0.23284168797E+03  0.00000000000E+00 0. -1.
</event>
<event>
 7    1  0.2749315E-009  0.1742368E+03  0.7561462E-02  0.1173500E+00
         -1   -1    0    0    0  501 -0.00000000000E+00  0.00000000000E+00  0.37856213297E+02  0.37856213297E+02  0.00000000000E+00 0.  1.
          1   -1    0    0  501    0  0.00000000000E+00 -0.00000000000E+00 -0.11199317844E+04  0.11199317844E+04  0.00000000000E+00 0. -1.
         25    2    1    2    0    0  0.28230123647E+02 -0.17134640707E+03 -0.62958135608E+03  0.66496367048E+03  0.12508983986E+03 0.  0.
          5    1    3    3  502    0  0.89304699800E+01 -0.59341242379E+02 -0.43842036250E+03  0.44252799120E+03  0.41800000000E+01 0.  1.
         -5    1    3    3    0  502  0.19299653667E+02 -0.11200516469E+03 -0.19116099358E+03  0.22243567928E+03  0.41800000000E+01 0.  1.
        -11    1    1    2    0    0 -0.21884133228E+02  0.16076446179E+03 -0.45226095591E+03  0.48048319398E+03  0.00000000000E+00 0. -1.
         11    1    1    2    0    0 -0.63459904193E+01  0.10581945282E+02 -0.23325914173E+00  0.12341133261E+02  0.00000000000E+00 0.  1.
</event>
<event>
 7    1  0.2749315E-009  0.1111634E+03  0.7561462E-02  0.1258431E+00
         -1   -1    0    0    0  501 -0.00000000000E+00  0.00000000000E+00  0.19162279994E+02  0.19162279994E+02  0.00000000000E+00 0.  1.
          1   -1    0    0  501    0  0.00000000000E+00 -0.00000000000E+00 -0.73080862509E+03  0.73080862509E+03  0.00000000000E+00 0. -1.
         25    2    1    2    0    0  0.16503629613E+02 -0.23893122055E+02 -0.27794753220E+03  0.30617444492E+03  0.12507881114E+03 0.  0.
          5    1    3    3  502    0 -0.54287339201E+02 -0.17462186114E+02 -0.12651548713E+03  0.13883689720E+03  0.41800000000E+01 0. -1.
         -5    1    3    3    0  502  0.70790968814E+02 -0.64309359408E+01 -0.15143204507E+03  0.16733754772E+03  0.41800000000E+01 0. -1.
        -11    1    1    2    0    0 -0.46162842740E+02  0.39204056885E+02 -0.29281330737E+03  0.29901103508E+03  0.00000000000E+00 0.  1.
         11    1    1    2    0    0  0.29659213128E+02 -0.15310934831E+02 -0.14088550552E+03  0.14478542508E+03  0.00000000000E+00 0. -1.
</event>
<event>
 7    1  0.2749315E-009  0.1198357E+03  0.7561462E-02  0.1243368E+00
          1   -1    0    0  501    0  0.00000000000E+00  0.00000000000E+00  0.58143514373E+03  0.58143514373E+03  0.00000000000E+00 0. -1.
         -1   -1    0    0    0  501 -0.00000000000E+00 -0.00000000000E+00 -0.29508310042E+02  0.29508310042E+02  0.00000000000E+00 0.  1.
         25    2    1    2    0    0  0.38795721919E+02 -0.61760984416E+02  0.32717781138E+03  0.35778919914E+03  0.12509301950E+03 0.  0.
          5    1    3    3  502    0 -0.43172948757E+02 -0.38083315541E+02  0.10614647010E+03  0.12082544410E+03  0.41800000000E+01 0. -1.
         -5    1    3    3    0  502  0.81968670676E+02 -0.23677668875E+02  0.22103134128E+03  0.23696375505E+03  0.41800000000E+01 0. -1.
        -11    1    1    2    0    0 -0.46160971058E+02  0.14049775404E+02  0.18323948272E+03  0.18948598752E+03  0.00000000000E+00 0.  1.
         11    1    1    2    0    0  0.73652491384E+01  0.47711209012E+02  0.41509539581E+02  0.63668267107E+02  0.00000000000E+00 0. -1.
</event>
<event>
 7    1  0.2749315E-009  0.9853099E+02  0.7561462E-02  0.1283416E+00
         -2   -1    0    0    0  501 -0.00000000000E+00  0.00000000000E+00  0.18430303124E+02  0.18430303124E+02  0.00000000000E+00 0.  1.
          2   -1    0    0  501    0  0.00000000000E+00 -0.00000000000E+00 -0.62281044241E+03  0.62281044241E+03  0.00000000000E+00 0. -1.
         25    2    1    2    0    0  0.12759744678E+01 -0.11167931930E+02 -0.36412466844E+03  0.38517489334E+03  0.12508626413E+03 0.  0.
          5    1    3    3  502    0 -0.17578775842E+02 -0.59954088083E+02 -0.11869695351E+03  0.13420113714E+03  0.41800000000E+01 0. -1.
         -5    1    3    3    0  502  0.18854750310E+02  0.48786156154E+02 -0.24542771493E+03  0.25097375619E+03  0.41800000000E+01 0. -1.
        -11    1    1    2    0    0 -0.33364436297E+02  0.29914504800E+02 -0.17806972689E+03  0.18362159689E+03  0.00000000000E+00 0. -1.
         11    1    1    2    0    0  0.32088461829E+02 -0.18746572870E+02 -0.62185743948E+02  0.72444255310E+02  0.00000000000E+00 0.  1.
</event>
<event>
 7    1  0.2749315E-009  0.8365055E+02  0.7561462E-02  0.1319000E+00
          2   -1    0    0  501    0  0.00000000000E+00  0.00000000000E+00  0.78590679645E+02  0.78590679645E+02  0.00000000000E+00 0. -1.
         -2   -1    0    0    0  501 -0.00000000000E+00 -0.00000000000E+00 -0.19709730581E+03  0.19709730581E+03  0.00000000000E+00 0.  1.
         25    2    1    2    0    0  0.24230222269E+02 -0.53744133089E+02 -0.76965053079E+02  0.15826418682E+03  0.12509355667E+03 0.  0.
          5    1    3    3  502    0  0.17352229498E+02 -0.10793743079E+02 -0.10453509784E+03  0.10659579653E+03  0.41800000000E+01 0. -1.
         -5    1    3    3    0  502  0.68779927709E+01 -0.42950390010E+02  0.27570044761E+02  0.51668390286E+02  0.41800000000E+01 0. -1.
        -11    1    1    2    0    0 -0.23441049996E+02 -0.18890688402E+02  0.58817355031E+01  0.30674675968E+02  0.00000000000E+00 0.  1.
         11    1    1    2    0    0 -0.78917227296E+00  0.72634821491E+02 -0.47423308587E+02  0.86749122666E+02  0.00000000000E+00 0. -1.
</event>
<event>
 7    1  0.2749315E-009  0.1282502E+03  0.7561462E-02  0.1230075E+00
          3   -1    0    0  501    0  0.00000000000E+00  0.00000000000E+00  0.17851097254E+03  0.17851097254E+03  0.00000000000E+00 0. -1.
         -3   -1    0    0    0  501 -0.00000000000E+00 -0.00000000000E+00 -0.95650241090E+02  0.95650241090E+02  0.00000000000E+00 0.  1.
         25    2    1    2    0    0 -0.44101302531E+02 -0.54189744272E+02  0.29950584863E+02  0.14637636984E+03  0.12509017086E+03 0.  0.
          5    1    3    3  502    0 -0.75048744416E+02 -0.72270286535E+02  0.90236362096E+01  0.10466234645E+03  0.41800000000E+01 0. -1.
         -5    1    3    3    0  502  0.30947441885E+02  0.18080542263E+02  0.20926948653E+02  0.41714023394E+02  0.41800000000E+01 0. -1.
        -11    1    1    2    0    0 -0.28622665810E+02  0.70526852646E+01  0.10431513836E+02  0.31270015165E+02  0.00000000000E+00 0. -1.
         11    1    1    2    0    0  0.72723968341E+02  0.47137059007E+02  0.42478632750E+02  0.96514828619E+02  0.00000000000E+00 0.  1.
</event>
<event>
 7    1  0.2749315E-009  0.7934455E+02  0.7561462E-02  0.1330922E+00
          1   -1    0    0  501    0  0.00000000000E+00  0.00000000000E+00  0.78307258152E+03  0.78307258152E+03  0.00000000000E+00 0. -1.
         -1   -1    0    0    0  501 -0.00000000000E+00 -0.00000000000E+00 -0.16209723480E+02  0.16209723480E+02  0.00000000000E+00 0.  1.
         25    2    1    2    0    0 -0.16868993157E+02  0.86980092624E+01  0.53112435770E+03  0.54598586565E+03  0.12508902367E+03 0.  0.
          5    1    3    3  502    0 -0.34029962422E+02 -0.14244315663E+02  0.42209179022E+02  0.56214109127E+02  0.41800000000E+01 0. -1.
         -5    1    3    3    0  502  0.17160969265E+02  0.22942324925E+02  0.48891517868E+03  0.48977175652E+03  0.41800000000E+01 0. -1.
        -11    1    1    2    0    0  0.42886239155E+02 -0.35191029103E+02  0.14545592255E+03  0.15567614924E+03  0.00000000000E+00 0.  1.
         11    1    1    2    0    0 -0.26017245998E+02  0.26493019840E+02  0.90282577793E+02  0.97620290117E+02  0.00000000000E+00 0. -1.
</event>
<event>
 7    1  0.2749315E-009  0.8875757E+02  0.7561462E-02  0.1305889E+00
          2   -1    0    0  501    0  0.00000000000E+00  0.00000000000E+00  0.35682017710E+03  0.35682017710E+03  0.00000000000E+00 0. -1.
         -2   -1    0    0    0  501 -0.00000000000E+00 -0.00000000000E+00 -0.37632915372E+02  0.37632915372E+02  0.00000000000E+00 0.  1.
         25    2    1    2    0    0 -0.27849945782E+02  0.16773341543E+02  0.14082900000E+03  0.19114754618E+03  0.12509041811E+03 0.  0.
          5    1    3    3  502    0 -0.20646872593E+02  0.50192309033E+02  0.93480925300E+01  0.55230611692E+02  0.41800000000E+01 0. -1.
         -5    1    3    3    0  502 -0.72030731891E+01 -0.33418967490E+02  0.13148090747E+03  0.13591693449E+03  0.41800000000E+01 0. -1.
        -11    1    1    2    0    0 -0.24004127010E+02  0.14540628327E+02  0.10225995809E+03  0.10604115717E+03  0.00000000000E+00 0. -1.
         11    1    1    2    0    0  0.51854072792E+02 -0.31313969871E+02  0.76098303630E+02  0.97264389113E+02  0.00000000000E+00 0.  1.
</event>
<event>
 7    1  0.2749315E-009  0.9159756E+02  0.7561462E-02  0.1299028E+00
          1   -1    0    0  501    0  0.00000000000E+00  0.00000000000E+00  0.46483825141E+03  0.46483825141E+03  0.00000000000E+00 0. -1.
         -1   -1    0    0    0  501 -0.00000000000E+00 -0.00000000000E+00 -0.25877717991E+02  0.25877717991E+02  0.00000000000E+00 0.  1.
         25    2    1    2    0    0 -0.66013132879E+01 -0.80492927181E+01  0.26180827859E+03  0.29034353077E+03  0.12508965854E+03 0.  0.
          5    1    3    3  502    0 -0.34220022919E+02  0.48377664177E+02  0.94954705263E+02  0.11200569991E+03  0.41800000000E+01 0. -1.
         -5    1    3    3    0  502  0.27618709631E+02 -0.56426956895E+02  0.16685357333E+03  0.17833783087E+03  0.41800000000E+01 0. -1.
        -11    1    1    2    0    0 -0.17656583414E+02 -0.18013166326E+02  0.65029533155E+01  0.26048368486E+02  0.00000000000E+00 0.  1.
         11    1    1    2    0    0  0.24257896702E+02  0.26062459044E+02  0.17064930151E+03  0.17432407014E+03  0.00000000000E+00 0. -1.
</event>
<event>
 7    1  0.2749315E-009  0.1173199E+03  0.7561462E-02  0.1247585E+00
          1   -1    0    0  501    0  0.00000000000E+00  0.00000000000E+00  0.40969134201E+03  0.40969134201E+03  0.00000000000E+00 0. -1.
         -1   -1    0    0    0  501 -0.00000000000E+00 -0.00000000000E+00 -0.39032149715E+02  0.39032149715E+02  0.00000000000E+00 0.  1.
         25    2    1    2    0    0 -0.25346606342E+02 -0.55428395554E+02  0.16788540184E+03  0.21805555249E+03  0.12509179962E+03 0.  0.
          5    1    3    3  502    0 -0.24542447314E+02 -0.89277311020E+02  0.15687248631E+03  0.18220652937E+03  0.41800000000E+01 0.  1.
         -5    1    3    3    0  502 -0.80415902809E+00  0.33848915466E+02  0.11012915529E+02  0.35849023117E+02  0.41800000000E+01 0.  1.
        -11    1    1    2    0    0  0.57254367720E+02  0.21217120119E+02  0.13662498418E+03  0.14964830474E+03  0.00000000000E+00 0.  1.
         11    1    1    2    0    0 -0.31907761378E+02  0.34211275435E+02  0.66148806278E+02  0.81019634504E+02  0.00000000000E+00 0. -1.
</event>
<event>
 7    1  0.2749315E-009  0.1536291E+03  0.7561462E-02  0.1196083E+00
          2   -1    0    0  501    0  0.00000000000E+00  0.00000000000E+00  0.17507248680E+04  0.17507248680E+04  0.00000000000E+00 0. -1.
         -2   -1    0    0    0  501 -0.00000000000E+00 -0.00000000000E+00 -0.25338228523E+02  0.25338228523E+02  0.00000000000E+00 0.  1.
         25    2    1    2    0    0  0.46744354908E+02 -0.10801719388E+03  0.14765463253E+04  0.14865024603E+04  0.12509102677E+03 0.  0.
          5    1    3    3  502    0 -0.34600467034E+02 -0.55260721375E+02  0.84749438593E+03  0.85000890950E+03  0.41800000000E+01 0. -1.
         -5    1    3    3    0  502  0.81344821942E+02 -0.52756472501E+02  0.62905193937E+03  0.63649355085E+03  0.41800000000E+01 0. -1.
        -11    1    1    2    0    0 -0.90915020663E+01 -0.14274161934E+02  0.13362412052E+02  0.21562958159E+02  0.00000000000E+00 0. -1.
         11    1    1    2    0    0 -0.37652852841E+02  0.12229135581E+03  0.23547790215E+03  0.26799767803E+03  0.00000000000E+00 0.  1.
</event>
<event>
 7    1  0.2749315E-009  0.1534268E+03  0.7561462E-02  0.1196324E+00
         -1   -1    0    0    0  501 -0.00000000000E+00  0.00000000000E+00  0.11482597339E+03  0.11482597339E+03  0.00000000000E+00 0.  1.
          1   -1    0    0  501    0  0.00000000000E+00 -0.00000000000E+00 -0.20680684421E+03  0.20680684421E+03  0.00000000000E+00 0. -1.
         25    2    1    2    0    0  0.74513665113E+02  0.79753596550E+02 -0.49178917647E+02  0.17314478438E+03  0.12509047911E+03 0.  0.
          5    1    3    3  502    0  0.65266132203E+02 -0.16972103062E+02 -0.30407302855E+02  0.74093162721E+02  0.41800000000E+01 0.  1.
         -5    1    3    3    0  502  0.92475329104E+01  0.96725699613E+02 -0.18771614791E+02  0.99051621655E+02  0.41800000000E+01 0.  1.
        -11    1    1    2    0    0  0.15141488501E+02 -0.42189368196E+02 -0.16743536522E+02  0.47849278762E+02  0.00000000000E+00 0. -1.
         11    1    1    2    0    0 -0.89655153614E+02 -0.37564228355E+02 -0.26058416658E+02  0.10063875446E+03  0.00000000000E+00 0.  1.
</event>
<event>
 7    1  0.2749315E-009  0.9857800E+02  0.7561462E-02  0.1283315E+00
         -1   -1    0    0    0  501 -0.00000000000E+00  0.00000000000E+00  0.33774733785E+02  0.33774733785E+02  0.00000000000E+00 0.  1.
          1   -1    0    0  501    0  0.00000000000E+00 -0.00000000000E+00 -0.41468295026E+03  0.41468295026E+03  0.00000000000E+00 0. -1.
         25    2    1    2    0    0 -0.39583372033E+02 -0.27235858168E+02 -0.25102097482E+03  0.28454868383E+03  0.12509112022E+03 0.  0.
          5    1    3    3  502    0 -0.18921057284E+02 -0.73462673767E+02 -0.19306369301E+03  0.20747489681E+03  0.41800000000E+01 0. -1.
         -5    1    3    3    0  502 -0.20662314749E+02  0.46226815599E+02 -0.57957281809E+02  0.77073787022E+02  0.41800000000E+01 0. -1.
        -11    1    1    2    0    0  0.50106264984E+02  0.11442681952E+02 -0.13483363961E+03  0.14429720417E+03  0.00000000000E+00 0. -1.
         11    1    1    2    0    0 -0.10522892951E+02  0.15793176216E+02  0.49463979643E+01  0.19611796039E+02  0.00000000000E+00 0.  1.
</event>
<event>
 7    1  0.2749315E-009  0.1632295E+03  0.7561462E-02  0.1185098E+00
         -1   -1    0    0    0  501 -0.00000000000E+00  0.00000000000E+00  0.29287176501E+02  0.29287176501E+02  0.00000000000E+00 0.  1.
          1   -1    0    0  501    0  0.00000000000E+00 -0.00000000000E+00 -0.10295106619E+04  0.10295106619E+04  0.00000000000E+00 0. -1.
         25    2    1    2    0    0 -0.12740992509E+03  0.40108077513E+02 -0.47456739846E+03  0.50862770903E+03  0.12508390712E+03 0.  0.
          5    1    3    3  502    0 -0.87519243286E+02  0.84973250003E+02 -0.33899461727E+03  0.36029834040E+03  0.41800000000E+01 0. -1.
         -5    1    3    3    0  502 -0.39890681799E+02 -0.44865172490E+02 -0.13557278119E+03  0.14832936862E+03  0.41800000000E+01 0. -1.
        -11    1    1    2    0    0  0.57581716198E+02 -0.46625570170E+02 -0.39492993958E+03  0.40181992859E+03  0.00000000000E+00 0. -1.
         11    1    1    2    0    0  0.69828208887E+02  0.65174926568E+01 -0.13072614731E+03  0.14835020074E+03  0.00000000000E+00 0.  1.
</event>
<event>
 7    1  0.2749315E-009  0.9009530E+02  0.7561462E-02  0.1302621E+00
          4   -1    0    0  501    0  0.00000000000E+00  0.00000000000E+00  0.37233060605E+03  0.37233060605E+03  0.00000000000E+00 0. -1.
         -4   -1    0    0    0  501 -0.00000000000E+00 -0.00000000000E+00 -0.36855963125E+02  0.36855963125E+02  0.00000000000E+00 0.  1.
         25    2    1    2    0    0 -0.30221512167E+02 -0.99987339720E+01  0.22902771247E+03  0.26289654178E+03  0.12509030386E+03 0.  0.
          5    1    3    3  502    0  0.31093836461E+02  0.13599266550E+01  0.18197834153E+03  0.18466798654E+03  0.41800000000E+01 0.  1.
         -5    1    3    3    0  502 -0.61315348629E+02 -0.11358660627E+02  0.47049370946E+02  0.78228555241E+02  0.41800000000E+01 0.  1.
        -11    1    1    2    0    0  0.35817727846E+02 -0.29496144065E+02  0.18932803412E+02  0.50113702595E+02  0.00000000000E+00 0.  1.
         11    1    1    2    0    0 -0.55962156789E+01  0.39494878037E+02  0.87514127037E+02  0.96176324801E+02  0.00000000000E+00 0. -1.
</event>
<event>
 7    1  0.2749315E-009  0.1116411E+03  0.7561462E-02  0.1257561E+00
          2   -1    0    0  501    0  0.00000000000E+00  0.00000000000E+00  0.51632150186E+03  0.51632150186E+03  0.00000000000E+00 0.  1.
         -2   -1    0    0    0  501 -0.00000000000E+00 -0.00000000000E+00 -0.34025749187E+02  0.34025749187E+02  0.00000000000E+00 0. -1.
         25    2    1    2    0    0  0.65272742644E+02  0.10288513209E+02  0.34317282774E+03  0.37118711289E+03  0.12508356662E+03 0.  0.
          5    1    3    3  502    0  0.85032681819E+01 -0.48066834006E+02  0.20487136981E+03  0.21064775496E+03  0.41800000000E+01 0. -1.
         -5    1    3    3    0  502  0.56769474462E+02  0.58355347216E+02  0.13830145794E+03  0.16053935794E+03  0.41800000000E+01 0. -1.
        -11    1    1    2    0    0 -0.39841019824E+02 -0.38070116725E+02  0.27966828860E+02  0.61796311901E+02  0.00000000000E+00 0. -1.
         11    1    1    2    0    0 -0.25431722820E+02  0.27781603516E+02  0.11115609607E+03  0.11736382626E+03  0.00000000000E+00 0.  1.
</event>
<event>
 7    1  0.2749315E-009  0.1899196E+03  0.7561462E-02  0.1158534E+00
          3   -1    0    0  501    0  0.00000000000E+00  0.00000000000E+00  0.21413404008E+03  0.21413404008E+03  0.00000000000E+00 0. -1.
         -3   -1    0    0    0  501 -0.00000000000E+00 -0.00000000000E+00 -0.22948862328E+03  0.22948862328E+03  0.00000000000E+00 0.  1.
         25    2    1    2    0    0 -0.14174372408E+03 -0.94767060872E+02  0.83436383295E+02  0.22733526096E+03  0.12509041402E+03 0.  0.
          5    1    3    3  502    0 -0.13237973322E+03 -0.10955841563E+03  0.34662542035E+02  0.17534652669E+03  0.41800000000E+01 0.  1.
         -5    1    3    3    0  502 -0.93639908596E+01  0.14791354755E+02  0.48773841260E+02  0.51988734275E+02  0.41800000000E+01 0.  1.
        -11    1    1    2    0    0  0.13320309205E+03  0.46727158349E+02 -0.57706291423E+02  0.15250084304E+03  0.00000000000E+00 0. -1.
         11    1    1    2    0    0  0.85406320279E+01  0.48039902523E+02 -0.41084675068E+02  0.63786559362E+02  0.00000000000E+00 0.  1.
</event>
<event>
 7    1  0.2749315E-009  0.7514356E+02  0.7561462E-02  0.1343427E+00
          1   -1    0    0  501    0  0.00000000000E+00  0.00000000000E+00  0.86456453157E+02  0.86456453157E+02  0.00000000000E+00 0. -1.
         -1   -1    0    0    0  501 -0.00000000000E+00 -0.00000000000E+00 -0.18671906770E+03  0.18671906770E+03  0.00000000000E+00 0.  1.
         25    2    1    2    0    0 -0.26479345654E+02 -0.25460849805E+02  0.31593449611E+01  0.13040983138E+03  0.12508929626E+03 0.  0.
          5    1    3    3  502    0  0.13471418776E+02 -0.94140338147E+01  0.58077389065E+02  0.60502550996E+02  0.41800000000E+01 0.  1.
         -5    1    3    3    0  502 -0.39950764430E+02 -0.16046815990E+02 -0.54918044104E+02  0.69907280380E+02  0.41800000000E+01 0.  1.
        -11    1    1    2    0    0 -0.24956511809E+02 -0.10746477126E+02 -0.61330394309E+02  0.67080038151E+02  0.00000000000E+00 0.  1.
         11    1    1    2    0    0  0.51435857463E+02  0.36207326931E+02 -0.42091565195E+02  0.75685651328E+02  0.00000000000E+00 0. -1.
</event>
<event>
 7    1  0.2749315E-009  0.1123766E+03  0.7561462E-02  0.1256231E+00
          1   -1    0    0  501    0  0.00000000000E+00  0.00000000000E+00  0.15792225976E+03  0.15792225976E+03  0.00000000000E+00 0. -1.
         -1   -1    0    0    0  501 -0.00000000000E+00 -0.00000000000E+00 -0.93889753694E+02  0.93889753694E+02  0.00000000000E+00 0.  1.
         25    2    1    2    0    0 -0.15815363549E+02  0.40142097724E+02  0.67846198633E+02  0.14870438543E+03  0.12509346044E+03 0.  0.
          5    1    3    3  502    0  0.26998529049E+02  0.66736985930E+02  0.66527152840E+02  0.98112590052E+02  0.41800000000E+01 0. -1.
         -5    1    3    3    0  502 -0.42813892598E+02 -0.26594888205E+02  0.13190457931E+01  0.50591795381E+02  0.41800000000E+01 0. -1.
        -11    1    1    2    0    0 -0.33535424051E+02  0.65025450801E+01 -0.79599242306E+01  0.35075178582E+02  0.00000000000E+00 0.  1.
         11    1    1    2    0    0  0.49350787600E+02 -0.46644642804E+02  0.41462316595E+01  0.68032449435E+02  0.00000000000E+00 0. -1.
</event>
<event>
 7    1  0.2749315E-009  0.1670394E+03  0.7561462E-02  0.1180971E+00
         -2   -1    0    0    0  501 -0.00000000000E+00  0.00000000000E+00  0.15283419298E+04  0.15283419298E+04  0.00000000000E+00 0.  1.
          2   -1    0    0  501    0  0.00000000000E+00 -0.00000000000E+00 -0.22763671357E+02  0.22763671357E+02  0.00000000000E+00 0. -1.
         25    2    1    2    0    0 -0.96082971310E+02  0.10911790622E+03  0.96978989810E+03  0.98857389057E+03  0.12508891171E+03 0.  0.
          5    1    3    3  502    0 -0.15664254420E+02 -0.20389633956E+02  0.32298952042E+03  0.32403828283E+03  0.41800000000E+01 0. -1.
         -5    1    3    3    0  502 -0.80418716890E+02  0.12950754018E+03  0.64680037768E+03  0.66453560774E+03  0.41800000000E+01 0. -1.
        -11    1    1    2    0    0  0.42899015250E+01 -0.40992151576E+02  0.57333444958E+02  0.70610789945E+02  0.00000000000E+00 0. -1.
         11    1    1    2    0    0  0.91793069785E+02 -0.68125754646E+02  0.47845491539E+03  0.49192092064E+03  0.00000000000E+00 0.  1.
</event>
<event>
 7    1  0.3368817E-009  0.3445601E+03  0.7561462E-02  0.1064870E+00
         -2   -1    0    0    0  501 -0.00000000000E+00  0.00000000000E+00  0.11512630879E+03  0.11512630879E+03  0.00000000000E+00 0.  1.
          2   -1    0    0  501    0  0.00000000000E+00 -0.00000000000E+00 -0.11678806099E+04  0.11678806099E+04  0.00000000000E+00 0. -1.
         25    2    1    2    0    0 -0.25099868750E+02 -0.33749281499E+03 -0.68976820993E+03  0.77843333009E+03  0.12508741896E+03 0.  0.
          5    1    3    3  502    0  0.54511148284E+01 -0.27614509876E+03 -0.44104995290E+03  0.52041172506E+03  0.41800000000E+01 0.  1.
         -5    1    3    3    0  502 -0.30550983578E+02 -0.61347716231E+02 -0.24871825703E+03  0.25802160503E+03  0.41800000000E+01 0.  1.
        -11    1    1    2    0    0 -0.15553891874E+02  0.27604736384E+02 -0.10271604630E+02  0.33308420631E+02  0.00000000000E+00 0. -1.
         11    1    1    2    0    0  0.40653760624E+02  0.30988807861E+03 -0.35271448652E+03  0.47126516795E+03  0.00000000000E+00 0.  1.
</event>
<event>
 7    1  0.2749315E-009  0.8664352E+02  0.7561462E-02  0.1311190E+00
         -2   -1    0    0    0  501 -0.00000000000E+00  0.00000000000E+00  0.47284651383E+02  0.47284651383E+02  0.00000000000E+00 0.  1.
          2   -1    0    0  501    0  0.00000000000E+00 -0.00000000000E+00 -0.32331283859E+03  0.32331283859E+03  0.00000000000E+00 0. -1.
         25    2    1    2    0    0 -0.59012161686E+02 -0.60814948576E+01 -0.17709478390E+03  0.22478657054E+03  0.12508804901E+03 0.  0.
          5    1    3    3  502    0 -0.17782991008E+02  0.16575709819E+02  0.13711550904E+02  0.28221763825E+02  0.41800000000E+01 0. -1.
         -5    1    3    3    0  502 -0.41229170678E+02 -0.22657204676E+02 -0.19080633480E+03  0.19656480671E+03  0.41800000000E+01 0. -1.
        -11    1    1    2    0    0  0.67000737407E+01 -0.34523950858E+02 -0.13391261639E+02  0.37631370680E+02  0.00000000000E+00 0.  1.
         11    1    1    2    0    0  0.52312087946E+02  0.40605445716E+02 -0.85542141670E+02  0.10817954875E+03  0.00000000000E+00 0. -1.
</event>
<event>
 7    1  0.2749315E-009  0.1396619E+03  0.7561462E-02  0.1213785E+00
          1   -1    0    0  501    0  0.00000000000E+00  0.00000000000E+00  0.41519545944E+03  0.41519545944E+03  0.00000000000E+00 0.  1.
         -1   -1    0    0    0  501 -0.00000000000E+00 -0.00000000000E+00 -0.13613752275E+03  0.13613752275E+03  0.00000000000E+00 0. -1.
         25    2    1    2    0    0 -0.95096976982E+02  0.52651183543E+02 -0.69146839388E+02  0.17956588236E+03  0.12508812314E+03 0.  0.
          5    1    3    3  502    0  0.57664101533E+01  0.63724801571E+02 -0.28721389575E+02  0.70260176775E+02  0.41800000000E+01 0.  1.
         -5    1    3    3    0  502 -0.10086338714E+03 -0.11073618028E+02 -0.40425449813E+02  0.10930570558E+03  0.41800000000E+01 0.  1.
        -11    1    1    2    0    0  0.50838762018E+02 -0.92774199051E+01  0.71575482466E+02  0.88281934357E+02  0.00000000000E+00 0. -1.
         11    1    1    2    0    0  0.44258214965E+02 -0.43373763638E+02  0.27662929361E+03  0.28348516548E+03  0.00000000000E+00 0.  1.
</event>
<event>
 7    1  0.2749315E-009  0.1348982E+03  0.7561462E-02  0.1220363E+00
         -1   -1    0    0    0  501 -0.00000000000E+00  0.00000000000E+00  0.91978474287E+02  0.91978474287E+02  0.00000000000E+00 0.  1.
          1   -1    0    0  501    0  0.00000000000E+00 -0.00000000000E+00 -0.22374115209E+03  0.22374115209E+03  0.00000000000E+00 0. -1.
         25    2    1    2    0    0  0.12749455357E+02  0.84736047014E+02 -0.28134943847E+02  0.15421352587E+03  0.12508992853E+03 0.  0.
          5    1    3    3  502    0  0.20580373988E+02 -0.27355646089E+02 -0.23390245246E+02  0.41670842793E+02  0.41800000000E+01 0.  1.
         -5    1    3    3    0  502 -0.78309186310E+01  0.11209169310E+03 -0.47446986012E+01  0.11254268308E+03  0.41800000000E+01 0.  1.
        -11    1    1    2    0    0  0.35148587099E+02 -0.58518259256E+02 -0.47251062689E+02  0.83020917645E+02  0.00000000000E+00 0.  1.
         11    1    1    2    0    0 -0.47898042456E+02 -0.26217787758E+02 -0.56376671272E+02  0.78485182867E+02  0.00000000000E+00 0. -1.
</event>
<event>
 7    1  0.2749315E-009  0.1001004E+03  0.7561462E-02  0.1280085E+00
         -1   -1    0    0    0  501 -0.00000000000E+00  0.00000000000E+00  0.12649009893E+03  0.12649009893E+03  0.00000000000E+00 0.  1.
          1   -1    0    0  501    0  0.00000000000E+00 -0.00000000000E+00 -0.12941806402E+03  0.12941806402E+03  0.00000000000E+00 0. -1.
         25    2    1    2    0    0  0.23862180414E+02  0.38444580669E+02  0.48900102027E+02  0.14171901702E+03  0.12508265415E+03 0.  0.
          5    1    3    3  502    0  0.67855569972E+02  0.14543444252E+01  0.30376055441E+01  0.68067561595E+02  0.41800000000E+01 0. -1.
         -5    1    3    3    0  502 -0.43993389559E+02  0.36990236244E+02  0.45862496483E+02  0.73651455423E+02  0.41800000000E+01 0. -1.
        -11    1    1    2    0    0 -0.11417540690E+02 -0.53690713513E+02 -0.68930380783E+02  0.88116118548E+02  0.00000000000E+00 0. -1.
         11    1    1    2    0    0 -0.12444639724E+02  0.15246132844E+02  0.17102313665E+02  0.26073027389E+02  0.00000000000E+00 0.  1.
</event>
<event>
 7    1  0.2749315E-009  0.8262682E+02  0.7561462E-02  0.1321758E+00
          1   -1    0    0  501    0  0.00000000000E+00  0.00000000000E+00  0.27160193406E+02  0.27160193406E+02  0.00000000000E+00 0. -1.
         -1   -1    0    0    0  501 -0.00000000000E+00 -0.00000000000E+00 -0.47311693405E+03  0.47311693405E+03  0.00000000000E+00 0.  1.
         25    2    1    2    0    0 -0.25491167371E+02  0.19799626222E+02 -0.24779601196E+03  0.27944960545E+03  0.12508954245E+03 0.  0.
          5    1    3    3  502    0 -0.39135247602E+02  0.30700936689E+02 -0.24809806685E+02  0.55741492859E+02  0.41800000000E+01 0.  1.
         -5    1    3    3    0  502  0.13644080231E+02 -0.10901310467E+02 -0.22298620528E+03  0.22370811259E+03  0.41800000000E+01 0.  1.
        -11    1    1    2    0    0 -0.33353700534E+02  0.46154078958E+01 -0.64504014240E+02  0.72763584177E+02  0.00000000000E+00 0.  1.
         11    1    1    2    0    0  0.58844867905E+02 -0.24415034118E+02 -0.13365671444E+03  0.14806393783E+03  0.00000000000E+00 0. -1.
</event>
<event>
 7    1  0.2749315E-009  0.1367526E+03  0.7561462E-02  0.1217767E+00
         -1   -1    0    0    0  501 -0.00000000000E+00  0.00000000000E+00  0.80424782215E+03  0.80424782215E+03  0.00000000000E+00 0.  1.
          1   -1    0    0  501    0  0.00000000000E+00 -0.00000000000E+00 -0.37471248425E+02  0.37471248425E+02  0.00000000000E+00 0. -1.
         25    2    1    2    0    0 -0.52202459631E+02  0.10417171603E+03  0.57190929748E+03  0.59691330707E+03  0.12509359854E+03 0.  0.
          5    1    3    3  502    0  0.14556694645E+02  0.70555678858E+01  0.43939244756E+01  0.17275918774E+02  0.41800000000E+01 0.  1.
         -5    1    3    3    0  502 -0.66759154276E+02  0.97116148143E+02  0.56751537301E+03  0.57963738829E+03  0.41800000000E+01 0.  1.
        -11    1    1    2    0    0  0.64437097793E+02 -0.45354592931E+02  0.15131721103E+03  0.17060503224E+03  0.00000000000E+00 0.  1.
         11    1    1    2    0    0 -0.12234638162E+02 -0.58817123098E+02  0.43550065215E+02  0.74200731268E+02  0.00000000000E+00 0. -1.
</event>
<event>
 7    1  0.2749315E-009  0.1957613E+03  0.7561462E-02  0.1153365E+00
         -1   -1    0    0    0  501 -0.00000000000E+00  0.00000000000E+00  0.43610169887E+03  0.43610169887E+03  0.00000000000E+00 0.  1.
          1   -1    0    0  501    0  0.00000000000E+00 -0.00000000000E+00 -0.11301835154E+03  0.11301835154E+03  0.00000000000E+00 0. -1.
         25    2    1    2    0    0  0.12492296438E+03  0.11416199834E+03  0.28277362771E+03  0.35248663625E+03  0.12508874974E+03 0.  0.
          5    1    3    3  502    0  0.14072884050E+03  0.58630450309E+02  0.20812481610E+03  0.25802237835E+03  0.41800000000E+01 0. -1.
         -5    1    3    3    0  502 -0.15805876115E+02  0.55531548029E+02  0.74648811608E+02  0.94464257901E+02  0.41800000000E+01 0. -1.
        -11    1    1    2    0    0  0.73139370464E+01 -0.11860146457E+02 -0.15056767627E+02  0.20514945783E+02  0.00000000000E+00 0. -1.
         11    1    1    2    0    0 -0.13223690143E+03 -0.10230185188E+03  0.55366487250E+02  0.17611846839E+03  0.00000000000E+00 0.  1.
</event>
<event>
 7    1  0.2749315E-009  0.2185808E+03  0.7561462E-02  0.1134946E+00
          2   -1    0    0  501    0  0.00000000000E+00  0.00000000000E+00  0.51728715292E+03  0.51728715292E+03  0.00000000000E+00 0. -1.
         -2   -1    0    0    0  501 -0.00000000000E+00 -0.00000000000E+00 -0.10697095722E+03  0.10697095722E+03  0.00000000000E+00 0.  1.
         25    2    1    2    0    0 -0.38745238852E+02  0.19302642519E+03  0.29707612639E+03  0.37770304121E+03  0.12507984694E+03 0.  0.
          5    1    3    3  502    0 -0.69581887261E+02  0.94918443978E+02  0.96469286101E+02  0.15223319481E+03  0.41800000000E+01 0.  1.
         -5    1    3    3    0  502  0.30836648409E+02  0.98107981209E+02  0.20060684029E+03  0.22546984639E+03  0.41800000000E+01 0.  1.
        -11    1    1    2    0    0 -0.18997339809E+02 -0.48099866764E+01  0.22313748155E+02  0.29697445149E+02  0.00000000000E+00 0.  1.
         11    1    1    2    0    0  0.57742578661E+02 -0.18821643851E+03  0.90926321157E+02  0.21685762379E+03  0.00000000000E+00 0. -1.
</event>
<event>
 7    1  0.2749315E-009  0.1012898E+03  0.7561462E-02  0.1277607E+00
         -2   -1    0    0    0  501 -0.00000000000E+00  0.00000000000E+00  0.22557800674E+02  0.22557800674E+02  0.00000000000E+00 0.  1.
          2   -1    0    0  501    0  0.00000000000E+00 -0.00000000000E+00 -0.71776096219E+03  0.71776096219E+03  0.00000000000E+00 0. -1.
         25    2    1    2    0    0  0.39456866536E+02  0.22371669234E+02 -0.53171048577E+03  0.54810596977E+03  0.12508707975E+03 0.  0.
          5    1    3    3  502    0  0.71409030582E+02  0.50290912803E+02 -0.40767207604E+03  0.41694414439E+03  0.41800000000E+01 0. -1.
         -5    1    3    3    0  502 -0.31952164045E+02 -0.27919243568E+02 -0.12403840973E+03  0.13116182538E+03  0.41800000000E+01 0. -1.
        -11    1    1    2    0    0  0.82333609166E+01 -0.23394208390E+02 -0.13368106712E+03  0.13596214519E+03  0.00000000000E+00 0. -1.
         11    1    1    2    0    0 -0.47690227453E+02  0.10225391561E+01 -0.29811608629E+02  0.56250647906E+02  0.00000000000E+00 0.  1.
</event>
<event>
 7    1  0.2750977E-009  0.7924082E+02  0.7561462E-02  0.1331220E+00
          3   -1    0    0  501    0  0.00000000000E+00  0.00000000000E+00  0.14344924222E+03  0.14344924222E+03  0.00000000000E+00 0. -1.
         -3   -1    0    0    0  501 -0.00000000000E+00 -0.00000000000E+00 -0.10498970579E+03  0.10498970579E+03  0.00000000000E+00 0.  1.
         25    2    1    2    0    0  0.43363497331E+02 -0.13488481018E+02 -0.14309510300E+02  0.13384448293E+03  0.12508897436E+03 0.  0.
          5    1    3    3  502    0 -0.28076649282E+02 -0.27829837877E+02  0.28790595671E+02  0.49083285447E+02  0.41800000000E+01 0.  1.
         -5    1    3    3    0  502  0.71440146612E+02  0.14341356859E+02 -0.43100105971E+02  0.84761197486E+02  0.41800000000E+01 0.  1.
        -11    1    1    2    0    0 -0.91366384468E+01  0.52568626507E+01 -0.26142090464E+02  0.28187260613E+02  0.00000000000E+00 0.  1.
         11    1    1    2    0    0 -0.34226858884E+02  0.82316183670E+01  0.78911137196E+02  0.86407204465E+02  0.00000000000E+00 0. -1.
</event>
<event>
 7    1  0.2749315E-009  0.1252028E+03  0.7561462E-02  0.1234753E+00
         -1   -1    0    0    0  501 -0.00000000000E+00  0.00000000000E+00  0.59994746089E+02  0.59994746089E+02  0.00000000000E+00 0.  1.
          1   -1    0    0  501    0  0.00000000000E+00 -0.00000000000E+00 -0.59828145355E+03  0.59828145355E+03  0.00000000000E+00 0. -1.
         25    2    1    2    0    0 -0.84502688680E+02  0.42270588185E+02 -0.70199416595E+02  0.17175628419E+03  0.12507899923E+03 0.  0.
          5    1    3    3  502    0 -0.46947414229E+01 -0.26489424783E+02 -0.59938435519E+02  0.65831745191E+02  0.41800000000E+01 0.  1.
         -5    1    3    3    0  502 -0.79807947257E+02  0.68760012968E+02 -0.10260981075E+02  0.10592453900E+03  0.41800000000E+01 0.  1.
        -11    1    1    2    0    0  0.48999055468E+02 -0.60492333121E+02 -0.40078802375E+03  0.40827842189E+03  0.00000000000E+00 0. -1.
         11    1    1    2    0    0  0.35503633212E+02  0.18221744936E+02 -0.67299267117E+02  0.78241493558E+02  0.00000000000E+00 0.  1.
</event>
<event>
 7    1  0.2749315E-009  0.2019327E+03  0.7561462E-02  0.1148119E+00
          2   -1    0    0  501    0  0.00000000000E+00  0.00000000000E+00  0.10058092682E+04  0.10058092682E+04  0.00000000000E+00 0. -1.
         -2   -1    0    0    0  501 -0.00000000000E+00 -0.00000000000E+00 -0.47714326996E+02  0.47714326996E+02  0.00000000000E+00 0.  1.
         25    2    1    2    0    0  0.18450261270E+03  0.74825796757E+01  0.57368457329E+03  0.61551298168E+03  0.12508012588E+03 0.  0.
          5    1    3    3  502    0 -0.12750768550E+02 -0.67372158698E+01  0.97767466120E+01  0.17917291944E+02  0.41800000000E+01 0. -1.
         -5    1    3    3    0  502  0.19725338125E+03  0.14219795546E+02  0.56390782668E+03  0.59759568973E+03  0.41800000000E+01 0. -1.
        -11    1    1    2    0    0 -0.10389131721E+03  0.20146145222E+02  0.11896677684E+03  0.15922426621E+03  0.00000000000E+00 0.  1.
         11    1    1    2    0    0 -0.80611295488E+02 -0.27628724898E+02  0.26544359106E+03  0.27878634729E+03  0.00000000000E+00 0. -1.
</event>
<event>
 7    1  0.2749315E-009  0.2079003E+03  0.7561462E-02  0.1143240E+00
         -1   -1    0    0    0  501 -0.00000000000E+00  0.00000000000E+00  0.18511508431E+03  0.18511508431E+03  0.00000000000E+00 0.  1.
          1   -1    0    0  501    0  0.00000000000E+00 -0.00000000000E+00 -0.31713271280E+03  0.31713271280E+03  0.00000000000E+00 0. -1.
         25    2    1    2    0    0 -0.85234482693E+01 -0.18978171985E+03 -0.17524428613E+03  0.28713579843E+03  0.12508659624E+03 0.  0.
          5    1    3    3  502    0 -0.64224188845E+02 -0.11939457132E+03 -0.12353727172E+03  0.18346318432E+03  0.41800000000E+01 0. -1.
         -5    1    3    3    0  502  0.55700740576E+02 -0.70387148523E+02 -0.51707014408E+02  0.10367261411E+03  0.41800000000E+01 0. -1.
        -11    1    1    2    0    0 -0.97547985178E+00  0.10327433382E+03 -0.22930063951E+02  0.10579379670E+03  0.00000000000E+00 0. -1.
         11    1    1    2    0    0  0.94989281210E+01  0.86507386024E+02  0.66156721591E+02  0.10931820198E+03  0.00000000000E+00 0.  1.
</event>
<event>
 7    1  0.2749315E-009  0.9504702E+02  0.7561462E-02  0.1291070E+00
         -1   -1    0    0    0  501 -0.00000000000E+00  0.00000000000E+00  0.13813946942E+02  0.13813946942E+02  0.00000000000E+00 0.  1.
          1   -1    0    0  501    0  0.00000000000E+00 -0.00000000000E+00 -0.15507804589E+04  0.15507804589E+04  0.00000000000E+00 0. -1.
         25    2    1    2    0    0 -0.47303329942E+02 -0.17424922563E+01 -0.13210624315E+04  0.13278157460E+04  0.12509222942E+03 0.  0.
          5    1    3    3  502    0 -0.68637874166E+02  0.11698675824E+02 -0.12556646963E+04  0.12576006197E+04  0.41800000000E+01 0.  1.
         -5    1    3    3    0  502  0.21334544224E+02 -0.13441168080E+02 -0.65397735212E+02  0.70215126201E+02  0.41800000000E+01 0.  1.
        -11    1    1    2    0    0  0.51842181833E+01 -0.37115236062E+02 -0.60740439535E+02  0.71370987530E+02  0.00000000000E+00 0.  1.
         11    1    1    2    0    0  0.42119111759E+02  0.38857728318E+02 -0.15516364093E+03  0.16540767241E+03  0.00000000000E+00 0. -1.
</event>
<event>
 7    1  0.2749315E-009  0.1368464E+03  0.7561462E-02  0.1217636E+00
          1   -1    0    0  501    0  0.00000000000E+00  0.00000000000E+00  0.90587340214E+02  0.90587340214E+02  0.00000000000E+00 0. -1.
         -1   -1    0    0    0  501 -0.00000000000E+00 -0.00000000000E+00 -0.24409272644E+03  0.24409272644E+03  0.00000000000E+00 0.  1.
         25    2    1    2    0    0 -0.10019038415E+03  0.11970292807E+02 -0.94044597746E+02  0.18620976825E+03  0.12509312706E+03 0.  0.
          5    1    3    3  502    0  0.21311032244E+02  0.30496388923E+02 -0.26861472258E+02  0.46078204442E+02  0.41800000000E+01 0. -1.
         -5    1    3    3    0  502 -0.12150141640E+03 -0.18526096116E+02 -0.67183125488E+02  0.14013156380E+03  0.41800000000E+01 0. -1.
        -11    1    1    2    0    0  0.54018627582E+02 -0.32178716023E+02 -0.72938303487E+02  0.96298899300E+02  0.00000000000E+00 0.  1.
         11    1    1    2    0    0  0.46171756571E+02  0.20208423216E+02  0.13477515012E+02  0.52171399105E+02  0.00000000000E+00 0. -1.
</event>
<event>
 7    1  0.2749315E-009  0.1456691E+03  0.7561462E-02  0.1205898E+00
         -1   -1    0    0    0  501 -0.00000000000E+00  0.00000000000E+00  0.16963485920E+03  0.16963485920E+03  0.00000000000E+00 0.  1.
          1   -1    0    0  501    0  0.00000000000E+00 -0.00000000000E+00 -0.15032227048E+03  0.15032227048E+03  0.00000000000E+00 0. -1.
         25    2    1    2    0    0 -0.97108019030E+02  0.38355136567E+02 -0.45318448990E+02  0.16912529066E+03  0.12509403767E+03 0.  0.
          5    1    3    3  502    0 -0.12578360257E+03  0.43002056064E+02 -0.42590290011E+02  0.13964990765E+03  0.41800000000E+01 0.  1.
         -5    1    3    3    0  502  0.28675583545E+02 -0.46469194968E+01 -0.27281589792E+01  0.29475383015E+02  0.41800000000E+01 0.  1.
        -11    1    1    2    0    0  0.44204172968E+02  0.21460340428E+02  0.49131737232E+02  0.69487284610E+02  0.00000000000E+00 0.  1.
         11    1    1    2    0    0  0.52903846061E+02 -0.59815476995E+02  0.15499300483E+02  0.81344554407E+02  0.00000000000E+00 0. -1.
</event>
<event>
 7    1  0.2749315E-009  0.1340908E+03  0.7561462E-02  0.1221509E+00
         -2   -1    0    0    0  501 -0.00000000000E+00  0.00000000000E+00  0.19977910972E+02  0.19977910972E+02  0.00000000000E+00 0.  1.
          2   -1    0    0  501    0  0.00000000000E+00 -0.00000000000E+00 -0.11646134117E+04  0.11646134117E+04  0.00000000000E+00 0. -1.
         25    2    1    2    0    0  0.10297803750E+03  0.17827036406E+02 -0.53712294601E+03  0.56131258734E+03  0.12509389329E+03 0.  0.
          5    1    3    3  502    0 -0.10892832094E+02 -0.60437391409E+01 -0.26507576528E+03  0.26540123269E+03  0.41800000000E+01 0. -1.
         -5    1    3    3    0  502  0.11387086959E+03  0.23870775547E+02 -0.27204718073E+03  0.29591135465E+03  0.41800000000E+01 0. -1.
        -11    1    1    2    0    0 -0.40983339749E+02  0.37482932846E+02 -0.21382917348E+03  0.22092424001E+03  0.00000000000E+00 0.  1.
         11    1    1    2    0    0 -0.61994697749E+02 -0.55309969251E+02 -0.39368338121E+03  0.40235449530E+03  0.00000000000E+00 0. -1.
</event>
<event>
 7    1  0.2749315E-009  0.1574103E+03  0.7561462E-02  0.1191652E+00
         -1   -1    0    0    0  501 -0.00000000000E+00  0.00000000000E+00  0.64273381411E+03  0.64273381411E+03  0.00000000000E+00 0.  1.
          1   -1    0    0  501    0  0.00000000000E+00 -0.00000000000E+00 -0.57088822891E+02  0.57088822891E+02  0.00000000000E+00 0. -1.
         25    2    1    2    0    0  0.40609018512E+02  0.13293641246E+03  0.17014314650E+03  0.25282023975E+03  0.12509277032E+03 0.  0.
          5    1    3    3  502    0  0.44187962327E+01  0.12148459996E+03  0.58786741186E+02  0.13509769475E+03  0.41800000000E+01 0. -1.
         -5    1    3    3    0  502  0.36190222279E+02  0.11451812501E+02  0.11135640531E+03  0.11772254500E+03  0.41800000000E+01 0. -1.
        -11    1    1    2    0    0 -0.80019584761E+00 -0.10803910244E+03  0.20951665562E+03  0.23573357196E+03  0.00000000000E+00 0. -1.
         11    1    1    2    0    0 -0.39808822664E+02 -0.24897310015E+02  0.20598518910E+03  0.21126882529E+03  0.00000000000E+00 0.  1.
</event>
<event>
 7    1  0.2749315E-009  0.1430333E+03  0.7561462E-02  0.1209305E+00
          1   -1    0    0  501    0  0.00000000000E+00  0.00000000000E+00  0.56696530628E+03  0.56696530628E+03  0.00000000000E+00 0. -1.
         -1   -1    0    0    0  501 -0.00000000000E+00 -0.00000000000E+00 -0.89920498455E+02  0.89920498455E+02  0.00000000000E+00 0.  1.
         25    2    1    2    0    0  0.63543555437E+02  0.98598640893E+02  0.47783086977E+03  0.50767222820E+03  0.12509706532E+03 0.  0.
          5    1    3    3  502    0  0.30228333771E+02 -0.11896768095E+02  0.27491873335E+02  0.42761673882E+02  0.41800000000E+01 0. -1.
         -5    1    3    3    0  502  0.33315221665E+02  0.11049540899E+03  0.45033899644E+03  0.46491055432E+03  0.41800000000E+01 0. -1.
        -11    1    1    2    0    0 -0.79874609149E+02 -0.84178556136E+02 -0.22777919520E+02  0.11825741464E+03  0.00000000000E+00 0.  1.
         11    1    1    2    0    0  0.16331053713E+02 -0.14420084757E+02  0.21991857570E+02  0.30956161893E+02  0.00000000000E+00 0. -1.
</event>
<event>
 7    1  0.2749315E-009  0.1057111E+03  0.7561462E-02  0.1268725E+00
          1   -1    0    0  501    0  0.00000000000E+00  0.00000000000E+00  0.13122121649E+03  0.13122121649E+03  0.00000000000E+00 0. -1.
         -1   -1    0    0    0  501 -0.00000000000E+00 -0.00000000000E+00 -0.14442262778E+03  0.14442262778E+03  0.00000000000E+00 0.  1.
         25    2    1    2    0    0 -0.69482558510E+02 -0.16246802579E+02 -0.50075408003E+02  0.15246963135E+03  0.12509059703E+03 0.  0.
          5    1    3    3  502    0 -0.56567733406E+02 -0.40438558845E+02 -0.83689110528E+02  0.10888767205E+03  0.41800000000E+01 0.  1.
         -5    1    3    3    0  502 -0.12914825105E+02  0.24191756267E+02  0.33613702524E+02  0.43581959297E+02  0.41800000000E+01 0.  1.
        -11    1    1    2    0    0  0.89122306722E+02  0.24936041526E+02  0.17365283511E+02  0.94160208123E+02  0.00000000000E+00 0.  1.
         11    1    1    2    0    0 -0.19639748212E+02 -0.86892389468E+01  0.19508713203E+02  0.29014004793E+02  0.00000000000E+00 0. -1.
</event>
<event>
 7    1  0.2749315E-009  0.1802869E+03  0.7561462E-02  0.1167526E+00
         -2   -1    0    0    0  501 -0.00000000000E+00  0.00000000000E+00  0.13436775268E+03  0.13436775268E+03  0.00000000000E+00 0.  1.
          2   -1    0    0  501    0  0.00000000000E+00 -0.00000000000E+00 -0.28608786628E+03  0.28608786628E+03  0.00000000000E+00 0. -1.
         25    2    1    2    0    0 -0.88505931104E+02  0.13407061931E+03 -0.10935100136E+03  0.23111314778E+03  0.12508962698E+03 0.  0.
          5    1    3    3  502    0 -0.62282564641E+02  0.13579300046E+03 -0.36916361943E+02  0.15394527278E+03  0.41800000000E+01 0. -1.
         -5    1    3    3    0  502 -0.26223366463E+02 -0.17223811502E+01 -0.72434639415E+02  0.77167875004E+02  0.41800000000E+01 0. -1.
        -11    1    1    2    0    0  0.21351572362E+02 -0.11170793402E+03 -0.24425694066E+02  0.11632354318E+03  0.00000000000E+00 0. -1.
         11    1    1    2    0    0  0.67154358742E+02 -0.22362685285E+02 -0.17943418174E+02  0.73018928005E+02  0.00000000000E+00 0.  1.
</event>
<event>
 7    1  0.2749315E-009  0.8802216E+02  0.7561462E-02  0.1307713E+00
         -1   -1    0    0    0  501 -0.00000000000E+00  0.00000000000E+00  0.31349794364E+02  0.31349794364E+02  0.00000000000E+00 0.  1.
          1   -1    0    0  501    0  0.00000000000E+00 -0.00000000000E+00 -0.38643731412E+03  0.38643731412E+03  0.00000000000E+00 0. -1.
         25    2    1    2    0    0  0.43444328248E+01  0.20810267623E+01 -0.18509819404E+03  0.22345505748E+03  0.12509043331E+03 0.  0.
          5    1    3    3  502    0  0.53236456130E+02  0.28380925628E+01 -0.15924831677E+03  0.16798712398E+03  0.41800000000E+01 0.  1.
         -5    1    3    3    0  502 -0.48892023306E+02 -0.75706580048E+00 -0.25849877279E+02  0.55467933501E+02  0.41800000000E+01 0.  1.
        -11    1    1    2    0    0 -0.37801083203E+02 -0.10020397026E+02 -0.14899975466E+03  0.15404628245E+03  0.00000000000E+00 0. -1.
         11    1    1    2    0    0  0.33456650379E+02  0.79393702641E+01 -0.20989571048E+02  0.40285768548E+02  0.00000000000E+00 0.  1.
</event>
<event>
 7    1  0.2749315E-009  0.2478929E+03  0.7561462E-02  0.1114644E+00
         -2   -1    0    0    0  501 -0.00000000000E+00  0.00000000000E+00  0.33059363372E+02  0.33059363372E+02  0.00000000000E+00 0.  1.
          2   -1    0    0  501    0  0.00000000000E+00 -0.00000000000E+00 -0.21557116870E+04  0.21557116870E+04  0.00000000000E+00 0. -1.
         25    2    1    2    0    0 -0.21690382553E+03 -0.10659138578E+03 -0.11903980670E+04  0.12211076106E+04  0.12508895133E+03 0.  0.
          5    1    3    3  502    0 -0.18686292687E+03 -0.79459537207E+02 -0.11310958444E+04  0.11491852997E+04  0.41800000000E+01 0.  1.
         -5    1    3    3    0  502 -0.30040898660E+02 -0.27131848568E+02 -0.59302222615E+02  0.71922310906E+02  0.41800000000E+01 0.  1.
        -11    1    1    2    0    0  0.18342718886E+03  0.11623484863E+03 -0.86596298611E+03  0.89277542919E+03  0.00000000000E+00 0. -1.
         11    1    1    2    0    0  0.33476636673E+02 -0.96434628535E+01 -0.66291270479E+02  0.74888010525E+02  0.00000000000E+00 0.  1.
</event>
<event>
 7    1  0.4231777E-009  0.1245233E+03  0.7561462E-02  0.1235816E+00
          1   -1    0    0  501    0  0.00000000000E+00  0.00000000000E+00  0.69865416007E+03  0.69865416007E+03  0.00000000000E+00 0. -1.
         -1   -1    0    0    0  501 -0.00000000000E+00 -0.00000000000E+00 -0.37330700224E+02  0.37330700224E+02  0.00000000000E+00 0.  1.
         25    2    1    2    0    0 -0.22890174555E+02  0.11324913965E+03  0.42088422417E+03  0.45402833477E+03  0.12509544715E+03 0.  0.
          5    1    3    3  502    0 -0.22967355446E+02  0.43697864215E+02  0.32061661517E+02  0.59012077513E+02  0.41800000000E+01 0.  1.
         -5    1    3    3    0  502  0.77180891271E-01  0.69551275436E+02  0.38882256265E+03  0.39501625726E+03  0.41800000000E+01 0.  1.
        -11    1    1    2    0    0 -0.79473908781E+01 -0.92080965406E+02  0.98080194748E+02  0.13476568485E+03  0.00000000000E+00 0.  1.
         11    1    1    2    0    0  0.30837565433E+02 -0.21168174245E+02  0.14235904093E+03  0.14719084067E+03  0.00000000000E+00 0. -1.
</event>
<event>
 7    1  0.2749315E-009  0.9193489E+02  0.7561462E-02  0.1298233E+00
          3   -1    0    0  501    0  0.00000000000E+00  0.00000000000E+00  0.26370863033E+02  0.26370863033E+02  0.00000000000E+00 0. -1.
         -3   -1    0    0    0  501 -0.00000000000E+00 -0.00000000000E+00 -0.58239073162E+03  0.58239073162E+03  0.00000000000E+00 0.  1.
         25    2    1    2    0    0  0.15986146225E+02 -0.45950238142E+02 -0.22580004337E+03  0.26267777513E+03  0.12508785994E+03 0.  0.
          5    1    3    3  502    0  0.16943171817E+02 -0.70488892976E+02 -0.57721062299E+02  0.92762861842E+02  0.41800000000E+01 0.  1.
         -5    1    3    3    0  502 -0.95702559221E+00  0.24538654833E+02 -0.16807898107E+03  0.16991491329E+03  0.41800000000E+01 0.  1.
        -11    1    1    2    0    0 -0.15842386492E+02  0.65197399833E+02 -0.31346540109E+03  0.32056550007E+03  0.00000000000E+00 0.  1.
         11    1    1    2    0    0 -0.14375973241E+00 -0.19247161690E+02 -0.16754424125E+02  0.25518319454E+02  0.00000000000E+00 0. -1.
</event>
<event>
 7    1  0.2749315E-009  0.1053182E+03  0.7561462E-02  0.1269494E+00
          1   -1    0    0  501    0  0.00000000000E+00  0.00000000000E+00  0.54942996851E+03  0.54942996851E+03  0.00000000000E+00 0. -1.
         -1   -1    0    0    0  501 -0.00000000000E+00 -0.00000000000E+00 -0.26327613582E+02  0.26327613582E+02  0.00000000000E+00 0.  1.
         25    2    1    2    0    0  0.31505866332E+02  0.40237404431E+02  0.26752281344E+03  0.29971326813E+03  0.12509164264E+03 0.  0.
          5    1    3    3  502    0  0.67031231524E+02 -0.13633158409E+02  0.11229476941E+03  0.13155469070E+03  0.41800000000E+01 0.  1.
         -5    1    3    3    0  502 -0.35525365191E+02  0.53870562840E+02  0.15522804403E+03  0.16815857744E+03  0.41800000000E+01 0.  1.
        -11    1    1    2    0    0  0.25226021855E+01  0.13555327913E+02  0.12205996427E+01  0.13841976018E+02  0.00000000000E+00 0.  1.
         11    1    1    2    0    0 -0.34028468518E+02 -0.53792732344E+02  0.25435894185E+03  0.26220233794E+03  0.00000000000E+00 0. -1.
</event>
<event>
 7    1  0.2749315E-009  0.1335370E+03  0.7561462E-02  0.1222300E+00
          1   -1    0    0  501    0  0.00000000000E+00  0.00000000000E+00  0.57296191662E+03  0.57296191662E+03  0.00000000000E+00 0. -1.
         -1   -1    0    0    0  501 -0.00000000000E+00 -0.00000000000E+00 -0.48350536698E+02  0.48350536698E+02  0.00000000000E+00 0.  1.
         25    2    1    2    0    0  0.71586300950E+02 -0.76982043375E+02  0.15042537812E+03  0.22209497952E+03  0.12509017570E+03 0.  0.
          5    1    3    3  502    0  0.36042278551E+02  0.29765184142E+02  0.23682714520E+02  0.52567626893E+02  0.41800000000E+01 0. -1.
         -5    1    3    3    0  502  0.35544022399E+02 -0.10674722752E+03  0.12674266360E+03  0.16952735263E+03  0.41800000000E+01 0. -1.
        -11    1    1    2    0    0 -0.48180243446E+02  0.35213623094E+02  0.32552821940E+03  0.33095310353E+03  0.00000000000E+00 0. -1.
         11    1    1    2    0    0 -0.23406057504E+02  0.41768420281E+02  0.48657782405E+02  0.68264370276E+02  0.00000000000E+00 0.  1.
</event>
<event>
 7    1  0.2749315E-009  0.1118131E+03  0.7561462E-02  0.1257249E+00
          2   -1    0    0  501    0  0.00000000000E+00  0.00000000000E+00  0.42207048248E+02  0.42207048248E+02  0.00000000000E+00 0. -1.
         -2   -1    0    0    0  501 -0.00000000000E+00 -0.00000000000E+00 -0.67871462539E+03  0.67871462539E+03  0.00000000000E+00 0.  1.
         25    2    1    2    0    0 -0.78813709396E+02 -0.98098224418E+01 -0.55644537857E+03  0.57583535030E+03  0.12508820055E+03 0.  0.
          5    1    3    3  502    0 -0.60886186556E+02 -0.48423586641E+02 -0.16966590203E+03  0.18669751516E+03  0.41800000000E+01 0.  1.
         -5    1    3    3    0  502 -0.17927522840E+02  0.38613764200E+02 -0.38677947654E+03  0.38913783514E+03  0.41800000000E+01 0.  1.
        -11    1    1    2    0    0 -0.90878605062E+01 -0.92833135288E+01 -0.47784808378E+02  0.49519259187E+02  0.00000000000E+00 0.  1.
         11    1    1    2    0    0  0.87901569902E+02  0.19093135971E+02 -0.32277390187E+02  0.95567064147E+02  0.00000000000E+00 0. -1.
</event>
<event>
 7    1  0.2749315E-009  0.2822751E+03  0.7561462E-02  0.1094453E+00
          1   -1    0    0  501    0  0.00000000000E+00  0.00000000000E+00  0.63341832518E+03  0.63341832518E+03  0.00000000000E+00 0. -1.
         -1   -1    0    0    0  501 -0.00000000000E+00 -0.00000000000E+00 -0.14566952611E+03  0.14566952611E+03  0.00000000000E+00 0.  1.
         25    2    1    2    0    0  0.11798967874E+03 -0.23610552824E+03  0.38094091099E+03  0.48003307435E+03  0.12509352522E+03 0.  0.
          5    1    3    3  502    0 -0.18300973688E+02 -0.49561714443E+01  0.51986368664E+02  0.55493641079E+02  0.41800000000E+01 0.  1.
         -5    1    3    3    0  502  0.13629065243E+03 -0.23114935680E+03  0.32895454233E+03  0.42453943327E+03  0.41800000000E+01 0.  1.
        -11    1    1    2    0    0 -0.13114251351E+03  0.21753874695E+03  0.10855394826E+03  0.27623436599E+03  0.00000000000E+00 0.  1.
         11    1    1    2    0    0  0.13152834765E+02  0.18566781289E+02 -0.17460601775E+01  0.22820410950E+02  0.00000000000E+00 0. -1.
</event>
<event>
 7    1  0.2749315E-009  0.8294844E+02  0.7561462E-02  0.1320886E+00
         -2   -1    0    0    0  501 -0.00000000000E+00  0.00000000000E+00  0.69600019845E+02  0.69600019845E+02  0.00000000000E+00 0.  1.
          2   -1    0    0  501    0  0.00000000000E+00 -0.00000000000E+00 -0.17250169771E+03  0.17250169771E+03  0.00000000000E+00 0. -1.
         25    2    1    2    0    0 -0.42144310703E+00 -0.53379503030E+01 -0.76963688909E+02  0.14696610749E+03  0.12508779321E+03 0.  0.
          5    1    3    3  502    0 -0.22855084167E+02  0.54889478802E+02 -0.26910439164E+02  0.65397659678E+02  0.41800000000E+01 0. -1.
         -5    1    3    3    0  502  0.22433641060E+02 -0.60227429105E+02 -0.50053249745E+02  0.81568447808E+02  0.41800000000E+01 0. -1.
        -11    1    1    2    0    0 -0.13740947769E+02  0.18166606949E+02  0.29053839451E+02  0.36918353708E+02  0.00000000000E+00 0.  1.
         11    1    1    2    0    0  0.14162390876E+02 -0.12828656646E+02 -0.54991828411E+02  0.58217256365E+02  0.00000000000E+00 0. -1.
</event>
<event>
 7    1  0.2749315E-009  0.1236048E+03  0.7561462E-02  0.1237266E+00
         -1   -1    0    0    0  501 -0.00000000000E+00  0.00000000000E+00  0.28085832904E+03  0.28085832904E+03  0.00000000000E+00 0. -1.
          1   -1    0    0  501    0  0.00000000000E+00 -0.00000000000E+00 -0.12804409971E+03  0.12804409971E+03  0.00000000000E+00 0.  1.
         25    2    1    2    0    0 -0.59838428796E+02 -0.15710578235E+01 -0.73193928180E+02  0.15680203055E+03  0.12508565017E+03 0.  0.
          5    1    3    3  502    0 -0.94115600629E+02  0.19687073352E+02 -0.62869995574E+02  0.11495840936E+03  0.41800000000E+01 0. -1.
         -5    1    3    3    0  502  0.34277171833E+02 -0.21258131176E+02 -0.10323932606E+02  0.41843621191E+02  0.41800000000E+01 0. -1.
        -11    1    1    2    0    0 -0.24235095177E+02 -0.86304434414E+01  0.37897986088E+02  0.45804822254E+02  0.00000000000E+00 0. -1.
         11    1    1    2    0    0  0.84073523973E+02  0.10201501265E+02  0.18811017143E+03  0.20629557595E+03  0.00000000000E+00 0.  1.
</event>
<event>
 7    1  0.2886994E-009  0.1267139E+03  0.7561462E-02  0.1232415E+00
          1   -1    0    0  501    0  0.00000000000E+00  0.00000000000E+00  0.10545355506E+04  0.10545355506E+04  0.00000000000E+00 0. -1.
         -1   -1    0    0    0  501 -0.00000000000E+00 -0.00000000000E+00 -0.31538991174E+02  0.31538991174E+02  0.00000000000E+00 0.  1.
         25    2    1    2    0    0 -0.62092501057E+02  0.76276273165E+02  0.86130325870E+03  0.87587895037E+03  0.12508830370E+03 0.  0.
          5    1    3    3  502    0  0.24665179069E+02  0.57183532111E+02  0.49573654532E+03  0.49965039995E+03  0.41800000000E+01 0. -1.
         -5    1    3    3    0  502 -0.86757680126E+02  0.19092741054E+02  0.36556671338E+03  0.37622855042E+03  0.41800000000E+01 0. -1.
        -11    1    1    2    0    0  0.49852670921E+02 -0.40382926146E+02  0.25867622075E+02  0.69175164574E+02  0.00000000000E+00 0.  1.
         11    1    1    2    0    0  0.12239830136E+02 -0.35893347019E+02  0.13582567867E+03  0.14102042685E+03  0.00000000000E+00 0. -1.
</event>
<event>
 7    1  0.2749315E-009  0.1193339E+03  0.7561462E-02  0.1244200E+00
         -2   -1    0    0    0  501 -0.00000000000E+00  0.00000000000E+00  0.11068383555E+02  0.11068383555E+02  0.00000000000E+00 0.  1.
          2   -1    0    0  501    0  0.00000000000E+00 -0.00000000000E+00 -0.12948077452E+04  0.12948077452E+04  0.00000000000E+00 0. -1.
         25    2    1    2    0    0  0.22724882504E+02  0.47415751503E+02 -0.67861363967E+03  0.69204675745E+03  0.12509024252E+03 0.  0.
          5    1    3    3  502    0 -0.52049274594E+02  0.20088798418E+02 -0.27358887666E+03  0.27925084179E+03  0.41800000000E+01 0.  1.
         -5    1    3    3    0  502  0.74774157099E+02  0.27326953084E+02 -0.40502476301E+03  0.41279591566E+03  0.41800000000E+01 0.  1.
        -11    1    1    2    0    0 -0.48205787260E+02  0.10786782827E+01 -0.28546994533E+03  0.28951347319E+03  0.00000000000E+00 0.  1.
         11    1    1    2    0    0  0.25480904755E+02 -0.48494429785E+02 -0.31965577664E+03  0.32431589811E+03  0.00000000000E+00 0. -1.
</event>
<event>
 7    1  0.2749315E-009  0.1058424E+03  0.7561462E-02  0.1268469E+00
          1   -1    0    0  501    0  0.00000000000E+00  0.00000000000E+00  0.22047230077E+03  0.22047230077E+03  0.00000000000E+00 0. -1.
         -1   -1    0    0    0  501 -0.00000000000E+00 -0.00000000000E+00 -0.71497314758E+02  0.71497314758E+02  0.00000000000E+00 0.  1.
         25    2    1    2    0    0 -0.46038056191E+02 -0.66538599984E+00  0.34885320233E+02  0.13778440382E+03  0.12509041135E+03 0.  0.
          5    1    3    3  502    0 -0.60812192769E+02  0.50649495807E+02  0.15062111876E+02  0.80671146198E+02  0.41800000000E+01 0.  1.
         -5    1    3    3    0  502  0.14774136578E+02 -0.51314881807E+02  0.19823208357E+02  0.57113257621E+02  0.41800000000E+01 0.  1.
        -11    1    1    2    0    0  0.56704694404E+02 -0.16147104946E+02  0.11975696058E+03  0.13348363560E+03  0.00000000000E+00 0. -1.
         11    1    1    2    0    0 -0.10666638214E+02  0.16812490946E+02 -0.56672948094E+01  0.20701576100E+02  0.00000000000E+00 0.  1.
</event>
<event>
 7    1  0.2749315E-009  0.1308654E+03  0.7561462E-02  0.1226177E+00
         -1   -1    0    0    0  501 -0.00000000000E+00  0.00000000000E+00  0.43396467411E+02  0.43396467411E+02  0.00000000000E+00 0.  1.
          1   -1    0    0  501    0  0.00000000000E+00 -0.00000000000E+00 -0.69254522074E+03  0.69254522074E+03  0.00000000000E+00 0. -1.
         25    2    1    2    0    0 -0.71342609565E+02  0.99617968078E+02 -0.22836746740E+03  0.28777263493E+03  0.12509149350E+03 0.  0.
          5    1    3    3  502    0 -0.44591537075E+02  0.88826193054E+02 -0.58462251057E+02  0.11538546247E+03  0.41800000000E+01 0.  1.
         -5    1    3    3    0  502 -0.26751072490E+02  0.10791775024E+02 -0.16990521635E+03  0.17238717246E+03  0.41800000000E+01 0.  1.
        -11    1    1    2    0    0  0.60068972411E+02 -0.10472434638E+03 -0.41852356694E+03  0.43558862044E+03  0.00000000000E+00 0. -1.
         11    1    1    2    0    0  0.11273637154E+02  0.51063782979E+01 -0.22577189881E+01  0.12580432784E+02  0.00000000000E+00 0.  1.
</event>
<event>
 7    1  0.2749315E-009  0.8643629E+02  0.7561462E-02  0.1311719E+00
         -1   -1    0    0    0  501 -0.00000000000E+00  0.00000000000E+00  0.43496235214E+02  0.43496235214E+02  0.00000000000E+00 0.  1.
          1   -1    0    0  501    0  0.00000000000E+00 -0.00000000000E+00 -0.49677171565E+03  0.49677171565E+03  0.00000000000E+00 0. -1.
         25    2    1    2    0    0  0.44758146410E+02  0.33892561742E+02 -0.39543663298E+03  0.41852819520E+03  0.12507486584E+03 0.  0.
          5    1    3    3  502    0  0.58483007504E+02  0.47940859038E+02 -0.39059894814E+03  0.39787384787E+03  0.41800000000E+01 0. -1.
         -5    1    3    3    0  502 -0.13724861094E+02 -0.14048297296E+02 -0.48376848372E+01  0.20654347328E+02  0.41800000000E+01 0. -1.
        -11    1    1    2    0    0 -0.53503520283E+02 -0.13968210825E+02  0.47266994725E+01  0.55498461999E+02  0.00000000000E+00 0.  1.
         11    1    1    2    0    0  0.87453738730E+01 -0.19924350916E+02 -0.62565546931E+02  0.66241293665E+02  0.00000000000E+00 0. -1.
</event>
<event>
 7    1  0.2749315E-009  0.9375999E+02  0.7561462E-02  0.1293994E+00
         -4   -1    0    0    0  501 -0.00000000000E+00  0.00000000000E+00  0.11418050524E+03  0.11418050524E+03  0.00000000000E+00 0.  1.
          4   -1    0    0  501    0  0.00000000000E+00 -0.00000000000E+00 -0.13082141170E+03  0.13082141170E+03  0.00000000000E+00 0. -1.
         25    2    1    2    0    0 -0.76801183493E+01  0.59926888335E+01  0.53550718698E+02  0.13642375404E+03  0.12509542220E+03 0.  0.
          5    1    3    3  502    0 -0.38049421706E+02 -0.46205097082E+02  0.45615353267E+02  0.75371760907E+02  0.41800000000E+01 0. -1.
         -5    1    3    3    0  502  0.30369303357E+02  0.52197785916E+02  0.79353654305E+01  0.61051993132E+02  0.41800000000E+01 0. -1.
        -11    1    1    2    0    0  0.17723997571E+01 -0.36180685864E+02 -0.50962902253E+01  0.36580809238E+02  0.00000000000E+00 0.  1.
         11    1    1    2    0    0  0.59077185922E+01  0.30187997030E+02 -0.65095334939E+02  0.71997353663E+02  0.00000000000E+00 0. -1.
</event>
<event>
 7    1  0.2749315E-009  0.1491917E+03  0.7561462E-02  0.1201470E+00
         -2   -1    0    0    0  501 -0.00000000000E+00  0.00000000000E+00  0.65526945252E+02  0.65526945252E+02  0.00000000000E+00 0.  1.
          2   -1    0    0  501    0  0.00000000000E+00 -0.00000000000E+00 -0.53406533250E+03  0.53406533250E+03  0.00000000000E+00 0. -1.
         25    2    1    2    0    0 -0.10946372259E+03 -0.75726783863E+02 -0.36376631359E+03  0.40704991410E+03  0.12508736668E+03 0.  0.
          5    1    3    3  502    0 -0.12601416809E+03 -0.57541858499E+02 -0.21223316561E+03  0.25347785904E+03  0.41800000000E+01 0.  1.
         -5    1    3    3    0  502  0.16550445495E+02 -0.18184925365E+02 -0.15153314799E+03  0.15357205506E+03  0.41800000000E+01 0.  1.
        -11    1    1    2    0    0  0.31870123282E+02  0.10725771904E+02  0.14056097129E+02  0.36446135700E+02  0.00000000000E+00 0.  1.
         11    1    1    2    0    0  0.77593599312E+02  0.65001011959E+02 -0.11882817078E+03  0.15609622795E+03  0.00000000000E+00 0. -1.
</event>
<event>
 7    1  0.2824350E-009  0.9814897E+02  0.7561462E-02  0.1284237E+00
          2   -1    0    0  501    0  0.00000000000E+00  0.00000000000E+00  0.77959219075E+03  0.77959219075E+03  0.00000000000E+00 0. -1.
         -2   -1    0    0    0  501 -0.00000000000E+00 -0.00000000000E+00 -0.28414039752E+02  0.28414039752E+02  0.00000000000E+00 0.  1.
         25    2    1    2    0    0 -0.21916774009E+02  0.78942719379E+02  0.56919138766E+03  0.58850516811E+03  0.12508876522E+03 0.  0.
          5    1    3    3  502    0 -0.31840987672E+02  0.71595431734E+02  0.57006453852E+03  0.57543966219E+03  0.41800000000E+01 0.  1.
         -5    1    3    3    0  502  0.99242136628E+01  0.73472876452E+01 -0.87315086316E+00  0.13065505922E+02  0.41800000000E+01 0.  1.
        -11    1    1    2    0    0  0.42714801875E+02 -0.31753370533E+02  0.34925777679E+02  0.63660354900E+02  0.00000000000E+00 0.  1.
         11    1    1    2    0    0 -0.20798027866E+02 -0.47189348846E+02  0.14706098566E+03  0.15584070749E+03  0.00000000000E+00 0. -1.
</event>
<event>
 7    1  0.2749315E-009  0.9133401E+02  0.7561462E-02  0.1299653E+00
          1   -1    0    0  501    0  0.00000000000E+00  0.00000000000E+00  0.46913698664E+02  0.46913698664E+02  0.00000000000E+00 0. -1.
         -1   -1    0    0    0  501 -0.00000000000E+00 -0.00000000000E+00 -0.26704555492E+03  0.26704555492E+03  0.00000000000E+00 0.  1.
         25    2    1    2    0    0 -0.34996435600E+02 -0.24414013265E+01 -0.14967512375E+03  0.19819340690E+03  0.12508905997E+03 0.  0.
          5    1    3    3  502    0 -0.41118211621E+01  0.55671732165E+02 -0.35329992150E+02  0.66196144758E+02  0.41800000000E+01 0. -1.
         -5    1    3    3    0  502 -0.30884614438E+02 -0.58113133491E+02 -0.11434513160E+03  0.13199726214E+03  0.41800000000E+01 0. -1.
        -11    1    1    2    0    0 -0.65188577772E+01 -0.14506626822E+02  0.13318762915E+02  0.20744328721E+02  0.00000000000E+00 0. -1.
         11    1    1    2    0    0  0.41515293377E+02  0.16948028149E+02 -0.83775495428E+02  0.95021517966E+02  0.00000000000E+00 0.  1.
</event>
<event>
 7    1  0.2749315E-009  0.3409826E+03  0.7561462E-02  0.1066378E+00
          1   -1    0    0  501    0  0.00000000000E+00  0.00000000000E+00  0.20058098695E+04  0.20058098695E+04  0.00000000000E+00 0. -1.
         -1   -1    0    0    0  501 -0.00000000000E+00 -0.00000000000E+00 -0.64430583735E+02  0.64430583735E+02  0.00000000000E+00 0.  1.
         25    2    1    2    0    0 -0.16892373325E+03 -0.28390282318E+03  0.12423033079E+04  0.12915497589E+04  0.12508888886E+03 0.  0.
          5    1    3    3  502    0 -0.24437389733E+02 -0.12957044200E+03  0.63292785236E+03  0.64652983237E+03  0.41800000000E+01 0.  1.
         -5    1    3    3    0  502 -0.14448634352E+03 -0.15433238118E+03  0.60937545557E+03  0.64501992651E+03  0.41800000000E+01 0.  1.
        -11    1    1    2    0    0  0.17668292290E+03  0.27003857916E+03  0.68600741987E+03  0.75811863821E+03  0.00000000000E+00 0. -1.
         11    1    1    2    0    0 -0.77591896447E+01  0.13864244022E+02  0.13068557929E+02  0.20572056110E+02  0.00000000000E+00 0.  1.
</event>
<event>
 7    1  0.2753410E-009  0.1468292E+03  0.7561462E-02  0.1204424E+00
          2   -1    0    0  501    0  0.00000000000E+00  0.00000000000E+00  0.18330824258E+03  0.18330824258E+03  0.00000000000E+00 0. -1.
         -2   -1    0    0    0  501 -0.00000000000E+00 -0.00000000000E+00 -0.15123638484E+03  0.15123638484E+03  0.00000000000E+00 0.  1.
         25    2    1    2    0    0  0.13948541195E+02  0.11956372520E+03  0.55438679460E+02  0.18223848845E+03  0.12508946122E+03 0.  0.
          5    1    3    3  502    0 -0.47398963120E+02  0.18509194651E+02 -0.12349217862E+01  0.51071023323E+02  0.41800000000E+01 0.  1.
         -5    1    3    3    0  502  0.61347504314E+02  0.10105453055E+03  0.56673601246E+02  0.13116746513E+03  0.41800000000E+01 0.  1.
        -11    1    1    2    0    0 -0.17761061982E+02 -0.31485994853E+02  0.31935708393E+02  0.48236010046E+02  0.00000000000E+00 0. -1.
         11    1    1    2    0    0  0.38125207877E+01 -0.88077730345E+02 -0.55302530116E+02  0.10407012893E+03  0.00000000000E+00 0.  1.
</event>
<event>
 7    1  0.2749315E-009  0.9551267E+02  0.7561462E-02  0.1290026E+00
         -2   -1    0    0    0  501 -0.00000000000E+00  0.00000000000E+00  0.29002000247E+03  0.29002000247E+03  0.00000000000E+00 0. -1.
          2   -1    0    0  501    0  0.00000000000E+00 -0.00000000000E+00 -0.58287676760E+02  0.58287676760E+02  0.00000000000E+00 0.  1.
         25    2    1    2    0    0 -0.52095563807E+02 -0.40777050495E+02  0.17516296448E+03  0.22518926658E+03  0.12510565952E+03 0.  0.
          5    1    3    3  502    0  0.99386896304E+01 -0.23533354808E+02 -0.11027034251E+02  0.28136528295E+02  0.41800000000E+01 0. -1.
         -5    1    3    3    0  502 -0.62034253438E+02 -0.17243695686E+02  0.18618999873E+03  0.19705273829E+03  0.41800000000E+01 0. -1.
        -11    1    1    2    0    0 -0.30250298512E+01 -0.19038849812E+02  0.33363968034E+02  0.38532881682E+02  0.00000000000E+00 0. -1.
         11    1    1    2    0    0  0.55120593659E+02  0.59815900307E+02  0.23205393198E+02  0.84585530963E+02  0.00000000000E+00 0.  1.
</event>
<event>
 7    1  0.2749315E-009  0.7777512E+02  0.7561462E-02  0.1335487E+00
         -1   -1    0    0    0  501 -0.00000000000E+00  0.00000000000E+00  0.20194586665E+02  0.20194586665E+02  0.00000000000E+00 0.  1.
          1   -1    0    0  501    0  0.00000000000E+00 -0.00000000000E+00 -0.68263514288E+03  0.68263514288E+03  0.00000000000E+00 0. -1.
         25    2    1    2    0    0 -0.31356115273E+02 -0.34243329385E+02 -0.40293170698E+03  0.42444842290E+03  0.12508673649E+03 0.  0.
          5    1    3    3  502    0 -0.34923257065E+02 -0.21343829593E+02 -0.29193403428E+02  0.50447201601E+02  0.41800000000E+01 0. -1.
         -5    1    3    3    0  502  0.35671417921E+01 -0.12899499792E+02 -0.37373830355E+03  0.37400122130E+03  0.41800000000E+01 0. -1.
        -11    1    1    2    0    0  0.23666849454E+02 -0.28573079414E+02 -0.10761353866E+03  0.11382976031E+03  0.00000000000E+00 0. -1.
         11    1    1    2    0    0  0.76892658188E+01  0.62816408798E+02 -0.15189531058E+03  0.16455154633E+03  0.00000000000E+00 0.  1.
</event>
<event>
 7    1  0.2749315E-009  0.9438422E+02  0.7561462E-02  0.1292569E+00
          2   -1    0    0  501    0  0.00000000000E+00  0.00000000000E+00  0.31604204717E+03  0.31604204717E+03  0.00000000000E+00 0. -1.
         -2   -1    0    0    0  501 -0.00000000000E+00 -0.00000000000E+00 -0.58822428409E+02  0.58822428409E+02  0.00000000000E+00 0.  1.
         25    2    1    2    0    0  0.41471259746E+02  0.30594738317E+02  0.51789926569E+02  0.14486571802E+03  0.12509187170E+03 0.  0.
          5    1    3    3  502    0  0.22817603027E+02  0.65352414793E+02 -0.11378850423E+02  0.70274687934E+02  0.41800000000E+01 0. -1.
         -5    1    3    3    0  502  0.18653656718E+02 -0.34757676476E+02  0.63168776992E+02  0.74591030088E+02  0.41800000000E+01 0. -1.
        -11    1    1    2    0    0 -0.26401522181E+02  0.15939386259E+02  0.16776765786E+02  0.35107894810E+02  0.00000000000E+00 0.  1.
         11    1    1    2    0    0 -0.15069737565E+02 -0.46534124576E+02  0.18865292641E+03  0.19489086275E+03  0.00000000000E+00 0. -1.
</event>
<event>
 7    1  0.2749315E-009  0.1055583E+03  0.7561462E-02  0.1269024E+00
         -1   -1    0    0    0  501 -0.00000000000E+00  0.00000000000E+00  0.65971862139E+02  0.65971862139E+02  0.00000000000E+00 0.  1.
          1   -1    0    0  501    0  0.00000000000E+00 -0.00000000000E+00 -0.36774085967E+03  0.36774085967E+03  0.00000000000E+00 0. -1.
         25    2    1    2    0    0  0.20031582966E+02 -0.50675749585E+02 -0.24422910760E+03  0.27975635939E+03  0.12508584135E+03 0.  0.
          5    1    3    3  502    0  0.59608394217E+02 -0.24290268301E+02 -0.21336165120E+03  0.22289873126E+03  0.41800000000E+01 0.  1.
         -5    1    3    3    0  502 -0.39576811251E+02 -0.26385481283E+02 -0.30867456401E+02  0.56857628125E+02  0.41800000000E+01 0.  1.
        -11    1    1    2    0    0  0.26279347428E+02  0.45128183291E+02  0.25955400078E+02  0.58316719914E+02  0.00000000000E+00 0.  1.
         11    1    1    2    0    0 -0.46310930394E+02  0.55475662938E+01 -0.83495290013E+02  0.95639642513E+02  0.00000000000E+00 0. -1.
</event>
<event>
 7    1  0.2749315E-009  0.9970828E+02  0.7561462E-02  0.1280911E+00
          1   -1    0    0  501    0  0.00000000000E+00  0.00000000000E+00  0.56642352055E+03  0.56642352055E+03  0.00000000000E+00 0. -1.
         -1   -1    0    0    0  501 -0.00000000000E+00 -0.00000000000E+00 -0.31298820638E+02  0.31298820638E+02  0.00000000000E+00 0.  1.
         25    2    1    2    0    0 -0.66757700132E+02 -0.21087885758E+02  0.25483582864E+03  0.29238673352E+03  0.12508961957E+03 0.  0.
          5    1    3    3  502    0 -0.48889152986E+02 -0.54569299824E+02  0.62787917394E+02  0.96580291642E+02  0.41800000000E+01 0.  1.
         -5    1    3    3    0  502 -0.17868547146E+02  0.33481414066E+02  0.19204791125E+03  0.19580644188E+03  0.41800000000E+01 0.  1.
        -11    1    1    2    0    0  0.63465454928E+02 -0.30021764592E+01  0.27249316358E+03  0.27980243249E+03  0.00000000000E+00 0. -1.
         11    1    1    2    0    0  0.32922452041E+01  0.24090062217E+02  0.77957076888E+01  0.25533175174E+02  0.00000000000E+00 0.  1.
</event>
<event>
 7    1  0.2749315E-009  0.4177460E+03  0.7561462E-02  0.1037802E+00
         -1   -1    0    0    0  501 -0.00000000000E+00  0.00000000000E+00  0.64564889884E+03  0.64564889884E+03  0.00000000000E+00 0.  1.
          1   -1    0    0  501    0  0.00000000000E+00 -0.00000000000E+00 -0.34592789591E+03  0.34592789591E+03  0.00000000000E+00 0. -1.
         25    2    1    2    0    0  0.31981740682E+03  0.26334204548E+03  0.36149927771E+03  0.56388077096E+03  0.12509032519E+03 0.  0.
          5    1    3    3  502    0  0.12884723714E+03  0.10127429741E+03  0.66609413873E+02  0.17695304533E+03  0.41800000000E+01 0. -1.
         -5    1    3    3    0  502  0.19097016968E+03  0.16206774807E+03  0.29488986384E+03  0.38692772564E+03  0.41800000000E+01 0. -1.
        -11    1    1    2    0    0 -0.25376229343E+03 -0.16537601720E+03 -0.63726962053E+02  0.30952488483E+03  0.00000000000E+00 0.  1.
         11    1    1    2    0    0 -0.66055113382E+02 -0.97966028276E+02  0.19486872767E+01  0.11817113896E+03  0.00000000000E+00 0. -1.
</event>
<event>
 7    1  0.2749315E-009  0.1517024E+03  0.7561462E-02  0.1198397E+00
          4   -1    0    0  501    0  0.00000000000E+00  0.00000000000E+00  0.59645472806E+02  0.59645472806E+02  0.00000000000E+00 0. -1.
         -4   -1    0    0    0  501 -0.00000000000E+00 -0.00000000000E+00 -0.64998291724E+03  0.64998291724E+03  0.00000000000E+00 0.  1.
         25    2    1    2    0    0 -0.41726770275E+02 -0.12653888102E+03 -0.13463948108E+03  0.22699846480E+03  0.12508917376E+03 0.  0.
          5    1    3    3  502    0 -0.55669201625E+02 -0.84016936961E+02 -0.18619192141E+02  0.10257705602E+03  0.41800000000E+01 0. -1.
         -5    1    3    3    0  502  0.13942431350E+02 -0.42521944058E+02 -0.11602028894E+03  0.12442140878E+03  0.41800000000E+01 0. -1.
        -11    1    1    2    0    0 -0.26052656229E+02  0.32062415950E+02 -0.14932790393E+03  0.15493728507E+03  0.00000000000E+00 0.  1.
         11    1    1    2    0    0  0.67779426505E+02  0.94476465068E+02 -0.30637005942E+03  0.32769264017E+03  0.00000000000E+00 0. -1.
</event>
<event>
 7    1  0.2749315E-009  0.1054891E+03  0.7561462E-02  0.1269159E+00
         -1   -1    0    0    0  501 -0.00000000000E+00  0.00000000000E+00  0.20886873651E+03  0.20886873651E+03  0.00000000000E+00 0.  1.
          1   -1    0    0  501    0  0.00000000000E+00 -0.00000000000E+00 -0.92678146528E+02  0.92678146528E+02  0.00000000000E+00 0. -1.
         25    2    1    2    0    0  0.34330064767E+02 -0.78859692046E+02  0.43804743237E+02  0.15799892189E+03  0.12508956556E+03 0.  0.
          5    1    3    3  502    0  0.25814775396E+02  0.18139388945E+00 -0.36513544145E+02  0.44912657887E+02  0.41800000000E+01 0.  1.
         -5    1    3    3    0  502  0.85152893709E+01 -0.79041085936E+02  0.80318287382E+02  0.11308626401E+03  0.41800000000E+01 0.  1.
        -11    1    1    2    0    0  0.11404165206E+02 -0.26924226070E+01 -0.12592111939E+02  0.17200738549E+02  0.00000000000E+00 0. -1.
         11    1    1    2    0    0 -0.45734229973E+02  0.81552114653E+02  0.84977958686E+02  0.12634722260E+03  0.00000000000E+00 0.  1.
</event>
<event>
 7    1  0.2749315E-009  0.1526138E+03  0.7561462E-02  0.1197298E+00
         -2   -1    0    0    0  501 -0.00000000000E+00  0.00000000000E+00  0.29534990453E+02  0.29534990453E+02  0.00000000000E+00 0. -1.
          2   -1    0    0  501    0  0.00000000000E+00 -0.00000000000E+00 -0.91252491080E+03  0.91252491080E+03  0.00000000000E+00 0.  1.
         25    2    1    2    0    0  0.96937809183E+02 -0.74708562269E+02 -0.51229491035E+03  0.54136140710E+03  0.12509112599E+03 0.  0.
          5    1    3    3  502    0  0.12009049728E+03 -0.61502410061E+02 -0.32180321642E+03  0.34896856087E+03  0.41800000000E+01 0. -1.
         -5    1    3    3    0  502 -0.23152688098E+02 -0.13206152208E+02 -0.19049169394E+03  0.19239284623E+03  0.41800000000E+01 0. -1.
        -11    1    1    2    0    0 -0.52653026015E+02  0.82915456686E+02 -0.18319118765E+03  0.20786131276E+03  0.00000000000E+00 0. -1.
         11    1    1    2    0    0 -0.44284783169E+02 -0.82068944166E+01 -0.18750382234E+03  0.19283718140E+03  0.00000000000E+00 0.  1.
</event>
<event>
 7    1  0.2749315E-009  0.1054612E+03  0.7561462E-02  0.1269214E+00
          2   -1    0    0  501    0  0.00000000000E+00  0.00000000000E+00  0.13430454569E+03  0.13430454569E+03  0.00000000000E+00 0. -1.
         -2   -1    0    0    0  501 -0.00000000000E+00 -0.00000000000E+00 -0.12033030372E+03  0.12033030372E+03  0.00000000000E+00 0.  1.
         25    2    1    2    0    0  0.53581406673E+02  0.35838765550E+02  0.20030676316E+02  0.14213905849E+03  0.12508756812E+03 0.  0.
          5    1    3    3  502    0  0.16804768355E+02 -0.46942894375E+02  0.77448581119E+01  0.50630927297E+02  0.41800000000E+01 0. -1.
         -5    1    3    3    0  502  0.36776638318E+02  0.82781659925E+02  0.12285818204E+02  0.91508131196E+02  0.41800000000E+01 0. -1.
        -11    1    1    2    0    0 -0.21588248913E+02 -0.31110489099E+02 -0.46976725017E+02  0.60338443105E+02  0.00000000000E+00 0.  1.
         11    1    1    2    0    0 -0.31993157760E+02 -0.47282764515E+01  0.40920290676E+02  0.52157347811E+02  0.00000000000E+00 0. -1.
</event>
<event>
 7    1  0.2749315E-009  0.1503866E+03  0.7561462E-02  0.1199999E+00
         -2   -1    0    0    0  501 -0.00000000000E+00  0.00000000000E+00  0.37345473596E+02  0.37345473596E+02  0.00000000000E+00 0.  1.
          2   -1    0    0  501    0  0.00000000000E+00 -0.00000000000E+00 -0.73540188346E+03  0.73540188346E+03  0.00000000000E+00 0. -1.
         25    2    1    2    0    0 -0.10115608006E+03 -0.73260433722E+02 -0.36795198964E+03  0.40821545548E+03  0.12510614584E+03 0.  0.
          5    1    3    3  502    0 -0.39629743379E+02  0.33844942164E+02 -0.91248460690E+02  0.10516534909E+03  0.41800000000E+01 0.  1.
         -5    1    3    3    0  502 -0.61526336680E+02 -0.10710537589E+03 -0.27670352895E+03  0.30305010639E+03  0.41800000000E+01 0.  1.
        -11    1    1    2    0    0  0.52793862991E+02  0.38659650607E+02 -0.27758931298E+03  0.28519745307E+03  0.00000000000E+00 0. -1.
         11    1    1    2    0    0  0.48362217067E+02  0.34600783115E+02 -0.52515107234E+02  0.79334448505E+02  0.00000000000E+00 0.  1.
</event>
<event>
 7    1  0.3155421E-009  0.1111395E+03  0.7561462E-02  0.1258474E+00
          2   -1    0    0  501    0  0.00000000000E+00  0.00000000000E+00  0.15518583276E+03  0.15518583276E+03  0.00000000000E+00 0. -1.
         -2   -1    0    0    0  501 -0.00000000000E+00 -0.00000000000E+00 -0.11149039577E+03  0.11149039577E+03  0.00000000000E+00 0.  1.
         25    2    1    2    0    0 -0.23183305370E+02  0.48835846252E+02 -0.27250900994E+02  0.13896854527E+03  0.12508892614E+03 0.  0.
          5    1    3    3  502    0  0.28426247113E+02 -0.17538942178E+02  0.23147898314E+02  0.40852951105E+02  0.41800000000E+01 0.  1.
         -5    1    3    3    0  502 -0.51609552483E+02  0.66374788429E+02 -0.50398799309E+02  0.98115594164E+02  0.41800000000E+01 0.  1.
        -11    1    1    2    0    0  0.55079208896E+02 -0.13257724888E+02  0.26872361928E+02  0.62702554633E+02  0.00000000000E+00 0.  1.
         11    1    1    2    0    0 -0.31895903527E+02 -0.35578121364E+02  0.44073976060E+02  0.65005128623E+02  0.00000000000E+00 0. -1.
</event>
<event>
 7    1  0.2749315E-009  0.1747609E+03  0.7561462E-02  0.1172972E+00
         -1   -1    0    0    0  501 -0.00000000000E+00  0.00000000000E+00  0.85490669544E+02  0.85490669544E+02  0.00000000000E+00 0.  1.
          1   -1    0    0  501    0  0.00000000000E+00 -0.00000000000E+00 -0.51105111789E+03  0.51105111789E+03  0.00000000000E+00 0. -1.
         25    2    1    2    0    0  0.14587035460E+03  0.43367808972E+02 -0.93085732071E+02  0.21788073297E+03  0.12509249810E+03 0.  0.
          5    1    3    3  502    0 -0.60112500765E+01 -0.26279931883E+02 -0.26288787350E+02  0.37885916744E+02  0.41800000000E+01 0. -1.
         -5    1    3    3    0  502  0.15188160468E+03  0.69647740854E+02 -0.66796944721E+02  0.17999481623E+03  0.41800000000E+01 0. -1.
        -11    1    1    2    0    0 -0.65602964629E+02 -0.35112563093E+02 -0.25918597268E+03  0.26965535316E+03  0.00000000000E+00 0. -1.
         11    1    1    2    0    0 -0.80267389973E+02 -0.82552458791E+01 -0.73288743600E+02  0.10900570130E+03  0.00000000000E+00 0.  1.
</event>
<event>
 7    1  0.2749315E-009  0.1466134E+03  0.7561462E-02  0.1204697E+00
         -2   -1    0    0    0  501 -0.00000000000E+00  0.00000000000E+00  0.48458774115E+02  0.48458774115E+02  0.00000000000E+00 0. -1.
          2   -1    0    0  501    0  0.00000000000E+00 -0.00000000000E+00 -0.62014310986E+03  0.62014310986E+03  0.00000000000E+00 0.  1.
         25    2    1    2    0    0  0.81036664928E+02  0.10437297678E+03 -0.34544149033E+03  0.39043327914E+03  0.12509061864E+03 0.  0.
          5    1    3    3  502    0  0.24015746801E+02  0.17735699140E+01 -0.20889924809E+03  0.21032420189E+03  0.41800000000E+01 0.  1.
         -5    1    3    3    0  502  0.57020918127E+02  0.10259940687E+03 -0.13654224224E+03  0.18010907725E+03  0.41800000000E+01 0.  1.
        -11    1    1    2    0    0  0.36262935850E+01 -0.51258154148E+02 -0.12841222049E+03  0.13831213520E+03  0.00000000000E+00 0.  1.
         11    1    1    2    0    0 -0.84662958513E+02 -0.53114822631E+02 -0.97830624922E+02  0.13985646964E+03  0.00000000000E+00 0. -1.
</event>
<event>
 7    1  0.3328941E-009  0.1413965E+03  0.7561462E-02  0.1211462E+00
          1   -1    0    0  501    0  0.00000000000E+00  0.00000000000E+00  0.49594784528E+03  0.49594784528E+03  0.00000000000E+00 0. -1.
         -1   -1    0    0    0  501 -0.00000000000E+00 -0.00000000000E+00 -0.45267066351E+02  0.45267066351E+02  0.00000000000E+00 0.  1.
         25    2    1    2    0    0 -0.79011563173E+01 -0.91934173176E+02  0.32580631829E+03  0.36098815840E+03  0.12509345706E+03 0.  0.
          5    1    3    3  502    0  0.50067539414E+02 -0.82102594637E+02  0.21174460039E+03  0.23259587860E+03  0.41800000000E+01 0.  1.
         -5    1    3    3    0  502 -0.57968695731E+02 -0.98315785391E+01  0.11406171790E+03  0.12839227979E+03  0.41800000000E+01 0.  1.
        -11    1    1    2    0    0  0.48168853486E+02  0.48165264425E+02  0.49453111765E+02  0.84176846024E+02  0.00000000000E+00 0. -1.
         11    1    1    2    0    0 -0.40267697168E+02  0.43768908752E+02  0.75421348882E+02  0.96049907214E+02  0.00000000000E+00 0.  1.
</event>
<event>
 7    1  0.2749315E-009  0.1035799E+03  0.7561462E-02  0.1272943E+00
         -2   -1    0    0    0  501 -0.00000000000E+00  0.00000000000E+00  0.37455029032E+02  0.37455029032E+02  0.00000000000E+00 0.  1.
          2   -1    0    0  501    0  0.00000000000E+00 -0.00000000000E+00 -0.32644895249E+03  0.32644895249E+03  0.00000000000E+00 0. -1.
         25    2    1    2    0    0 -0.18595326292E+02 -0.10862409746E+02 -0.17382680783E+03  0.21523288782E+03  0.12508260780E+03 0.  0.
          5    1    3    3  502    0  0.84866924179E+01  0.47670976202E+02 -0.12535200341E+03  0.13444382872E+03  0.41800000000E+01 0. -1.
         -5    1    3    3    0  502 -0.27082018710E+02 -0.58533385947E+02 -0.48474804416E+02  0.80789059105E+02  0.41800000000E+01 0. -1.
        -11    1    1    2    0    0 -0.54388502154E+01 -0.38576303516E+02 -0.44575401305E+02  0.59200326740E+02  0.00000000000E+00 0.  1.
         11    1    1    2    0    0  0.24034176508E+02  0.49438713261E+02 -0.70591714325E+02  0.89470766962E+02  0.00000000000E+00 0. -1.
</event>
<event>
 7    1  0.2749315E-009  0.9079257E+02  0.7561462E-02  0.1300944E+00
          2   -1    0    0  501    0  0.00000000000E+00  0.00000000000E+00  0.27169908313E+03  0.27169908313E+03  0.00000000000E+00 0. -1.
         -2   -1    0    0    0  501 -0.00000000000E+00 -0.00000000000E+00 -0.50676091251E+02  0.50676091251E+02  0.00000000000E+00 0.  1.
         25    2    1    2    0    0  0.26755650178E+02 -0.30517787216E+02  0.15211097274E+03  0.20108035172E+03  0.12509340377E+03 0.  0.
          5    1    3    3  502    0 -0.30234929324E+02  0.22600011785E+02  0.10075753544E+03  0.10767759670E+03  0.41800000000E+01 0.  1.
         -5    1    3    3    0  502  0.56990579502E+02 -0.53117799001E+02  0.51353437304E+02  0.93402755021E+02  0.41800000000E+01 0.  1.
        -11    1    1    2    0    0  0.96124698914E+01  0.27457160359E+02  0.78367800905E+02  0.83593106481E+02  0.00000000000E+00 0. -1.
         11    1    1    2    0    0 -0.36368120070E+02  0.30606268566E+01 -0.94557817654E+01  0.37701716180E+02  0.00000000000E+00 0.  1.
</event>
<event>
 7    1  0.2749315E-009  0.1385216E+03  0.7561462E-02  0.1215332E+00
          2   -1    0    0  501    0  0.00000000000E+00  0.00000000000E+00  0.26843062826E+04  0.26843062826E+04  0.00000000000E+00 0. -1.
         -2   -1    0    0    0  501 -0.00000000000E+00 -0.00000000000E+00 -0.11794193252E+02  0.11794193252E+02  0.00000000000E+00 0.  1.
         25    2    1    2    0    0  0.49578545478E+00  0.10040692967E+03  0.21925905596E+04  0.21984501340E+04  0.12509129753E+03 0.  0.
          5    1    3    3  502    0  0.47630011049E+02  0.56322879771E+01  0.10021535436E+04  0.10033092933E+04  0.41800000000E+01 0.  1.
         -5    1    3    3    0  502 -0.47134225594E+02  0.94774641692E+02  0.11904370159E+04  0.11951408408E+04  0.41800000000E+01 0.  1.
        -11    1    1    2    0    0 -0.34724994076E+02 -0.65167125737E+02  0.36931030102E+03  0.37662007107E+03  0.00000000000E+00 0. -1.
         11    1    1    2    0    0  0.34229208621E+02 -0.35239803933E+02  0.11061122877E+03  0.12103027073E+03  0.00000000000E+00 0.  1.
</event>
<event>
 7    1  0.2749315E-009  0.1266957E+03  0.7561462E-02  0.1232443E+00
         -1   -1    0    0    0  501 -0.00000000000E+00  0.00000000000E+00  0.75955663111E+02  0.75955663111E+02  0.00000000000E+00 0.  1.
          1   -1    0    0  501    0  0.00000000000E+00 -0.00000000000E+00 -0.30992367457E+03  0.30992367457E+03  0.00000000000E+00 0. -1.
         25    2    1    2    0    0  0.73912968400E+02 -0.50242158547E+02 -0.50036487710E+02  0.16167657040E+03  0.12509301308E+03 0.  0.
          5    1    3    3  502    0  0.81415092721E+02 -0.82051888182E+02 -0.55477747969E+02  0.12828165339E+03  0.41800000000E+01 0. -1.
         -5    1    3    3    0  502 -0.75021243209E+01  0.31809729636E+02  0.54412602593E+01  0.33394917009E+02  0.41800000000E+01 0. -1.
        -11    1    1    2    0    0 -0.29696151003E+02 -0.88379818041E+01 -0.12775685000E+03  0.13146019941E+03  0.00000000000E+00 0. -1.
         11    1    1    2    0    0 -0.44216817396E+02  0.59080140351E+02 -0.56174673749E+02  0.92742567871E+02  0.00000000000E+00 0.  1.
</event>
<event>
 7    1  0.2749315E-009  0.9768349E+02  0.7561462E-02  0.1285244E+00
          4   -1    0    0  501    0  0.00000000000E+00  0.00000000000E+00  0.24157738138E+03  0.24157738138E+03  0.00000000000E+00 0. -1.
         -4   -1    0    0    0  501 -0.00000000000E+00 -0.00000000000E+00 -0.77278390617E+02  0.77278390617E+02  0.00000000000E+00 0.  1.
         25    2    1    2    0    0 -0.82148356275E+02 -0.28279455947E+01  0.10232417868E+03  0.18131169098E+03  0.12508933619E+03 0.  0.
          5    1    3    3  502    0 -0.41856403977E+02 -0.24359323124E+02  0.12205147983E+03  0.13137492648E+03  0.41800000000E+01 0. -1.
         -5    1    3    3    0  502 -0.40291952297E+02  0.21531377529E+02 -0.19727301154E+02  0.49936764503E+02  0.41800000000E+01 0. -1.
        -11    1    1    2    0    0  0.20303094054E+02 -0.25719301320E+02 -0.13887555022E+02  0.35588794206E+02  0.00000000000E+00 0.  1.
         11    1    1    2    0    0  0.61845262220E+02  0.28547246914E+02  0.75862367102E+02  0.10195528681E+03  0.00000000000E+00 0. -1.
</event>
<event>
 7    1  0.3190926E-009  0.1082447E+03  0.7561462E-02  0.1263855E+00
          1   -1    0    0  501    0  0.00000000000E+00  0.00000000000E+00  0.52269264006E+03  0.52269264006E+03  0.00000000000E+00 0. -1.
         -1   -1    0    0    0  501 -0.00000000000E+00 -0.00000000000E+00 -0.28703256088E+02  0.28703256088E+02  0.00000000000E+00 0.  1.
         25    2    1    2    0    0 -0.40108892171E+02 -0.36497631049E+02  0.31774407858E+03  0.34576007688E+03  0.12509169032E+03 0.  0.
          5    1    3    3  502    0 -0.23588803992E+02  0.36497565505E+02  0.21010471399E+03  0.21459256092E+03  0.41800000000E+01 0. -1.
         -5    1    3    3    0  502 -0.16520088179E+02 -0.72995196553E+02  0.10763936459E+03  0.13116751596E+03  0.41800000000E+01 0. -1.
        -11    1    1    2    0    0 -0.21797739354E+02  0.27850262417E+02  0.10530726661E+03  0.11108734833E+03  0.00000000000E+00 0. -1.
         11    1    1    2    0    0  0.61906631525E+02  0.86473686319E+01  0.70938038775E+02  0.94548470935E+02  0.00000000000E+00 0.  1.
</event>
<event>
 7    1  0.2749315E-009  0.1186976E+03  0.7561462E-02  0.1245261E+00
         -1   -1    0    0    0  501 -0.00000000000E+00  0.00000000000E+00  0.22673979743E+03  0.22673979743E+03  0.00000000000E+00 0.  1.
          1   -1    0    0  501    0  0.00000000000E+00 -0.00000000000E+00 -0.74399219697E+02  0.74399219697E+02  0.00000000000E+00 0. -1.
         25    2    1    2    0    0  0.45128769249E+02 -0.19795387619E+02  0.14435940784E+03  0.19727299545E+03  0.12509409625E+03 0.  0.
          5    1    3    3  502    0  0.78197714976E+02  0.21101393432E+02  0.78316858750E+02  0.11274375458E+03  0.41800000000E+01 0.  1.
         -5    1    3    3    0  502 -0.33068945726E+02 -0.40896781051E+02  0.66042549092E+02  0.84529240872E+02  0.41800000000E+01 0.  1.
        -11    1    1    2    0    0 -0.20874990212E+02 -0.36604968033E+02  0.43881469981E+01  0.42366788115E+02  0.00000000000E+00 0. -1.
         11    1    1    2    0    0 -0.24253779037E+02  0.56400355652E+02  0.35930228953E+01  0.61499233563E+02  0.00000000000E+00 0.  1.
</event>
<event>
 7    1  0.2749315E-009  0.8005569E+02  0.7561462E-02  0.1328893E+00
          3   -1    0    0  501    0  0.00000000000E+00  0.00000000000E+00  0.24729537721E+03  0.24729537721E+03  0.00000000000E+00 0. -1.
         -3   -1    0    0    0  501 -0.00000000000E+00 -0.00000000000E+00 -0.70920776190E+02  0.70920776190E+02  0.00000000000E+00 0.  1.
         25    2    1    2    0    0 -0.30793840297E+02  0.38960243372E+02  0.28801118853E+02  0.13763220860E+03  0.12508780610E+03 0.  0.
          5    1    3    3  502    0  0.13757335236E+02  0.41311155901E+01 -0.43353886904E+02  0.45862427962E+02  0.41800000000E+01 0. -1.
         -5    1    3    3    0  502 -0.44551175534E+02  0.34829127782E+02  0.72155005757E+02  0.91769780643E+02  0.41800000000E+01 0. -1.
        -11    1    1    2    0    0 -0.84342687478E+00 -0.53586182173E+02  0.13189128580E+03  0.14236397563E+03  0.00000000000E+00 0. -1.
         11    1    1    2    0    0  0.31637267172E+02  0.14625938801E+02  0.15682196370E+02  0.38219969164E+02  0.00000000000E+00 0.  1.
</event>
<event>
 7    1  0.2834045E-009  0.1147812E+03  0.7561462E-02  0.1251963E+00
          2   -1    0    0  501    0  0.00000000000E+00  0.00000000000E+00  0.84958437637E+02  0.84958437637E+02  0.00000000000E+00 0. -1.
         -2   -1    0    0    0  501 -0.00000000000E+00 -0.00000000000E+00 -0.23449630017E+03  0.23449630017E+03  0.00000000000E+00 0.  1.
         25    2    1    2    0    0 -0.83021246329E+02 -0.32953996132E+02 -0.73552194389E+02  0.17039638154E+03  0.12508600377E+03 0.  0.
          5    1    3    3  502    0  0.13872450216E+02 -0.34938076060E+02 -0.62109308080E+02  0.72719684982E+02  0.41800000000E+01 0.  1.
         -5    1    3    3    0  502 -0.96893696544E+02  0.19840799277E+01 -0.11442886309E+02  0.97676696557E+02  0.41800000000E+01 0.  1.
        -11    1    1    2    0    0  0.19505581457E+02  0.23466829257E+02  0.17849000654E+02  0.35351755369E+02  0.00000000000E+00 0. -1.
         11    1    1    2    0    0  0.63515664872E+02  0.94871668753E+01 -0.93834668793E+02  0.11370660089E+03  0.00000000000E+00 0.  1.
</event>
<event>
 7    1  0.2749315E-009  0.1011244E+03  0.7561462E-02  0.1277949E+00
         -1   -1    0    0    0  501 -0.00000000000E+00  0.00000000000E+00  0.60783746405E+02  0.60783746405E+02  0.00000000000E+00 0.  1.
          1   -1    0    0  501    0  0.00000000000E+00 -0.00000000000E+00 -0.33780834132E+03  0.33780834132E+03  0.00000000000E+00 0. -1.
         25    2    1    2    0    0  0.15160247219E+02  0.63019728080E+01 -0.25131895564E+02  0.12864392454E+03  0.12509236263E+03 0.  0.
          5    1    3    3  502    0  0.12799264849E+02 -0.48929383926E+02 -0.46883317511E+02  0.69089967817E+02  0.41800000000E+01 0. -1.
         -5    1    3    3    0  502  0.23609823696E+01  0.55231356734E+02  0.21751421947E+02  0.59553956721E+02  0.41800000000E+01 0. -1.
        -11    1    1    2    0    0 -0.18399558997E+02 -0.49465200054E+02 -0.15742711319E+03  0.16603808526E+03  0.00000000000E+00 0.  1.
         11    1    1    2    0    0  0.32393117780E+01  0.43163227246E+02 -0.94465586157E+02  0.10391007793E+03  0.00000000000E+00 0. -1.
</event>
<event>
 7    1  0.2749315E-009  0.1007800E+03  0.7561462E-02  0.1278664E+00
          2   -1    0    0  501    0  0.00000000000E+00  0.00000000000E+00  0.65604838369E+02  0.65604838369E+02  0.00000000000E+00 0. -1.
         -2   -1    0    0    0  501 -0.00000000000E+00 -0.00000000000E+00 -0.18385684443E+03  0.18385684443E+03  0.00000000000E+00 0.  1.
         25    2    1    2    0    0 -0.15098571367E+02 -0.60418630696E+01 -0.56661657171E+02  0.13828575381E+03  0.12509170775E+03 0.  0.
          5    1    3    3  502    0  0.33818437380E+02 -0.46545219095E+02 -0.81482391161E+01  0.58258135296E+02  0.41800000000E+01 0. -1.
         -5    1    3    3    0  502 -0.48917008748E+02  0.40503356026E+02 -0.48513418055E+02  0.80027618517E+02  0.41800000000E+01 0. -1.
        -11    1    1    2    0    0  0.47100728708E+02  0.94681061323E+01 -0.80591414558E+01  0.48714201621E+02  0.00000000000E+00 0. -1.
         11    1    1    2    0    0 -0.32002157341E+02 -0.34262430627E+01 -0.53531207436E+02  0.62461727367E+02  0.00000000000E+00 0.  1.
</event>
<event>
 7    1  0.2749315E-009  0.8884574E+02  0.7561462E-02  0.1305671E+00
          1   -1    0    0  501    0  0.00000000000E+00  0.00000000000E+00  0.17892763003E+04  0.17892763003E+04  0.00000000000E+00 0. -1.
         -1   -1    0    0    0  501 -0.00000000000E+00 -0.00000000000E+00 -0.23299372706E+02  0.23299372706E+02  0.00000000000E+00 0.  1.
         25    2    1    2    0    0 -0.19537433677E+02 -0.36020893597E+02  0.16796843048E+04  0.16848341655E+04  0.12509030873E+03 0.  0.
          5    1    3    3  502    0 -0.32521130409E+02  0.13444829317E+02  0.14412922722E+03  0.14842201285E+03  0.41800000000E+01 0.  1.
         -5    1    3    3    0  502  0.12983696733E+02 -0.49465722914E+02  0.15355550776E+04  0.15364121526E+04  0.41800000000E+01 0.  1.
        -11    1    1    2    0    0  0.50045308219E+02  0.10427744239E+02  0.64649494827E+02  0.82418613832E+02  0.00000000000E+00 0. -1.
         11    1    1    2    0    0 -0.30507874542E+02  0.25593149358E+02  0.21643127967E+02  0.45322893678E+02  0.00000000000E+00 0.  1.
</event>
<event>
 7    1  0.2749315E-009  0.1825533E+03  0.7561462E-02  0.1165355E+00
         -2   -1    0    0    0  501 -0.00000000000E+00  0.00000000000E+00  0.34341910464E+02  0.34341910464E+02  0.00000000000E+00 0.  1.
          2   -1    0    0  501    0  0.00000000000E+00 -0.00000000000E+00 -0.12259414689E+04  0.12259414689E+04  0.00000000000E+00 0. -1.
         25    2    1    2    0    0  0.16612895207E+03 -0.79105083304E+01 -0.77146495736E+03  0.79904056382E+03  0.12508492051E+03 0.  0.
          5    1    3    3  502    0  0.47533601369E+02  0.47591547279E+02 -0.38812938515E+03  0.39393691202E+03  0.41800000000E+01 0.  1.
         -5    1    3    3    0  502  0.11859535070E+03 -0.55502055609E+02 -0.38333557220E+03  0.40510365180E+03  0.41800000000E+01 0.  1.
        -11    1    1    2    0    0 -0.13676824439E+03  0.10855195685E+02 -0.40594010541E+03  0.42849825802E+03  0.00000000000E+00 0. -1.
         11    1    1    2    0    0 -0.29360707681E+02 -0.29446873548E+01 -0.14194495642E+02  0.32744557497E+02  0.00000000000E+00 0.  1.
</event>
<event>
 7    1  0.2749315E-009  0.1335317E+03  0.7561462E-02  0.1222307E+00
          1   -1    0    0  501    0  0.00000000000E+00  0.00000000000E+00  0.24237760151E+02  0.24237760151E+02  0.00000000000E+00 0. -1.
         -1   -1    0    0    0  501 -0.00000000000E+00 -0.00000000000E+00 -0.79760206534E+03  0.79760206534E+03  0.00000000000E+00 0.  1.
         25    2    1    2    0    0  0.32736197667E+02 -0.76518815277E+02 -0.48943810807E+03  0.51197920809E+03  0.12508501171E+03 0.  0.
          5    1    3    3  502    0  0.30452672360E+02  0.30390204139E+02 -0.13930443816E+03  0.14585653448E+03  0.41800000000E+01 0.  1.
         -5    1    3    3    0  502  0.22835253066E+01 -0.10690901942E+03 -0.35013366991E+03  0.36612267361E+03  0.41800000000E+01 0.  1.
        -11    1    1    2    0    0  0.17564406873E+01  0.81895362457E+02 -0.24094668282E+03  0.25449015588E+03  0.00000000000E+00 0.  1.
         11    1    1    2    0    0 -0.34492638354E+02 -0.53765471800E+01 -0.42979514297E+02  0.55370461524E+02  0.00000000000E+00 0. -1.
</event>
<event>
 7    1  0.2749315E-009  0.1621782E+03  0.7561462E-02  0.1186259E+00
         -1   -1    0    0    0  501 -0.00000000000E+00  0.00000000000E+00  0.82134455474E+03  0.82134455474E+03  0.00000000000E+00 0.  1.
          1   -1    0    0  501    0  0.00000000000E+00 -0.00000000000E+00 -0.62319845741E+02  0.62319845741E+02  0.00000000000E+00 0. -1.
         25    2    1    2    0    0 -0.57275628198E+01 -0.14570234274E+03  0.66163871358E+03  0.68896723933E+03  0.12509233353E+03 0.  0.
          5    1    3    3  502    0  0.20971561461E+02  0.64512845974E+01  0.23653683721E+02  0.32532977371E+02  0.41800000000E+01 0.  1.
         -5    1    3    3    0  502 -0.26699124281E+02 -0.15215362734E+03  0.63798502985E+03  0.65643426195E+03  0.41800000000E+01 0.  1.
        -11    1    1    2    0    0 -0.73507020001E+01  0.24481548182E+02  0.63043791556E+02  0.68028660688E+02  0.00000000000E+00 0.  1.
         11    1    1    2    0    0  0.13078264820E+02  0.12122079456E+03  0.34342203867E+02  0.12666850047E+03  0.00000000000E+00 0. -1.
</event>
<event>
 7    1  0.2749315E-009  0.1888483E+03  0.7561462E-02  0.1159504E+00
         -2   -1    0    0    0  501 -0.00000000000E+00  0.00000000000E+00  0.11789775360E+03  0.11789775360E+03  0.00000000000E+00 0.  1.
          2   -1    0    0  501    0  0.00000000000E+00 -0.00000000000E+00 -0.32415428843E+03  0.32415428843E+03  0.00000000000E+00 0. -1.
         25    2    1    2    0    0 -0.79403663349E+02  0.13975895746E+03 -0.13286662841E+03  0.24318573672E+03  0.12509298004E+03 0.  0.
          5    1    3    3  502    0 -0.33586514281E+02  0.14294661833E+03 -0.13132552389E+03  0.19704226769E+03  0.41800000000E+01 0.  1.
         -5    1    3    3    0  502 -0.45817149067E+02 -0.31876608693E+01 -0.15411045185E+01  0.46143469024E+02  0.41800000000E+01 0.  1.
        -11    1    1    2    0    0  0.70749940370E+02 -0.15316935236E+03 -0.64752282390E+02  0.18071873904E+03  0.00000000000E+00 0.  1.
         11    1    1    2    0    0  0.86537229787E+01  0.13410394899E+02 -0.86376240340E+01  0.18147566275E+02  0.00000000000E+00 0. -1.
</event>
<event>
 7    1  0.2749315E-009  0.1476223E+03  0.7561462E-02  0.1203425E+00
          2   -1    0    0  501    0  0.00000000000E+00  0.00000000000E+00  0.32652695833E+03  0.32652695833E+03  0.00000000000E+00 0. -1.
         -2   -1    0    0    0  501 -0.00000000000E+00 -0.00000000000E+00 -0.75588822441E+02  0.75588822441E+02  0.00000000000E+00 0.  1.
         25    2    1    2    0    0 -0.34482172127E+02 -0.10791425744E+03  0.11773053216E+03  0.20576865262E+03  0.12508298463E+03 0.  0.
          5    1    3    3  502    0 -0.71987544786E+02 -0.24040644630E+02  0.63146239408E+02  0.98818415034E+02  0.41800000000E+01 0. -1.
         -5    1    3    3    0  502  0.37505372659E+02 -0.83873612807E+02  0.54584292751E+02  0.10695023758E+03  0.41800000000E+01 0. -1.
        -11    1    1    2    0    0  0.44739814652E+02  0.44782195139E+02  0.20114569591E+02  0.66420568550E+02  0.00000000000E+00 0.  1.
         11    1    1    2    0    0 -0.10257642525E+02  0.63132062298E+02  0.11309303414E+03  0.12992655961E+03  0.00000000000E+00 0. -1.
</event>
<event>
 7    1  0.2749315E-009  0.1188621E+03  0.7561462E-02  0.1244986E+00
         -1   -1    0    0    0  501 -0.00000000000E+00  0.00000000000E+00  0.87871738729E+02  0.87871738729E+02  0.00000000000E+00 0.  1.
          1   -1    0    0  501    0  0.00000000000E+00 -0.00000000000E+00 -0.19102388508E+03  0.19102388508E+03  0.00000000000E+00 0. -1.
         25    2    1    2    0    0  0.55024948487E+02  0.13553363181E+02 -0.10181615207E+02  0.13770540845E+03  0.12509066959E+03 0.  0.
          5    1    3    3  502    0  0.64390494880E+02  0.57709643503E+02  0.11724308997E+02  0.87358288706E+02  0.41800000000E+01 0. -1.
         -5    1    3    3    0  502 -0.93655463925E+01 -0.44156280323E+02 -0.21905924204E+02  0.50347119743E+02  0.41800000000E+01 0. -1.
        -11    1    1    2    0    0 -0.32933214696E+02 -0.51959863270E+02 -0.47684747343E+02  0.77834819653E+02  0.00000000000E+00 0.  1.
         11    1    1    2    0    0 -0.22091733791E+02  0.38406500090E+02 -0.45285783804E+02  0.63355395712E+02  0.00000000000E+00 0. -1.
</event>
<event>
 7    1  0.2749315E-009  0.9555264E+02  0.7561462E-02  0.1289936E+00
         -2   -1    0    0    0  501 -0.00000000000E+00  0.00000000000E+00  0.63401258584E+02  0.63401258584E+02  0.00000000000E+00 0.  1.
          2   -1    0    0  501    0  0.00000000000E+00 -0.00000000000E+00 -0.20175448652E+03  0.20175448652E+03  0.00000000000E+00 0. -1.
         25    2    1    2    0    0  0.16985222963E+02  0.25141404308E+02 -0.74255364012E+02  0.14859961981E+03  0.12508956756E+03 0.  0.
          5    1    3    3  502    0  0.55292191089E+02 -0.94451170192E+01  0.21638587891E+01  0.56290241746E+02  0.41800000000E+01 0.  1.
         -5    1    3    3    0  502 -0.38306968126E+02  0.34586521328E+02 -0.76419222801E+02  0.92309378061E+02  0.41800000000E+01 0.  1.
        -11    1    1    2    0    0  0.30091057578E+02 -0.19035481934E+02  0.14361029565E+01  0.35635427742E+02  0.00000000000E+00 0.  1.
         11    1    1    2    0    0 -0.47076280541E+02 -0.61059223739E+01 -0.65533966880E+02  0.80920697554E+02  0.00000000000E+00 0. -1.
</event>
<event>
 7    1  0.2749315E-009  0.1148216E+03  0.7561462E-02  0.1251893E+00
          1   -1    0    0  501    0  0.00000000000E+00  0.00000000000E+00  0.33496592145E+03  0.33496592145E+03  0.00000000000E+00 0. -1.
         -1   -1    0    0    0  501 -0.00000000000E+00 -0.00000000000E+00 -0.18466404693E+03  0.18466404693E+03  0.00000000000E+00 0.  1.
         25    2    1    2    0    0 -0.53598026521E+02  0.31428364790E+02 -0.14678797566E+03  0.20261706207E+03  0.12508586444E+03 0.  0.
          5    1    3    3  502    0 -0.55503478132E+02  0.68979587922E+02 -0.13761566358E+03  0.16368983749E+03  0.41800000000E+01 0.  1.
         -5    1    3    3    0  502  0.19054516114E+01 -0.37551223132E+02 -0.91723120809E+01  0.38927224580E+02  0.41800000000E+01 0.  1.
        -11    1    1    2    0    0 -0.80869092145E+01 -0.40079989126E+02  0.65685034888E+02  0.77371360575E+02  0.00000000000E+00 0. -1.
         11    1    1    2    0    0  0.61684935735E+02  0.86516243362E+01  0.23140481530E+03  0.23964154574E+03  0.00000000000E+00 0.  1.
</event>
<event>
 7    1  0.2749315E-009  0.1123964E+03  0.7561462E-02  0.1256195E+00
         -1   -1    0    0    0  501 -0.00000000000E+00  0.00000000000E+00  0.11170675423E+03  0.11170675423E+03  0.00000000000E+00 0.  1.
          1   -1    0    0  501    0  0.00000000000E+00 -0.00000000000E+00 -0.19028932164E+03  0.19028932164E+03  0.00000000000E+00 0. -1.
         25    2    1    2    0    0  0.64198148815E+02  0.60670348117E+02  0.14887644395E+01  0.15314000606E+03  0.12508937438E+03 0.  0.
          5    1    3    3  502    0 -0.60633549313E+01  0.25634069477E+02 -0.51728258074E+02  0.58199268675E+02  0.41800000000E+01 0.  1.
         -5    1    3    3    0  502  0.70261503746E+02  0.35036278640E+02  0.53217022513E+02  0.94940737382E+02  0.41800000000E+01 0.  1.
        -11    1    1    2    0    0 -0.71393987757E+01 -0.62013847903E+02 -0.64356908867E+02  0.89657682690E+02  0.00000000000E+00 0. -1.
         11    1    1    2    0    0 -0.57058750039E+02  0.13434997861E+01 -0.15714422981E+02  0.59198387118E+02  0.00000000000E+00 0.  1.
</event>
<event>
 7    1  0.2749315E-009  0.1049273E+03  0.7561462E-02  0.1270263E+00
         -1   -1    0    0    0  501 -0.00000000000E+00  0.00000000000E+00  0.23912451482E+03  0.23912451482E+03  0.00000000000E+00 0.  1.
          1   -1    0    0  501    0  0.00000000000E+00 -0.00000000000E+00 -0.75871370196E+02  0.75871370196E+02  0.00000000000E+00 0. -1.
         25    2    1    2    0    0  0.61161807268E+01  0.69290188781E+02  0.45735030843E+02  0.15026555037E+03  0.12509798021E+03 0.  0.
          5    1    3    3  502    0 -0.87309991198E+01  0.82849791400E+02  0.76562424608E+02  0.11322365275E+03  0.41800000000E+01 0. -1.
         -5    1    3    3    0  502  0.14847179847E+02 -0.13559602618E+02 -0.30827393764E+02  0.37041897614E+02  0.41800000000E+01 0. -1.
        -11    1    1    2    0    0  0.29703917414E+02 -0.62841668200E+02  0.10561874037E+03  0.12643858703E+03  0.00000000000E+00 0.  1.
         11    1    1    2    0    0 -0.35820098141E+02 -0.64485205811E+01  0.11899373412E+02  0.38291747624E+02  0.00000000000E+00 0. -1.
</event>
<event>
 7    1  0.2749315E-009  0.8013146E+02  0.7561462E-02  0.1328679E+00
          1   -1    0    0  501    0  0.00000000000E+00  0.00000000000E+00  0.13056149267E+03  0.13056149267E+03  0.00000000000E+00 0. -1.
         -1   -1    0    0    0  501 -0.00000000000E+00 -0.00000000000E+00 -0.99594905576E+02  0.99594905576E+02  0.00000000000E+00 0.  1.
         25    2    1    2    0    0  0.14176278444E+02 -0.61735723857E+01  0.49501291772E+02  0.13541007464E+03  0.12508569287E+03 0.  0.
          5    1    3    3  502    0  0.38678997929E+02 -0.14107794126E+02 -0.30404736186E+02  0.51351875510E+02  0.41800000000E+01 0.  1.
         -5    1    3    3    0  502 -0.24502719485E+02  0.79342217404E+01  0.79906027958E+02  0.84058199129E+02  0.41800000000E+01 0.  1.
        -11    1    1    2    0    0  0.52473493886E+01 -0.41228028837E+02 -0.10779343775E+02  0.42935757704E+02  0.00000000000E+00 0.  1.
         11    1    1    2    0    0 -0.19423627832E+02  0.47401601223E+02 -0.77553609009E+01  0.51810565905E+02  0.00000000000E+00 0. -1.
</event>
<event>
 7    1  0.2749315E-009  0.1079761E+03  0.7561462E-02  0.1264364E+00
          4   -1    0    0  501    0  0.00000000000E+00  0.00000000000E+00  0.20015270126E+03  0.20015270126E+03  0.00000000000E+00 0. -1.
         -4   -1    0    0    0  501 -0.00000000000E+00 -0.00000000000E+00 -0.77551494946E+02  0.77551494946E+02  0.00000000000E+00 0.  1.
         25    2    1    2    0    0  0.38331640765E+02  0.18870372111E+02  0.17886840732E+02  0.13339569425E+03  0.12509622915E+03 0.  0.
          5    1    3    3  502    0  0.69274123302E+02  0.42418563765E+02 -0.14498791659E+02  0.82619162854E+02  0.41800000000E+01 0.  1.
         -5    1    3    3    0  502 -0.30942482536E+02 -0.23548191654E+02  0.32385632391E+02  0.50776531401E+02  0.41800000000E+01 0.  1.
        -11    1    1    2    0    0 -0.12316900924E+02  0.34228993194E+02  0.21600312443E+02  0.42307251401E+02  0.00000000000E+00 0.  1.
         11    1    1    2    0    0 -0.26014739842E+02 -0.53099365305E+02  0.83114053139E+02  0.10200125055E+03  0.00000000000E+00 0. -1.
</event>
<event>
 7    1  0.2749315E-009  0.1255713E+03  0.7561462E-02  0.1234179E+00
         -2   -1    0    0    0  501 -0.00000000000E+00  0.00000000000E+00  0.32475980340E+02  0.32475980340E+02  0.00000000000E+00 0.  1.
          2   -1    0    0  501    0  0.00000000000E+00 -0.00000000000E+00 -0.69763186002E+03  0.69763186002E+03  0.00000000000E+00 0. -1.
         25    2    1    2    0    0 -0.77928897982E+02 -0.69062491485E+01 -0.53003004395E+03  0.55018235136E+03  0.12509261704E+03 0.  0.
          5    1    3    3  502    0 -0.10533319563E+03 -0.17873602218E+02 -0.30525117444E+03  0.32343515525E+03  0.41800000000E+01 0. -1.
         -5    1    3    3    0  502  0.27404297645E+02  0.10967353069E+02 -0.22477886952E+03  0.22674719611E+03  0.41800000000E+01 0. -1.
        -11    1    1    2    0    0  0.64093338319E+02  0.42039752819E+02 -0.11176468763E+03  0.13552358553E+03  0.00000000000E+00 0.  1.
         11    1    1    2    0    0  0.13835559663E+02 -0.35133503671E+02 -0.23361148099E+02  0.44401903471E+02  0.00000000000E+00 0. -1.
</event>
<event>
 7    1  0.2749315E-009  0.8321348E+02  0.7561462E-02  0.1320172E+00
         -2   -1    0    0    0  501 -0.00000000000E+00  0.00000000000E+00  0.42369025485E+02  0.42369025485E+02  0.00000000000E+00 0.  1.
          2   -1    0    0  501    0  0.00000000000E+00 -0.00000000000E+00 -0.33118349341E+03  0.33118349341E+03  0.00000000000E+00 0. -1.
         25    2    1    2    0    0 -0.15793447439E+02 -0.27627792802E+02 -0.10666595199E+03  0.16744518286E+03  0.12509011165E+03 0.  0.
          5    1    3    3  502    0 -0.15928656094E+01  0.28312958987E+02 -0.10575610448E+03  0.10957183444E+03  0.41800000000E+01 0.  1.
         -5    1    3    3    0  502 -0.14200581829E+02 -0.55940751789E+02 -0.90984751233E+00  0.57873348421E+02  0.41800000000E+01 0.  1.
        -11    1    1    2    0    0 -0.59121265143E+01  0.49047051176E+02 -0.49259470350E+02  0.69764331059E+02  0.00000000000E+00 0.  1.
         11    1    1    2    0    0  0.21705573953E+02 -0.21419258374E+02 -0.13288904558E+03  0.13634300498E+03  0.00000000000E+00 0. -1.
</event>
<event>
 7    1  0.2749315E-009  0.1598176E+03  0.7561462E-02  0.1188903E+00
          1   -1    0    0  501    0  0.00000000000E+00  0.00000000000E+00  0.13630078095E+03  0.13630078095E+03  0.00000000000E+00 0. -1.
         -1   -1    0    0    0  501 -0.00000000000E+00 -0.00000000000E+00 -0.43662747518E+03  0.43662747518E+03  0.00000000000E+00 0.  1.
         25    2    1    2    0    0 -0.13298613842E+03  0.37859519096E+02  0.43022156145E+02  0.19135616188E+03  0.12509044158E+03 0.  0.
          5    1    3    3  502    0 -0.95025841107E+02 -0.33095108328E+02  0.15317855764E+01  0.10072246741E+03  0.41800000000E+01 0. -1.
         -5    1    3    3    0  502 -0.37960297311E+02  0.70954627424E+02  0.41490370569E+02  0.90633694478E+02  0.41800000000E+01 0. -1.
        -11    1    1    2    0    0  0.52160046416E+02 -0.12543755019E+02 -0.40822093993E+02  0.67412607055E+02  0.00000000000E+00 0.  1.
         11    1    1    2    0    0  0.80826092002E+02 -0.25315764077E+02 -0.30252675638E+03  0.31415948718E+03  0.00000000000E+00 0. -1.
</event>
<event>
 7    1  0.2825727E-009  0.5949069E+02  0.7561462E-02  0.1399982E+00
         -1   -1    0    0    0  501 -0.00000000000E+00  0.00000000000E+00  0.41187169299E+02  0.41187169299E+02  0.00000000000E+00 0.  1.
          1   -1    0    0  501    0  0.00000000000E+00 -0.00000000000E+00 -0.56098545502E+03  0.56098545502E+03  0.00000000000E+00 0. -1.
         25    2    1    2    0    0 -0.38055780448E+02  0.15349029483E+02 -0.47329957290E+03  0.49126675113E+03  0.12508676956E+03 0.  0.
          5    1    3    3  502    0  0.17387638685E+01 -0.21890259526E+02 -0.39579550153E+03  0.39642623297E+03  0.41800000000E+01 0. -1.
         -5    1    3    3    0  502 -0.39794544317E+02  0.37239289010E+02 -0.77504071378E+02  0.94840518153E+02  0.41800000000E+01 0. -1.
        -11    1    1    2    0    0  0.26862630576E+02 -0.63457744460E+01 -0.74492408601E+02  0.79441731564E+02  0.00000000000E+00 0. -1.
         11    1    1    2    0    0  0.11193149872E+02 -0.90032550373E+01  0.27993695779E+02  0.31464141633E+02  0.00000000000E+00 0.  1.
</event>
<event>
 7    1  0.2749315E-009  0.9303689E+02  0.7561462E-02  0.1295660E+00
          1   -1    0    0  501    0  0.00000000000E+00  0.00000000000E+00  0.15827030927E+03  0.15827030927E+03  0.00000000000E+00 0. -1.
         -1   -1    0    0    0  501 -0.00000000000E+00 -0.00000000000E+00 -0.82002288209E+02  0.82002288209E+02  0.00000000000E+00 0.  1.
         25    2    1    2    0    0 -0.40852898180E+01  0.28800237803E+02  0.61236923684E+02  0.14227829601E+03  0.12508800663E+03 0.  0.
          5    1    3    3  502    0 -0.36379272923E+02  0.58189120294E+02  0.69367811338E+02  0.97666733686E+02  0.41800000000E+01 0. -1.
         -5    1    3    3    0  502  0.32293983105E+02 -0.29388882492E+02 -0.81308876539E+01  0.44611562323E+02  0.41800000000E+01 0. -1.
        -11    1    1    2    0    0  0.21966452929E+02  0.14695749492E+02 -0.24891978583E+02  0.36305656656E+02  0.00000000000E+00 0.  1.
         11    1    1    2    0    0 -0.17881163111E+02 -0.43495987294E+02  0.39923075956E+02  0.61688644812E+02  0.00000000000E+00 0. -1.
</event>
<event>
 7    1  0.2749315E-009  0.1060563E+03  0.7561462E-02  0.1268052E+00
         -2   -1    0    0    0  501 -0.00000000000E+00  0.00000000000E+00  0.45520050876E+02  0.45520050876E+02  0.00000000000E+00 0.  1.
          2   -1    0    0  501    0  0.00000000000E+00 -0.00000000000E+00 -0.40661766088E+03  0.40661766088E+03  0.00000000000E+00 0. -1.
         25    2    1    2    0    0  0.22995811798E+02  0.77416939542E+02 -0.22193491269E+03  0.26725497754E+03  0.12509167703E+03 0.  0.
          5    1    3    3  502    0 -0.14255636653E+02 -0.21163389901E+02 -0.54198222675E+01  0.26418915986E+02  0.41800000000E+01 0. -1.
         -5    1    3    3    0  502  0.37251448451E+02  0.98580329443E+02 -0.21651509042E+03  0.24083606155E+03  0.41800000000E+01 0. -1.
        -11    1    1    2    0    0 -0.13492671760E+02 -0.49088465726E+02 -0.14566369936E+03  0.15430373609E+03  0.00000000000E+00 0. -1.
         11    1    1    2    0    0 -0.95031400377E+01 -0.28328473816E+02  0.65010020424E+01  0.30578998134E+02  0.00000000000E+00 0.  1.
</event>
<event>
 7    1  0.2749315E-009  0.1542513E+03  0.7561462E-02  0.1195344E+00
          1   -1    0    0  501    0  0.00000000000E+00  0.00000000000E+00  0.31487136720E+03  0.31487136720E+03  0.00000000000E+00 0. -1.
         -1   -1    0    0    0  501 -0.00000000000E+00 -0.00000000000E+00 -0.14709040654E+03  0.14709040654E+03  0.00000000000E+00 0.  1.
         25    2    1    2    0    0 -0.12688133299E+03  0.19381069806E+02  0.22943968328E+03  0.29114370177E+03  0.12509032052E+03 0.  0.
          5    1    3    3  502    0 -0.85127032522E+02  0.70869048329E+02  0.16364109187E+03  0.19764845819E+03  0.41800000000E+01 0.  1.
         -5    1    3    3    0  502 -0.41754300472E+02 -0.51487978523E+02  0.65798591412E+02  0.93495243580E+02  0.41800000000E+01 0.  1.
        -11    1    1    2    0    0  0.51202440612E+02 -0.21485846919E+02  0.20412223198E+02  0.59160716682E+02  0.00000000000E+00 0. -1.
         11    1    1    2    0    0  0.75678892383E+02  0.21047771130E+01 -0.82070945823E+02  0.11165735528E+03  0.00000000000E+00 0.  1.
</event>
<event>
 7    1  0.2749315E-009  0.7235809E+02  0.7561462E-02  0.1352253E+00
          2   -1    0    0  501    0  0.00000000000E+00  0.00000000000E+00  0.25722267161E+02  0.25722267161E+02  0.00000000000E+00 0. -1.
         -2   -1    0    0    0  501 -0.00000000000E+00 -0.00000000000E+00 -0.56456757858E+03  0.56456757858E+03  0.00000000000E+00 0.  1.
         25    2    1    2    0    0 -0.61161893861E+01  0.42567089005E+02 -0.22659176067E+03  0.26237621121E+03  0.12509230739E+03 0.  0.
          5    1    3    3  502    0  0.16831775064E+01  0.39742197089E+02 -0.46795342648E+01  0.40269662985E+02  0.41800000000E+01 0.  1.
         -5    1    3    3    0  502 -0.77993668924E+01  0.28248919157E+01 -0.22191222640E+03  0.22210654823E+03  0.41800000000E+01 0.  1.
        -11    1    1    2    0    0 -0.35271704795E+02  0.10697221828E+01 -0.16725160665E+03  0.17093372222E+03  0.00000000000E+00 0. -1.
         11    1    1    2    0    0  0.41387894181E+02 -0.43636811187E+02 -0.14500194410E+03  0.15697991231E+03  0.00000000000E+00 0.  1.
</event>
<event>
 7    1  0.2906009E-009  0.1473137E+03  0.7561462E-02  0.1203813E+00
         -4   -1    0    0    0  501 -0.00000000000E+00  0.00000000000E+00  0.18823410512E+03  0.18823410512E+03  0.00000000000E+00 0. -1.
          4   -1    0    0  501    0  0.00000000000E+00 -0.00000000000E+00 -0.13378844044E+03  0.13378844044E+03  0.00000000000E+00 0.  1.
         25    2    1    2    0    0  0.11494005518E+03  0.79695560311E+01  0.18001805993E+02  0.17101643999E+03  0.12509127716E+03 0.  0.
          5    1    3    3  502    0 -0.16714700231E+02  0.26849202354E+02  0.20508955241E+02  0.37925591834E+02  0.41800000000E+01 0.  1.
         -5    1    3    3    0  502  0.13165475541E+03 -0.18879646323E+02 -0.25071492482E+01  0.13309084816E+03  0.41800000000E+01 0.  1.
        -11    1    1    2    0    0 -0.72257389136E+01 -0.20008503584E+02 -0.19655228701E+02  0.28963417164E+02  0.00000000000E+00 0.  1.
         11    1    1    2    0    0 -0.10771431626E+03  0.12038947553E+02  0.56099087386E+02  0.12204268840E+03  0.00000000000E+00 0. -1.
</event>
<event>
 7    1  0.2749315E-009  0.1561766E+03  0.7561462E-02  0.1193082E+00
          2   -1    0    0  501    0  0.00000000000E+00  0.00000000000E+00  0.79775125554E+02  0.79775125554E+02  0.00000000000E+00 0. -1.
         -2   -1    0    0    0  501 -0.00000000000E+00 -0.00000000000E+00 -0.32352279531E+03  0.32352279531E+03  0.00000000000E+00 0.  1.
         25    2    1    2    0    0  0.11560140317E+03 -0.50642933268E+00 -0.95537497803E+02  0.19528677316E+03  0.12508225053E+03 0.  0.
          5    1    3    3  502    0  0.21747212821E+02 -0.56681670683E+02 -0.34955759171E+02  0.70179274406E+02  0.41800000000E+01 0.  1.
         -5    1    3    3    0  502  0.93854190354E+02  0.56175241350E+02 -0.60581738632E+02  0.12510749875E+03  0.41800000000E+01 0.  1.
        -11    1    1    2    0    0 -0.50191597097E+02 -0.40795550664E+02 -0.44002364006E+02  0.78228392616E+02  0.00000000000E+00 0.  1.
         11    1    1    2    0    0 -0.65409806077E+02  0.41301979996E+02 -0.10420780795E+03  0.12978275510E+03  0.00000000000E+00 0. -1.
</event>
<event>
 7    1  0.2749315E-009  0.1257913E+03  0.7561462E-02  0.1233838E+00
         -2   -1    0    0    0  501 -0.00000000000E+00  0.00000000000E+00  0.58546344829E+02  0.58546344829E+02  0.00000000000E+00 0.  1.
          2   -1    0    0  501    0  0.00000000000E+00 -0.00000000000E+00 -0.33204350265E+03  0.33204350265E+03  0.00000000000E+00 0. -1.
         25    2    1    2    0    0 -0.21314260031E+02 -0.86086371866E+02 -0.13636883512E+03  0.20521150392E+03  0.12510052377E+03 0.  0.
          5    1    3    3  502    0 -0.41297812770E+01  0.28949408865E+02 -0.54504669307E+01  0.30038364749E+02  0.41800000000E+01 0.  1.
         -5    1    3    3    0  502 -0.17184478754E+02 -0.11503578073E+03 -0.13091836819E+03  0.17517313917E+03  0.41800000000E+01 0.  1.
        -11    1    1    2    0    0  0.33589309119E+02  0.87086646548E+02 -0.68817663320E+02  0.11596635926E+03  0.00000000000E+00 0.  1.
         11    1    1    2    0    0 -0.12275049089E+02 -0.10002746820E+01 -0.68310659386E+02  0.69411984307E+02  0.00000000000E+00 0. -1.
</event>
<event>
 7    1  0.4238218E-009  0.1186924E+03  0.7561462E-02  0.1245270E+00
         -2   -1    0    0    0  501 -0.00000000000E+00  0.00000000000E+00  0.12949516464E+02  0.12949516464E+02  0.00000000000E+00 0.  1.
          2   -1    0    0  501    0  0.00000000000E+00 -0.00000000000E+00 -0.18331392245E+04  0.18331392245E+04  0.00000000000E+00 0. -1.
         25    2    1    2    0    0 -0.97373356175E+02 -0.42193738910E+02 -0.11283641242E+04  0.11402262912E+04  0.12509402931E+03 0.  0.
          5    1    3    3  502    0 -0.51784667942E+02 -0.12773783670E+02 -0.99147213455E+03  0.99291454182E+03  0.41800000000E+01 0. -1.
         -5    1    3    3    0  502 -0.45588688233E+02 -0.29419955240E+02 -0.13689198970E+03  0.14731174938E+03  0.41800000000E+01 0. -1.
        -11    1    1    2    0    0 -0.19293334297E+01 -0.14830307761E+02 -0.23911089495E+02  0.28202846605E+02  0.00000000000E+00 0.  1.
         11    1    1    2    0    0  0.99302689604E+02  0.57024046671E+02 -0.66791449431E+03  0.67765960317E+03  0.00000000000E+00 0. -1.
</event>
<event>
 7    1  0.2749315E-009  0.1094623E+03  0.7561462E-02  0.1261569E+00
         -1   -1    0    0    0  501 -0.00000000000E+00  0.00000000000E+00  0.21910072766E+03  0.21910072766E+03  0.00000000000E+00 0.  1.
          1   -1    0    0  501    0  0.00000000000E+00 -0.00000000000E+00 -0.71785108521E+02  0.71785108521E+02  0.00000000000E+00 0. -1.
         25    2    1    2    0    0  0.41277493554E+02  0.40288808536E+02  0.88391127356E+02  0.16366853910E+03  0.12508948688E+03 0.  0.
          5    1    3    3  502    0  0.38346792440E+01 -0.43939648222E+02  0.38925365360E+02  0.58975027929E+02  0.41800000000E+01 0.  1.
         -5    1    3    3    0  502  0.37442814310E+02  0.84228456758E+02  0.49465761997E+02  0.10469351117E+03  0.41800000000E+01 0.  1.
        -11    1    1    2    0    0 -0.37727679212E+02  0.39815298876E+01 -0.15148828691E+02  0.40849937206E+02  0.00000000000E+00 0. -1.
         11    1    1    2    0    0 -0.35498143419E+01 -0.44270338424E+02  0.74073320475E+02  0.86367359877E+02  0.00000000000E+00 0.  1.
</event>
<event>
 7    1  0.2749315E-009  0.1338690E+03  0.7561462E-02  0.1221825E+00
         -3   -1    0    0    0  501 -0.00000000000E+00  0.00000000000E+00  0.92586507986E+02  0.92586507986E+02  0.00000000000E+00 0.  1.
          3   -1    0    0  501    0  0.00000000000E+00 -0.00000000000E+00 -0.29541342877E+03  0.29541342877E+03  0.00000000000E+00 0. -1.
         25    2    1    2    0    0 -0.20115931344E+02  0.94428220000E+02 -0.21396366431E+03  0.26598811303E+03  0.12509151530E+03 0.  0.
          5    1    3    3  502    0 -0.66076608080E+02  0.64766579517E+02 -0.84472344891E+02  0.12535500552E+03  0.41800000000E+01 0.  1.
         -5    1    3    3    0  502  0.45960676735E+02  0.29661640483E+02 -0.12949131942E+03  0.14063310751E+03  0.41800000000E+01 0.  1.
        -11    1    1    2    0    0  0.44617747242E+02 -0.80595325721E+02  0.15873443294E+02  0.93478960729E+02  0.00000000000E+00 0.  1.
         11    1    1    2    0    0 -0.24501815898E+02 -0.13832894279E+02 -0.47366997695E+01  0.28532863002E+02  0.00000000000E+00 0. -1.
</event>
<event>
 7    1  0.2749315E-009  0.1222920E+03  0.7561462E-02  0.1239363E+00
          2   -1    0    0  501    0  0.00000000000E+00  0.00000000000E+00  0.36816160329E+03  0.36816160329E+03  0.00000000000E+00 0. -1.
         -2   -1    0    0    0  501 -0.00000000000E+00 -0.00000000000E+00 -0.65730894425E+02  0.65730894425E+02  0.00000000000E+00 0.  1.
         25    2    1    2    0    0 -0.10476101554E+03  0.28177207363E+02  0.12781471333E+03  0.20917309612E+03  0.12509179752E+03 0.  0.
          5    1    3    3  502    0  0.20600086497E+01  0.12539834267E+02  0.95458947141E+02  0.96391773862E+02  0.41800000000E+01 0. -1.
         -5    1    3    3    0  502 -0.10682102419E+03  0.15637373095E+02  0.32355766187E+02  0.11278132226E+03  0.41800000000E+01 0. -1.
        -11    1    1    2    0    0  0.70415740388E+02  0.10774006315E+02  0.42947827212E+02  0.83180355666E+02  0.00000000000E+00 0.  1.
         11    1    1    2    0    0  0.34345275148E+02 -0.38951213678E+02  0.13166816833E+03  0.14153904593E+03  0.00000000000E+00 0. -1.
</event>
<event>
 7    1  0.2749315E-009  0.1429870E+03  0.7561462E-02  0.1209365E+00
         -2   -1    0    0    0  501 -0.00000000000E+00  0.00000000000E+00  0.29018772985E+02  0.29018772985E+02  0.00000000000E+00 0.  1.
          2   -1    0    0  501    0  0.00000000000E+00 -0.00000000000E+00 -0.98812025675E+03  0.98812025675E+03  0.00000000000E+00 0. -1.
         25    2    1    2    0    0  0.10017798355E+03 -0.74372188123E+02 -0.60937152789E+03  0.63446955549E+03  0.12510438475E+03 0.  0.
          5    1    3    3  502    0  0.78405867116E+02 -0.35727550134E+02 -0.15072882392E+03  0.17366804138E+03  0.41800000000E+01 0. -1.
         -5    1    3    3    0  502  0.21772116438E+02 -0.38644637989E+02 -0.45864270397E+03  0.46080151410E+03  0.41800000000E+01 0. -1.
        -11    1    1    2    0    0  0.16318111789E+02  0.22101261747E+02 -0.55451953038E+02  0.61884292344E+02  0.00000000000E+00 0.  1.
         11    1    1    2    0    0 -0.11649609534E+03  0.52270926376E+02 -0.29427800284E+03  0.32078518191E+03  0.00000000000E+00 0. -1.
</event>
<event>
 7    1  0.2749315E-009  0.1371494E+03  0.7561462E-02  0.1217217E+00
          2   -1    0    0  501    0  0.00000000000E+00  0.00000000000E+00  0.45186923816E+03  0.45186923816E+03  0.00000000000E+00 0. -1.
         -2   -1    0    0    0  501 -0.00000000000E+00 -0.00000000000E+00 -0.47291875990E+02  0.47291875990E+02  0.00000000000E+00 0.  1.
         25    2    1    2    0    0  0.50941479071E+02 -0.83749119413E+02  0.19098621423E+03  0.24846144210E+03  0.12509358455E+03 0.  0.
          5    1    3    3  502    0 -0.14384406612E+02  0.25346926734E+02  0.54011822002E+02  0.61515259606E+02  0.41800000000E+01 0.  1.
         -5    1    3    3    0  502  0.65325885683E+02 -0.10909604615E+03  0.13697439223E+03  0.18694618250E+03  0.41800000000E+01 0.  1.
        -11    1    1    2    0    0  0.16639292828E+01  0.59808835949E+02  0.52662488949E+02  0.79706983762E+02  0.00000000000E+00 0.  1.
         11    1    1    2    0    0 -0.52605408354E+02  0.23940283465E+02  0.16092865899E+03  0.17099268828E+03  0.00000000000E+00 0. -1.
</event>
<event>
 7    1  0.2749315E-009  0.1098309E+03  0.7561462E-02  0.1260883E+00
         -1   -1    0    0    0  501 -0.00000000000E+00  0.00000000000E+00  0.73930297356E+02  0.73930297356E+02  0.00000000000E+00 0.  1.
          1   -1    0    0  501    0  0.00000000000E+00 -0.00000000000E+00 -0.20763592205E+03  0.20763592205E+03  0.00000000000E+00 0. -1.
         25    2    1    2    0    0  0.54453708543E+02  0.18943702534E+02 -0.92885250566E+02  0.16613173651E+03  0.12509202158E+03 0.  0.
          5    1    3    3  502    0  0.37441602382E+02 -0.46930511078E+02 -0.74034810005E+02  0.95409496129E+02  0.41800000000E+01 0.  1.
         -5    1    3    3    0  502  0.17012106161E+02  0.65874213613E+02 -0.18850440561E+02  0.70722240381E+02  0.41800000000E+01 0.  1.
        -11    1    1    2    0    0 -0.19702820744E+02 -0.44176365086E+02 -0.52038955249E+02  0.71047908069E+02  0.00000000000E+00 0. -1.
         11    1    1    2    0    0 -0.34750887800E+02  0.25232662552E+02  0.11218581124E+02  0.44386574826E+02  0.00000000000E+00 0.  1.
</event>
<event>
 7    1  0.2749315E-009  0.1027099E+03  0.7561462E-02  0.1274698E+00
         -1   -1    0    0    0  501 -0.00000000000E+00  0.00000000000E+00  0.11711785970E+03  0.11711785970E+03  0.00000000000E+00 0.  1.
          1   -1    0    0  501    0  0.00000000000E+00 -0.00000000000E+00 -0.13996130267E+03  0.13996130267E+03  0.00000000000E+00 0. -1.
         25    2    1    2    0    0  0.30642456114E+02  0.52996404260E+02  0.26558524261E+02  0.14179149793E+03  0.12510753252E+03 0.  0.
          5    1    3    3  502    0 -0.42037961833E+02  0.22752199157E+02  0.39189959908E+02  0.61953031880E+02  0.41800000000E+01 0.  1.
         -5    1    3    3    0  502  0.72680417947E+02  0.30244205103E+02 -0.12631435646E+02  0.79838466053E+02  0.41800000000E+01 0.  1.
        -11    1    1    2    0    0 -0.51728072049E+01 -0.52882007409E+02  0.68153754659E+01  0.53569711449E+02  0.00000000000E+00 0.  1.
         11    1    1    2    0    0 -0.25469648909E+02 -0.11439685125E+00 -0.56217342694E+02  0.61717952994E+02  0.00000000000E+00 0. -1.
</event>
<event>
 7    1  0.2749315E-009  0.1168069E+03  0.7561462E-02  0.1248460E+00
         -1   -1    0    0    0  501 -0.00000000000E+00  0.00000000000E+00  0.62923575732E+02  0.62923575732E+02  0.00000000000E+00 0.  1.
          1   -1    0    0  501    0  0.00000000000E+00 -0.00000000000E+00 -0.32155988734E+03  0.32155988734E+03  0.00000000000E+00 0. -1.
         25    2    1    2    0    0  0.14751393643E+01 -0.85200203610E+02 -0.17223976022E+03  0.22928447121E+03  0.12507430995E+03 0.  0.
          5    1    3    3  502    0  0.52840070994E+02 -0.53346415976E+01 -0.40914814894E+02  0.67171615891E+02  0.41800000000E+01 0. -1.
         -5    1    3    3    0  502 -0.51364931629E+02 -0.79865562012E+02 -0.13132494532E+03  0.16211285532E+03  0.41800000000E+01 0. -1.
        -11    1    1    2    0    0  0.81502770534E+00  0.54561401147E+02  0.87050992155E+01  0.55257483816E+02  0.00000000000E+00 0.  1.
         11    1    1    2    0    0 -0.22901670697E+01  0.30638802462E+02 -0.95101650609E+02  0.99941508044E+02  0.00000000000E+00 0. -1.
</event>
<event>
 7    1  0.2749315E-009  0.1310604E+03  0.7561462E-02  0.1225891E+00
         -3   -1    0    0    0  501 -0.00000000000E+00  0.00000000000E+00  0.58515604458E+02  0.58515604458E+02  0.00000000000E+00 0.  1.
          3   -1    0    0  501    0  0.00000000000E+00 -0.00000000000E+00 -0.44357263043E+03  0.44357263043E+03  0.00000000000E+00 0. -1.
         25    2    1    2    0    0 -0.75727347994E+02  0.84775434361E+02 -0.27622433166E+03  0.32383397730E+03  0.12508820068E+03 0.  0.
          5    1    3    3  502    0  0.19097378786E+02  0.37655217240E+02 -0.20700835447E+02  0.47208285820E+02  0.41800000000E+01 0.  1.
         -5    1    3    3    0  502 -0.94824726780E+02  0.47120217122E+02 -0.25552349621E+03  0.27662569148E+03  0.41800000000E+01 0.  1.
        -11    1    1    2    0    0  0.61800450503E+02 -0.71110511870E+02 -0.12242199516E+03  0.15447700631E+03  0.00000000000E+00 0. -1.
         11    1    1    2    0    0  0.13926897491E+02 -0.13664922491E+02  0.13589300850E+02  0.23777251271E+02  0.00000000000E+00 0.  1.
</event>
<event>
 7    1  0.2749315E-009  0.1849037E+03  0.7561462E-02  0.1163140E+00
          1   -1    0    0  501    0  0.00000000000E+00  0.00000000000E+00  0.50532941850E+03  0.50532941850E+03  0.00000000000E+00 0. -1.
         -1   -1    0    0    0  501 -0.00000000000E+00 -0.00000000000E+00 -0.72938505189E+02  0.72938505189E+02  0.00000000000E+00 0.  1.
         25    2    1    2    0    0  0.15581722241E+03  0.20252445175E+02  0.20060226598E+03  0.28386299941E+03  0.12509102679E+03 0.  0.
          5    1    3    3  502    0  0.14076650306E+03 -0.31801290116E+02  0.16316899276E+03  0.21787180413E+03  0.41800000000E+01 0.  1.
         -5    1    3    3    0  502  0.15050719349E+02  0.52053735291E+02  0.37433273223E+02  0.65991195283E+02  0.41800000000E+01 0.  1.
        -11    1    1    2    0    0 -0.47590653085E+02 -0.38648312110E+02  0.13411959526E+03  0.14746737986E+03  0.00000000000E+00 0. -1.
         11    1    1    2    0    0 -0.10822656932E+03  0.18395866935E+02  0.97669052071E+02  0.14693754442E+03  0.00000000000E+00 0.  1.
</event>
<event>
 7    1  0.2749315E-009  0.5868178E+02  0.7561462E-02  0.1403448E+00
          2   -1    0    0  501    0  0.00000000000E+00  0.00000000000E+00  0.29650892482E+02  0.29650892482E+02  0.00000000000E+00 0. -1.
         -2   -1    0    0    0  501 -0.00000000000E+00 -0.00000000000E+00 -0.41657768186E+03  0.41657768186E+03  0.00000000000E+00 0.  1.
         25    2    1    2    0    0  0.14105517728E+02 -0.44054730255E+01 -0.28821118742E+03  0.31453379946E+03  0.12508976229E+03 0.  0.
          5    1    3    3  502    0 -0.93650763318E+00 -0.13610025861E+02 -0.29487803921E+03  0.29522303477E+03  0.41800000000E+01 0. -1.
         -5    1    3    3    0  502  0.15042025361E+02  0.92045528358E+01  0.66668517985E+01  0.19310764687E+02  0.41800000000E+01 0. -1.
        -11    1    1    2    0    0 -0.49178315927E+02 -0.24337333525E+01 -0.71330751132E+02  0.86674712994E+02  0.00000000000E+00 0.  1.
         11    1    1    2    0    0  0.35072798199E+02  0.68392063780E+01 -0.27384850828E+02  0.45020061886E+02  0.00000000000E+00 0. -1.
</event>
<event>
 7    1  0.2749315E-009  0.9041275E+02  0.7561462E-02  0.1301855E+00
         -1   -1    0    0    0  501 -0.00000000000E+00  0.00000000000E+00  0.42373893686E+02  0.42373893686E+02  0.00000000000E+00 0.  1.
          1   -1    0    0  501    0  0.00000000000E+00 -0.00000000000E+00 -0.26755809734E+03  0.26755809734E+03  0.00000000000E+00 0. -1.
         25    2    1    2    0    0  0.18163465163E+02 -0.14328268673E+02 -0.13478226075E+03  0.18533541692E+03  0.12509095971E+03 0.  0.
          5    1    3    3  502    0 -0.40523955580E+02  0.18700539719E+02 -0.99641063638E+02  0.10925985138E+03  0.41800000000E+01 0.  1.
         -5    1    3    3    0  502  0.58687420743E+02 -0.33028808392E+02 -0.35141197117E+02  0.76075565539E+02  0.41800000000E+01 0.  1.
        -11    1    1    2    0    0 -0.46292235665E+01 -0.25782086483E+02 -0.75176832103E+02  0.79609683954E+02  0.00000000000E+00 0.  1.
         11    1    1    2    0    0 -0.13534241597E+02  0.40110355156E+02 -0.15225110792E+02  0.44986890146E+02  0.00000000000E+00 0. -1.
</event>
<event>
 7    1  0.2749315E-009  0.1252907E+03  0.7561462E-02  0.1234616E+00
          1   -1    0    0  501    0  0.00000000000E+00  0.00000000000E+00  0.78899595488E+03  0.78899595488E+03  0.00000000000E+00 0. -1.
         -1   -1    0    0    0  501 -0.00000000000E+00 -0.00000000000E+00 -0.24635614683E+02  0.24635614683E+02  0.00000000000E+00 0.  1.
         25    2    1    2    0    0 -0.54703946188E+02 -0.63677603996E+02  0.48484651303E+03  0.50771353398E+03  0.12509809115E+03 0.  0.
          5    1    3    3  502    0  0.55748945727E+01 -0.83655194084E+02  0.22391261769E+03  0.23913093424E+03  0.41800000000E+01 0.  1.
         -5    1    3    3    0  502 -0.60278840761E+02  0.19977590087E+02  0.26093389534E+03  0.26858259974E+03  0.41800000000E+01 0.  1.
        -11    1    1    2    0    0  0.14045715476E+02 -0.11084962638E+02  0.50924599723E+01  0.18603539139E+02  0.00000000000E+00 0.  1.
         11    1    1    2    0    0  0.40658230713E+02  0.74762566635E+02  0.27442136719E+03  0.28731449645E+03  0.00000000000E+00 0. -1.
</event>
<event>
 7    1  0.2749315E-009  0.1300331E+03  0.7561462E-02  0.1227407E+00
          2   -1    0    0  501    0  0.00000000000E+00  0.00000000000E+00  0.85957478658E+02  0.85957478658E+02  0.00000000000E+00 0. -1.
         -2   -1    0    0    0  501 -0.00000000000E+00 -0.00000000000E+00 -0.32672939270E+03  0.32672939270E+03  0.00000000000E+00 0.  1.
         25    2    1    2    0    0  0.52780284191E+01 -0.92705599225E+02 -0.23621497078E+03  0.28296095346E+03  0.12508878068E+03 0.  0.
          5    1    3    3  502    0  0.59552702028E+02 -0.41770080618E+02 -0.71133175188E+02  0.10182664173E+03  0.41800000000E+01 0.  1.
         -5    1    3    3    0  502 -0.54274673608E+02 -0.50935518606E+02 -0.16508179559E+03  0.18113431174E+03  0.41800000000E+01 0.  1.
        -11    1    1    2    0    0 -0.35827992865E+01  0.10257708863E+03  0.18767987364E+02  0.10434142472E+03  0.00000000000E+00 0. -1.
         11    1    1    2    0    0 -0.16952291325E+01 -0.98714894093E+01 -0.23324930625E+02  0.25384493173E+02  0.00000000000E+00 0.  1.
</event>
<event>
 7    1  0.2749315E-009  0.1409175E+03  0.7561462E-02  0.1212100E+00
          2   -1    0    0  501    0  0.00000000000E+00  0.00000000000E+00  0.60407820030E+03  0.60407820030E+03  0.00000000000E+00 0. -1.
         -2   -1    0    0    0  501 -0.00000000000E+00 -0.00000000000E+00 -0.90496690256E+02  0.90496690256E+02  0.00000000000E+00 0.  1.
         25    2    1    2    0    0  0.26181952028E+02  0.92867474504E+02  0.53409709992E+03  0.55697165244E+03  0.12509135480E+03 0.  0.
          5    1    3    3  502    0 -0.38770760023E+02  0.73315826460E+02  0.37289745911E+03  0.38203189612E+03  0.41800000000E+01 0.  1.
         -5    1    3    3    0  502  0.64952712051E+02  0.19551648045E+02  0.16119964081E+03  0.17493975632E+03  0.41800000000E+01 0.  1.
        -11    1    1    2    0    0 -0.57669566397E+02 -0.43321850092E+02 -0.30033912951E+02  0.78131923763E+02  0.00000000000E+00 0.  1.
         11    1    1    2    0    0  0.31487614369E+02 -0.49545624412E+02  0.95183230766E+01  0.59471314356E+02  0.00000000000E+00 0. -1.
</event>
<event>
 7    1  0.2749315E-009  0.1894461E+03  0.7561462E-02  0.1158962E+00
         -1   -1    0    0    0  501 -0.00000000000E+00  0.00000000000E+00  0.50633558763E+02  0.50633558763E+02  0.00000000000E+00 0.  1.
          1   -1    0    0  501    0  0.00000000000E+00 -0.00000000000E+00 -0.96698260796E+03  0.96698260796E+03  0.00000000000E+00 0. -1.
         25    2    1    2    0    0  0.10350002147E+02  0.16315055436E+03 -0.71358130252E+03  0.74267817531E+03  0.12508945137E+03 0.  0.
          5    1    3    3  502    0 -0.41998097469E+02  0.14326140686E+03 -0.49897428519E+03  0.52084592786E+03  0.41800000000E+01 0.  1.
         -5    1    3    3    0  502  0.52348099616E+02  0.19889147496E+02 -0.21460701733E+03  0.22183224745E+03  0.41800000000E+01 0.  1.
        -11    1    1    2    0    0 -0.32346347492E+02 -0.62635638154E+02 -0.36438116922E+02  0.79355187152E+02  0.00000000000E+00 0.  1.
         11    1    1    2    0    0  0.21996345345E+02 -0.10051491620E+03 -0.16632962975E+03  0.19558280426E+03  0.00000000000E+00 0. -1.
</event>
<event>
 7    1  0.2749315E-009  0.6688845E+02  0.7561462E-02  0.1371005E+00
          2   -1    0    0  501    0  0.00000000000E+00  0.00000000000E+00  0.58662744872E+02  0.58662744872E+02  0.00000000000E+00 0. -1.
         -2   -1    0    0    0  501 -0.00000000000E+00 -0.00000000000E+00 -0.24023689846E+03  0.24023689846E+03  0.00000000000E+00 0.  1.
         25    2    1    2    0    0  0.37711006232E+02 -0.91135526787E+01 -0.14873916530E+03  0.19818201782E+03  0.12509035159E+03 0.  0.
          5    1    3    3  502    0  0.32646317094E+02 -0.19024908065E+02  0.97510630236E+01  0.39246461965E+02  0.41800000000E+01 0.  1.
         -5    1    3    3    0  502  0.50646891379E+01  0.99113553862E+01 -0.15849022832E+03  0.15893555586E+03  0.41800000000E+01 0.  1.
        -11    1    1    2    0    0 -0.59794897760E+02 -0.47304740200E+00 -0.43939973780E+02  0.74204951774E+02  0.00000000000E+00 0.  1.
         11    1    1    2    0    0  0.22083891528E+02  0.95866000807E+01  0.11104985487E+02  0.26512673739E+02  0.00000000000E+00 0. -1.
</event>
<event>
 7    1  0.2749315E-009  0.1041607E+03  0.7561462E-02  0.1271782E+00
          1   -1    0    0  501    0  0.00000000000E+00  0.00000000000E+00  0.30667296041E+03  0.30667296041E+03  0.00000000000E+00 0. -1.
         -1   -1    0    0    0  501 -0.00000000000E+00 -0.00000000000E+00 -0.52964888472E+02  0.52964888472E+02  0.00000000000E+00 0.  1.
         25    2    1    2    0    0 -0.21775058949E+02 -0.26555226213E+02  0.10772272542E+03  0.16861457592E+03  0.12508939367E+03 0.  0.
          5    1    3    3  502    0  0.28410469483E+01 -0.51876063422E+02  0.12013121875E+03  0.13095105812E+03  0.41800000000E+01 0.  1.
         -5    1    3    3    0  502 -0.24616105897E+02  0.25320837209E+02 -0.12408493328E+02  0.37663517802E+02  0.41800000000E+01 0.  1.
        -11    1    1    2    0    0  0.56252283610E+02  0.52923092145E+02  0.73991850371E+02  0.10695778146E+03  0.00000000000E+00 0.  1.
         11    1    1    2    0    0 -0.34477224661E+02 -0.26367865933E+02  0.71993496146E+02  0.84065491503E+02  0.00000000000E+00 0. -1.
</event>
<event>
 7    1  0.2749315E-009  0.1425678E+03  0.7561462E-02  0.1209915E+00
         -2   -1    0    0    0  501 -0.00000000000E+00  0.00000000000E+00  0.23351637802E+03  0.23351637802E+03  0.00000000000E+00 0.  1.
          2   -1    0    0  501    0  0.00000000000E+00 -0.00000000000E+00 -0.10114446714E+03  0.10114446714E+03  0.00000000000E+00 0. -1.
         25    2    1    2    0    0 -0.62853685797E+02  0.84399477228E+02  0.10453273734E+03  0.19402950287E+03  0.12508595939E+03 0.  0.
          5    1    3    3  502    0 -0.25823064852E+02 -0.26759094388E+02  0.71050635182E+00  0.37428024662E+02  0.41800000000E+01 0. -1.
         -5    1    3    3    0  502 -0.37030620944E+02  0.11115857162E+03  0.10382223098E+03  0.15660147821E+03  0.41800000000E+01 0. -1.
        -11    1    1    2    0    0  0.69524052537E+02 -0.30087148108E+02 -0.64923514779E+01  0.76032762610E+02  0.00000000000E+00 0. -1.
         11    1    1    2    0    0 -0.66703667400E+01 -0.54312329120E+02  0.34331525020E+02  0.64598579683E+02  0.00000000000E+00 0.  1.
</event>
<event>
 7    1  0.2749315E-009  0.1289754E+03  0.7561462E-02  0.1228984E+00
          1   -1    0    0  501    0  0.00000000000E+00  0.00000000000E+00  0.57046671609E+03  0.57046671609E+03  0.00000000000E+00 0. -1.
         -1   -1    0    0    0  501 -0.00000000000E+00 -0.00000000000E+00 -0.31572472000E+02  0.31572472000E+02  0.00000000000E+00 0.  1.
         25    2    1    2    0    0 -0.73132927051E+02  0.21739718495E+02  0.24907976548E+03  0.28897901031E+03  0.12508836257E+03 0.  0.
          5    1    3    3  502    0 -0.95229018011E+02 -0.15681273072E+02  0.12865894014E+03  0.16088835718E+03  0.41800000000E+01 0.  1.
         -5    1    3    3    0  502  0.22096090960E+02  0.37420991567E+02  0.12042082534E+03  0.12809065313E+03  0.41800000000E+01 0.  1.
        -11    1    1    2    0    0 -0.17073179472E+02 -0.21538148000E+02  0.54255117170E+02  0.60819429590E+02  0.00000000000E+00 0.  1.
         11    1    1    2    0    0  0.90206106523E+02 -0.20157049532E+00  0.23555936144E+03  0.25224074819E+03  0.00000000000E+00 0. -1.
</event>
<event>
 7    1  0.2749315E-009  0.7628209E+02  0.7561462E-02  0.1339946E+00
          3   -1    0    0  501    0  0.00000000000E+00  0.00000000000E+00  0.49184083806E+03  0.49184083806E+03  0.00000000000E+00 0. -1.
         -3   -1    0    0    0  501 -0.00000000000E+00 -0.00000000000E+00 -0.28707304836E+02  0.28707304836E+02  0.00000000000E+00 0.  1.
         25    2    1    2    0    0  0.46028998107E+02  0.70132553762E+00  0.28547775015E+03  0.31506219066E+03  0.12508987820E+03 0.  0.
          5    1    3    3  502    0  0.87199727421E+01  0.17283142217E+02  0.27072717813E+03  0.27145058907E+03  0.41800000000E+01 0. -1.
         -5    1    3    3    0  502  0.37309025365E+02 -0.16581816680E+02  0.14750572022E+02  0.43611601588E+02  0.41800000000E+01 0. -1.
        -11    1    1    2    0    0 -0.65471068246E+02  0.14477650788E+02  0.78171607837E+02  0.10298962774E+03  0.00000000000E+00 0.  1.
         11    1    1    2    0    0  0.19442070139E+02 -0.15178976326E+02  0.99484175232E+02  0.10249632450E+03  0.00000000000E+00 0. -1.
</event>
<event>
 7    1  0.2749315E-009  0.1863836E+03  0.7561462E-02  0.1161764E+00
         -2   -1    0    0    0  501 -0.00000000000E+00  0.00000000000E+00  0.44280820382E+02  0.44280820382E+02  0.00000000000E+00 0.  1.
          2   -1    0    0  501    0  0.00000000000E+00 -0.00000000000E+00 -0.99438394079E+03  0.99438394079E+03  0.00000000000E+00 0. -1.
         25    2    1    2    0    0 -0.86845022883E+02 -0.13873556585E+03 -0.31301929579E+03  0.37472365643E+03  0.12508846438E+03 0.  0.
          5    1    3    3  502    0 -0.33091304497E+02 -0.14625374776E+03 -0.24892846061E+03  0.29063386600E+03  0.41800000000E+01 0. -1.
         -5    1    3    3    0  502 -0.53753718385E+02  0.75181819139E+01 -0.64090835182E+02  0.84089790426E+02  0.41800000000E+01 0. -1.
        -11    1    1    2    0    0  0.64590586509E+02  0.66375016109E+02 -0.20069343836E+03  0.22103267367E+03  0.00000000000E+00 0.  1.
         11    1    1    2    0    0  0.22254436373E+02  0.72360549737E+02 -0.43639038626E+03  0.44290843107E+03  0.00000000000E+00 0. -1.
</event>
<event>
 7    1  0.2749315E-009  0.9673022E+02  0.7561462E-02  0.1287326E+00
         -2   -1    0    0    0  501 -0.00000000000E+00  0.00000000000E+00  0.35962940856E+02  0.35962940856E+02  0.00000000000E+00 0.  1.
          2   -1    0    0  501    0  0.00000000000E+00 -0.00000000000E+00 -0.49288804883E+03  0.49288804883E+03  0.00000000000E+00 0. -1.
         25    2    1    2    0    0  0.41211898630E+02 -0.63137309886E+02 -0.25509738563E+03  0.29395019894E+03  0.12508917944E+03 0.  0.
          5    1    3    3  502    0  0.66656400282E+02 -0.50659116449E+02 -0.25147200119E+03  0.26507557707E+03  0.41800000000E+01 0.  1.
         -5    1    3    3    0  502 -0.25444501652E+02 -0.12478193438E+02 -0.36253844428E+01  0.28874621870E+02  0.41800000000E+01 0.  1.
        -11    1    1    2    0    0 -0.10585357171E+02  0.43118906184E+02 -0.18738625860E+02  0.48191554821E+02  0.00000000000E+00 0.  1.
         11    1    1    2    0    0 -0.30626541459E+02  0.20018403703E+02 -0.18308909649E+03  0.18670923593E+03  0.00000000000E+00 0. -1.
</event>
<event>
 7    1  0.2749315E-009  0.1238841E+03  0.7561462E-02  0.1236824E+00
          2   -1    0    0  501    0  0.00000000000E+00  0.00000000000E+00  0.50462998177E+03  0.50462998177E+03  0.00000000000E+00 0. -1.
         -2   -1    0    0    0  501 -0.00000000000E+00 -0.00000000000E+00 -0.41083964441E+02  0.41083964441E+02  0.00000000000E+00 0.  1.
         25    2    1    2    0    0  0.60063929394E+02  0.75352978386E+02  0.24485052309E+03  0.29135182607E+03  0.12509340882E+03 0.  0.
          5    1    3    3  502    0  0.78060775956E+02  0.23842991036E+02  0.21275094620E+03  0.22790877665E+03  0.41800000000E+01 0.  1.
         -5    1    3    3    0  502 -0.17996846562E+02  0.51509987350E+02  0.32099576888E+02  0.63443049418E+02  0.41800000000E+01 0.  1.
        -11    1    1    2    0    0 -0.14406808307E+02 -0.62137395411E+02  0.18610058870E+03  0.19672834353E+03  0.00000000000E+00 0. -1.
         11    1    1    2    0    0 -0.45657121087E+02 -0.13215582975E+02  0.32594905537E+02  0.57633776610E+02  0.00000000000E+00 0.  1.
</event>
<event>
 7    1  0.2749315E-009  0.1211372E+03  0.7561462E-02  0.1241233E+00
          2   -1    0    0  501    0  0.00000000000E+00  0.00000000000E+00  0.11706086388E+03  0.11706086388E+03  0.00000000000E+00 0. -1.
         -2   -1    0    0    0  501 -0.00000000000E+00 -0.00000000000E+00 -0.32232012600E+03  0.32232012600E+03  0.00000000000E+00 0.  1.
         25    2    1    2    0    0  0.20494458359E+02  0.53264724453E+02 -0.27872014514E+03  0.31078293537E+03  0.12507581665E+03 0.  0.
          5    1    3    3  502    0  0.70729361462E+02  0.48987230758E+02 -0.15950824539E+03  0.18128084317E+03  0.41800000000E+01 0. -1.
         -5    1    3    3    0  502 -0.50234903104E+02  0.42774936951E+01 -0.11921189975E+03  0.12950209220E+03  0.41800000000E+01 0. -1.
        -11    1    1    2    0    0  0.12522237839E+02  0.20899925137E+02  0.16449237346E+02  0.29397120955E+02  0.00000000000E+00 0.  1.
         11    1    1    2    0    0 -0.33016696198E+02 -0.74164649590E+02  0.57011645679E+02  0.99200933562E+02  0.00000000000E+00 0. -1.
</event>
<event>
 7    1  0.2749315E-009  0.9434076E+02  0.7561462E-02  0.1292668E+00
         -2   -1    0    0    0  501 -0.00000000000E+00  0.00000000000E+00  0.58240432188E+02  0.58240432188E+02  0.00000000000E+00 0.  1.
          2   -1    0    0  501    0  0.00000000000E+00 -0.00000000000E+00 -0.22795814958E+03  0.22795814958E+03  0.00000000000E+00 0. -1.
         25    2    1    2    0    0  0.28935714044E+02 -0.21077177003E+02 -0.73237442744E+02  0.14930526340E+03  0.12508723245E+03 0.  0.
          5    1    3    3  502    0  0.80761153782E-01 -0.66944794624E+02 -0.66648380793E+02  0.94557342982E+02  0.41800000000E+01 0. -1.
         -5    1    3    3    0  502  0.28854952891E+02  0.45867617620E+02 -0.65890619508E+01  0.54747920416E+02  0.41800000000E+01 0. -1.
        -11    1    1    2    0    0 -0.42488584830E+02  0.29107829069E+02 -0.14629514400E+02  0.53540342224E+02  0.00000000000E+00 0.  1.
         11    1    1    2    0    0  0.13552870785E+02 -0.80306520655E+01 -0.81850760246E+02  0.83352976143E+02  0.00000000000E+00 0. -1.
</event>
<event>
 7    1  0.2749315E-009  0.1007804E+03  0.7561462E-02  0.1278663E+00
         -2   -1    0    0    0  501 -0.00000000000E+00  0.00000000000E+00  0.21251935294E+02  0.21251935294E+02  0.00000000000E+00 0.  1.
          2   -1    0    0  501    0  0.00000000000E+00 -0.00000000000E+00 -0.58565155058E+03  0.58565155058E+03  0.00000000000E+00 0. -1.
         25    2    1    2    0    0 -0.74708854641E+01 -0.66463000868E+01 -0.37488867340E+03  0.39533360978E+03  0.12508860118E+03 0.  0.
          5    1    3    3  502    0 -0.64707335444E+02 -0.62155321805E+01 -0.15616467887E+03  0.16920564833E+03  0.41800000000E+01 0.  1.
         -5    1    3    3    0  502  0.57236449980E+02 -0.43076790632E+00 -0.21872399453E+03  0.22612796145E+03  0.41800000000E+01 0.  1.
        -11    1    1    2    0    0  0.17192655999E+02 -0.33537605211E+02 -0.14898092912E+03  0.15367392630E+03  0.00000000000E+00 0. -1.
         11    1    1    2    0    0 -0.97217705346E+01  0.40183905298E+02 -0.40530012775E+02  0.57895949797E+02  0.00000000000E+00 0.  1.
</event>
<event>
 7    1  0.2749315E-009  0.7479386E+02  0.7561462E-02  0.1344511E+00
          1   -1    0    0  501    0  0.00000000000E+00  0.00000000000E+00  0.38097429187E+03  0.38097429187E+03  0.00000000000E+00 0. -1.
         -1   -1    0    0    0  501 -0.00000000000E+00 -0.00000000000E+00 -0.10465571324E+03  0.10465571324E+03  0.00000000000E+00 0.  1.
         25    2    1    2    0    0 -0.16450647499E+02  0.13628384929E+02  0.34477525196E+03  0.36738456361E+03  0.12508032035E+03 0.  0.
          5    1    3    3  502    0  0.29533361189E+02  0.43083169722E+02  0.26800965304E+03  0.27308428270E+03  0.41800000000E+01 0.  1.
         -5    1    3    3    0  502 -0.45984008688E+02 -0.29454784794E+02  0.76765598924E+02  0.94300280914E+02  0.41800000000E+01 0.  1.
        -11    1    1    2    0    0 -0.32599490058E+01 -0.21091685551E+02 -0.87362874983E+02  0.89931965353E+02  0.00000000000E+00 0.  1.
         11    1    1    2    0    0  0.19710596505E+02  0.74633006221E+01  0.18906201649E+02  0.28313476148E+02  0.00000000000E+00 0. -1.
</event>
<event>
 7    1  0.2749315E-009  0.1125942E+03  0.7561462E-02  0.1255840E+00
         -2   -1    0    0    0  501 -0.00000000000E+00  0.00000000000E+00  0.41239867140E+02  0.41239867140E+02  0.00000000000E+00 0.  1.
          2   -1    0    0  501    0  0.00000000000E+00 -0.00000000000E+00 -0.44660492742E+03  0.44660492742E+03  0.00000000000E+00 0. -1.
         25    2    1    2    0    0  0.45471518863E+02  0.74674829462E+01 -0.10302746820E+03  0.16848011498E+03  0.12508983816E+03 0.  0.
          5    1    3    3  502    0 -0.23758204529E+02 -0.35067893088E+02 -0.67279251942E+02  0.79612684604E+02  0.41800000000E+01 0. -1.
         -5    1    3    3    0  502  0.69229723392E+02  0.42535376034E+02 -0.35748216255E+02  0.88867430371E+02  0.41800000000E+01 0. -1.
        -11    1    1    2    0    0 -0.42287192657E+02 -0.46067444927E+02 -0.21307186188E+03  0.22205862845E+03  0.00000000000E+00 0.  1.
         11    1    1    2    0    0 -0.31843262069E+01  0.38599961981E+02 -0.89265730201E+02  0.97306051131E+02  0.00000000000E+00 0. -1.
</event>
<event>
 7    1  0.2749315E-009  0.1591076E+03  0.7561462E-02  0.1189708E+00
          1   -1    0    0  501    0  0.00000000000E+00  0.00000000000E+00  0.13947104140E+04  0.13947104140E+04  0.00000000000E+00 0. -1.
         -1   -1    0    0    0  501 -0.00000000000E+00 -0.00000000000E+00 -0.25366030955E+02  0.25366030955E+02  0.00000000000E+00 0.  1.
         25    2    1    2    0    0 -0.11533731424E+03 -0.96867553266E+02  0.83396030590E+03  0.85663469732E+03  0.12508874411E+03 0.  0.
          5    1    3    3  502    0 -0.43214202315E+02  0.30744927925E+01  0.47683163532E+03  0.47881395200E+03  0.41800000000E+01 0.  1.
         -5    1    3    3    0  502 -0.72123111929E+02 -0.99942046059E+02  0.35712867058E+03  0.37782074532E+03  0.41800000000E+01 0.  1.
        -11    1    1    2    0    0  0.26270240745E+02  0.30762896472E+02  0.44317249340E+02  0.60004165999E+02  0.00000000000E+00 0.  1.
         11    1    1    2    0    0  0.89067073498E+02  0.66104656794E+02  0.49106682780E+03  0.50343758162E+03  0.00000000000E+00 0. -1.
</event>
<event>
 7    1  0.2749315E-009  0.1200655E+03  0.7561462E-02  0.1242989E+00
         -1   -1    0    0    0  501 -0.00000000000E+00  0.00000000000E+00  0.13421297542E+03  0.13421297542E+03  0.00000000000E+00 0.  1.
          1   -1    0    0  501    0  0.00000000000E+00 -0.00000000000E+00 -0.11712837802E+03  0.11712837802E+03  0.00000000000E+00 0. -1.
         25    2    1    2    0    0  0.14541974339E+02 -0.61920195977E+02  0.22519941036E+02  0.14212301873E+03  0.12508487128E+03 0.  0.
          5    1    3    3  502    0  0.65220844595E+02 -0.57439759173E+02  0.26405249663E+02  0.90927411232E+02  0.41800000000E+01 0. -1.
         -5    1    3    3    0  502 -0.50678870257E+02 -0.44804368041E+01 -0.38853086267E+01  0.51195607503E+02  0.41800000000E+01 0. -1.
        -11    1    1    2    0    0 -0.16130069873E+02 -0.16827842400E+02  0.15160021590E+02  0.27806144799E+02  0.00000000000E+00 0.  1.
         11    1    1    2    0    0  0.15880955343E+01  0.78748038377E+02 -0.20595365227E+02  0.81412189901E+02  0.00000000000E+00 0. -1.
</event>
<event>
 7    1  0.2749315E-009  0.9238417E+02  0.7561462E-02  0.1297179E+00
          2   -1    0    0  501    0  0.00000000000E+00  0.00000000000E+00  0.14951503036E+03  0.14951503036E+03  0.00000000000E+00 0. -1.
         -2   -1    0    0    0  501 -0.00000000000E+00 -0.00000000000E+00 -0.11392931186E+03  0.11392931186E+03  0.00000000000E+00 0.  1.
         25    2    1    2    0    0 -0.11887963651E+02  0.42150743760E+02  0.30915192650E+02  0.13609604730E+03  0.12509346936E+03 0.  0.
          5    1    3    3  502    0  0.43032291098E+02  0.55108434090E+02  0.36949343643E+02  0.79192449013E+02  0.41800000000E+01 0.  1.
         -5    1    3    3    0  502 -0.54920254749E+02 -0.12957690331E+02 -0.60341509931E+01  0.56903598292E+02  0.41800000000E+01 0.  1.
        -11    1    1    2    0    0 -0.97073046449E+01 -0.33499605686E+02 -0.53971580437E+02  0.64260305317E+02  0.00000000000E+00 0.  1.
         11    1    1    2    0    0  0.21595268296E+02 -0.86511380735E+01  0.58642106279E+02  0.63087989599E+02  0.00000000000E+00 0. -1.
</event>
<event>
 7    1  0.2749315E-009  0.4395409E+03  0.7561462E-02  0.1030888E+00
         -1   -1    0    0    0  501 -0.00000000000E+00  0.00000000000E+00  0.24887604912E+03  0.24887604912E+03  0.00000000000E+00 0.  1.
          1   -1    0    0  501    0  0.00000000000E+00 -0.00000000000E+00 -0.82053474484E+03  0.82053474484E+03  0.00000000000E+00 0. -1.
         25    2    1    2    0    0 -0.43585410215E+03  0.24341055367E+02 -0.23779647941E+03  0.51259521432E+03  0.12508158452E+03 0.  0.
          5    1    3    3  502    0 -0.35430136801E+03 -0.16455845021E+00 -0.13531213443E+03  0.37928397353E+03  0.41800000000E+01 0. -1.
         -5    1    3    3    0  502 -0.81552734143E+02  0.24505613817E+02 -0.10248434499E+03  0.13331124079E+03  0.41800000000E+01 0. -1.
        -11    1    1    2    0    0  0.19639720042E+03  0.14413560577E+02 -0.19582419070E+03  0.27771698674E+03  0.00000000000E+00 0.  1.
         11    1    1    2    0    0  0.23945690173E+03 -0.38754615944E+02 -0.13803802561E+03  0.27909859290E+03  0.00000000000E+00 0. -1.
</event>
<event>
 7    1  0.2749315E-009  0.1212590E+03  0.7561462E-02  0.1241034E+00
         -4   -1    0    0    0  501 -0.00000000000E+00  0.00000000000E+00  0.24913559805E+03  0.24913559805E+03  0.00000000000E+00 0. -1.
          4   -1    0    0  501    0  0.00000000000E+00 -0.00000000000E+00 -0.65104966292E+02  0.65104966292E+02  0.00000000000E+00 0.  1.
         25    2    1    2    0    0 -0.52812492649E+02  0.40009282638E+02  0.10993997887E+03  0.17923813337E+03  0.12509839096E+03 0.  0.
          5    1    3    3  502    0  0.11409885796E+02  0.60839325698E+02  0.17074907739E+02  0.64347757688E+02  0.41800000000E+01 0.  1.
         -5    1    3    3    0  502 -0.64222378445E+02 -0.20830043060E+02  0.92865071134E+02  0.11489037568E+03  0.41800000000E+01 0.  1.
        -11    1    1    2    0    0  0.31262004838E+02  0.27704515458E+02  0.28750858876E+02  0.50709614565E+02  0.00000000000E+00 0. -1.
         11    1    1    2    0    0  0.21550487811E+02 -0.67713798096E+02  0.45339794010E+02  0.84292816410E+02  0.00000000000E+00 0.  1.
</event>
<event>
 7    1  0.2749315E-009  0.1112461E+03  0.7561462E-02  0.1258280E+00
          2   -1    0    0  501    0  0.00000000000E+00  0.00000000000E+00  0.51967270183E+02  0.51967270183E+02  0.00000000000E+00 0.  1.
         -2   -1    0    0    0  501 -0.00000000000E+00 -0.00000000000E+00 -0.24539247210E+03  0.24539247210E+03  0.00000000000E+00 0. -1.
         25    2    1    2    0    0 -0.19534872835E+02 -0.23664228102E+02 -0.10911506915E+03  0.16879488704E+03  0.12507601140E+03 0.  0.
          5    1    3    3  502    0  0.41599261825E+02  0.24719657420E+02 -0.57177243206E+02  0.75021794087E+02  0.41800000000E+01 0.  1.
         -5    1    3    3    0  502 -0.61134134660E+02 -0.48383885522E+02 -0.51937825942E+02  0.93773092956E+02  0.41800000000E+01 0.  1.
        -11    1    1    2    0    0 -0.96001993298E+01 -0.31787996177E+02 -0.39189606784E+02  0.51365998559E+02  0.00000000000E+00 0.  1.
         11    1    1    2    0    0  0.29135072164E+02  0.55452224279E+02 -0.45120525984E+02  0.77198856679E+02  0.00000000000E+00 0. -1.
</event>
<event>
 7    1  0.2749315E-009  0.1073193E+03  0.7561462E-02  0.1265616E+00
          2   -1    0    0  501    0  0.00000000000E+00  0.00000000000E+00  0.40832682993E+03  0.40832682993E+03  0.00000000000E+00 0. -1.
         -2   -1    0    0    0  501 -0.00000000000E+00 -0.00000000000E+00 -0.56313076599E+02  0.56313076599E+02  0.00000000000E+00 0.  1.
         25    2    1    2    0    0 -0.65465426804E+02 -0.29612863845E+02  0.30892492163E+03  0.34094623568E+03  0.12508830726E+03 0.  0.
          5    1    3    3  502    0 -0.70785258627E+02 -0.43586450799E+02  0.94373635234E+02  0.12583396584E+03  0.41800000000E+01 0.  1.
         -5    1    3    3    0  502  0.53198318232E+01  0.13973586954E+02  0.21455128639E+03  0.21511226984E+03  0.41800000000E+01 0.  1.
        -11    1    1    2    0    0  0.88721835818E+02  0.21993410287E+02  0.35678979668E+02  0.98123716996E+02  0.00000000000E+00 0. -1.
         11    1    1    2    0    0 -0.23256409014E+02  0.76194535586E+01  0.74098520375E+01  0.25569953851E+02  0.00000000000E+00 0.  1.
</event>
<event>
 7    1  0.2749315E-009  0.8973506E+02  0.7561462E-02  0.1303495E+00
          2   -1    0    0  501    0  0.00000000000E+00  0.00000000000E+00  0.15154939088E+03  0.15154939088E+03  0.00000000000E+00 0.  1.
         -2   -1    0    0    0  501 -0.00000000000E+00 -0.00000000000E+00 -0.88376111214E+02  0.88376111214E+02  0.00000000000E+00 0. -1.
         25    2    1    2    0    0  0.68848200453E+01  0.59509007211E+00  0.73388013055E+02  0.14519084622E+03  0.12508727547E+03 0.  0.
          5    1    3    3  502    0  0.15386039717E+02 -0.40284789326E+02 -0.16205717425E+02  0.46256806488E+02  0.41800000000E+01 0. -1.
         -5    1    3    3    0  502 -0.85012196716E+01  0.40879879398E+02  0.89593730480E+02  0.98934039727E+02  0.41800000000E+01 0. -1.
        -11    1    1    2    0    0  0.43386769868E+02 -0.52118304049E+01 -0.45816255268E+01  0.43938209661E+02  0.00000000000E+00 0. -1.
         11    1    1    2    0    0 -0.50271589913E+02  0.46167403328E+01 -0.56331078659E+01  0.50796446214E+02  0.00000000000E+00 0.  1.
</event>
<event>
 7    1  0.2749315E-009  0.6947323E+02  0.7561462E-02  0.1361894E+00
          1   -1    0    0  501    0  0.00000000000E+00  0.00000000000E+00  0.37019719277E+03  0.37019719277E+03  0.00000000000E+00 0. -1.
         -1   -1    0    0    0  501 -0.00000000000E+00 -0.00000000000E+00 -0.42526991777E+02  0.42526991777E+02  0.00000000000E+00 0.  1.
         25    2    1    2    0    0 -0.42186087342E+02 -0.29335981430E+02  0.12152405115E+03  0.18181151961E+03  0.12508824040E+03 0.  0.
          5    1    3    3  502    0 -0.10222330143E+02 -0.14932162431E+02  0.14050375562E+03  0.14172594418E+03  0.41800000000E+01 0.  1.
         -5    1    3    3    0  502 -0.31963757199E+02 -0.14403818999E+02 -0.18979704477E+02  0.40085575437E+02  0.41800000000E+01 0.  1.
        -11    1    1    2    0    0  0.60571893970E+02  0.27708535922E+02  0.20100266948E+03  0.21175171886E+03  0.00000000000E+00 0. -1.
         11    1    1    2    0    0 -0.18385806628E+02  0.16274455082E+01  0.51434803686E+01  0.19160946076E+02  0.00000000000E+00 0.  1.
</event>
<event>
 7    1  0.2749315E-009  0.1507591E+03  0.7561462E-02  0.1199543E+00
          1   -1    0    0  501    0  0.00000000000E+00  0.00000000000E+00  0.40017330899E+03  0.40017330899E+03  0.00000000000E+00 0. -1.
         -1   -1    0    0    0  501 -0.00000000000E+00 -0.00000000000E+00 -0.58279106754E+02  0.58279106754E+02  0.00000000000E+00 0.  1.
         25    2    1    2    0    0  0.10645306919E+03  0.59946915334E+00  0.21679385231E+03  0.27198977015E+03  0.12508495259E+03 0.  0.
          5    1    3    3  502    0 -0.27726128897E+02  0.97638998897E+01  0.40000207067E+02  0.49815268042E+02  0.41800000000E+01 0. -1.
         -5    1    3    3    0  502  0.13417919808E+03 -0.91644307364E+01  0.17679364524E+03  0.22217450211E+03  0.41800000000E+01 0. -1.
        -11    1    1    2    0    0 -0.71541026822E+02 -0.42122896975E+02  0.64535134358E+02  0.10515341428E+03  0.00000000000E+00 0. -1.
         11    1    1    2    0    0 -0.34912042363E+02  0.41523427822E+02  0.60565215573E+02  0.81309231317E+02  0.00000000000E+00 0.  1.
</event>
<event>
 7    1  0.2749315E-009  0.8885745E+02  0.7561462E-02  0.1305642E+00
         -1   -1    0    0    0  501 -0.00000000000E+00  0.00000000000E+00  0.13758102623E+02  0.13758102623E+02  0.00000000000E+00 0.  1.
          1   -1    0    0  501    0  0.00000000000E+00 -0.00000000000E+00 -0.10722286626E+04  0.10722286626E+04  0.00000000000E+00 0. -1.
         25    2    1    2    0    0  0.27340808350E+02 -0.86129304709E+00 -0.80402383823E+03  0.81415583264E+03  0.12508847166E+03 0.  0.
          5    1    3    3  502    0  0.48501915769E+02 -0.37072563305E+02 -0.21256578657E+03  0.22119786799E+03  0.41800000000E+01 0. -1.
         -5    1    3    3    0  502 -0.21161107419E+02  0.36211270258E+02 -0.59145805166E+03  0.59295796464E+03  0.41800000000E+01 0. -1.
        -11    1    1    2    0    0  0.22528894112E+02  0.81876227649E+01 -0.17750558811E+02  0.29827346086E+02  0.00000000000E+00 0.  1.
         11    1    1    2    0    0 -0.49869702462E+02 -0.73263297178E+01 -0.23669616288E+03  0.24200358645E+03  0.00000000000E+00 0. -1.
</event>
<event>
 7    1  0.2749315E-009  0.9952237E+02  0.7561462E-02  0.1281304E+00
          2   -1    0    0  501    0  0.00000000000E+00  0.00000000000E+00  0.68277162759E+03  0.68277162759E+03  0.00000000000E+00 0. -1.
         -2   -1    0    0    0  501 -0.00000000000E+00 -0.00000000000E+00 -0.29142460062E+02  0.29142460062E+02  0.00000000000E+00 0.  1.
         25    2    1    2    0    0 -0.66178185282E+02  0.60071586091E+02  0.37273267328E+03  0.40319575264E+03  0.12509604930E+03 0.  0.
          5    1    3    3  502    0 -0.23057550616E+02  0.18563700439E+02  0.46495343618E+01  0.30254787790E+02  0.41800000000E+01 0. -1.
         -5    1    3    3    0  502 -0.43120634666E+02  0.41507885652E+02  0.36808313892E+03  0.37294096485E+03  0.41800000000E+01 0. -1.
        -11    1    1    2    0    0  0.33993913415E+02  0.70456816510E+01  0.26553460795E+02  0.43707139684E+02  0.00000000000E+00 0.  1.
         11    1    1    2    0    0  0.32184271867E+02 -0.67117267742E+02  0.25434303345E+03  0.26501119533E+03  0.00000000000E+00 0. -1.
</event>
<event>
 7    1  0.2749315E-009  0.1349479E+03  0.7561462E-02  0.1220293E+00
         -1   -1    0    0    0  501 -0.00000000000E+00  0.00000000000E+00  0.34131315928E+02  0.34131315928E+02  0.00000000000E+00 0.  1.
          1   -1    0    0  501    0  0.00000000000E+00 -0.00000000000E+00 -0.64654003839E+03  0.64654003839E+03  0.00000000000E+00 0. -1.
         25    2    1    2    0    0  0.12022158260E+02 -0.99226122046E+02 -0.29339772313E+03  0.33424704580E+03  0.12509399707E+03 0.  0.
          5    1    3    3  502    0 -0.39678055750E+02 -0.93716129086E+02 -0.23394335252E+03  0.25515490500E+03  0.41800000000E+01 0. -1.
         -5    1    3    3    0  502  0.51700214010E+02 -0.55099929605E+01 -0.59454370613E+02  0.79092140798E+02  0.41800000000E+01 0. -1.
        -11    1    1    2    0    0 -0.29273525669E+02  0.93066095314E+02 -0.31185242950E+03  0.32675705835E+03  0.00000000000E+00 0. -1.
         11    1    1    2    0    0  0.17251367409E+02  0.61600267318E+01 -0.71585698328E+01  0.19667250161E+02  0.00000000000E+00 0.  1.
</event>
<event>
 7    1  0.2749315E-009  0.1064889E+03  0.7561462E-02  0.1267214E+00
         -1   -1    0    0    0  501 -0.00000000000E+00  0.00000000000E+00  0.10348410368E+03  0.10348410368E+03  0.00000000000E+00 0.  1.
          1   -1    0    0  501    0  0.00000000000E+00 -0.00000000000E+00 -0.17942186902E+03  0.17942186902E+03  0.00000000000E+00 0. -1.
         25    2    1    2    0    0  0.41447044242E+01  0.70409976995E+02  0.44473658703E+01  0.14366094948E+03  0.12507576067E+03 0.  0.
          5    1    3    3  502    0 -0.13225381035E+02 -0.20906697167E+02 -0.34610723911E+02  0.42747810465E+02  0.41800000000E+01 0. -1.
         -5    1    3    3    0  502  0.17370085459E+02  0.91316674161E+02  0.39058089781E+02  0.10091313902E+03  0.41800000000E+01 0. -1.
        -11    1    1    2    0    0  0.28693899497E+01 -0.81591063164E+02 -0.91037908035E+02  0.12228342360E+03  0.00000000000E+00 0. -1.
         11    1    1    2    0    0 -0.70140943740E+01  0.11181086169E+02  0.10652776824E+02  0.16961599626E+02  0.00000000000E+00 0.  1.
</event>
<event>
 7    1  0.2749315E-009  0.8240388E+02  0.7561462E-02  0.1322365E+00
         -1   -1    0    0    0  501 -0.00000000000E+00  0.00000000000E+00  0.48240754305E+03  0.48240754305E+03  0.00000000000E+00 0.  1.
          1   -1    0    0  501    0  0.00000000000E+00 -0.00000000000E+00 -0.31796257376E+02  0.31796257376E+02  0.00000000000E+00 0. -1.
         25    2    1    2    0    0  0.55994836565E+02  0.12271747688E+02  0.30327064161E+03  0.33302677154E+03  0.12509089089E+03 0.  0.
          5    1    3    3  502    0  0.54769665175E+02 -0.27336119242E+02  0.57633864428E+02  0.84179061337E+02  0.41800000000E+01 0.  1.
         -5    1    3    3    0  502  0.12251713901E+01  0.39607866929E+02  0.24563677719E+03  0.24884771020E+03  0.41800000000E+01 0.  1.
        -11    1    1    2    0    0 -0.40489851901E+02  0.45309330613E+01  0.15240716343E+03  0.15775899634E+03  0.00000000000E+00 0.  1.
         11    1    1    2    0    0 -0.15504984664E+02 -0.16802680749E+02 -0.50665193710E+01  0.23418032546E+02  0.00000000000E+00 0. -1.
</event>
<event>
 7    1  0.2749315E-009  0.1083086E+03  0.7561462E-02  0.1263734E+00
          2   -1    0    0  501    0  0.00000000000E+00  0.00000000000E+00  0.30631790102E+03  0.30631790102E+03  0.00000000000E+00 0. -1.
         -2   -1    0    0    0  501 -0.00000000000E+00 -0.00000000000E+00 -0.53429577149E+02  0.53429577149E+02  0.00000000000E+00 0.  1.
         25    2    1    2    0    0 -0.11236005560E+02  0.68804472921E+02  0.99620338721E+02  0.17444508107E+03  0.12508625467E+03 0.  0.
          5    1    3    3  502    0 -0.62611453868E+02  0.22258496315E+02  0.76109531758E+02  0.10112253971E+03  0.41800000000E+01 0.  1.
         -5    1    3    3    0  502  0.51375448309E+02  0.46545976607E+02  0.23510806963E+02  0.73322541359E+02  0.41800000000E+01 0.  1.
        -11    1    1    2    0    0 -0.15199387659E+02 -0.20503942069E+02  0.11609488660E+03  0.11886738712E+03  0.00000000000E+00 0. -1.
         11    1    1    2    0    0  0.26435393218E+02 -0.48300530853E+02  0.37173098551E+02  0.66435009981E+02  0.00000000000E+00 0.  1.
</event>
<event>
 7    1  0.2749315E-009  0.8959341E+02  0.7561462E-02  0.1303839E+00
          2   -1    0    0  501    0  0.00000000000E+00  0.00000000000E+00  0.62902343169E+02  0.62902343169E+02  0.00000000000E+00 0. -1.
         -2   -1    0    0    0  501 -0.00000000000E+00 -0.00000000000E+00 -0.30199094717E+03  0.30199094717E+03  0.00000000000E+00 0.  1.
         25    2    1    2    0    0 -0.50804675166E+02  0.12154341764E+02 -0.22080043935E+03  0.25909363376E+03  0.12509130263E+03 0.  0.
          5    1    3    3  502    0 -0.56650059914E+02 -0.32376347111E+02 -0.49646708597E+02  0.82095829462E+02  0.41800000000E+01 0. -1.
         -5    1    3    3    0  502  0.58453847478E+01  0.44530688876E+02 -0.17115373076E+03  0.17699780430E+03  0.41800000000E+01 0. -1.
        -11    1    1    2    0    0  0.42150567779E+02 -0.28027347255E+02  0.26761924044E+02  0.57257341335E+02  0.00000000000E+00 0. -1.
         11    1    1    2    0    0  0.86541073877E+01  0.15873005491E+02 -0.45050088691E+02  0.48542315242E+02  0.00000000000E+00 0.  1.
</event>
<event>
 7    1  0.2749315E-009  0.2747080E+03  0.7561462E-02  0.1098615E+00
          1   -1    0    0  501    0  0.00000000000E+00  0.00000000000E+00  0.16607632684E+03  0.16607632684E+03  0.00000000000E+00 0. -1.
         -1   -1    0    0    0  501 -0.00000000000E+00 -0.00000000000E+00 -0.94109071785E+03  0.94109071785E+03  0.00000000000E+00 0.  1.
         25    2    1    2    0    0  0.24557896174E+03 -0.75837940575E+02  0.38013905791E+00  0.28584425118E+03  0.12508545778E+03 0.  0.
          5    1    3    3  502    0  0.21679731556E+03 -0.13743231461E+02  0.85054423502E+00  0.21727436174E+03  0.41800000000E+01 0. -1.
         -5    1    3    3    0  502  0.28781646184E+02 -0.62094709113E+02 -0.47040517711E+00  0.68569889441E+02  0.41800000000E+01 0. -1.
        -11    1    1    2    0    0 -0.10491013571E+03  0.25078941271E+01 -0.40525418692E+03  0.41862080947E+03  0.00000000000E+00 0.  1.
         11    1    1    2    0    0 -0.14066882603E+03  0.73330046448E+02 -0.37014034315E+03  0.40270198404E+03  0.00000000000E+00 0. -1.
</event>
<event>
 7    1  0.2749315E-009  0.9768857E+02  0.7561462E-02  0.1285233E+00
         -3   -1    0    0    0  501 -0.00000000000E+00  0.00000000000E+00  0.70672962244E+03  0.70672962244E+03  0.00000000000E+00 0.  1.
          3   -1    0    0  501    0  0.00000000000E+00 -0.00000000000E+00 -0.18244328031E+02  0.18244328031E+02  0.00000000000E+00 0. -1.
         25    2    1    2    0    0 -0.26632534552E+02 -0.10852853518E+02  0.43660638928E+03  0.45508147325E+03  0.12508769649E+03 0.  0.
          5    1    3    3  502    0 -0.11942588910E+02 -0.58845636900E+02  0.11744372390E+03  0.13196944758E+03  0.41800000000E+01 0.  1.
         -5    1    3    3    0  502 -0.14689945642E+02  0.47992783382E+02  0.31916266539E+03  0.32311202568E+03  0.41800000000E+01 0.  1.
        -11    1    1    2    0    0  0.11783485383E+01  0.43448940930E+02  0.63000752996E+02  0.76539492102E+02  0.00000000000E+00 0. -1.
         11    1    1    2    0    0  0.25454186014E+02 -0.32596087411E+02  0.18887815213E+03  0.19335298512E+03  0.00000000000E+00 0.  1.
</event>
<event>
 7    1  0.2749315E-009  0.1466666E+03  0.7561462E-02  0.1204630E+00
         -2   -1    0    0    0  501 -0.00000000000E+00  0.00000000000E+00  0.43724300793E+02  0.43724300793E+02  0.00000000000E+00 0.  1.
          2   -1    0    0  501    0  0.00000000000E+00 -0.00000000000E+00 -0.94168348440E+03  0.94168348440E+03  0.00000000000E+00 0. -1.
         25    2    1    2    0    0 -0.41205855266E+02  0.11667188654E+03 -0.75598797207E+03  0.77619281970E+03  0.12508887970E+03 0.  0.
          5    1    3    3  502    0 -0.30160924567E+02  0.13979822751E+03 -0.53936716902E+03  0.55802118348E+03  0.41800000000E+01 0. -1.
         -5    1    3    3    0  502 -0.11044930699E+02 -0.23126340972E+02 -0.21662080305E+03  0.21817163623E+03  0.41800000000E+01 0. -1.
        -11    1    1    2    0    0  0.29090098169E+02 -0.64927954940E+02 -0.13880581599E+03  0.15597733071E+03  0.00000000000E+00 0.  1.
         11    1    1    2    0    0  0.12115757097E+02 -0.51743931602E+02 -0.31653955466E+01  0.53237634777E+02  0.00000000000E+00 0. -1.
</event>
<event>
 7    1  0.2749315E-009  0.1029196E+03  0.7561462E-02  0.1274274E+00
         -1   -1    0    0    0  501 -0.00000000000E+00  0.00000000000E+00  0.94364736532E+02  0.94364736532E+02  0.00000000000E+00 0. -1.
          1   -1    0    0  501    0  0.00000000000E+00 -0.00000000000E+00 -0.19474995265E+03  0.19474995265E+03  0.00000000000E+00 0.  1.
         25    2    1    2    0    0 -0.15525730043E+02 -0.36975954228E+02 -0.13097408357E+03  0.18549476184E+03  0.12508327872E+03 0.  0.
          5    1    3    3  502    0 -0.57689894693E+02 -0.14028003948E+02 -0.12301368490E+03  0.13665558136E+03  0.41800000000E+01 0.  1.
         -5    1    3    3    0  502  0.42164164650E+02 -0.22947950280E+02 -0.79603986765E+01  0.48839180478E+02  0.41800000000E+01 0.  1.
        -11    1    1    2    0    0  0.40496064346E+01  0.66415024799E+02  0.27046037748E+02  0.71825086071E+02  0.00000000000E+00 0. -1.
         11    1    1    2    0    0  0.11476123608E+02 -0.29439070571E+02  0.35428297098E+01  0.31794841272E+02  0.00000000000E+00 0.  1.
</event>
<event>
 7    1  0.2749315E-009  0.1012283E+03  0.7561462E-02  0.1277734E+00
          4   -1    0    0  501    0  0.00000000000E+00  0.00000000000E+00  0.28000461956E+02  0.28000461956E+02  0.00000000000E+00 0. -1.
         -4   -1    0    0    0  501 -0.00000000000E+00 -0.00000000000E+00 -0.49334039539E+03  0.49334039539E+03  0.00000000000E+00 0.  1.
         25    2    1    2    0    0 -0.60118476914E+01 -0.16131398325E+02 -0.35492790282E+03  0.37672205874E+03  0.12509727822E+03 0.  0.
          5    1    3    3  502    0 -0.63059696099E+02 -0.18802419771E+02 -0.14812216387E+03  0.16213483306E+03  0.41800000000E+01 0. -1.
         -5    1    3    3    0  502  0.57047848408E+02  0.26710214453E+01 -0.20680573895E+03  0.21458722568E+03  0.41800000000E+01 0. -1.
        -11    1    1    2    0    0 -0.28971160289E+02  0.29926927075E+02 -0.95457776990E+02  0.10414958608E+03  0.00000000000E+00 0.  1.
         11    1    1    2    0    0  0.34983007981E+02 -0.13795528750E+02 -0.14954253622E+02  0.40469212523E+02  0.00000000000E+00 0. -1.
</event>
<event>
 7    1  0.2749315E-009  0.7737487E+02  0.7561462E-02  0.1336671E+00
         -1   -1    0    0    0  501 -0.00000000000E+00  0.00000000000E+00  0.22714038121E+03  0.22714038121E+03  0.00000000000E+00 0.  1.
          1   -1    0    0  501    0  0.00000000000E+00 -0.00000000000E+00 -0.65565028587E+02  0.65565028587E+02  0.00000000000E+00 0. -1.
         25    2    1    2    0    0  0.34232315322E+02  0.37787979140E+02  0.63535292704E+02  0.14928064488E+03  0.12509274454E+03 0.  0.
          5    1    3    3  502    0  0.29135976882E+02 -0.11458583863E+02 -0.29876200012E+02  0.43477166653E+02  0.41800000000E+01 0.  1.
         -5    1    3    3    0  502  0.50963384401E+01  0.49246563003E+02  0.93411492716E+02  0.10580347822E+03  0.41800000000E+01 0.  1.
        -11    1    1    2    0    0 -0.30773050833E+02 -0.51140177085E+02  0.11001270105E+03  0.12516026831E+03  0.00000000000E+00 0.  1.
         11    1    1    2    0    0 -0.34592644894E+01  0.13352197945E+02 -0.11972641133E+02  0.18264496611E+02  0.00000000000E+00 0. -1.
</event>
<event>
 7    1  0.2749315E-009  0.1227193E+03  0.7561462E-02  0.1238677E+00
         -2   -1    0    0    0  501 -0.00000000000E+00  0.00000000000E+00  0.26112356941E+02  0.26112356941E+02  0.00000000000E+00 0.  1.
          2   -1    0    0  501    0  0.00000000000E+00 -0.00000000000E+00 -0.15357924565E+04  0.15357924565E+04  0.00000000000E+00 0. -1.
         25    2    1    2    0    0 -0.70164945263E+02  0.35557256200E+02 -0.13669118978E+04  0.13748749295E+04  0.12508196292E+03 0.  0.
          5    1    3    3  502    0 -0.95083966872E+02  0.34349213608E+02 -0.12888707974E+04  0.12928365071E+04  0.41800000000E+01 0. -1.
         -5    1    3    3    0  502  0.24919021610E+02  0.12080425919E+01 -0.78041100393E+02  0.82038422434E+02  0.41800000000E+01 0. -1.
        -11    1    1    2    0    0  0.34190218872E+02 -0.64357246342E+02 -0.10291574580E+03  0.12610502352E+03  0.00000000000E+00 0. -1.
         11    1    1    2    0    0  0.35974726391E+02  0.28799990142E+02 -0.39852455992E+02  0.60924860440E+02  0.00000000000E+00 0.  1.
</event>
<event>
 7    1  0.2749315E-009  0.1041342E+03  0.7561462E-02  0.1271835E+00
         -2   -1    0    0    0  501 -0.00000000000E+00  0.00000000000E+00  0.45291713376E+02  0.45291713376E+02  0.00000000000E+00 0.  1.
          2   -1    0    0  501    0  0.00000000000E+00 -0.00000000000E+00 -0.27912947381E+03  0.27912947381E+03  0.00000000000E+00 0. -1.
         25    2    1    2    0    0 -0.29762301548E+02 -0.19925009823E+02 -0.14908063578E+03  0.19787456745E+03  0.12508600190E+03 0.  0.
          5    1    3    3  502    0 -0.19187114756E+02 -0.65437905772E+02 -0.40084792827E+02  0.79211917666E+02  0.41800000000E+01 0. -1.
         -5    1    3    3    0  502 -0.10575186791E+02  0.45512895949E+02 -0.10899584295E+03  0.11866264978E+03  0.41800000000E+01 0. -1.
        -11    1    1    2    0    0  0.57079197490E+02 -0.33081371244E+01 -0.60561553118E+02  0.83286735279E+02  0.00000000000E+00 0. -1.
         11    1    1    2    0    0 -0.27316895943E+02  0.23233146947E+02 -0.24195571536E+02  0.43259884454E+02  0.00000000000E+00 0.  1.
</event>
<event>
 7    1  0.2749315E-009  0.1054706E+03  0.7561462E-02  0.1269195E+00
         -2   -1    0    0    0  501 -0.00000000000E+00  0.00000000000E+00  0.12218278215E+03  0.12218278215E+03  0.00000000000E+00 0. -1.
          2   -1    0    0  501    0  0.00000000000E+00 -0.00000000000E+00 -0.46312144166E+03  0.46312144166E+03  0.00000000000E+00 0.  1.
         25    2    1    2    0    0  0.36459899364E+02 -0.75945250624E+02  0.61714964998E+02  0.16294953444E+03  0.12508720365E+03 0.  0.
          5    1    3    3  502    0 -0.64500854785E+01 -0.44213877884E+02  0.91338759852E+02  0.10176793233E+03  0.41800000000E+01 0.  1.
         -5    1    3    3    0  502  0.42909984842E+02 -0.31731372740E+02 -0.29623794854E+02  0.61181602110E+02  0.41800000000E+01 0.  1.
        -11    1    1    2    0    0  0.18035915150E+02  0.48026821351E+02 -0.88541186817E+02  0.10232991531E+03  0.00000000000E+00 0. -1.
         11    1    1    2    0    0 -0.54495814514E+02  0.27918429273E+02 -0.31411243770E+03  0.32002477406E+03  0.00000000000E+00 0.  1.
</event>
<event>
 7    1  0.2749315E-009  0.8827948E+02  0.7561462E-02  0.1307072E+00
          2   -1    0    0  501    0  0.00000000000E+00  0.00000000000E+00  0.29392004801E+03  0.29392004801E+03  0.00000000000E+00 0. -1.
         -2   -1    0    0    0  501 -0.00000000000E+00 -0.00000000000E+00 -0.78575949660E+02  0.78575949660E+02  0.00000000000E+00 0.  1.
         25    2    1    2    0    0 -0.49574268217E+02 -0.15629742183E+02  0.22955512506E+03  0.26654347546E+03  0.12509185409E+03 0.  0.
          5    1    3    3  502    0  0.11597792691E+02 -0.21959426211E+02  0.19350124692E+03  0.19513310882E+03  0.41800000000E+01 0.  1.
         -5    1    3    3    0  502 -0.61172060908E+02  0.63296840284E+01  0.36053878133E+02  0.71410366642E+02  0.41800000000E+01 0.  1.
        -11    1    1    2    0    0  0.24805481451E+02 -0.29324567196E+02  0.20937344447E+02  0.43744880201E+02  0.00000000000E+00 0. -1.
         11    1    1    2    0    0  0.24768786766E+02  0.44954309379E+02 -0.35148371155E+02  0.62207642010E+02  0.00000000000E+00 0.  1.
</event>
<event>
 7    1  0.2749315E-009  0.1813165E+03  0.7561462E-02  0.1166535E+00
          1   -1    0    0  501    0  0.00000000000E+00  0.00000000000E+00  0.11252165908E+04  0.11252165908E+04  0.00000000000E+00 0. -1.
         -1   -1    0    0    0  501 -0.00000000000E+00 -0.00000000000E+00 -0.41950159937E+02  0.41950159937E+02  0.00000000000E+00 0.  1.
         25    2    1    2    0    0  0.98625375377E+01  0.15727713058E+03  0.83291232284E+03  0.85686826540E+03  0.12508765431E+03 0.  0.
          5    1    3    3  502    0  0.18546532440E+01  0.17512390253E+03  0.79422494151E+03  0.81331577576E+03  0.41800000000E+01 0.  1.
         -5    1    3    3    0  502  0.80078842937E+01 -0.17846771954E+02  0.38687381329E+02  0.43552489643E+02  0.41800000000E+01 0.  1.
        -11    1    1    2    0    0  0.22934940060E+02 -0.45442588220E+02  0.25265830407E+02  0.56827831965E+02  0.00000000000E+00 0.  1.
         11    1    1    2    0    0 -0.32797477598E+02 -0.11183454236E+03  0.22508827762E+03  0.25347065338E+03  0.00000000000E+00 0. -1.
</event>
<event>
 7    1  0.2749315E-009  0.1017067E+03  0.7561462E-02  0.1276747E+00
          2   -1    0    0  501    0  0.00000000000E+00  0.00000000000E+00  0.30625386306E+03  0.30625386306E+03  0.00000000000E+00 0. -1.
         -2   -1    0    0    0  501 -0.00000000000E+00 -0.00000000000E+00 -0.91029153900E+02  0.91029153900E+02  0.00000000000E+00 0.  1.
         25    2    1    2    0    0  0.34487365685E+02  0.71472052120E+02  0.23221546659E+03  0.27544193735E+03  0.12508639136E+03 0.  0.
          5    1    3    3  502    0  0.23329697214E+01 -0.16636124562E+01  0.17963930109E+03  0.17971077110E+03  0.41800000000E+01 0.  1.
         -5    1    3    3    0  502  0.32154395964E+02  0.73135664576E+02  0.52576165497E+02  0.95731166248E+02  0.41800000000E+01 0.  1.
        -11    1    1    2    0    0 -0.26695731792E+02 -0.92312483475E+02 -0.42211689221E+01  0.96187706950E+02  0.00000000000E+00 0. -1.
         11    1    1    2    0    0 -0.77916338937E+01  0.20840431355E+02 -0.12769588511E+02  0.25653372654E+02  0.00000000000E+00 0.  1.
</event>
<event>
 7    1  0.2749315E-009  0.9662310E+02  0.7561462E-02  0.1287562E+00
          2   -1    0    0  501    0  0.00000000000E+00  0.00000000000E+00  0.12076684218E+03  0.12076684218E+03  0.00000000000E+00 0. -1.
         -2   -1    0    0    0  501 -0.00000000000E+00 -0.00000000000E+00 -0.12695535006E+03  0.12695535006E+03  0.00000000000E+00 0.  1.
         25    2    1    2    0    0 -0.59131701798E+02  0.14285109492E+02 -0.37730560621E+01  0.13914862040E+03  0.12508988806E+03 0.  0.
          5    1    3    3  502    0  0.95195905778E+01 -0.24336457097E+02  0.40735843143E+02  0.48577433705E+02  0.41800000000E+01 0.  1.
         -5    1    3    3    0  502 -0.68651292376E+02  0.38621566588E+02 -0.44508899205E+02  0.90571186694E+02  0.41800000000E+01 0.  1.
        -11    1    1    2    0    0 -0.10617776502E+02  0.94604019566E+01  0.25974466529E+02  0.29612654297E+02  0.00000000000E+00 0. -1.
         11    1    1    2    0    0  0.69749478300E+02 -0.23745511448E+02 -0.28389918344E+02  0.78960917552E+02  0.00000000000E+00 0.  1.
</event>
<event>
 7    1  0.2749315E-009  0.1046293E+03  0.7561462E-02  0.1270852E+00
          1   -1    0    0  501    0  0.00000000000E+00  0.00000000000E+00  0.39300299708E+03  0.39300299708E+03  0.00000000000E+00 0. -1.
         -1   -1    0    0    0  501 -0.00000000000E+00 -0.00000000000E+00 -0.34039181580E+02  0.34039181580E+02  0.00000000000E+00 0.  1.
         25    2    1    2    0    0  0.23641530254E+02  0.30577865690E+02  0.19189011990E+03  0.23229833503E+03  0.12508705176E+03 0.  0.
          5    1    3    3  502    0  0.75188083502E+02  0.14282987703E+02  0.10909836559E+03  0.13333108195E+03  0.41800000000E+01 0.  1.
         -5    1    3    3    0  502 -0.51546553248E+02  0.16294877987E+02  0.82791754312E+02  0.98967253081E+02  0.41800000000E+01 0.  1.
        -11    1    1    2    0    0  0.19530601599E+02 -0.29282428069E+02  0.17988881422E+02  0.39528532065E+02  0.00000000000E+00 0.  1.
         11    1    1    2    0    0 -0.43172131853E+02 -0.12954376211E+01  0.14908481417E+03  0.15521531156E+03  0.00000000000E+00 0. -1.
</event>
<event>
 7    1  0.5388248E-009  0.1103052E+03  0.7561462E-02  0.1260006E+00
          2   -1    0    0  501    0  0.00000000000E+00  0.00000000000E+00  0.11525341403E+03  0.11525341403E+03  0.00000000000E+00 0. -1.
         -2   -1    0    0    0  501 -0.00000000000E+00 -0.00000000000E+00 -0.13628786737E+03  0.13628786737E+03  0.00000000000E+00 0.  1.
         25    2    1    2    0    0 -0.44975793228E+02  0.41619574405E+02  0.25332717142E+01  0.13931727359E+03  0.12509146376E+03 0.  0.
          5    1    3    3  502    0 -0.72084717284E+02  0.54769736821E+02  0.32824278920E+02  0.96388983935E+02  0.41800000000E+01 0.  1.
         -5    1    3    3    0  502  0.27108924056E+02 -0.13150162416E+02 -0.30291007205E+02  0.42928289654E+02  0.41800000000E+01 0.  1.
        -11    1    1    2    0    0  0.36296284582E+02  0.17159097254E+02 -0.33118713388E+02  0.52045211783E+02  0.00000000000E+00 0.  1.
         11    1    1    2    0    0  0.86795086454E+01 -0.58778671659E+02  0.95509883350E+01  0.60178796021E+02  0.00000000000E+00 0. -1.
</event>
<event>
 7    1  0.2749315E-009  0.8748038E+02  0.7561462E-02  0.1309071E+00
          1   -1    0    0  501    0  0.00000000000E+00  0.00000000000E+00  0.33729399941E+02  0.33729399941E+02  0.00000000000E+00 0. -1.
         -1   -1    0    0    0  501 -0.00000000000E+00 -0.00000000000E+00 -0.37209396940E+03  0.37209396940E+03  0.00000000000E+00 0.  1.
         25    2    1    2    0    0 -0.14698562896E+02  0.20790598659E+02 -0.22486836744E+03  0.25857162889E+03  0.12508080527E+03 0.  0.
          5    1    3    3  502    0 -0.17681417615E+02 -0.38451006288E+02 -0.23461006926E+02  0.48569575450E+02  0.41800000000E+01 0. -1.
         -5    1    3    3    0  502  0.29828547184E+01  0.59241604947E+02 -0.20140736052E+03  0.21000205344E+03  0.41800000000E+01 0. -1.
        -11    1    1    2    0    0  0.64419473450E+01  0.25319456658E+02 -0.92135135325E+02  0.95767722811E+02  0.00000000000E+00 0.  1.
         11    1    1    2    0    0  0.82566155511E+01 -0.46110055317E+02 -0.21361066687E+02  0.51484017634E+02  0.00000000000E+00 0. -1.
</event>
<event>
 7    1  0.2749315E-009  0.7031471E+02  0.7561462E-02  0.1359026E+00
         -3   -1    0    0    0  501 -0.00000000000E+00  0.00000000000E+00  0.55425269931E+03  0.55425269931E+03  0.00000000000E+00 0.  1.
          3   -1    0    0  501    0  0.00000000000E+00 -0.00000000000E+00 -0.24602151693E+02  0.24602151693E+02  0.00000000000E+00 0. -1.
         25    2    1    2    0    0  0.15872148933E+02 -0.34960851261E+02  0.34711018211E+03  0.37095453547E+03  0.12509037784E+03 0.  0.
          5    1    3    3  502    0  0.20510452483E+02 -0.14426985612E+02  0.34852011610E+03  0.34944607639E+03  0.41800000000E+01 0.  1.
         -5    1    3    3    0  502 -0.46383035497E+01 -0.20533865649E+02 -0.14099339887E+01  0.21508459084E+02  0.41800000000E+01 0.  1.
        -11    1    1    2    0    0  0.13024747749E+02  0.56322972935E+02  0.76166092677E+02  0.95620055469E+02  0.00000000000E+00 0. -1.
         11    1    1    2    0    0 -0.28896896682E+02 -0.21362121674E+02  0.10637427283E+03  0.11228026006E+03  0.00000000000E+00 0.  1.
</event>
<event>
 7    1  0.2749315E-009  0.1982410E+03  0.7561462E-02  0.1151232E+00
         -1   -1    0    0    0  501 -0.00000000000E+00  0.00000000000E+00  0.27076341415E+02  0.27076341415E+02  0.00000000000E+00 0.  1.
          1   -1    0    0  501    0  0.00000000000E+00 -0.00000000000E+00 -0.21282101339E+04  0.21282101339E+04  0.00000000000E+00 0. -1.
         25    2    1    2    0    0  0.60482364202E+02  0.15725641143E+03 -0.13920525156E+04  0.14077805647E+04  0.12509283268E+03 0.  0.
          5    1    3    3  502    0  0.14540263008E+02  0.35952862619E+02 -0.83094957051E+03  0.83186458556E+03  0.41800000000E+01 0. -1.
         -5    1    3    3    0  502  0.45942101194E+02  0.12130354881E+03 -0.56110294508E+03  0.57591597911E+03  0.41800000000E+01 0. -1.
        -11    1    1    2    0    0 -0.99663338144E+02 -0.46047397458E+02 -0.24143877058E+03  0.26522787131E+03  0.00000000000E+00 0.  1.
         11    1    1    2    0    0  0.39180973942E+02 -0.11120901397E+03 -0.46764250634E+03  0.48227803935E+03  0.00000000000E+00 0. -1.
</event>
<event>
 7    1  0.2749315E-009  0.1244212E+03  0.7561462E-02  0.1235977E+00
         -2   -1    0    0    0  501 -0.00000000000E+00  0.00000000000E+00  0.10588669545E+03  0.10588669545E+03  0.00000000000E+00 0. -1.
          2   -1    0    0  501    0  0.00000000000E+00 -0.00000000000E+00 -0.21493860052E+03  0.21493860052E+03  0.00000000000E+00 0.  1.
         25    2    1    2    0    0  0.42719144844E+01  0.78378728876E+02  0.15715971384E+02  0.14851234727E+03  0.12508977233E+03 0.  0.
          5    1    3    3  502    0  0.58523660948E+02  0.26424401072E+02 -0.16873717587E+02  0.66524150562E+02  0.41800000000E+01 0.  1.
         -5    1    3    3    0  502 -0.54251746464E+02  0.51954327804E+02  0.32589688971E+02  0.81988196706E+02  0.41800000000E+01 0.  1.
        -11    1    1    2    0    0 -0.22575595032E+02  0.56418682385E+01 -0.33221323542E+01  0.23505844628E+02  0.00000000000E+00 0. -1.
         11    1    1    2    0    0  0.18303680548E+02 -0.84020597114E+02 -0.12144574410E+03  0.14880710407E+03  0.00000000000E+00 0.  1.
</event>
<event>
 7    1  0.2749315E-009  0.9585880E+02  0.7561462E-02  0.1289253E+00
          1   -1    0    0  501    0  0.00000000000E+00  0.00000000000E+00  0.41026587595E+03  0.41026587595E+03  0.00000000000E+00 0. -1.
         -1   -1    0    0    0  501 -0.00000000000E+00 -0.00000000000E+00 -0.40352136056E+02  0.40352136056E+02  0.00000000000E+00 0.  1.
         25    2    1    2    0    0 -0.21048828824E+01  0.37709283884E+02  0.28806746915E+03  0.31632152143E+03  0.12510003004E+03 0.  0.
          5    1    3    3  502    0 -0.64781269529E+01 -0.37110250779E+02  0.18484771342E+03  0.18869363105E+03  0.41800000000E+01 0. -1.
         -5    1    3    3    0  502  0.43732440705E+01  0.74819534663E+02  0.10321975573E+03  0.12762789039E+03  0.41800000000E+01 0. -1.
        -11    1    1    2    0    0  0.27626123749E+01  0.20426145546E+02 -0.12036700626E+02  0.23869260797E+02  0.00000000000E+00 0.  1.
         11    1    1    2    0    0 -0.65772949250E+00 -0.58135429430E+02  0.93882971372E+02  0.11042722978E+03  0.00000000000E+00 0. -1.
</event>
<event>
 7    1  0.2766118E-009  0.1444200E+03  0.7561462E-02  0.1207502E+00
          1   -1    0    0  501    0  0.00000000000E+00  0.00000000000E+00  0.15444514472E+03  0.15444514472E+03  0.00000000000E+00 0. -1.
         -1   -1    0    0    0  501 -0.00000000000E+00 -0.00000000000E+00 -0.16175968760E+03  0.16175968760E+03  0.00000000000E+00 0.  1.
         25    2    1    2    0    0 -0.69894775685E+02 -0.79744638916E+02 -0.48122552137E+02  0.17090202332E+03  0.12508890616E+03 0.  0.
          5    1    3    3  502    0 -0.25542743175E+02 -0.10727638688E+03 -0.42404242120E+02  0.11822117857E+03  0.41800000000E+01 0.  1.
         -5    1    3    3    0  502 -0.44352032510E+02  0.27531747969E+02 -0.57183100171E+01  0.52680844749E+02  0.41800000000E+01 0.  1.
        -11    1    1    2    0    0  0.18115830904E+02  0.71407891480E+02 -0.74335124821E+01  0.74044090937E+02  0.00000000000E+00 0.  1.
         11    1    1    2    0    0  0.51778944782E+02  0.83367474359E+01  0.48241521743E+02  0.71258718067E+02  0.00000000000E+00 0. -1.
</event>
<event>
 7    1  0.2749315E-009  0.8872415E+02  0.7561462E-02  0.1305971E+00
          1   -1    0    0  501    0  0.00000000000E+00  0.00000000000E+00  0.17413029364E+03  0.17413029364E+03  0.00000000000E+00 0. -1.
         -1   -1    0    0    0  501 -0.00000000000E+00 -0.00000000000E+00 -0.11702834811E+03  0.11702834811E+03  0.00000000000E+00 0.  1.
         25    2    1    2    0    0 -0.55060000456E+02  0.32944065123E+02  0.98288511115E+02  0.17153658133E+03  0.12508897730E+03 0.  0.
          5    1    3    3  502    0 -0.23215063408E+02  0.19839188329E+02  0.12437272751E+03  0.12813500814E+03  0.41800000000E+01 0. -1.
         -5    1    3    3    0  502 -0.31844937048E+02  0.13104876794E+02 -0.26084216391E+02  0.43401573199E+02  0.41800000000E+01 0. -1.
        -11    1    1    2    0    0  0.39711270094E+02  0.28323115290E+02 -0.22780043791E+02  0.53834136265E+02  0.00000000000E+00 0.  1.
         11    1    1    2    0    0  0.15348730362E+02 -0.61267180413E+02 -0.18406521793E+02  0.65787924151E+02  0.00000000000E+00 0. -1.
</event>
<event>
 7    1  0.2749315E-009  0.1859346E+03  0.7561462E-02  0.1162180E+00
          2   -1    0    0  501    0  0.00000000000E+00  0.00000000000E+00  0.48864164241E+03  0.48864164241E+03  0.00000000000E+00 0. -1.
         -2   -1    0    0    0  501 -0.00000000000E+00 -0.00000000000E+00 -0.93092207077E+02  0.93092207077E+02  0.00000000000E+00 0.  1.
         25    2    1    2    0    0 -0.83094855096E+01 -0.17086936139E+03  0.11470308408E+03  0.24097632402E+03  0.12508958801E+03 0.  0.
          5    1    3    3  502    0  0.24254152757E+02 -0.14500077068E+03  0.35311740514E+02  0.15125435148E+03  0.41800000000E+01 0.  1.
         -5    1    3    3    0  502 -0.32563638266E+02 -0.25868590710E+02  0.79391343571E+02  0.89721972540E+02  0.41800000000E+01 0.  1.
        -11    1    1    2    0    0 -0.21268344764E+02  0.13425006512E+03  0.15371828002E+03  0.20519437634E+03  0.00000000000E+00 0.  1.
         11    1    1    2    0    0  0.29577830274E+02  0.36619296277E+02  0.12712807123E+03  0.13556314912E+03  0.00000000000E+00 0. -1.
</event>
<event>
 7    1  0.2749315E-009  0.9450168E+02  0.7561462E-02  0.1292302E+00
          2   -1    0    0  501    0  0.00000000000E+00  0.00000000000E+00  0.24300165500E+03  0.24300165500E+03  0.00000000000E+00 0. -1.
         -2   -1    0    0    0  501 -0.00000000000E+00 -0.00000000000E+00 -0.79016669346E+02  0.79016669346E+02  0.00000000000E+00 0.  1.
         25    2    1    2    0    0  0.38396637579E+02 -0.72249828404E+02  0.67895326037E+02  0.16417352073E+03  0.12509528420E+03 0.  0.
          5    1    3    3  502    0  0.22790782755E+02 -0.50833944186E+02 -0.29482545627E+02  0.63168050126E+02  0.41800000000E+01 0. -1.
         -5    1    3    3    0  502  0.15605854825E+02 -0.21415884218E+02  0.97377871664E+02  0.10100547060E+03  0.41800000000E+01 0. -1.
        -11    1    1    2    0    0 -0.36502356014E+01  0.71462734736E+02  0.20164305454E+02  0.74342759502E+02  0.00000000000E+00 0.  1.
         11    1    1    2    0    0 -0.34746401978E+02  0.78709366827E+00  0.75925354168E+02  0.83502044121E+02  0.00000000000E+00 0. -1.
</event>
<event>
 7    1  0.3025950E-009  0.9228887E+02  0.7561462E-02  0.1297402E+00
         -1   -1    0    0    0  501 -0.00000000000E+00  0.00000000000E+00  0.29487368486E+02  0.29487368486E+02  0.00000000000E+00 0.  1.
          1   -1    0    0  501    0  0.00000000000E+00 -0.00000000000E+00 -0.53295760791E+03  0.53295760791E+03  0.00000000000E+00 0. -1.
         25    2    1    2    0    0 -0.81938127980E+01 -0.15523786294E+02 -0.41717231181E+03  0.43587655048E+03  0.12508997963E+03 0.  0.
          5    1    3    3  502    0 -0.56484607197E+02 -0.79354607701E+01 -0.33748704332E+03  0.34229878644E+03  0.41800000000E+01 0.  1.
         -5    1    3    3    0  502  0.48290794399E+02 -0.75883255243E+01 -0.79685268491E+02  0.93577764039E+02  0.41800000000E+01 0.  1.
        -11    1    1    2    0    0 -0.17630239885E+02  0.39392916112E+02 -0.12679254482E+02  0.44982115250E+02  0.00000000000E+00 0.  1.
         11    1    1    2    0    0  0.25824052683E+02 -0.23869129817E+02 -0.73618673132E+02  0.81586310671E+02  0.00000000000E+00 0. -1.
</event>
<event>
 7    1  0.2749315E-009  0.1008178E+03  0.7561462E-02  0.1278586E+00
          1   -1    0    0  501    0  0.00000000000E+00  0.00000000000E+00  0.17479891744E+03  0.17479891744E+03  0.00000000000E+00 0. -1.
         -1   -1    0    0    0  501 -0.00000000000E+00 -0.00000000000E+00 -0.73595425809E+02  0.73595425809E+02  0.00000000000E+00 0.  1.
         25    2    1    2    0    0  0.32170067277E+02 -0.86113920887E+01  0.55416797685E+02  0.14080756936E+03  0.12508669322E+03 0.  0.
          5    1    3    3  502    0 -0.18535432080E+02  0.37815469838E+02 -0.12448772403E+02  0.44113675157E+02  0.41800000000E+01 0. -1.
         -5    1    3    3    0  502  0.50705499357E+02 -0.46426861927E+02  0.67865570088E+02  0.96693894206E+02  0.41800000000E+01 0. -1.
        -11    1    1    2    0    0 -0.60387725608E+02 -0.16570467630E+01  0.48452496639E+02  0.77440736299E+02  0.00000000000E+00 0. -1.
         11    1    1    2    0    0  0.28217658331E+02  0.10268438852E+02 -0.26658026937E+01  0.30146037586E+02  0.00000000000E+00 0.  1.
</event>
<event>
 7    1  0.2749315E-009  0.1347371E+03  0.7561462E-02  0.1220591E+00
          2   -1    0    0  501    0  0.00000000000E+00  0.00000000000E+00  0.76288827520E+03  0.76288827520E+03  0.00000000000E+00 0. -1.
         -2   -1    0    0    0  501 -0.00000000000E+00 -0.00000000000E+00 -0.29110785227E+02  0.29110785227E+02  0.00000000000E+00 0.  1.
         25    2    1    2    0    0  0.51486161340E+02  0.91187750282E+02  0.36072064358E+03  0.39589643848E+03  0.12509427119E+03 0.  0.
          5    1    3    3  502    0 -0.28161638525E+02  0.57104050951E+02  0.81453633351E+02  0.10347036922E+03  0.41800000000E+01 0. -1.
         -5    1    3    3    0  502  0.79647799865E+02  0.34083699331E+02  0.27926701022E+03  0.29242606926E+03  0.41800000000E+01 0. -1.
        -11    1    1    2    0    0 -0.42954404020E+02 -0.20260243172E+02  0.24412772640E+03  0.24870445326E+03  0.00000000000E+00 0. -1.
         11    1    1    2    0    0 -0.85317573193E+01 -0.70927507110E+02  0.12892912000E+03  0.14739816869E+03  0.00000000000E+00 0.  1.
</event>
<event>
 7    1  0.2749315E-009  0.1939094E+03  0.7561462E-02  0.1154982E+00
         -1   -1    0    0    0  501 -0.00000000000E+00  0.00000000000E+00  0.55498939595E+02  0.55498939595E+02  0.00000000000E+00 0.  1.
          1   -1    0    0  501    0  0.00000000000E+00 -0.00000000000E+00 -0.76692815664E+03  0.76692815664E+03  0.00000000000E+00 0. -1.
         25    2    1    2    0    0 -0.12337308543E+03  0.12321639396E+03 -0.33411349160E+03  0.39709453201E+03  0.12509613958E+03 0.  0.
          5    1    3    3  502    0 -0.10226336306E+03  0.47557693596E+02 -0.10238696803E+03  0.15238140723E+03  0.41800000000E+01 0. -1.
         -5    1    3    3    0  502 -0.21109722367E+02  0.75658700362E+02 -0.23172652356E+03  0.24471312479E+03  0.41800000000E+01 0. -1.
        -11    1    1    2    0    0  0.73582962239E+02 -0.12656254936E+03 -0.27896441888E+03  0.31504551772E+03  0.00000000000E+00 0. -1.
         11    1    1    2    0    0  0.49790123191E+02  0.33461554039E+01 -0.98351306562E+02  0.11028704650E+03  0.00000000000E+00 0.  1.
</event>
<event>
 7    1  0.2749315E-009  0.9118731E+02  0.7561462E-02  0.1300002E+00
          2   -1    0    0  501    0  0.00000000000E+00  0.00000000000E+00  0.12859420021E+03  0.12859420021E+03  0.00000000000E+00 0. -1.
         -2   -1    0    0    0  501 -0.00000000000E+00 -0.00000000000E+00 -0.98977476901E+02  0.98977476901E+02  0.00000000000E+00 0.  1.
         25    2    1    2    0    0  0.10687212836E+01 -0.29537765273E+02  0.24677913690E+02  0.13088377520E+03  0.12509173212E+03 0.  0.
          5    1    3    3  502    0  0.26736593461E+02  0.37400177613E+02 -0.15375328832E+02  0.48656878775E+02  0.41800000000E+01 0. -1.
         -5    1    3    3    0  502 -0.25667872177E+02 -0.66937942886E+02  0.40053242522E+02  0.82226896430E+02  0.41800000000E+01 0. -1.
        -11    1    1    2    0    0  0.28039508438E+02  0.12820807303E+02 -0.33585417968E+02  0.45591308749E+02  0.00000000000E+00 0.  1.
         11    1    1    2    0    0 -0.29108229722E+02  0.16716957970E+02  0.38524227586E+02  0.51096593159E+02  0.00000000000E+00 0. -1.
</event>
<event>
 7    1  0.2749315E-009  0.1239621E+03  0.7561462E-02  0.1236700E+00
          1   -1    0    0  501    0  0.00000000000E+00  0.00000000000E+00  0.70378250194E+03  0.70378250194E+03  0.00000000000E+00 0. -1.
         -1   -1    0    0    0  501 -0.00000000000E+00 -0.00000000000E+00 -0.27473007565E+02  0.27473007565E+02  0.00000000000E+00 0.  1.
         25    2    1    2    0    0  0.85359432015E+02 -0.13685718782E+02  0.37200147944E+03  0.40187848548E+03  0.12509070649E+03 0.  0.
          5    1    3    3  502    0  0.11025152148E+02 -0.52741961912E+02  0.70246730070E+02  0.88630378606E+02  0.41800000000E+01 0.  1.
         -5    1    3    3    0  502  0.74334279867E+02  0.39056243130E+02  0.30175474937E+03  0.31324810687E+03  0.41800000000E+01 0.  1.
        -11    1    1    2    0    0 -0.79331883916E+02 -0.14790677991E+02  0.13264919589E+03  0.15526790116E+03  0.00000000000E+00 0.  1.
         11    1    1    2    0    0 -0.60275480991E+01  0.28476396774E+02  0.17165881904E+03  0.17410912287E+03  0.00000000000E+00 0. -1.
</event>
<event>
 7    1  0.2749315E-009  0.1073479E+03  0.7561462E-02  0.1265561E+00
         -3   -1    0    0    0  501 -0.00000000000E+00  0.00000000000E+00  0.27170289544E+03  0.27170289544E+03  0.00000000000E+00 0.  1.
          3   -1    0    0  501    0  0.00000000000E+00 -0.00000000000E+00 -0.93578079239E+02  0.93578079239E+02  0.00000000000E+00 0. -1.
         25    2    1    2    0    0 -0.94171118515E+01  0.88954271643E+02  0.10334474981E+02  0.15412821801E+03  0.12508861569E+03 0.  0.
          5    1    3    3  502    0 -0.45143220067E+02  0.25445238226E+02  0.49078063284E+02  0.71494749193E+02  0.41800000000E+01 0. -1.
         -5    1    3    3    0  502  0.35726108216E+02  0.63509033416E+02 -0.38743588303E+02  0.82633468815E+02  0.41800000000E+01 0. -1.
        -11    1    1    2    0    0  0.66319073388E+01 -0.31167216380E+02  0.14583027322E+03  0.14927104930E+03  0.00000000000E+00 0.  1.
         11    1    1    2    0    0  0.27852045127E+01 -0.57787055262E+02  0.21960067994E+02  0.61881707365E+02  0.00000000000E+00 0. -1.
</event>
<event>
 7    1  0.2749315E-009  0.1099944E+03  0.7561462E-02  0.1260580E+00
         -2   -1    0    0    0  501 -0.00000000000E+00  0.00000000000E+00  0.16397643749E+03  0.16397643749E+03  0.00000000000E+00 0. -1.
          2   -1    0    0  501    0  0.00000000000E+00 -0.00000000000E+00 -0.80365559579E+02  0.80365559579E+02  0.00000000000E+00 0.  1.
         25    2    1    2    0    0 -0.18234723496E+02  0.13064694871E+02  0.81098474239E+02  0.15075636142E+03  0.12508927449E+03 0.  0.
          5    1    3    3  502    0 -0.66225037320E+02  0.33991466137E+02  0.46790122097E+02  0.88022515666E+02  0.41800000000E+01 0.  1.
         -5    1    3    3    0  502  0.47990313824E+02 -0.20926771266E+02  0.34308352141E+02  0.62733845755E+02  0.41800000000E+01 0.  1.
        -11    1    1    2    0    0  0.46226560999E+02 -0.34478042156E+02  0.68622727340E+01  0.58075133403E+02  0.00000000000E+00 0. -1.
         11    1    1    2    0    0 -0.27991837503E+02  0.21413347284E+02 -0.43498690645E+01  0.35510502244E+02  0.00000000000E+00 0.  1.
</event>
<event>
 7    1  0.2749315E-009  0.1750303E+03  0.7561462E-02  0.1172701E+00
         -1   -1    0    0    0  501 -0.00000000000E+00  0.00000000000E+00  0.18400591904E+02  0.18400591904E+02  0.00000000000E+00 0.  1.
          1   -1    0    0  501    0  0.00000000000E+00 -0.00000000000E+00 -0.20141250701E+04  0.20141250701E+04  0.00000000000E+00 0. -1.
         25    2    1    2    0    0  0.46468500706E+02  0.13333568349E+03 -0.14294954573E+04  0.14418884316E+04  0.12508901155E+03 0.  0.
          5    1    3    3  502    0  0.76466479557E+02  0.42818243141E+02 -0.51445132242E+03  0.52187944966E+03  0.41800000000E+01 0. -1.
         -5    1    3    3    0  502 -0.29997978851E+02  0.90517440349E+02 -0.91504413486E+03  0.92000898196E+03  0.41800000000E+01 0. -1.
        -11    1    1    2    0    0 -0.45905579229E+02 -0.14652183185E+02 -0.19669860777E+03  0.20251506358E+03  0.00000000000E+00 0. -1.
         11    1    1    2    0    0 -0.56292147770E+00 -0.11868350030E+03 -0.36953041311E+03  0.38812216677E+03  0.00000000000E+00 0.  1.
</event>
<event>
 7    1  0.2749315E-009  0.1264928E+03  0.7561462E-02  0.1232755E+00
         -2   -1    0    0    0  501 -0.00000000000E+00  0.00000000000E+00  0.45037077288E+03  0.45037077288E+03  0.00000000000E+00 0.  1.
          2   -1    0    0  501    0  0.00000000000E+00 -0.00000000000E+00 -0.40306420299E+02  0.40306420299E+02  0.00000000000E+00 0. -1.
         25    2    1    2    0    0 -0.71750566753E+02 -0.42114721743E+02  0.23931453882E+03  0.28256075991E+03  0.12508933181E+03 0.  0.
          5    1    3    3  502    0 -0.69341597759E+02  0.20150406824E+02  0.64451664322E+02  0.96880263774E+02  0.41800000000E+01 0. -1.
         -5    1    3    3    0  502 -0.24089689941E+01 -0.62265128567E+02  0.17486287450E+03  0.18568049614E+03  0.41800000000E+01 0. -1.
        -11    1    1    2    0    0  0.48700299665E+02 -0.19468212383E+02  0.87710749550E+02  0.10219543076E+03  0.00000000000E+00 0.  1.
         11    1    1    2    0    0  0.23050267089E+02  0.61582934126E+02  0.83039064206E+02  0.10592100251E+03  0.00000000000E+00 0. -1.
</event>
<event>
 7    1  0.2749315E-009  0.1023221E+03  0.7561462E-02  0.1275487E+00
          1   -1    0    0  501    0  0.00000000000E+00  0.00000000000E+00  0.11681030109E+03  0.11681030109E+03  0.00000000000E+00 0. -1.
         -1   -1    0    0    0  501 -0.00000000000E+00 -0.00000000000E+00 -0.14886802022E+03  0.14886802022E+03  0.00000000000E+00 0.  1.
         25    2    1    2    0    0  0.32960873137E+02 -0.13357709751E+02 -0.86099637439E+02  0.15596605213E+03  0.12508962500E+03 0.  0.
          5    1    3    3  502    0 -0.45380488314E+02  0.11484441176E+02 -0.23343534105E+02  0.52475461820E+02  0.41800000000E+01 0.  1.
         -5    1    3    3    0  502  0.78341361450E+02 -0.24842150927E+02 -0.62756103334E+02  0.10349059031E+03  0.41800000000E+01 0.  1.
        -11    1    1    2    0    0  0.65569511439E+01  0.31282164779E+02  0.57912584366E+02  0.66147069999E+02  0.00000000000E+00 0. -1.
         11    1    1    2    0    0 -0.39517824281E+02 -0.17924455028E+02 -0.38706660644E+01  0.43565199181E+02  0.00000000000E+00 0.  1.
</event>
<event>
 7    1  0.2749315E-009  0.1708690E+03  0.7561462E-02  0.1176945E+00
          1   -1    0    0  501    0  0.00000000000E+00  0.00000000000E+00  0.10785047218E+03  0.10785047218E+03  0.00000000000E+00 0. -1.
         -1   -1    0    0    0  501 -0.00000000000E+00 -0.00000000000E+00 -0.44108389846E+03  0.44108389846E+03  0.00000000000E+00 0.  1.
         25    2    1    2    0    0 -0.60605113653E+02  0.14725509610E+03 -0.30105044044E+03  0.36281695922E+03  0.12509090726E+03 0.  0.
          5    1    3    3  502    0 -0.29371659506E+02  0.92135664936E+02 -0.60770253888E+02  0.11428985647E+03  0.41800000000E+01 0.  1.
         -5    1    3    3    0  502 -0.31233454147E+02  0.55119431168E+02 -0.24028018655E+03  0.24852710275E+03  0.41800000000E+01 0.  1.
        -11    1    1    2    0    0 -0.20517468866E+02 -0.54462975449E+02  0.19281813656E+01  0.58231435727E+02  0.00000000000E+00 0. -1.
         11    1    1    2    0    0  0.81122582519E+02 -0.92792120655E+02 -0.34111167203E+02  0.12788597569E+03  0.00000000000E+00 0.  1.
</event>
<event>
 7    1  0.2749315E-009  0.9795502E+02  0.7561462E-02  0.1284656E+00
         -2   -1    0    0    0  501 -0.00000000000E+00  0.00000000000E+00  0.22605437973E+02  0.22605437973E+02  0.00000000000E+00 0.  1.
          2   -1    0    0  501    0  0.00000000000E+00 -0.00000000000E+00 -0.13438116957E+04  0.13438116957E+04  0.00000000000E+00 0. -1.
         25    2    1    2    0    0  0.20118214810E+02  0.24634462434E+02 -0.12214991262E+04  0.12282995945E+04  0.12509268205E+03 0.  0.
          5    1    3    3  502    0 -0.31478111258E+02  0.53935131262E+02 -0.82411605758E+03  0.82648933364E+03  0.41800000000E+01 0.  1.
         -5    1    3    3    0  502  0.51596326068E+02 -0.29300668827E+02 -0.39738306867E+03  0.40181026085E+03  0.41800000000E+01 0.  1.
        -11    1    1    2    0    0  0.17952230488E+02  0.11524687365E+02  0.41587748527E+01  0.21734682115E+02  0.00000000000E+00 0.  1.
         11    1    1    2    0    0 -0.38070445298E+02 -0.36159149799E+02 -0.10386590629E+03  0.11638285702E+03  0.00000000000E+00 0. -1.
</event>
<event>
 7    1  0.2749315E-009  0.1042944E+03  0.7561462E-02  0.1271516E+00
         -1   -1    0    0    0  501 -0.00000000000E+00  0.00000000000E+00  0.26538941919E+03  0.26538941919E+03  0.00000000000E+00 0.  1.
          1   -1    0    0  501    0  0.00000000000E+00 -0.00000000000E+00 -0.50645328192E+02  0.50645328192E+02  0.00000000000E+00 0. -1.
         25    2    1    2    0    0 -0.29561972420E+02  0.27368610093E+02  0.11079893010E+03  0.17189191664E+03  0.12508987594E+03 0.  0.
          5    1    3    3  502    0  0.25840343989E+02  0.49379250366E+02  0.13161199706E+02  0.57417099561E+02  0.41800000000E+01 0.  1.
         -5    1    3    3    0  502 -0.55402316409E+02 -0.22010640273E+02  0.97637730393E+02  0.11447481708E+03  0.41800000000E+01 0.  1.
        -11    1    1    2    0    0  0.55916476540E+02 -0.13903828590E+01  0.87030002704E+02  0.10345437102E+03  0.00000000000E+00 0. -1.
         11    1    1    2    0    0 -0.26354504121E+02 -0.25978227234E+02  0.16915158195E+02  0.40688459721E+02  0.00000000000E+00 0.  1.
</event>
<event>
 7    1  0.3518137E-009  0.7493493E+02  0.7561462E-02  0.1344073E+00
          1   -1    0    0  501    0  0.00000000000E+00  0.00000000000E+00  0.11587552092E+03  0.11587552092E+03  0.00000000000E+00 0. -1.
         -1   -1    0    0    0  501 -0.00000000000E+00 -0.00000000000E+00 -0.14629687244E+03  0.14629687244E+03  0.00000000000E+00 0.  1.
         25    2    1    2    0    0  0.11872029779E+02  0.68733085112E+02  0.25808137074E+01  0.14324680754E+03  0.12509118750E+03 0.  0.
          5    1    3    3  502    0 -0.13542490117E+02  0.26877779041E+02 -0.57856349046E+02  0.65350161206E+02  0.41800000000E+01 0. -1.
         -5    1    3    3    0  502  0.25414519897E+02  0.41855306071E+02  0.60437162753E+02  0.77896646330E+02  0.41800000000E+01 0. -1.
        -11    1    1    2    0    0 -0.50836435690E+01 -0.52476634612E+02  0.24969505099E+02  0.58336239140E+02  0.00000000000E+00 0. -1.
         11    1    1    2    0    0 -0.67883862104E+01 -0.16256450500E+02 -0.57971670327E+02  0.60589346677E+02  0.00000000000E+00 0.  1.
</event>
<event>
 7    1  0.2749315E-009  0.1104700E+03  0.7561462E-02  0.1259702E+00
         -2   -1    0    0    0  501 -0.00000000000E+00  0.00000000000E+00  0.43323682116E+03  0.43323682116E+03  0.00000000000E+00 0.  1.
          2   -1    0    0  501    0  0.00000000000E+00 -0.00000000000E+00 -0.43956684508E+02  0.43956684508E+02  0.00000000000E+00 0. -1.
         25    2    1    2    0    0 -0.15550830008E+02  0.67566139968E+02  0.12443823764E+03  0.18957797979E+03  0.12509166180E+03 0.  0.
          5    1    3    3  502    0 -0.16472350818E+01  0.10148419867E+03  0.11060422060E+03  0.15017497121E+03  0.41800000000E+01 0.  1.
         -5    1    3    3    0  502 -0.13903594927E+02 -0.33918058702E+02  0.13834017033E+02  0.39403008582E+02  0.41800000000E+01 0.  1.
        -11    1    1    2    0    0 -0.13825644212E+02 -0.39434517835E+02  0.23086794763E+03  0.23461934890E+03  0.00000000000E+00 0.  1.
         11    1    1    2    0    0  0.29376474220E+02 -0.28131622132E+02  0.33973951387E+02  0.52996176977E+02  0.00000000000E+00 0. -1.
</event>
<event>
 7    1  0.2749315E-009  0.1644523E+03  0.7561462E-02  0.1183760E+00
         -3   -1    0    0    0  501 -0.00000000000E+00  0.00000000000E+00  0.23937836082E+03  0.23937836082E+03  0.00000000000E+00 0.  1.
          3   -1    0    0  501    0  0.00000000000E+00 -0.00000000000E+00 -0.15230238583E+03  0.15230238583E+03  0.00000000000E+00 0. -1.
         25    2    1    2    0    0 -0.13462758869E+03 -0.49390588431E+02 -0.21372644612E+02  0.19148220063E+03  0.12507847680E+03 0.  0.
          5    1    3    3  502    0 -0.28095242995E+02 -0.46379468764E+02  0.40834633490E+02  0.68009833804E+02  0.41800000000E+01 0. -1.
         -5    1    3    3    0  502 -0.10653234569E+03 -0.30111196673E+01 -0.62207278102E+02  0.12347236683E+03  0.41800000000E+01 0. -1.
        -11    1    1    2    0    0  0.62815529447E+02  0.69109553014E+02  0.53289979498E+02  0.10752554567E+03  0.00000000000E+00 0. -1.
         11    1    1    2    0    0  0.71812059242E+02 -0.19718964582E+02  0.55158640101E+02  0.92673000354E+02  0.00000000000E+00 0.  1.
</event>
<event>
 7    1  0.2749315E-009  0.1132283E+03  0.7561462E-02  0.1254706E+00
         -1   -1    0    0    0  501 -0.00000000000E+00  0.00000000000E+00  0.17833934463E+03  0.17833934463E+03  0.00000000000E+00 0.  1.
          1   -1    0    0  501    0  0.00000000000E+00 -0.00000000000E+00 -0.98579286111E+02  0.98579286111E+02  0.00000000000E+00 0. -1.
         25    2    1    2    0    0 -0.53602429217E+02  0.16494811860E+02 -0.10250441396E+02  0.13747619924E+03  0.12509730042E+03 0.  0.
          5    1    3    3  502    0 -0.74144963474E+02 -0.23046422299E+02 -0.36170205231E+02  0.85757619696E+02  0.41800000000E+01 0.  1.
         -5    1    3    3    0  502  0.20542534257E+02  0.39541234159E+02  0.25919763835E+02  0.51718579542E+02  0.41800000000E+01 0.  1.
        -11    1    1    2    0    0 -0.24512562074E+02 -0.37646521055E+01  0.35645204454E+02  0.43423713630E+02  0.00000000000E+00 0.  1.
         11    1    1    2    0    0  0.78114991291E+02 -0.12730159754E+02  0.54365295463E+02  0.96018717876E+02  0.00000000000E+00 0. -1.
</event>
<event>
 7    1  0.2749315E-009  0.1023384E+03  0.7561462E-02  0.1275454E+00
          1   -1    0    0  501    0  0.00000000000E+00  0.00000000000E+00  0.48906291893E+03  0.48906291893E+03  0.00000000000E+00 0. -1.
         -1   -1    0    0    0  501 -0.00000000000E+00 -0.00000000000E+00 -0.34535446534E+02  0.34535446534E+02  0.00000000000E+00 0.  1.
         25    2    1    2    0    0  0.26906078153E+02 -0.46365216383E+02  0.15436201048E+03  0.20579309489E+03  0.12509795080E+03 0.  0.
          5    1    3    3  502    0 -0.32795964163E+02 -0.79317651831E+01  0.12379121821E+03  0.12837533357E+03  0.41800000000E+01 0.  1.
         -5    1    3    3    0  502  0.59702042315E+02 -0.38433451200E+02  0.30570792278E+02  0.77417761323E+02  0.41800000000E+01 0.  1.
        -11    1    1    2    0    0  0.27679294320E+02  0.33526813913E+02  0.18036298565E+03  0.18552896587E+03  0.00000000000E+00 0.  1.
         11    1    1    2    0    0 -0.54585372473E+02  0.12838402470E+02  0.11980247626E+03  0.13227630470E+03  0.00000000000E+00 0. -1.
</event>
<event>
 7    1  0.2749315E-009  0.1833040E+03  0.7561462E-02  0.1164643E+00
         -1   -1    0    0    0  501 -0.00000000000E+00  0.00000000000E+00  0.21584298767E+03  0.21584298767E+03  0.00000000000E+00 0.  1.
          1   -1    0    0  501    0  0.00000000000E+00 -0.00000000000E+00 -0.38473781354E+03  0.38473781354E+03  0.00000000000E+00 0. -1.
         25    2    1    2    0    0 -0.93610731232E+02 -0.11821088277E+03  0.14421139676E+03  0.24327088775E+03  0.12508803325E+03 0.  0.
          5    1    3    3  502    0 -0.32347565026E+02  0.23686518778E+02  0.20312829071E+02  0.45138670337E+02  0.41800000000E+01 0. -1.
         -5    1    3    3    0  502 -0.61263166206E+02 -0.14189740155E+03  0.12389856769E+03  0.19813221741E+03  0.41800000000E+01 0. -1.
        -11    1    1    2    0    0  0.10568754773E+03  0.82768036889E+02 -0.25518111019E+03  0.28833627014E+03  0.00000000000E+00 0. -1.
         11    1    1    2    0    0 -0.12076816498E+02  0.35442845884E+02 -0.57925112450E+02  0.68973643325E+02  0.00000000000E+00 0.  1.
</event>
<event>
 7    1  0.2749315E-009  0.1142371E+03  0.7561462E-02  0.1252919E+00
         -2   -1    0    0    0  501 -0.00000000000E+00  0.00000000000E+00  0.18752339556E+03  0.18752339556E+03  0.00000000000E+00 0.  1.
          2   -1    0    0  501    0  0.00000000000E+00 -0.00000000000E+00 -0.20594091140E+03  0.20594091140E+03  0.00000000000E+00 0. -1.
         25    2    1    2    0    0 -0.60931816653E+02 -0.29044977500E+02 -0.15946279731E+03  0.21361624959E+03  0.12508885388E+03 0.  0.
          5    1    3    3  502    0 -0.89511237309E+02 -0.39657082397E+00 -0.64807150833E+02  0.11058868872E+03  0.41800000000E+01 0.  1.
         -5    1    3    3    0  502  0.28579420656E+02 -0.28648406676E+02 -0.94655646476E+02  0.10302756088E+03  0.41800000000E+01 0.  1.
        -11    1    1    2    0    0  0.26325855418E+01  0.38958194940E+02  0.17318586166E+02  0.42715394022E+02  0.00000000000E+00 0. -1.
         11    1    1    2    0    0  0.58299231111E+02 -0.99132174404E+01  0.12372669530E+03  0.13713266335E+03  0.00000000000E+00 0.  1.
</event>
<event>
 7    1  0.2749315E-009  0.1106761E+03  0.7561462E-02  0.1259323E+00
          1   -1    0    0  501    0  0.00000000000E+00  0.00000000000E+00  0.52247970976E+03  0.52247970976E+03  0.00000000000E+00 0. -1.
         -1   -1    0    0    0  501 -0.00000000000E+00 -0.00000000000E+00 -0.44680341034E+02  0.44680341034E+02  0.00000000000E+00 0.  1.
         25    2    1    2    0    0 -0.96853335766E+02 -0.12344149049E+02  0.17731388253E+03  0.23795266862E+03  0.12509321684E+03 0.  0.
          5    1    3    3  502    0 -0.83657427185E+01  0.95279801309E-01  0.14115698312E+03  0.14146646604E+03  0.41800000000E+01 0.  1.
         -5    1    3    3    0  502 -0.88487593048E+02 -0.12439428850E+02  0.36156899415E+02  0.96486202582E+02  0.41800000000E+01 0.  1.
        -11    1    1    2    0    0  0.39061268158E+01 -0.22831924680E+02  0.12851780358E+03  0.13058859233E+03  0.00000000000E+00 0. -1.
         11    1    1    2    0    0  0.92947208950E+02  0.35176073729E+02  0.17196768262E+03  0.19861878984E+03  0.00000000000E+00 0.  1.
</event>
<event>
 7    1  0.2749315E-009  0.1076812E+03  0.7561462E-02  0.1264925E+00
          1   -1    0    0  501    0  0.00000000000E+00  0.00000000000E+00  0.25595122820E+03  0.25595122820E+03  0.00000000000E+00 0. -1.
         -1   -1    0    0    0  501 -0.00000000000E+00 -0.00000000000E+00 -0.53917750258E+02  0.53917750258E+02  0.00000000000E+00 0.  1.
         25    2    1    2    0    0 -0.42049981609E+02  0.13063575799E+02  0.10756847070E+03  0.17075520146E+03  0.12508998749E+03 0.  0.
          5    1    3    3  502    0 -0.74268669655E+02 -0.14231050268E+02  0.10332812561E+03  0.12811140475E+03  0.41800000000E+01 0. -1.
         -5    1    3    3    0  502  0.32218688046E+02  0.27294626067E+02  0.42403450869E+01  0.42643796712E+02  0.41800000000E+01 0. -1.
        -11    1    1    2    0    0  0.67747389729E+02 -0.19888563608E+02  0.47347512737E+02  0.85012062320E+02  0.00000000000E+00 0.  1.
         11    1    1    2    0    0 -0.25697408120E+02  0.68249878093E+01  0.47117494503E+02  0.54101714676E+02  0.00000000000E+00 0. -1.
</event>
<event>
 7    1  0.2749315E-009  0.1482340E+03  0.7561462E-02  0.1202660E+00
          1   -1    0    0  501    0  0.00000000000E+00  0.00000000000E+00  0.34026759778E+03  0.34026759778E+03  0.00000000000E+00 0. -1.
         -1   -1    0    0    0  501 -0.00000000000E+00 -0.00000000000E+00 -0.99418595030E+02  0.99418595030E+02  0.00000000000E+00 0.  1.
         25    2    1    2    0    0 -0.54570775015E+02  0.72949677034E+02  0.16812073583E+03  0.22849570878E+03  0.12508430058E+03 0.  0.
          5    1    3    3  502    0  0.72353202708E+01  0.55135323225E+02  0.85739967865E+01  0.56420205135E+02  0.41800000000E+01 0. -1.
         -5    1    3    3    0  502 -0.61806095286E+02  0.17814353809E+02  0.15954673904E+03  0.17207550365E+03  0.41800000000E+01 0. -1.
        -11    1    1    2    0    0  0.88888701132E+02  0.70776729428E+01  0.85075473455E+02  0.12324419186E+03  0.00000000000E+00 0. -1.
         11    1    1    2    0    0 -0.34317926117E+02 -0.80027349977E+02 -0.12347206534E+02  0.87946292171E+02  0.00000000000E+00 0.  1.
</event>
<event>
 7    1  0.2749315E-009  0.1004438E+03  0.7561462E-02  0.1279366E+00
         -3   -1    0    0    0  501 -0.00000000000E+00  0.00000000000E+00  0.44496934539E+02  0.44496934539E+02  0.00000000000E+00 0.  1.
          3   -1    0    0  501    0  0.00000000000E+00 -0.00000000000E+00 -0.26907754936E+03  0.26907754936E+03  0.00000000000E+00 0. -1.
         25    2    1    2    0    0 -0.26941687897E+02  0.16937185696E+01 -0.18129228262E+03  0.22190635206E+03  0.12508722604E+03 0.  0.
          5    1    3    3  502    0 -0.30391852330E+02  0.59431725501E+02 -0.72604911649E+02  0.98715451068E+02  0.41800000000E+01 0. -1.
         -5    1    3    3    0  502  0.34501644330E+01 -0.57738006931E+02 -0.10868737097E+03  0.12319090099E+03  0.41800000000E+01 0. -1.
        -11    1    1    2    0    0  0.51397034975E+02 -0.33175678435E+01 -0.13793363655E+02  0.53319024199E+02  0.00000000000E+00 0.  1.
         11    1    1    2    0    0 -0.24455347078E+02  0.16238492739E+01 -0.29494968551E+02  0.38349107643E+02  0.00000000000E+00 0. -1.
</event>
<event>
 7    1  0.2749315E-009  0.6563016E+02  0.7561462E-02  0.1375617E+00
         -1   -1    0    0    0  501 -0.00000000000E+00  0.00000000000E+00  0.23450139166E+02  0.23450139166E+02  0.00000000000E+00 0.  1.
          1   -1    0    0  501    0  0.00000000000E+00 -0.00000000000E+00 -0.58118211752E+03  0.58118211752E+03  0.00000000000E+00 0. -1.
         25    2    1    2    0    0 -0.43009983511E+02  0.90237162855E+01 -0.35047318946E+03  0.37471226651E+03  0.12508613034E+03 0.  0.
          5    1    3    3  502    0 -0.25904509326E+02 -0.19587864111E+02 -0.33688460116E+03  0.33847220702E+03  0.41800000000E+01 0. -1.
         -5    1    3    3    0  502 -0.17105474185E+02  0.28611580397E+02 -0.13588588301E+02  0.36240059491E+02  0.41800000000E+01 0. -1.
        -11    1    1    2    0    0  0.47058204599E+02  0.77256920816E+01 -0.20727313879E+03  0.21268830481E+03  0.00000000000E+00 0. -1.
         11    1    1    2    0    0 -0.40482210886E+01 -0.16749408367E+02  0.14349901111E-01  0.17231685366E+02  0.00000000000E+00 0.  1.
</event>
<event>
 7    1  0.2749315E-009  0.1298748E+03  0.7561462E-02  0.1227642E+00
         -1   -1    0    0    0  501 -0.00000000000E+00  0.00000000000E+00  0.57303488887E+03  0.57303488887E+03  0.00000000000E+00 0.  1.
          1   -1    0    0  501    0  0.00000000000E+00 -0.00000000000E+00 -0.37413470813E+02  0.37413470813E+02  0.00000000000E+00 0. -1.
         25    2    1    2    0    0 -0.48641881255E+02  0.94642714633E+01  0.14992674405E+03  0.20144618882E+03  0.12508770267E+03 0.  0.
          5    1    3    3  502    0 -0.42073247474E+02  0.60504952459E+02  0.50570309744E+02  0.89475337679E+02  0.41800000000E+01 0. -1.
         -5    1    3    3    0  502 -0.65686337808E+01 -0.51040680995E+02  0.99356434310E+02  0.11197085114E+03  0.41800000000E+01 0. -1.
        -11    1    1    2    0    0  0.37621418769E+02  0.56250682369E+02  0.22737928602E+03  0.23723585338E+03  0.00000000000E+00 0. -1.
         11    1    1    2    0    0  0.11020462486E+02 -0.65714953832E+02  0.15831538798E+03  0.17176631748E+03  0.00000000000E+00 0.  1.
</event>
<event>
 7    1  0.2749315E-009  0.8976113E+02  0.7561462E-02  0.1303431E+00
          3   -1    0    0  501    0  0.00000000000E+00  0.00000000000E+00  0.23401681678E+02  0.23401681678E+02  0.00000000000E+00 0. -1.
         -3   -1    0    0    0  501 -0.00000000000E+00 -0.00000000000E+00 -0.50727846762E+03  0.50727846762E+03  0.00000000000E+00 0.  1.
         25    2    1    2    0    0  0.12588865525E+02 -0.62458497598E+01 -0.29553394201E+03  0.32122487662E+03  0.12509044850E+03 0.  0.
          5    1    3    3  502    0  0.45760693029E+02  0.24758924381E+02 -0.25477140025E+03  0.26006342332E+03  0.41800000000E+01 0. -1.
         -5    1    3    3    0  502 -0.33171827504E+02 -0.31004774141E+02 -0.40762541756E+02  0.61161453301E+02  0.41800000000E+01 0. -1.
        -11    1    1    2    0    0 -0.23316697870E+02 -0.33356583825E+02 -0.46486583311E+02  0.61784565322E+02  0.00000000000E+00 0.  1.
         11    1    1    2    0    0  0.10727832345E+02  0.39602433584E+02 -0.14185626062E+03  0.14767070735E+03  0.00000000000E+00 0. -1.
</event>
<event>
 7    1  0.2749315E-009  0.1005666E+03  0.7561462E-02  0.1279109E+00
          1   -1    0    0  501    0  0.00000000000E+00  0.00000000000E+00  0.44099650971E+02  0.44099650971E+02  0.00000000000E+00 0. -1.
         -1   -1    0    0    0  501 -0.00000000000E+00 -0.00000000000E+00 -0.29732079810E+03  0.29732079810E+03  0.00000000000E+00 0.  1.
         25    2    1    2    0    0 -0.27809200530E+02  0.25433161434E+02 -0.14073991280E+03  0.19202945592E+03  0.12508953414E+03 0.  0.
          5    1    3    3  502    0 -0.49476165869E+02  0.59812285843E+02 -0.49757927143E+02  0.92296935163E+02  0.41800000000E+01 0.  1.
         -5    1    3    3    0  502  0.21666965339E+02 -0.34379124409E+02 -0.90981985660E+02  0.99732520758E+02  0.41800000000E+01 0.  1.
        -11    1    1    2    0    0  0.12269146599E+02  0.26035832382E+02 -0.50000264639E+01  0.29212955871E+02  0.00000000000E+00 0. -1.
         11    1    1    2    0    0  0.15540053931E+02 -0.51468993817E+02 -0.10748120786E+03  0.12017803728E+03  0.00000000000E+00 0.  1.
</event>
<event>
 7    1  0.2749315E-009  0.9317777E+02  0.7561462E-02  0.1295334E+00
         -3   -1    0    0    0  501 -0.00000000000E+00  0.00000000000E+00  0.45223779647E+03  0.45223779647E+03  0.00000000000E+00 0.  1.
          3   -1    0    0  501    0  0.00000000000E+00 -0.00000000000E+00 -0.29943213192E+02  0.29943213192E+02  0.00000000000E+00 0. -1.
         25    2    1    2    0    0  0.31970394712E+02  0.26344952271E+02  0.22097742489E+03  0.25728503307E+03  0.12509357810E+03 0.  0.
          5    1    3    3  502    0  0.65786523863E+02 -0.24674345049E+02  0.11499400318E+03  0.13482500952E+03  0.41800000000E+01 0.  1.
         -5    1    3    3    0  502 -0.33816129151E+02  0.51019297320E+02  0.10598342171E+03  0.12246002355E+03  0.41800000000E+01 0.  1.
        -11    1    1    2    0    0 -0.39790255671E+02 -0.19921332267E+02  0.20804047402E+03  0.21274624028E+03  0.00000000000E+00 0.  1.
         11    1    1    2    0    0  0.78198609586E+01 -0.64236200037E+01 -0.67233156279E+01  0.12149736310E+02  0.00000000000E+00 0. -1.
</event>
<event>
 7    1  0.2749315E-009  0.1199749E+03  0.7561462E-02  0.1243139E+00
         -2   -1    0    0    0  501 -0.00000000000E+00  0.00000000000E+00  0.52442508077E+02  0.52442508077E+02  0.00000000000E+00 0.  1.
          2   -1    0    0  501    0  0.00000000000E+00 -0.00000000000E+00 -0.35024780360E+03  0.35024780360E+03  0.00000000000E+00 0. -1.
         25    2    1    2    0    0  0.70087281522E+02 -0.28955825470E+02 -0.12541390949E+03  0.19269016045E+03  0.12510068898E+03 0.  0.
          5    1    3    3  502    0  0.32530957108E+02  0.34070188840E+02 -0.10692085523E+03  0.11691271368E+03  0.41800000000E+01 0.  1.
         -5    1    3    3    0  502  0.37556324414E+02 -0.63026014311E+02 -0.18493054260E+02  0.75777446772E+02  0.41800000000E+01 0.  1.
        -11    1    1    2    0    0  0.18848265399E+02  0.23422099040E+02 -0.33815723515E+02  0.45247707001E+02  0.00000000000E+00 0.  1.
         11    1    1    2    0    0 -0.88935546921E+02  0.55337264303E+01 -0.13857566253E+03  0.16475244423E+03  0.00000000000E+00 0. -1.
</event>
<event>
 7    1  0.2749315E-009  0.9167003E+02  0.7561462E-02  0.1298857E+00
         -2   -1    0    0    0  501 -0.00000000000E+00  0.00000000000E+00  0.21541444027E+02  0.21541444027E+02  0.00000000000E+00 0.  1.
          2   -1    0    0  501    0  0.00000000000E+00 -0.00000000000E+00 -0.68816137915E+03  0.68816137915E+03  0.00000000000E+00 0. -1.
         25    2    1    2    0    0  0.22815082208E+02  0.31225488128E+02 -0.26005421973E+03  0.29115380819E+03  0.12508710462E+03 0.  0.
          5    1    3    3  502    0 -0.22415747613E+02 -0.16157551131E+02 -0.57718656902E+01  0.28536275741E+02  0.41800000000E+01 0. -1.
         -5    1    3    3    0  502  0.45230829821E+02  0.47383039259E+02 -0.25428235404E+03  0.26261753245E+03  0.41800000000E+01 0. -1.
        -11    1    1    2    0    0 -0.50723824325E+02 -0.34949787718E+02 -0.34982052564E+03  0.35520246926E+03  0.00000000000E+00 0. -1.
         11    1    1    2    0    0  0.27908742117E+02  0.37242995900E+01 -0.56745189760E+02  0.63346545721E+02  0.00000000000E+00 0.  1.
</event>
<event>
 7    1  0.2749315E-009  0.1514310E+03  0.7561462E-02  0.1198726E+00
         -1   -1    0    0    0  501 -0.00000000000E+00  0.00000000000E+00  0.83155834750E+02  0.83155834750E+02  0.00000000000E+00 0.  1.
          1   -1    0    0  501    0  0.00000000000E+00 -0.00000000000E+00 -0.37424757504E+03  0.37424757504E+03  0.00000000000E+00 0. -1.
         25    2    1    2    0    0  0.92803275003E+02 -0.83288878236E+02 -0.23066773067E+03  0.29052495383E+03  0.12509061410E+03 0.  0.
          5    1    3    3  502    0  0.12017094232E+03 -0.44992803556E+02 -0.18163153344E+03  0.22242503027E+03  0.41800000000E+01 0. -1.
         -5    1    3    3    0  502 -0.27367667316E+02 -0.38296074680E+02 -0.49036197228E+02  0.68099923560E+02  0.41800000000E+01 0. -1.
        -11    1    1    2    0    0 -0.78267187735E+01  0.19360624466E+02  0.23481282599E+02  0.31423907124E+02  0.00000000000E+00 0.  1.
         11    1    1    2    0    0 -0.84976556229E+02  0.63928253770E+02 -0.83905292220E+02  0.13545454884E+03  0.00000000000E+00 0. -1.
</event>
<event>
 7    1  0.2749315E-009  0.3638348E+03  0.7561462E-02  0.1057076E+00
         -2   -1    0    0    0  501 -0.00000000000E+00  0.00000000000E+00  0.22409425189E+03  0.22409425189E+03  0.00000000000E+00 0.  1.
          2   -1    0    0  501    0  0.00000000000E+00 -0.00000000000E+00 -0.77222869858E+03  0.77222869858E+03  0.00000000000E+00 0. -1.
         25    2    1    2    0    0  0.22128971487E+03  0.27223301865E+03 -0.50251513634E+03  0.62549937325E+03  0.12509216335E+03 0.  0.
          5    1    3    3  502    0  0.22181887884E+03  0.27677446145E+03 -0.50633344291E+03  0.61822224591E+03  0.41800000000E+01 0.  1.
         -5    1    3    3    0  502 -0.52916396577E+00 -0.45414428047E+01  0.38183065728E+01  0.72771273409E+01  0.41800000000E+01 0.  1.
        -11    1    1    2    0    0 -0.11054719329E+03 -0.56245662118E+02 -0.29934203165E+02  0.12759432969E+03  0.00000000000E+00 0. -1.
         11    1    1    2    0    0 -0.11074252158E+03 -0.21598735653E+03 -0.15685107177E+02  0.24322924753E+03  0.00000000000E+00 0.  1.
</event>
<event>
 7    1  0.2749315E-009  0.2381442E+03  0.7561462E-02  0.1121035E+00
          2   -1    0    0  501    0  0.00000000000E+00  0.00000000000E+00  0.28295976171E+03  0.28295976171E+03  0.00000000000E+00 0. -1.
         -2   -1    0    0    0  501 -0.00000000000E+00 -0.00000000000E+00 -0.21734434006E+03  0.21734434006E+03  0.00000000000E+00 0.  1.
         25    2    1    2    0    0  0.19544786465E+03 -0.94671395648E+02  0.83220495274E+02  0.26407499464E+03  0.12508961192E+03 0.  0.
          5    1    3    3  502    0  0.21183214624E+03 -0.88334433962E+02  0.65353401415E+02  0.23867209699E+03  0.41800000000E+01 0. -1.
         -5    1    3    3    0  502 -0.16384281583E+02 -0.63369616861E+01  0.17867093859E+02  0.25402897657E+02  0.41800000000E+01 0. -1.
        -11    1    1    2    0    0 -0.77908322635E+02  0.24358017627E+00  0.20810457283E+02  0.80640195929E+02  0.00000000000E+00 0. -1.
         11    1    1    2    0    0 -0.11753954202E+03  0.94427815472E+02 -0.38415530902E+02  0.15558891120E+03  0.00000000000E+00 0.  1.
</event>
<event>
 7    1  0.2749315E-009  0.2789501E+03  0.7561462E-02  0.1096264E+00
         -1   -1    0    0    0  501 -0.00000000000E+00  0.00000000000E+00  0.88587500654E+02  0.88587500654E+02  0.00000000000E+00 0.  1.
          1   -1    0    0  501    0  0.00000000000E+00 -0.00000000000E+00 -0.10686072275E+04  0.10686072275E+04  0.00000000000E+00 0. -1.
         25    2    1    2    0    0 -0.26691234270E+03 -0.52880617225E+02 -0.32512054149E+03  0.44202877089E+03  0.12509000532E+03 0.  0.
          5    1    3    3  502    0 -0.24189849267E+03 -0.34001927700E+02 -0.20846142562E+03  0.32116140835E+03  0.41800000000E+01 0. -1.
         -5    1    3    3    0  502 -0.25013850034E+02 -0.18878689525E+02 -0.11665911587E+03  0.12086736254E+03  0.41800000000E+01 0. -1.
        -11    1    1    2    0    0  0.10516254945E+03 -0.15617937774E+02 -0.18309469279E+03  0.21172328241E+03  0.00000000000E+00 0.  1.
         11    1    1    2    0    0  0.16174979325E+03  0.68498554999E+02 -0.47180449255E+03  0.50344267484E+03  0.00000000000E+00 0. -1.
</event>
<event>
 7    1  0.2749315E-009  0.2223719E+03  0.7561462E-02  0.1132127E+00
          1   -1    0    0  501    0  0.00000000000E+00  0.00000000000E+00  0.34699138763E+03  0.34699138763E+03  0.00000000000E+00 0. -1.
         -1   -1    0    0    0  501 -0.00000000000E+00 -0.00000000000E+00 -0.15852580305E+03  0.15852580305E+03  0.00000000000E+00 0.  1.
         25    2    1    2    0    0 -0.15131871816E+03  0.13427157941E+03  0.47628142842E+02  0.24256969834E+03  0.12508160161E+03 0.  0.
          5    1    3    3  502    0 -0.80358733318E+00  0.76334536428E+02  0.17857661413E+02  0.78510990794E+02  0.41800000000E+01 0. -1.
         -5    1    3    3    0  502 -0.15051513083E+03  0.57937042979E+02  0.29770481428E+02  0.16405870755E+03  0.41800000000E+01 0. -1.
        -11    1    1    2    0    0  0.72682694877E+02 -0.36043534387E+02  0.10387791392E+03  0.13180489940E+03  0.00000000000E+00 0. -1.
         11    1    1    2    0    0  0.78636023288E+02 -0.98228045020E+02  0.36959527816E+02  0.13114259294E+03  0.00000000000E+00 0.  1.
</event>
<event>
 7    1  0.2749315E-009  0.9909393E+02  0.7561462E-02  0.1282213E+00
          2   -1    0    0  501    0  0.00000000000E+00  0.00000000000E+00  0.42758226640E+03  0.42758226640E+03  0.00000000000E+00 0. -1.
         -2   -1    0    0    0  501 -0.00000000000E+00 -0.00000000000E+00 -0.33258872533E+02  0.33258872533E+02  0.00000000000E+00 0.  1.
         25    2    1    2    0    0  0.19348566040E+02  0.22283546604E+02  0.14289344477E+03  0.19219076840E+03  0.12509129243E+03 0.  0.
          5    1    3    3  502    0  0.19288516182E+02  0.66364617993E+02  0.12790780079E+03  0.14544479117E+03  0.41800000000E+01 0. -1.
         -5    1    3    3    0  502  0.60049857936E-01 -0.44081071390E+02  0.14985643980E+02  0.46745977221E+02  0.41800000000E+01 0. -1.
        -11    1    1    2    0    0 -0.26224525629E+02  0.25391931845E+02  0.52311319799E+02  0.63788322806E+02  0.00000000000E+00 0.  1.
         11    1    1    2    0    0  0.68759595894E+01 -0.47675478449E+02  0.19911862931E+03  0.20486204774E+03  0.00000000000E+00 0. -1.
</event>
<event>
 7    1  0.2749315E-009  0.1131560E+03  0.7561462E-02  0.1254835E+00
         -2   -1    0    0    0  501 -0.00000000000E+00  0.00000000000E+00  0.20071560218E+02  0.20071560218E+02  0.00000000000E+00 0.  1.
          2   -1    0    0  501    0  0.00000000000E+00 -0.00000000000E+00 -0.84074498112E+03  0.84074498112E+03  0.00000000000E+00 0. -1.
         25    2    1    2    0    0  0.59122033572E+02  0.24415556387E+02 -0.59308893027E+03  0.60950301259E+03  0.12509160202E+03 0.  0.
          5    1    3    3  502    0  0.64235968458E+02 -0.26471455069E+02 -0.48363385962E+03  0.48861659832E+03  0.41800000000E+01 0.  1.
         -5    1    3    3    0  502 -0.51139348857E+01  0.50887011455E+02 -0.10945507065E+03  0.12088641427E+03  0.41800000000E+01 0.  1.
        -11    1    1    2    0    0 -0.57600991247E+02 -0.52101123912E+02 -0.14985353038E+03  0.16878531297E+03  0.00000000000E+00 0. -1.
         11    1    1    2    0    0 -0.15210423258E+01  0.27685567526E+02 -0.77730960239E+02  0.82528215773E+02  0.00000000000E+00 0.  1.
</event>
<event>
 7    1  0.2749315E-009  0.1375218E+03  0.7561462E-02  0.1216703E+00
         -2   -1    0    0    0  501 -0.00000000000E+00  0.00000000000E+00  0.34669296035E+02  0.34669296035E+02  0.00000000000E+00 0.  1.
          2   -1    0    0  501    0  0.00000000000E+00 -0.00000000000E+00 -0.55918743583E+03  0.55918743583E+03  0.00000000000E+00 0. -1.
         25    2    1    2    0    0  0.84641777418E+02 -0.16115618766E+02 -0.30770554202E+03  0.34315285942E+03  0.12508893112E+03 0.  0.
          5    1    3    3  502    0  0.11331271206E+03  0.62496911978E+01 -0.20866882019E+03  0.23756889164E+03  0.41800000000E+01 0. -1.
         -5    1    3    3    0  502 -0.28670934640E+02 -0.22365309964E+02 -0.99036721829E+02  0.10558396779E+03  0.41800000000E+01 0. -1.
        -11    1    1    2    0    0 -0.10421359066E+03  0.14860177022E+02 -0.17005806857E+03  0.20000261005E+03  0.00000000000E+00 0.  1.
         11    1    1    2    0    0  0.19571813239E+02  0.12554417437E+01 -0.46754529203E+02  0.50701262395E+02  0.00000000000E+00 0. -1.
</event>
<event>
 7    1  0.2749315E-009  0.1114842E+03  0.7561462E-02  0.1257846E+00
          2   -1    0    0  501    0  0.00000000000E+00  0.00000000000E+00  0.20730679160E+03  0.20730679160E+03  0.00000000000E+00 0. -1.
         -2   -1    0    0    0  501 -0.00000000000E+00 -0.00000000000E+00 -0.63799711804E+02  0.63799711804E+02  0.00000000000E+00 0.  1.
         25    2    1    2    0    0 -0.24990544597E+02 -0.22827255648E+02  0.10285475435E+03  0.16544649661E+03  0.12509129398E+03 0.  0.
          5    1    3    3  502    0 -0.74068340696E+02 -0.68715149969E+01  0.41926338024E+02  0.85490508432E+02  0.41800000000E+01 0.  1.
         -5    1    3    3    0  502  0.49077796099E+02 -0.15955740651E+02  0.60928416327E+02  0.79955988180E+02  0.41800000000E+01 0.  1.
        -11    1    1    2    0    0 -0.16981242141E+02  0.45796529701E+02  0.27439717217E+02  0.56023412947E+02  0.00000000000E+00 0.  1.
         11    1    1    2    0    0  0.41971786738E+02 -0.22969274053E+02  0.13212608230E+02  0.49636593847E+02  0.00000000000E+00 0. -1.
</event>
<event>
 7    1  0.2749315E-009  0.1327260E+03  0.7561462E-02  0.1223466E+00
          3   -1    0    0  501    0  0.00000000000E+00  0.00000000000E+00  0.21445271823E+03  0.21445271823E+03  0.00000000000E+00 0. -1.
         -3   -1    0    0    0  501 -0.00000000000E+00 -0.00000000000E+00 -0.12322798997E+03  0.12322798997E+03  0.00000000000E+00 0.  1.
         25    2    1    2    0    0 -0.20398927836E+02  0.11780974040E+03  0.50956267120E+02  0.18038220005E+03  0.12508375494E+03 0.  0.
          5    1    3    3  502    0 -0.47982588477E+02  0.48138812784E+02  0.75261004111E+02  0.10149564145E+03  0.41800000000E+01 0. -1.
         -5    1    3    3    0  502  0.27583660640E+02  0.69670927612E+02 -0.24304736990E+02  0.78886558607E+02  0.41800000000E+01 0. -1.
        -11    1    1    2    0    0  0.24604621496E+02 -0.67914454669E+02  0.68725925807E+02  0.99704630935E+02  0.00000000000E+00 0. -1.
         11    1    1    2    0    0 -0.42056936599E+01 -0.49895285727E+02 -0.28457464669E+02  0.57593877212E+02  0.00000000000E+00 0.  1.
</event>
<event>
 7    1  0.2749315E-009  0.1136007E+03  0.7561462E-02  0.1254044E+00
         -4   -1    0    0    0  501 -0.00000000000E+00  0.00000000000E+00  0.28412898879E+03  0.28412898879E+03  0.00000000000E+00 0.  1.
          4   -1    0    0  501    0  0.00000000000E+00 -0.00000000000E+00 -0.51175876012E+02  0.51175876012E+02  0.00000000000E+00 0. -1.
         25    2    1    2    0    0  0.37234407046E+02  0.93570112758E+01  0.91148286936E+02  0.15948059161E+03  0.12510832970E+03 0.  0.
          5    1    3    3  502    0 -0.61345582921E+01 -0.49483092497E+02  0.64351079638E+02  0.81515293651E+02  0.41800000000E+01 0.  1.
         -5    1    3    3    0  502  0.43368965338E+02  0.58840103772E+02  0.26797207298E+02  0.77965297956E+02  0.41800000000E+01 0.  1.
        -11    1    1    2    0    0 -0.47831672171E+02 -0.45662797832E+02  0.90515579064E+02  0.11209830517E+03  0.00000000000E+00 0. -1.
         11    1    1    2    0    0  0.10597265125E+02  0.36305786556E+02  0.51289246777E+02  0.63725968023E+02  0.00000000000E+00 0.  1.
</event>
<event>
 7    1  0.2749315E-009  0.1031705E+03  0.7561462E-02  0.1273767E+00
          2   -1    0    0  501    0  0.00000000000E+00  0.00000000000E+00  0.45548891923E+03  0.45548891923E+03  0.00000000000E+00 0. -1.
         -2   -1    0    0    0  501 -0.00000000000E+00 -0.00000000000E+00 -0.42718111424E+02  0.42718111424E+02  0.00000000000E+00 0.  1.
         25    2    1    2    0    0  0.24356461482E+02 -0.24105300210E+02  0.37117030513E+03  0.39317749290E+03  0.12508734069E+03 0.  0.
          5    1    3    3  502    0  0.67083993971E+02 -0.84947537097E+01  0.11927035365E+03  0.13716892049E+03  0.41800000000E+01 0. -1.
         -5    1    3    3    0  502 -0.42727532489E+02 -0.15610546500E+02  0.25189995148E+03  0.25600857241E+03  0.41800000000E+01 0. -1.
        -11    1    1    2    0    0 -0.85920697695E+01 -0.32776902066E+02  0.19866004622E+01  0.33942533102E+02  0.00000000000E+00 0.  1.
         11    1    1    2    0    0 -0.15764391712E+02  0.56882202276E+02  0.39613902221E+02  0.71087004656E+02  0.00000000000E+00 0. -1.
</event>
<event>
 7    1  0.2749315E-009  0.9874813E+02  0.7561462E-02  0.1282951E+00
          1   -1    0    0  501    0  0.00000000000E+00  0.00000000000E+00  0.22138384977E+03  0.22138384977E+03  0.00000000000E+00 0. -1.
         -1   -1    0    0    0  501 -0.00000000000E+00 -0.00000000000E+00 -0.85590762165E+02  0.85590762165E+02  0.00000000000E+00 0.  1.
         25    2    1    2    0    0 -0.18456027020E+02 -0.42671038496E+02 -0.41897403622E+01  0.13351692099E+03  0.12509105406E+03 0.  0.
          5    1    3    3  502    0  0.29662550185E+02  0.77818022046E+01  0.40219132410E+02  0.50749131430E+02  0.41800000000E+01 0.  1.
         -5    1    3    3    0  502 -0.48118577205E+02 -0.50452840701E+02 -0.44408872773E+02  0.82767789556E+02  0.41800000000E+01 0.  1.
        -11    1    1    2    0    0  0.31642832026E+02  0.64131442608E+02  0.12538525169E+03  0.14434532237E+03  0.00000000000E+00 0.  1.
         11    1    1    2    0    0 -0.13186805006E+02 -0.21460404112E+02  0.14597576280E+02  0.29112368577E+02  0.00000000000E+00 0. -1.
</event>
<event>
 7    1  0.2749315E-009  0.2072695E+03  0.7561462E-02  0.1143747E+00
         -1   -1    0    0    0  501 -0.00000000000E+00  0.00000000000E+00  0.46784331533E+02  0.46784331533E+02  0.00000000000E+00 0.  1.
          1   -1    0    0  501    0  0.00000000000E+00 -0.00000000000E+00 -0.15319877694E+04  0.15319877694E+04  0.00000000000E+00 0. -1.
         25    2    1    2    0    0 -0.16689777899E+03  0.60482421234E+02 -0.12571710438E+04  0.12757898458E+04  0.12509078918E+03 0.  0.
          5    1    3    3  502    0 -0.10600251673E+03 -0.27798092640E+02 -0.66068253898E+03  0.66972244790E+03  0.41800000000E+01 0. -1.
         -5    1    3    3    0  502 -0.60895262253E+02  0.88280513874E+02 -0.59648850479E+03  0.60606739793E+03  0.41800000000E+01 0. -1.
        -11    1    1    2    0    0  0.35147856352E+02  0.22599869685E+02 -0.66871789081E+02  0.78854055640E+02  0.00000000000E+00 0. -1.
         11    1    1    2    0    0  0.13174992264E+03 -0.83082290919E+02 -0.16116060499E+03  0.22412819943E+03  0.00000000000E+00 0.  1.
</event>
<event>
 7    1  0.2749315E-009  0.1194358E+03  0.7561462E-02  0.1244031E+00
         -2   -1    0    0    0  501 -0.00000000000E+00  0.00000000000E+00  0.91967618155E+02  0.91967618155E+02  0.00000000000E+00 0.  1.
          2   -1    0    0  501    0  0.00000000000E+00 -0.00000000000E+00 -0.27547669931E+03  0.27547669931E+03  0.00000000000E+00 0. -1.
         25    2    1    2    0    0  0.44046970199E+02  0.90727595783E+02 -0.16835418513E+03  0.23272740876E+03  0.12508909991E+03 0.  0.
          5    1    3    3  502    0 -0.86408009198E+01  0.53996302582E+02 -0.25876078779E+01  0.54903845472E+02  0.41800000000E+01 0.  1.
         -5    1    3    3    0  502  0.52687771119E+02  0.36731293201E+02 -0.16576657725E+03  0.17782356329E+03  0.41800000000E+01 0.  1.
        -11    1    1    2    0    0 -0.57197729594E+02 -0.89816826438E+02 -0.33946063426E+02  0.11176304311E+03  0.00000000000E+00 0. -1.
         11    1    1    2    0    0  0.13150759395E+02 -0.91076934468E+00  0.18791167405E+02  0.22953865598E+02  0.00000000000E+00 0.  1.
</event>
<event>
 7    1  0.2749315E-009  0.1196636E+03  0.7561462E-02  0.1243653E+00
         -1   -1    0    0    0  501 -0.00000000000E+00  0.00000000000E+00  0.60559698145E+02  0.60559698145E+02  0.00000000000E+00 0. -1.
          1   -1    0    0  501    0  0.00000000000E+00 -0.00000000000E+00 -0.37578339585E+03  0.37578339585E+03  0.00000000000E+00 0.  1.
         25    2    1    2    0    0  0.55380793924E+02  0.37285566624E+02 -0.50686206209E+02  0.15057271808E+03  0.12508319677E+03 0.  0.
          5    1    3    3  502    0 -0.60563300243E+01  0.63959048614E+02  0.32697930310E+01  0.64463966520E+02  0.41800000000E+01 0. -1.
         -5    1    3    3    0  502  0.61437123949E+02 -0.26673481990E+02 -0.53955999240E+02  0.86108751556E+02  0.41800000000E+01 0. -1.
        -11    1    1    2    0    0  0.53199285430E+01 -0.46183527832E+02 -0.12388359090E+03  0.13231917463E+03  0.00000000000E+00 0.  1.
         11    1    1    2    0    0 -0.60700722467E+02  0.88979612083E+01 -0.14065390060E+03  0.15345120128E+03  0.00000000000E+00 0. -1.
</event>
<event>
 7    1  0.2749315E-009  0.1005176E+03  0.7561462E-02  0.1279211E+00
         -1   -1    0    0    0  501 -0.00000000000E+00  0.00000000000E+00  0.57044219733E+02  0.57044219733E+02  0.00000000000E+00 0.  1.
          1   -1    0    0  501    0  0.00000000000E+00 -0.00000000000E+00 -0.30046947157E+03  0.30046947157E+03  0.00000000000E+00 0. -1.
         25    2    1    2    0    0  0.46552095712E+02 -0.47235676267E+02 -0.92746393961E+02  0.16925579061E+03  0.12508925748E+03 0.  0.
          5    1    3    3  502    0  0.83564472632E+02 -0.14076437559E+02 -0.32040929227E+02  0.90693223156E+02  0.41800000000E+01 0. -1.
         -5    1    3    3    0  502 -0.37012376920E+02 -0.33159238708E+02 -0.60705464734E+02  0.78562567457E+02  0.41800000000E+01 0. -1.
        -11    1    1    2    0    0 -0.23390412660E+02  0.23403128112E+02  0.87844624806E+00  0.33099689993E+02  0.00000000000E+00 0.  1.
         11    1    1    2    0    0 -0.23161683052E+02  0.23832548155E+02 -0.15155730412E+03  0.15515821069E+03  0.00000000000E+00 0. -1.
</event>
<event>
 7    1  0.2749315E-009  0.1213948E+03  0.7561462E-02  0.1240814E+00
          1   -1    0    0  501    0  0.00000000000E+00  0.00000000000E+00  0.11998089695E+04  0.11998089695E+04  0.00000000000E+00 0. -1.
         -1   -1    0    0    0  501 -0.00000000000E+00 -0.00000000000E+00 -0.14817176300E+02  0.14817176300E+02  0.00000000000E+00 0.  1.
         25    2    1    2    0    0 -0.52313861095E+02 -0.43659347393E+02  0.82190103179E+03  0.83415264202E+03  0.12508575243E+03 0.  0.
          5    1    3    3  502    0  0.32593535002E+02  0.21511032408E+01  0.39944304030E+03  0.40079817941E+03  0.41800000000E+01 0.  1.
         -5    1    3    3    0  502 -0.84907396096E+02 -0.45810450634E+02  0.42245799148E+03  0.43335446261E+03  0.41800000000E+01 0.  1.
        -11    1    1    2    0    0  0.15350822168E+02  0.67554610188E+02  0.23725156599E+03  0.24715901493E+03  0.00000000000E+00 0.  1.
         11    1    1    2    0    0  0.36963038927E+02 -0.23895262795E+02  0.12583919541E+03  0.13331448883E+03  0.00000000000E+00 0. -1.
</event>
<event>
 7    1  0.2749315E-009  0.8044295E+02  0.7561462E-02  0.1327799E+00
          1   -1    0    0  501    0  0.00000000000E+00  0.00000000000E+00  0.10559258749E+03  0.10559258749E+03  0.00000000000E+00 0. -1.
         -1   -1    0    0    0  501 -0.00000000000E+00 -0.00000000000E+00 -0.13472888735E+03  0.13472888735E+03  0.00000000000E+00 0.  1.
         25    2    1    2    0    0  0.21247909011E+01  0.37685384040E+00 -0.66589398645E+02  0.14172532520E+03  0.12508902044E+03 0.  0.
          5    1    3    3  502    0 -0.24345598176E+02 -0.35275014689E+02  0.17544514391E+02  0.46500722543E+02  0.41800000000E+01 0. -1.
         -5    1    3    3    0  502  0.26470389077E+02  0.35651868530E+02 -0.84133913036E+02  0.95224602652E+02  0.41800000000E+01 0. -1.
        -11    1    1    2    0    0 -0.13285000572E+02 -0.34685803514E+02 -0.10488802385E+02  0.38595481356E+02  0.00000000000E+00 0.  1.
         11    1    1    2    0    0  0.11160209671E+02  0.34308949674E+02  0.47941901174E+02  0.60000668294E+02  0.00000000000E+00 0. -1.
</event>
<event>
 7    1  0.2749315E-009  0.9933989E+02  0.7561462E-02  0.1281690E+00
          1   -1    0    0  501    0  0.00000000000E+00  0.00000000000E+00  0.40348609729E+03  0.40348609729E+03  0.00000000000E+00 0. -1.
         -1   -1    0    0    0  501 -0.00000000000E+00 -0.00000000000E+00 -0.41941460478E+02  0.41941460478E+02  0.00000000000E+00 0.  1.
         25    2    1    2    0    0  0.51359125255E+02  0.38774724589E+02  0.15237406956E+03  0.20738125315E+03  0.12509151878E+03 0.  0.
          5    1    3    3  502    0  0.54517720297E+02 -0.20772985458E+02  0.19459414066E+02  0.61642841815E+02  0.41800000000E+01 0.  1.
         -5    1    3    3    0  502 -0.31585950421E+01  0.59547710048E+02  0.13291465549E+03  0.14573841133E+03  0.41800000000E+01 0.  1.
        -11    1    1    2    0    0 -0.36333832782E+02  0.25663883117E+01  0.15744076233E+02  0.39681351918E+02  0.00000000000E+00 0.  1.
         11    1    1    2    0    0 -0.15025292472E+02 -0.41341112901E+02  0.19342649102E+03  0.19836495270E+03  0.00000000000E+00 0. -1.
</event>
<event>
 7    1  0.2749315E-009  0.9263038E+02  0.7561462E-02  0.1296604E+00
          1   -1    0    0  501    0  0.00000000000E+00  0.00000000000E+00  0.68262037582E+03  0.68262037582E+03  0.00000000000E+00 0. -1.
         -1   -1    0    0    0  501 -0.00000000000E+00 -0.00000000000E+00 -0.20018660463E+02  0.20018660463E+02  0.00000000000E+00 0.  1.
         25    2    1    2    0    0  0.16308292259E+02  0.12161216175E+02  0.46251595775E+03  0.47956525327E+03  0.12509182785E+03 0.  0.
          5    1    3    3  502    0  0.68787353490E+02 -0.33014279875E+01  0.20599756974E+03  0.21724426475E+03  0.41800000000E+01 0. -1.
         -5    1    3    3    0  502 -0.52479061230E+02  0.15462644163E+02  0.25651838801E+03  0.26232098852E+03  0.41800000000E+01 0. -1.
        -11    1    1    2    0    0 -0.35825778246E+02 -0.19205048892E+02  0.19810216129E+03  0.20222953938E+03  0.00000000000E+00 0. -1.
         11    1    1    2    0    0  0.19517485986E+02  0.70438327167E+01  0.19835963235E+01  0.20844243640E+02  0.00000000000E+00 0.  1.
</event>
<event>
 7    1  0.2749315E-009  0.1753561E+03  0.7561462E-02  0.1172375E+00
         -3   -1    0    0    0  501 -0.00000000000E+00  0.00000000000E+00  0.25058458292E+03  0.25058458292E+03  0.00000000000E+00 0.  1.
          3   -1    0    0  501    0  0.00000000000E+00 -0.00000000000E+00 -0.16540253773E+03  0.16540253773E+03  0.00000000000E+00 0. -1.
         25    2    1    2    0    0 -0.14015676607E+03 -0.46903536804E+02  0.13433294917E+03  0.23566066826E+03  0.12508696372E+03 0.  0.
          5    1    3    3  502    0 -0.16780131518E+01 -0.43413852338E+02  0.70876491731E+02  0.83237778580E+02  0.41800000000E+01 0. -1.
         -5    1    3    3    0  502 -0.13847875292E+03 -0.34896844657E+01  0.63456457444E+02  0.15242288968E+03  0.41800000000E+01 0. -1.
        -11    1    1    2    0    0  0.37865346455E+02 -0.23258714171E+02 -0.32756402979E+02  0.55206287533E+02  0.00000000000E+00 0. -1.
         11    1    1    2    0    0  0.10229141961E+03  0.70162250975E+02 -0.16394501009E+02  0.12512016485E+03  0.00000000000E+00 0.  1.
</event>
<event>
 7    1  0.2749315E-009  0.1986135E+03  0.7561462E-02  0.1150914E+00
          1   -1    0    0  501    0  0.00000000000E+00  0.00000000000E+00  0.48493873712E+03  0.48493873712E+03  0.00000000000E+00 0. -1.
         -1   -1    0    0    0  501 -0.00000000000E+00 -0.00000000000E+00 -0.95484211076E+02  0.95484211076E+02  0.00000000000E+00 0.  1.
         25    2    1    2    0    0  0.16552042032E+03  0.80690660358E+02  0.17577237505E+03  0.28363330931E+03  0.12507571351E+03 0.  0.
          5    1    3    3  502    0  0.10321318652E+03  0.18970467544E+02  0.23132776759E+02  0.10754272765E+03  0.41800000000E+01 0. -1.
         -5    1    3    3    0  502  0.62307233807E+02  0.61720192814E+02  0.15263959829E+03  0.17609058166E+03  0.41800000000E+01 0. -1.
        -11    1    1    2    0    0 -0.17338756660E+03 -0.62029908556E+02  0.20228682608E+03  0.27355240414E+03  0.00000000000E+00 0.  1.
         11    1    1    2    0    0  0.78671462774E+01 -0.18660751802E+02  0.11395324917E+02  0.23237234739E+02  0.00000000000E+00 0. -1.
</event>
<event>
 7    1  0.2749315E-009  0.2329636E+03  0.7561462E-02  0.1124571E+00
         -1   -1    0    0    0  501 -0.00000000000E+00  0.00000000000E+00  0.32367824800E+03  0.32367824800E+03  0.00000000000E+00 0.  1.
          1   -1    0    0  501    0  0.00000000000E+00 -0.00000000000E+00 -0.20871142474E+03  0.20871142474E+03  0.00000000000E+00 0. -1.
         25    2    1    2    0    0  0.30114773024E+02  0.21733544678E+03 -0.25002617514E+02  0.25379795661E+03  0.12508667360E+03 0.  0.
          5    1    3    3  502    0  0.53551408451E+02  0.19769611145E+03  0.12482176993E+02  0.20524322880E+03  0.41800000000E+01 0.  1.
         -5    1    3    3    0  502 -0.23436635427E+02  0.19639335339E+02 -0.37484794507E+02  0.48554727802E+02  0.41800000000E+01 0.  1.
        -11    1    1    2    0    0 -0.48367173880E+02 -0.95942575595E+02  0.10665892401E+03  0.15139513662E+03  0.00000000000E+00 0.  1.
         11    1    1    2    0    0  0.18252400856E+02 -0.12139287119E+03  0.33310516762E+02  0.12719657951E+03  0.00000000000E+00 0. -1.
</event>
<event>
 7    1  0.2749315E-009  0.1385423E+03  0.7561462E-02  0.1215304E+00
         -1   -1    0    0    0  501 -0.00000000000E+00  0.00000000000E+00  0.14159656678E+02  0.14159656678E+02  0.00000000000E+00 0.  1.
          1   -1    0    0  501    0  0.00000000000E+00 -0.00000000000E+00 -0.17492880609E+04  0.17492880609E+04  0.00000000000E+00 0. -1.
         25    2    1    2    0    0  0.65317896944E+02  0.66406358775E+02 -0.13024858331E+04  0.13117899800E+04  0.12508946475E+03 0.  0.
          5    1    3    3  502    0  0.10275996294E+03  0.53218745695E+02 -0.93546193421E+03  0.94260190305E+03  0.41800000000E+01 0. -1.
         -5    1    3    3    0  502 -0.37442065992E+02  0.13187613080E+02 -0.36702389885E+03  0.36918807696E+03  0.41800000000E+01 0. -1.
        -11    1    1    2    0    0 -0.25350936459E+02  0.15863961559E+02 -0.50223755683E+02  0.58453065707E+02  0.00000000000E+00 0.  1.
         11    1    1    2    0    0 -0.39966960485E+02 -0.82270320334E+02 -0.38241881547E+03  0.39320467185E+03  0.00000000000E+00 0. -1.
</event>
<event>
 7    1  0.2749315E-009  0.1949907E+03  0.7561462E-02  0.1154036E+00
          1   -1    0    0  501    0  0.00000000000E+00  0.00000000000E+00  0.20482441672E+03  0.20482441672E+03  0.00000000000E+00 0. -1.
         -1   -1    0    0    0  501 -0.00000000000E+00 -0.00000000000E+00 -0.19121326950E+03  0.19121326950E+03  0.00000000000E+00 0.  1.
         25    2    1    2    0    0  0.13711073546E+03  0.92280340515E+02  0.24123955994E+02  0.20867269317E+03  0.12508921855E+03 0.  0.
          5    1    3    3  502    0  0.12939853565E+03  0.11968839346E+03  0.31161782008E+02  0.17904698158E+03  0.41800000000E+01 0. -1.
         -5    1    3    3    0  502  0.77121998179E+01 -0.27408052941E+02 -0.70378260142E+01  0.29625711587E+02  0.41800000000E+01 0. -1.
        -11    1    1    2    0    0 -0.25259015030E+02 -0.65033907286E+02  0.98394663114E+01  0.70457377431E+02  0.00000000000E+00 0. -1.
         11    1    1    2    0    0 -0.11185172043E+03 -0.27246433229E+02 -0.20352275088E+02  0.11690761562E+03  0.00000000000E+00 0.  1.
</event>
<event>
 7    1  0.2749315E-009  0.9698610E+02  0.7561462E-02  0.1286765E+00
         -2   -1    0    0    0  501 -0.00000000000E+00  0.00000000000E+00  0.69827306460E+01  0.69827306460E+01  0.00000000000E+00 0. -1.
          2   -1    0    0  501    0  0.00000000000E+00 -0.00000000000E+00 -0.29195563447E+04  0.29195563447E+04  0.00000000000E+00 0.  1.
         25    2    1    2    0    0 -0.32571780972E+02 -0.42983284704E+02 -0.23581235514E+04  0.23620547951E+04  0.12509071734E+03 0.  0.
          5    1    3    3  502    0  0.21750281953E+02 -0.57895722387E+01 -0.17850680401E+04  0.17852148257E+04  0.41800000000E+01 0. -1.
         -5    1    3    3    0  502 -0.54322062925E+02 -0.37193712465E+02 -0.57305551136E+03  0.57683996938E+03  0.41800000000E+01 0. -1.
        -11    1    1    2    0    0 -0.42263966830E+01  0.63054475781E+02 -0.36737360994E+03  0.37276949799E+03  0.00000000000E+00 0.  1.
         11    1    1    2    0    0  0.36798177655E+02 -0.20071191077E+02 -0.18707645267E+03  0.19171478225E+03  0.00000000000E+00 0. -1.
</event>
<event>
 7    1  0.2749315E-009  0.1476843E+03  0.7561462E-02  0.1203348E+00
          1   -1    0    0  501    0  0.00000000000E+00  0.00000000000E+00  0.58383801318E+02  0.58383801318E+02  0.00000000000E+00 0. -1.
         -1   -1    0    0    0  501 -0.00000000000E+00 -0.00000000000E+00 -0.55938730448E+03  0.55938730448E+03  0.00000000000E+00 0.  1.
         25    2    1    2    0    0  0.54325790951E+02  0.12525902728E+03 -0.34725298599E+03  0.39353982638E+03  0.12509133940E+03 0.  0.
          5    1    3    3  502    0  0.43346528995E+02  0.12954489123E+03 -0.35390366321E+03  0.37937590283E+03  0.41800000000E+01 0.  1.
         -5    1    3    3    0  502  0.10979261957E+02 -0.42858639482E+01  0.66506772165E+01  0.14163923550E+02  0.41800000000E+01 0.  1.
        -11    1    1    2    0    0 -0.63654022036E+02 -0.11901954575E+03 -0.96574354597E+02  0.16596413094E+03  0.00000000000E+00 0. -1.
         11    1    1    2    0    0  0.93282310842E+01 -0.62394815310E+01 -0.57176162569E+02  0.58267148472E+02  0.00000000000E+00 0.  1.
</event>
<event>
 7    1  0.3470336E-009  0.1133612E+03  0.7561462E-02  0.1254469E+00
          2   -1    0    0  501    0  0.00000000000E+00  0.00000000000E+00  0.44325733322E+03  0.44325733322E+03  0.00000000000E+00 0. -1.
         -2   -1    0    0    0  501 -0.00000000000E+00 -0.00000000000E+00 -0.50821705919E+02  0.50821705919E+02  0.00000000000E+00 0.  1.
         25    2    1    2    0    0 -0.76714369789E+02 -0.22257581843E+02  0.10403143677E+03  0.18124820461E+03  0.12509147596E+03 0.  0.
          5    1    3    3  502    0  0.28393009535E+02 -0.29585243049E+02  0.42303747077E+02  0.59063770736E+02  0.41800000000E+01 0.  1.
         -5    1    3    3    0  502 -0.10510737932E+03  0.73276612066E+01  0.61727689696E+02  0.12218443388E+03  0.41800000000E+01 0.  1.
        -11    1    1    2    0    0  0.51928767663E+02  0.12426482996E+02  0.27974609264E+03  0.28479622669E+03  0.00000000000E+00 0. -1.
         11    1    1    2    0    0  0.24785602126E+02  0.98310988469E+01  0.86580978875E+01  0.28034607833E+02  0.00000000000E+00 0.  1.
</event>
<event>
 7    1  0.2749315E-009  0.1479354E+03  0.7561462E-02  0.1203033E+00
          2   -1    0    0  501    0  0.00000000000E+00  0.00000000000E+00  0.74097661823E+03  0.74097661823E+03  0.00000000000E+00 0. -1.
         -2   -1    0    0    0  501 -0.00000000000E+00 -0.00000000000E+00 -0.33666989206E+02  0.33666989206E+02  0.00000000000E+00 0.  1.
         25    2    1    2    0    0 -0.55043405126E+02 -0.95201064582E+02  0.30150253470E+03  0.34444980275E+03  0.12509543972E+03 0.  0.
          5    1    3    3  502    0 -0.57642699633E+02 -0.12151624837E+03  0.27788419144E+03  0.30874904970E+03  0.41800000000E+01 0. -1.
         -5    1    3    3    0  502  0.25992945069E+01  0.26315183790E+02  0.23618343256E+02  0.35700753045E+02  0.41800000000E+01 0. -1.
        -11    1    1    2    0    0  0.31589269028E+02  0.10460456668E+03  0.37363026507E+03  0.38928083984E+03  0.00000000000E+00 0. -1.
         11    1    1    2    0    0  0.23454136098E+02 -0.94035020996E+01  0.32176829256E+02  0.40912964851E+02  0.00000000000E+00 0.  1.
</event>
<event>
 7    1  0.2749315E-009  0.5475940E+02  0.7561462E-02  0.1421240E+00
         -1   -1    0    0    0  501 -0.00000000000E+00  0.00000000000E+00  0.10347177144E+03  0.10347177144E+03  0.00000000000E+00 0.  1.
          1   -1    0    0  501    0  0.00000000000E+00 -0.00000000000E+00 -0.13696025916E+03  0.13696025916E+03  0.00000000000E+00 0. -1.
         25    2    1    2    0    0 -0.33762531881E+01  0.42828151634E+02 -0.39062927948E+02  0.13790995597E+03  0.12509034318E+03 0.  0.
          5    1    3    3  502    0  0.17150548174E+02  0.86600964246E+01 -0.78952414691E+02  0.81363964741E+02  0.41800000000E+01 0.  1.
         -5    1    3    3    0  502 -0.20526801362E+02  0.34168055209E+02  0.39889486744E+02  0.56545991225E+02  0.41800000000E+01 0.  1.
        -11    1    1    2    0    0 -0.10545935227E+02 -0.25181397154E+02  0.47594135943E+02  0.54868217473E+02  0.00000000000E+00 0.  1.
         11    1    1    2    0    0  0.13922188415E+02 -0.17646754480E+02 -0.42019695723E+02  0.47653857164E+02  0.00000000000E+00 0. -1.
</event>
<event>
 7    1  0.2749315E-009  0.8043202E+02  0.7561462E-02  0.1327830E+00
          1   -1    0    0  501    0  0.00000000000E+00  0.00000000000E+00  0.90560159384E+03  0.90560159384E+03  0.00000000000E+00 0. -1.
         -1   -1    0    0    0  501 -0.00000000000E+00 -0.00000000000E+00 -0.16153394605E+02  0.16153394605E+02  0.00000000000E+00 0.  1.
         25    2    1    2    0    0  0.34039475531E+02 -0.38337564927E+02  0.56568800394E+03  0.58161774136E+03  0.12509126462E+03 0.  0.
          5    1    3    3  502    0  0.22101317547E+02  0.11285877303E+02  0.16601396169E+02  0.30148267256E+02  0.41800000000E+01 0. -1.
         -5    1    3    3    0  502  0.11938157984E+02 -0.49623442231E+02  0.54908660777E+03  0.55146947410E+03  0.41800000000E+01 0. -1.
        -11    1    1    2    0    0 -0.16931416161E+02 -0.18531478348E+02  0.24623345864E+02  0.35162447362E+02  0.00000000000E+00 0.  1.
         11    1    1    2    0    0 -0.17108059370E+02  0.56869043276E+02  0.29913684943E+03  0.30497479972E+03  0.00000000000E+00 0. -1.
</event>
<event>
 7    1  0.2749315E-009  0.8007536E+02  0.7561462E-02  0.1328838E+00
         -1   -1    0    0    0  501 -0.00000000000E+00  0.00000000000E+00  0.60670245616E+02  0.60670245616E+02  0.00000000000E+00 0.  1.
          1   -1    0    0  501    0  0.00000000000E+00 -0.00000000000E+00 -0.21521416965E+03  0.21521416965E+03  0.00000000000E+00 0. -1.
         25    2    1    2    0    0 -0.12130505314E+02 -0.23142285517E+02 -0.13008244947E+03  0.18234896872E+03  0.12508792187E+03 0.  0.
          5    1    3    3  502    0 -0.47768325045E+02  0.62713648726E+01 -0.46165520809E+01  0.48579088589E+02  0.41800000000E+01 0.  1.
         -5    1    3    3    0  502  0.35637819731E+02 -0.29413650389E+02 -0.12546589738E+03  0.13376988013E+03  0.41800000000E+01 0.  1.
        -11    1    1    2    0    0 -0.13737323034E+02 -0.14336275993E+02 -0.40621351958E+02  0.45214346046E+02  0.00000000000E+00 0. -1.
         11    1    1    2    0    0  0.25867828348E+02  0.37478561510E+02  0.16159877388E+02  0.48321100500E+02  0.00000000000E+00 0.  1.
</event>
<event>
 7    1  0.2749315E-009  0.8942414E+02  0.7561462E-02  0.1304252E+00
         -1   -1    0    0    0  501 -0.00000000000E+00  0.00000000000E+00  0.16780413597E+03  0.16780413597E+03  0.00000000000E+00 0.  1.
          1   -1    0    0  501    0  0.00000000000E+00 -0.00000000000E+00 -0.85480130173E+02  0.85480130173E+02  0.00000000000E+00 0. -1.
         25    2    1    2    0    0  0.28298139966E+02  0.21728372103E+02  0.85940169311E+02  0.15590091925E+03  0.12508587867E+03 0.  0.
          5    1    3    3  502    0  0.68705594221E+02  0.30341826266E+02  0.86156180600E+02  0.11437414460E+03  0.41800000000E+01 0.  1.
         -5    1    3    3    0  502 -0.40407454255E+02 -0.86134541637E+01 -0.21601128896E+00  0.41526774651E+02  0.41800000000E+01 0.  1.
        -11    1    1    2    0    0  0.69511626386E+01 -0.25702663931E+02  0.35631394314E+02  0.44480803229E+02  0.00000000000E+00 0.  1.
         11    1    1    2    0    0 -0.35249302604E+02  0.39742918282E+01 -0.39247557830E+02  0.52902543656E+02  0.00000000000E+00 0. -1.
</event>
<event>
 7    1  0.2749315E-009  0.1088174E+03  0.7561462E-02  0.1262776E+00
          2   -1    0    0  501    0  0.00000000000E+00  0.00000000000E+00  0.14270767846E+03  0.14270767846E+03  0.00000000000E+00 0. -1.
         -2   -1    0    0    0  501 -0.00000000000E+00 -0.00000000000E+00 -0.83614677338E+02  0.83614677338E+02  0.00000000000E+00 0.  1.
         25    2    1    2    0    0 -0.42163154899E+01 -0.16402210706E+02  0.35044124710E+02  0.13101007404E+03  0.12509491992E+03 0.  0.
          5    1    3    3  502    0 -0.44230719998E+02  0.37979796569E+02  0.13163528147E+02  0.59913040419E+02  0.41800000000E+01 0.  1.
         -5    1    3    3    0  502  0.40014404508E+02 -0.54382007275E+02  0.21880596563E+02  0.71097033618E+02  0.41800000000E+01 0.  1.
        -11    1    1    2    0    0  0.18220446799E+02  0.51030908259E+02  0.84857208231E+01  0.54846565410E+02  0.00000000000E+00 0.  1.
         11    1    1    2    0    0 -0.14004131309E+02 -0.34628697553E+02  0.15563155590E+02  0.40465716352E+02  0.00000000000E+00 0. -1.
</event>
<event>
 7    1  0.2749315E-009  0.1033969E+03  0.7561462E-02  0.1273311E+00
          3   -1    0    0  501    0  0.00000000000E+00  0.00000000000E+00  0.11523049493E+03  0.11523049493E+03  0.00000000000E+00 0. -1.
         -3   -1    0    0    0  501 -0.00000000000E+00 -0.00000000000E+00 -0.12232654313E+03  0.12232654313E+03  0.00000000000E+00 0.  1.
         25    2    1    2    0    0 -0.40244646099E+00 -0.45139475842E+02 -0.17978658254E+02  0.13419924261E+03  0.12509384606E+03 0.  0.
          5    1    3    3  502    0  0.52568712757E+02 -0.20075612696E+02  0.24687152223E+02  0.61590808331E+02  0.41800000000E+01 0. -1.
         -5    1    3    3    0  502 -0.52971159218E+02 -0.25063863146E+02 -0.42665810477E+02  0.72608434278E+02  0.41800000000E+01 0. -1.
        -11    1    1    2    0    0  0.93077139558E+01 -0.22000666362E+02 -0.17815696012E+02  0.29800367176E+02  0.00000000000E+00 0.  1.
         11    1    1    2    0    0 -0.89052674948E+01  0.67140142204E+02  0.28698306066E+02  0.73557428281E+02  0.00000000000E+00 0. -1.
</event>
<event>
 7    1  0.2749315E-009  0.1761200E+03  0.7561462E-02  0.1171612E+00
         -3   -1    0    0    0  501 -0.00000000000E+00  0.00000000000E+00  0.79452870245E+03  0.79452870245E+03  0.00000000000E+00 0.  1.
          3   -1    0    0  501    0  0.00000000000E+00 -0.00000000000E+00 -0.46808646716E+02  0.46808646716E+02  0.00000000000E+00 0. -1.
         25    2    1    2    0    0  0.20663855806E+02 -0.15659744295E+03  0.40166083976E+03  0.44936499644E+03  0.12509083000E+03 0.  0.
          5    1    3    3  502    0 -0.44711349106E+02 -0.42923690229E+02  0.75281566408E+02  0.97602943411E+02  0.41800000000E+01 0. -1.
         -5    1    3    3    0  502  0.65375204912E+02 -0.11367375272E+03  0.32637927336E+03  0.35176205303E+03  0.41800000000E+01 0. -1.
        -11    1    1    2    0    0 -0.15382763804E+02  0.52974276128E+02  0.38198417101E+02  0.67097111879E+02  0.00000000000E+00 0. -1.
         11    1    1    2    0    0 -0.52810920023E+01  0.10362316682E+03  0.30786079887E+03  0.32487524085E+03  0.00000000000E+00 0.  1.
</event>
<event>
 7    1  0.2749315E-009  0.1450069E+03  0.7561462E-02  0.1206746E+00
          2   -1    0    0  501    0  0.00000000000E+00  0.00000000000E+00  0.88938481728E+02  0.88938481728E+02  0.00000000000E+00 0. -1.
         -2   -1    0    0    0  501 -0.00000000000E+00 -0.00000000000E+00 -0.25450335699E+03  0.25450335699E+03  0.00000000000E+00 0.  1.
         25    2    1    2    0    0  0.47691995729E+02 -0.82088891219E+02 -0.45817250547E+02  0.16358065676E+03  0.12508516419E+03 0.  0.
          5    1    3    3  502    0  0.88882157608E+02 -0.71222912939E+02 -0.29123967137E+02  0.11763681027E+03  0.41800000000E+01 0. -1.
         -5    1    3    3    0  502 -0.41190161879E+02 -0.10865978281E+02 -0.16693283410E+02  0.45943846494E+02  0.41800000000E+01 0. -1.
        -11    1    1    2    0    0  0.71220428883E+01  0.77939670074E+02 -0.59572076282E+02  0.98357246498E+02  0.00000000000E+00 0.  1.
         11    1    1    2    0    0 -0.54814038617E+02  0.41492211456E+01 -0.60175548431E+02  0.81503935455E+02  0.00000000000E+00 0. -1.
</event>
<event>
 7    1  0.2749315E-009  0.6421513E+02  0.7561462E-02  0.1380948E+00
          2   -1    0    0  501    0  0.00000000000E+00  0.00000000000E+00  0.32371937031E+03  0.32371937031E+03  0.00000000000E+00 0. -1.
         -2   -1    0    0    0  501 -0.00000000000E+00 -0.00000000000E+00 -0.41384470365E+02  0.41384470365E+02  0.00000000000E+00 0.  1.
         25    2    1    2    0    0  0.33112337320E+02  0.15620529354E+02  0.16770047982E+03  0.21239561607E+03  0.12509204201E+03 0.  0.
          5    1    3    3  502    0  0.17853806371E+02 -0.17023211006E+02 -0.12926314144E+02  0.28162210712E+02  0.41800000000E+01 0.  1.
         -5    1    3    3    0  502  0.15258530949E+02  0.32643740360E+02  0.18062679396E+03  0.18423340536E+03  0.41800000000E+01 0.  1.
        -11    1    1    2    0    0  0.15777688066E+02 -0.78777941907E+01 -0.88071590011E+01  0.19711954031E+02  0.00000000000E+00 0.  1.
         11    1    1    2    0    0 -0.48890025386E+02 -0.77427351637E+01  0.12344157912E+03  0.13299627057E+03  0.00000000000E+00 0. -1.
</event>
<event>
 7    1  0.2749315E-009  0.9049996E+02  0.7561462E-02  0.1301645E+00
          2   -1    0    0  501    0  0.00000000000E+00  0.00000000000E+00  0.40383121704E+03  0.40383121704E+03  0.00000000000E+00 0. -1.
         -2   -1    0    0    0  501 -0.00000000000E+00 -0.00000000000E+00 -0.45992555809E+02  0.45992555809E+02  0.00000000000E+00 0.  1.
         25    2    1    2    0    0 -0.29227142232E+02 -0.49045218259E+02  0.29682512484E+03  0.32712619010E+03  0.12508689074E+03 0.  0.
          5    1    3    3  502    0  0.26138908727E+01  0.15672750064E+02  0.22379651920E+03  0.22439880108E+03  0.41800000000E+01 0. -1.
         -5    1    3    3    0  502 -0.31841033105E+02 -0.64717968323E+02  0.73028605647E+02  0.10272738902E+03  0.41800000000E+01 0. -1.
        -11    1    1    2    0    0  0.10002983169E+02 -0.19076478683E+02 -0.88099003334E+01  0.23272001528E+02  0.00000000000E+00 0.  1.
         11    1    1    2    0    0  0.19224159063E+02  0.68121696942E+02  0.69823436725E+02  0.99425581225E+02  0.00000000000E+00 0. -1.
</event>
<event>
 7    1  0.2749315E-009  0.1206900E+03  0.7561462E-02  0.1241963E+00
          1   -1    0    0  501    0  0.00000000000E+00  0.00000000000E+00  0.72305248939E+03  0.72305248939E+03  0.00000000000E+00 0. -1.
         -1   -1    0    0    0  501 -0.00000000000E+00 -0.00000000000E+00 -0.22290703698E+02  0.22290703698E+02  0.00000000000E+00 0.  1.
         25    2    1    2    0    0  0.30883164629E+02 -0.46910271887E+02  0.28850218757E+03  0.31943295977E+03  0.12509820177E+03 0.  0.
          5    1    3    3  502    0  0.20186704504E+02  0.42364253447E+02  0.98055325783E+02  0.10878672862E+03  0.41800000000E+01 0. -1.
         -5    1    3    3    0  502  0.10696460125E+02 -0.89274525334E+02  0.19044686179E+03  0.21064623115E+03  0.41800000000E+01 0. -1.
        -11    1    1    2    0    0 -0.54654365060E+02  0.56513359381E+02  0.34701367307E+03  0.35580802226E+03  0.00000000000E+00 0. -1.
         11    1    1    2    0    0  0.23771200432E+02 -0.96030874936E+01  0.65245925054E+02  0.70102211060E+02  0.00000000000E+00 0.  1.
</event>
<event>
 7    1  0.2749315E-009  0.1715377E+03  0.7561462E-02  0.1176254E+00
         -2   -1    0    0    0  501 -0.00000000000E+00  0.00000000000E+00  0.15471295055E+03  0.15471295055E+03  0.00000000000E+00 0.  1.
          2   -1    0    0  501    0  0.00000000000E+00 -0.00000000000E+00 -0.19998211619E+03  0.19998211619E+03  0.00000000000E+00 0. -1.
         25    2    1    2    0    0  0.81915860905E+02 -0.11188692514E+03 -0.32642190572E+02  0.18958412996E+03  0.12509091671E+03 0.  0.
          5    1    3    3  502    0 -0.25539092897E+02  0.60444680074E+01  0.50064257078E+00  0.26580141130E+02  0.41800000000E+01 0.  1.
         -5    1    3    3    0  502  0.10745495380E+03 -0.11793139315E+03 -0.33142833142E+02  0.16300398884E+03  0.41800000000E+01 0.  1.
        -11    1    1    2    0    0 -0.33461392457E+02  0.10213272091E+03 -0.31824269078E+02  0.11208720519E+03  0.00000000000E+00 0. -1.
         11    1    1    2    0    0 -0.48454468448E+02  0.97542042341E+01  0.19197294013E+02  0.53023731576E+02  0.00000000000E+00 0.  1.
</event>
<event>
 7    1  0.2749315E-009  0.1448396E+03  0.7561462E-02  0.1206961E+00
         -2   -1    0    0    0  501 -0.00000000000E+00  0.00000000000E+00  0.45424267908E+03  0.45424267908E+03  0.00000000000E+00 0.  1.
          2   -1    0    0  501    0  0.00000000000E+00 -0.00000000000E+00 -0.47420234600E+02  0.47420234600E+02  0.00000000000E+00 0. -1.
         25    2    1    2    0    0 -0.81589407498E+02  0.53216705895E+02  0.24368209445E+03  0.29071880649E+03  0.12509041565E+03 0.  0.
          5    1    3    3  502    0  0.32058499869E+02 -0.14236333873E+01  0.48222435477E+02  0.58074519621E+02  0.41800000000E+01 0. -1.
         -5    1    3    3    0  502 -0.11364790737E+03  0.54640339283E+02  0.19545965897E+03  0.23264428687E+03  0.41800000000E+01 0. -1.
        -11    1    1    2    0    0  0.81250845206E+02 -0.74276721215E+02  0.15020519631E+03  0.18622656137E+03  0.00000000000E+00 0.  1.
         11    1    1    2    0    0  0.33856229139E+00  0.21060015320E+02  0.12935153715E+02  0.24717545820E+02  0.00000000000E+00 0. -1.
</event>
<event>
 7    1  0.2749315E-009  0.1567837E+03  0.7561462E-02  0.1192377E+00
          1   -1    0    0  501    0  0.00000000000E+00  0.00000000000E+00  0.63717480914E+03  0.63717480914E+03  0.00000000000E+00 0. -1.
         -1   -1    0    0    0  501 -0.00000000000E+00 -0.00000000000E+00 -0.45436921914E+02  0.45436921914E+02  0.00000000000E+00 0.  1.
         25    2    1    2    0    0 -0.10925037068E+03 -0.49838846197E+02  0.41686504386E+03  0.45149043420E+03  0.12509034054E+03 0.  0.
          5    1    3    3  502    0 -0.26106311490E+02  0.40529151197E+02  0.15193640658E+03  0.15945624993E+03  0.41800000000E+01 0.  1.
         -5    1    3    3    0  502 -0.83144059192E+02 -0.90367997393E+02  0.26492863728E+03  0.29203418427E+03  0.41800000000E+01 0.  1.
        -11    1    1    2    0    0 -0.55998095061E+00 -0.14849809549E+02  0.52024782699E+02  0.54105530560E+02  0.00000000000E+00 0. -1.
         11    1    1    2    0    0  0.10981035163E+03  0.64688655746E+02  0.12284806067E+03  0.17701576630E+03  0.00000000000E+00 0.  1.
</event>
<event>
 7    1  0.2749315E-009  0.1802556E+03  0.7561462E-02  0.1167556E+00
          1   -1    0    0  501    0  0.00000000000E+00  0.00000000000E+00  0.21122216292E+03  0.21122216292E+03  0.00000000000E+00 0. -1.
         -1   -1    0    0    0  501 -0.00000000000E+00 -0.00000000000E+00 -0.19995517852E+03  0.19995517852E+03  0.00000000000E+00 0.  1.
         25    2    1    2    0    0 -0.14424425659E+03  0.20218434674E+02 -0.89888144787E+02  0.21199782604E+03  0.12509200219E+03 0.  0.
          5    1    3    3  502    0 -0.16581230246E+01  0.45081270466E+02 -0.34589656258E+02  0.56999886306E+02  0.41800000000E+01 0.  1.
         -5    1    3    3    0  502 -0.14258613356E+03 -0.24862835792E+02 -0.55298488529E+02  0.15499793973E+03  0.41800000000E+01 0.  1.
        -11    1    1    2    0    0  0.47418834919E+01 -0.30180459886E+02  0.27537604252E+02  0.41129858569E+02  0.00000000000E+00 0.  1.
         11    1    1    2    0    0  0.13950237309E+03  0.99620252115E+01  0.73617524936E+02  0.15804965683E+03  0.00000000000E+00 0. -1.
</event>
<event>
 7    1  0.2749315E-009  0.6000075E+02  0.7561462E-02  0.1397829E+00
          2   -1    0    0  501    0  0.00000000000E+00  0.00000000000E+00  0.16207262315E+03  0.16207262315E+03  0.00000000000E+00 0. -1.
         -2   -1    0    0    0  501 -0.00000000000E+00 -0.00000000000E+00 -0.13672188691E+03  0.13672188691E+03  0.00000000000E+00 0.  1.
         25    2    1    2    0    0 -0.17733886801E+01 -0.33466351396E+02  0.11013130277E+03  0.17000097879E+03  0.12509311474E+03 0.  0.
          5    1    3    3  502    0 -0.18464410973E+02 -0.86610929793E+01 -0.24428487698E+02  0.32096299092E+02  0.41800000000E+01 0.  1.
         -5    1    3    3    0  502  0.16691022293E+02 -0.24805258416E+02  0.13455979047E+03  0.13790467970E+03  0.41800000000E+01 0.  1.
        -11    1    1    2    0    0 -0.28290513370E+02  0.25017396348E+02  0.71602551327E+00  0.37772158520E+02  0.00000000000E+00 0. -1.
         11    1    1    2    0    0  0.30063902050E+02  0.84489550477E+01 -0.85496592039E+02  0.91021372755E+02  0.00000000000E+00 0.  1.
</event>
<event>
 7    1  0.2749315E-009  0.7915919E+02  0.7561462E-02  0.1331455E+00
          3   -1    0    0  501    0  0.00000000000E+00  0.00000000000E+00  0.26953190785E+02  0.26953190785E+02  0.00000000000E+00 0. -1.
         -3   -1    0    0    0  501 -0.00000000000E+00 -0.00000000000E+00 -0.55622818661E+03  0.55622818661E+03  0.00000000000E+00 0.  1.
         25    2    1    2    0    0 -0.52275263511E+02  0.66017453934E+01 -0.34650271517E+03  0.37213922192E+03  0.12508869916E+03 0.  0.
          5    1    3    3  502    0 -0.65899075899E+02  0.88275448230E+01 -0.35081546561E+03  0.35708483175E+03  0.41800000000E+01 0.  1.
         -5    1    3    3    0  502  0.13623812388E+02 -0.22257994295E+01  0.43127504471E+01  0.15054390174E+02  0.41800000000E+01 0.  1.
        -11    1    1    2    0    0 -0.95754910620E+01 -0.11812559801E+02  0.27136739176E+01  0.15446379002E+02  0.00000000000E+00 0. -1.
         11    1    1    2    0    0  0.61850754573E+02  0.52108144079E+01 -0.18548595458E+03  0.19559577647E+03  0.00000000000E+00 0.  1.
</event>
<event>
 7    1  0.2749315E-009  0.1163523E+03  0.7561462E-02  0.1249239E+00
          2   -1    0    0  501    0  0.00000000000E+00  0.00000000000E+00  0.11391987937E+04  0.11391987937E+04  0.00000000000E+00 0. -1.
         -2   -1    0    0    0  501 -0.00000000000E+00 -0.00000000000E+00 -0.14801809458E+02  0.14801809458E+02  0.00000000000E+00 0.  1.
         25    2    1    2    0    0 -0.19269231478E+02  0.69078614606E+02  0.61656076478E+03  0.63319584177E+03  0.12508652642E+03 0.  0.
          5    1    3    3  502    0  0.37560915640E+02  0.31219416211E+02  0.45653719643E+03  0.45916136429E+03  0.41800000000E+01 0. -1.
         -5    1    3    3    0  502 -0.56830147118E+02  0.37859198395E+02  0.16002356835E+03  0.17403447748E+03  0.41800000000E+01 0. -1.
        -11    1    1    2    0    0  0.51729717781E+02 -0.18041526496E+02  0.25774472399E+03  0.26350294709E+03  0.00000000000E+00 0.  1.
         11    1    1    2    0    0 -0.32460486303E+02 -0.51037088110E+02  0.25009149550E+03  0.25730181432E+03  0.00000000000E+00 0. -1.
</event>
<event>
 7    1  0.2749315E-009  0.1088237E+03  0.7561462E-02  0.1262764E+00
         -2   -1    0    0    0  501 -0.00000000000E+00  0.00000000000E+00  0.68482077895E+02  0.68482077895E+02  0.00000000000E+00 0.  1.
          2   -1    0    0  501    0  0.00000000000E+00 -0.00000000000E+00 -0.18390318061E+03  0.18390318061E+03  0.00000000000E+00 0. -1.
         25    2    1    2    0    0 -0.21386207299E+02 -0.19282231787E+02 -0.88229398942E+02  0.15576079547E+03  0.12509126365E+03 0.  0.
          5    1    3    3  502    0  0.41749790853E+02  0.24053302294E+02 -0.17498638224E+02  0.51432296538E+02  0.41800000000E+01 0. -1.
         -5    1    3    3    0  502 -0.63135998152E+02 -0.43335534081E+02 -0.70730760718E+02  0.10432849893E+03  0.41800000000E+01 0. -1.
        -11    1    1    2    0    0 -0.74342490684E+01 -0.32494633487E+02 -0.73665678241E+01  0.34138476624E+02  0.00000000000E+00 0. -1.
         11    1    1    2    0    0  0.28820456367E+02  0.51776865274E+02 -0.19825135947E+02  0.62485986414E+02  0.00000000000E+00 0.  1.
</event>
<event>
 7    1  0.2749315E-009  0.9958536E+02  0.7561462E-02  0.1281170E+00
          1   -1    0    0  501    0  0.00000000000E+00  0.00000000000E+00  0.51808163802E+03  0.51808163802E+03  0.00000000000E+00 0. -1.
         -1   -1    0    0    0  501 -0.00000000000E+00 -0.00000000000E+00 -0.40205068492E+02  0.40205068492E+02  0.00000000000E+00 0.  1.
         25    2    1    2    0    0  0.52967802011E+02  0.12562710793E+02  0.41096829367E+03  0.43301953132E+03  0.12509023284E+03 0.  0.
          5    1    3    3  502    0  0.92116556330E+01  0.55431437977E+02  0.89646254594E+02  0.10588400388E+03  0.41800000000E+01 0.  1.
         -5    1    3    3    0  502  0.43756146378E+02 -0.42868727184E+02  0.32132203908E+03  0.32713552744E+03  0.41800000000E+01 0.  1.
        -11    1    1    2    0    0 -0.11136576597E+02  0.23621791823E+02 -0.12132803492E+02  0.28796133557E+02  0.00000000000E+00 0.  1.
         11    1    1    2    0    0 -0.41831225414E+02 -0.36184502616E+02  0.79041079353E+02  0.96471041637E+02  0.00000000000E+00 0. -1.
</event>
<event>
 7    1  0.2749315E-009  0.1139903E+03  0.7561462E-02  0.1253354E+00
          1   -1    0    0  501    0  0.00000000000E+00  0.00000000000E+00  0.34826087924E+03  0.34826087924E+03  0.00000000000E+00 0. -1.
         -1   -1    0    0    0  501 -0.00000000000E+00 -0.00000000000E+00 -0.40903960512E+02  0.40903960512E+02  0.00000000000E+00 0.  1.
         25    2    1    2    0    0  0.38385355725E+02  0.32087125200E+02  0.16866338180E+03  0.21586518007E+03  0.12508964973E+03 0.  0.
          5    1    3    3  502    0 -0.31336687747E+02 -0.21458819708E+02  0.90192396018E+02  0.97952078291E+02  0.41800000000E+01 0. -1.
         -5    1    3    3    0  502  0.69722043472E+02  0.53545944908E+02  0.78470985778E+02  0.11791310178E+03  0.41800000000E+01 0. -1.
        -11    1    1    2    0    0 -0.26066752115E+02 -0.63164327387E+02  0.10866308073E+03  0.12836227224E+03  0.00000000000E+00 0.  1.
         11    1    1    2    0    0 -0.12318603611E+02  0.31077202187E+02  0.30030456198E+02  0.44937387443E+02  0.00000000000E+00 0. -1.
</event>
<event>
 7    1  0.2749315E-009  0.1568783E+03  0.7561462E-02  0.1192267E+00
          1   -1    0    0  501    0  0.00000000000E+00  0.00000000000E+00  0.40435826691E+02  0.40435826691E+02  0.00000000000E+00 0. -1.
         -1   -1    0    0    0  501 -0.00000000000E+00 -0.00000000000E+00 -0.75279256085E+03  0.75279256085E+03  0.00000000000E+00 0.  1.
         25    2    1    2    0    0 -0.22051460123E+02  0.11429693385E+03 -0.53949477428E+03  0.56590834502E+03  0.12509031738E+03 0.  0.
          5    1    3    3  502    0 -0.87825562287E+01  0.14065718412E+03 -0.43886992992E+03  0.46096189054E+03  0.41800000000E+01 0. -1.
         -5    1    3    3    0  502 -0.13268903895E+02 -0.26360250275E+02 -0.10062484436E+03  0.10494645448E+03  0.41800000000E+01 0. -1.
        -11    1    1    2    0    0 -0.22264822578E+02 -0.89391177465E+02 -0.82616146994E+02  0.12374139436E+03  0.00000000000E+00 0.  1.
         11    1    1    2    0    0  0.44316282701E+02 -0.24905756381E+02 -0.90245812878E+02  0.10357864816E+03  0.00000000000E+00 0. -1.
</event>
<event>
 7    1  0.2749315E-009  0.1148823E+03  0.7561462E-02  0.1251787E+00
          2   -1    0    0  501    0  0.00000000000E+00  0.00000000000E+00  0.25942778004E+03  0.25942778004E+03  0.00000000000E+00 0. -1.
         -2   -1    0    0    0  501 -0.00000000000E+00 -0.00000000000E+00 -0.53124542892E+02  0.53124542892E+02  0.00000000000E+00 0.  1.
         25    2    1    2    0    0  0.41528842240E+02 -0.15541550830E+02  0.14352305658E+03  0.19548295222E+03  0.12509409378E+03 0.  0.
          5    1    3    3  502    0  0.18320322307E+02  0.54683130808E+02  0.52257396973E+02  0.77937070402E+02  0.41800000000E+01 0. -1.
         -5    1    3    3    0  502  0.23208519933E+02 -0.70224681639E+02  0.91265659609E+02  0.11754588182E+03  0.41800000000E+01 0. -1.
        -11    1    1    2    0    0 -0.12307273161E+02  0.50685893823E+02  0.41491147987E+02  0.66648662151E+02  0.00000000000E+00 0. -1.
         11    1    1    2    0    0 -0.29221569079E+02 -0.35144342993E+02  0.21289032583E+02  0.50420708565E+02  0.00000000000E+00 0.  1.
</event>
<event>
 7    1  0.2749315E-009  0.1244969E+03  0.7561462E-02  0.1235858E+00
          1   -1    0    0  501    0  0.00000000000E+00  0.00000000000E+00  0.66953515899E+03  0.66953515899E+03  0.00000000000E+00 0. -1.
         -1   -1    0    0    0  501 -0.00000000000E+00 -0.00000000000E+00 -0.26707366454E+02  0.26707366454E+02  0.00000000000E+00 0.  1.
         25    2    1    2    0    0  0.24866389138E+01  0.67343155015E+02  0.25101076542E+03  0.28843920394E+03  0.12509790611E+03 0.  0.
          5    1    3    3  502    0  0.59949046126E+02  0.57149577534E+02  0.13335173685E+03  0.15703541150E+03  0.41800000000E+01 0. -1.
         -5    1    3    3    0  502 -0.57462407212E+02  0.10193577481E+02  0.11765902857E+03  0.13140379244E+03  0.41800000000E+01 0. -1.
        -11    1    1    2    0    0 -0.39398717560E+02 -0.12288236210E+02  0.21598334214E+03  0.21989102705E+03  0.00000000000E+00 0. -1.
         11    1    1    2    0    0  0.36912078647E+02 -0.55054918805E+02  0.17583368497E+03  0.18791229445E+03  0.00000000000E+00 0.  1.
</event>
<event>
 7    1  0.2749315E-009  0.1376510E+03  0.7561462E-02  0.1216525E+00
         -1   -1    0    0    0  501 -0.00000000000E+00  0.00000000000E+00  0.54224387329E+03  0.54224387329E+03  0.00000000000E+00 0.  1.
          1   -1    0    0  501    0  0.00000000000E+00 -0.00000000000E+00 -0.45281162588E+02  0.45281162588E+02  0.00000000000E+00 0. -1.
         25    2    1    2    0    0 -0.10910922267E+03 -0.95898406733E+00  0.32626207174E+03  0.36606051148E+03  0.12509043323E+03 0.  0.
          5    1    3    3  502    0 -0.12948814483E+03 -0.26927514565E+02  0.27035678479E+03  0.30100254845E+03  0.41800000000E+01 0.  1.
         -5    1    3    3    0  502  0.20378922160E+02  0.25968530497E+02  0.55905286956E+02  0.65057963035E+02  0.41800000000E+01 0.  1.
        -11    1    1    2    0    0  0.88448700869E+02  0.52429971837E+01  0.55951030913E+02  0.10479112350E+03  0.00000000000E+00 0. -1.
         11    1    1    2    0    0  0.20660521796E+02 -0.42840131163E+01  0.11474960804E+03  0.11667340089E+03  0.00000000000E+00 0.  1.
</event>
<event>
 7    1  0.2749315E-009  0.1107072E+03  0.7561462E-02  0.1259266E+00
         -1   -1    0    0    0  501 -0.00000000000E+00  0.00000000000E+00  0.74109326905E+03  0.74109326905E+03  0.00000000000E+00 0.  1.
          1   -1    0    0  501    0  0.00000000000E+00 -0.00000000000E+00 -0.20389940388E+02  0.20389940388E+02  0.00000000000E+00 0. -1.
         25    2    1    2    0    0  0.24724642242E+02  0.26298040579E+02  0.54021323252E+03  0.55568072830E+03  0.12509132804E+03 0.  0.
          5    1    3    3  502    0  0.20957773366E+02  0.74674603652E+02  0.39357812556E+03  0.40116921369E+03  0.41800000000E+01 0.  1.
         -5    1    3    3    0  502  0.37668688758E+01 -0.48376563073E+02  0.14663510696E+03  0.15451151461E+03  0.41800000000E+01 0.  1.
        -11    1    1    2    0    0  0.29402694423E+02 -0.28389462414E+02  0.10673790632E+03  0.11429549711E+03  0.00000000000E+00 0. -1.
         11    1    1    2    0    0 -0.54127336665E+02  0.20914218355E+01  0.73752189828E+02  0.91506984019E+02  0.00000000000E+00 0.  1.
</event>
<event>
 7    1  0.2749315E-009  0.1218719E+03  0.7561462E-02  0.1240041E+00
         -1   -1    0    0    0  501 -0.00000000000E+00  0.00000000000E+00  0.41847422346E+02  0.41847422346E+02  0.00000000000E+00 0.  1.
          1   -1    0    0  501    0  0.00000000000E+00 -0.00000000000E+00 -0.80947834754E+03  0.80947834754E+03  0.00000000000E+00 0. -1.
         25    2    1    2    0    0  0.10309626297E+03 -0.27499035711E+02 -0.64348977623E+03  0.66416364341E+03  0.12509682934E+03 0.  0.
          5    1    3    3  502    0  0.51598142487E+02  0.29048406580E+02 -0.47957709975E+03  0.48323684176E+03  0.41800000000E+01 0. -1.
         -5    1    3    3    0  502  0.51498120485E+02 -0.56547442292E+02 -0.16391267648E+03  0.18092680164E+03  0.41800000000E+01 0. -1.
        -11    1    1    2    0    0 -0.63183074748E+02  0.90954586880E+01 -0.12800709067E+03  0.14304070598E+03  0.00000000000E+00 0. -1.
         11    1    1    2    0    0 -0.39913188224E+02  0.18403577023E+02  0.38659417116E+01  0.44121420498E+02  0.00000000000E+00 0.  1.
</event>
<event>
 7    1  0.2749315E-009  0.9763356E+02  0.7561462E-02  0.1285352E+00
          3   -1    0    0  501    0  0.00000000000E+00  0.00000000000E+00  0.11492566295E+03  0.11492566295E+03  0.00000000000E+00 0. -1.
         -3   -1    0    0    0  501 -0.00000000000E+00 -0.00000000000E+00 -0.12505987629E+03  0.12505987629E+03  0.00000000000E+00 0.  1.
         25    2    1    2    0    0 -0.46027050121E+02  0.12509617305E+02  0.58301797909E+01  0.13400042651E+03  0.12508854240E+03 0.  0.
          5    1    3    3  502    0  0.14448735901E+02  0.55815568025E+02  0.12697869680E+02  0.59184895857E+02  0.41800000000E+01 0.  1.
         -5    1    3    3    0  502 -0.60475786022E+02 -0.43305950720E+02 -0.68676898892E+01  0.74815530655E+02  0.41800000000E+01 0.  1.
        -11    1    1    2    0    0  0.59054234010E+01  0.13780748908E+02 -0.46678030482E+02  0.49026743678E+02  0.00000000000E+00 0.  1.
         11    1    1    2    0    0  0.40121626720E+02 -0.26290366213E+02  0.30713637351E+02  0.56958369057E+02  0.00000000000E+00 0. -1.
</event>
<event>
 7    1  0.2749315E-009  0.1039420E+03  0.7561462E-02  0.1272218E+00
          2   -1    0    0  501    0  0.00000000000E+00  0.00000000000E+00  0.57446798486E+02  0.57446798486E+02  0.00000000000E+00 0. -1.
         -2   -1    0    0    0  501 -0.00000000000E+00 -0.00000000000E+00 -0.29426890752E+03  0.29426890752E+03  0.00000000000E+00 0.  1.
         25    2    1    2    0    0  0.70261555742E+02 -0.34169372920E+02 -0.16480844058E+03  0.22117090887E+03  0.12510202470E+03 0.  0.
          5    1    3    3  502    0 -0.49242011858E+01  0.11110148082E+02 -0.12334408689E+03  0.12401177089E+03  0.41800000000E+01 0. -1.
         -5    1    3    3    0  502  0.75185756928E+02 -0.45279521002E+02 -0.41464353691E+02  0.97159137985E+02  0.41800000000E+01 0. -1.
        -11    1    1    2    0    0 -0.46549782099E+02 -0.17961960490E+02 -0.22078697423E+02  0.54561736758E+02  0.00000000000E+00 0. -1.
         11    1    1    2    0    0 -0.23711773643E+02  0.52131333411E+02 -0.49934971031E+02  0.75983060377E+02  0.00000000000E+00 0.  1.
</event>
<event>
 7    1  0.2749315E-009  0.3045910E+03  0.7561462E-02  0.1082968E+00
         -2   -1    0    0    0  501 -0.00000000000E+00  0.00000000000E+00  0.55778750511E+02  0.55778750511E+02  0.00000000000E+00 0.  1.
          2   -1    0    0  501    0  0.00000000000E+00 -0.00000000000E+00 -0.17761129159E+04  0.17761129159E+04  0.00000000000E+00 0. -1.
         25    2    1    2    0    0 -0.77765243533E+02  0.28102223661E+03 -0.74699182770E+03  0.81158133185E+03  0.12508611825E+03 0.  0.
          5    1    3    3  502    0  0.18384113729E+02  0.32656599096E+02 -0.35199484443E+02  0.51583962693E+02  0.41800000000E+01 0.  1.
         -5    1    3    3    0  502 -0.96149357262E+02  0.24836563751E+03 -0.71179234326E+03  0.75999736915E+03  0.41800000000E+01 0.  1.
        -11    1    1    2    0    0 -0.20233010174E+02 -0.60604657376E+02 -0.23713816923E+03  0.24559480960E+03  0.00000000000E+00 0. -1.
         11    1    1    2    0    0  0.97998253707E+02 -0.22041757923E+03 -0.73620416847E+03  0.77471552497E+03  0.00000000000E+00 0.  1.
</event>
<event>
 7    1  0.2749315E-009  0.1087859E+03  0.7561462E-02  0.1262835E+00
          1   -1    0    0  501    0  0.00000000000E+00  0.00000000000E+00  0.83082237237E+02  0.83082237237E+02  0.00000000000E+00 0. -1.
         -1   -1    0    0    0  501 -0.00000000000E+00 -0.00000000000E+00 -0.17733387936E+03  0.17733387936E+03  0.00000000000E+00 0.  1.
         25    2    1    2    0    0  0.31424248400E+01  0.60705982495E+02 -0.81819654984E+02  0.16135397782E+03  0.12508220925E+03 0.  0.
          5    1    3    3  502    0 -0.49850578103E+01 -0.37158066145E+02 -0.83401479636E+01  0.38634222511E+02  0.41800000000E+01 0. -1.
         -5    1    3    3    0  502  0.81274826503E+01  0.97864048639E+02 -0.73479507020E+02  0.12271975531E+03  0.41800000000E+01 0. -1.
        -11    1    1    2    0    0  0.93188374854E+01  0.76619797214E+01  0.19225156748E+02  0.22696989168E+02  0.00000000000E+00 0. -1.
         11    1    1    2    0    0 -0.12461262325E+02 -0.68367962216E+02 -0.31657143888E+02  0.76365149614E+02  0.00000000000E+00 0.  1.
</event>
<event>
 7    1  0.2749315E-009  0.1151224E+03  0.7561462E-02  0.1251368E+00
         -2   -1    0    0    0  501 -0.00000000000E+00  0.00000000000E+00  0.38012123647E+02  0.38012123647E+02  0.00000000000E+00 0.  1.
          2   -1    0    0  501    0  0.00000000000E+00 -0.00000000000E+00 -0.64893296741E+03  0.64893296741E+03  0.00000000000E+00 0. -1.
         25    2    1    2    0    0 -0.31868552445E+02  0.10145377528E+03 -0.41703524470E+03  0.44819118386E+03  0.12509384005E+03 0.  0.
          5    1    3    3  502    0 -0.33244030896E+02  0.35784234308E+02 -0.35291681042E+03  0.35630524061E+03  0.41800000000E+01 0.  1.
         -5    1    3    3    0  502  0.13754784514E+01  0.65669540968E+02 -0.64118434283E+02  0.91885943249E+02  0.41800000000E+01 0.  1.
        -11    1    1    2    0    0  0.13235069602E+02 -0.94647489486E+02 -0.84449796598E+02  0.12753463247E+03  0.00000000000E+00 0.  1.
         11    1    1    2    0    0  0.18633482843E+02 -0.68062857901E+01 -0.10943580247E+03  0.11121927473E+03  0.00000000000E+00 0. -1.
</event>
<event>
 7    1  0.2749315E-009  0.9037679E+02  0.7561462E-02  0.1301942E+00
          2   -1    0    0  501    0  0.00000000000E+00  0.00000000000E+00  0.48547145505E+02  0.48547145505E+02  0.00000000000E+00 0. -1.
         -2   -1    0    0    0  501 -0.00000000000E+00 -0.00000000000E+00 -0.26536232431E+03  0.26536232431E+03  0.00000000000E+00 0.  1.
         25    2    1    2    0    0 -0.86480792297E+01  0.17730736222E+02 -0.18333230391E+03  0.22281990945E+03  0.12509520418E+03 0.  0.
          5    1    3    3  502    0  0.37549533302E+02  0.51605261376E+02 -0.12787896362E+03  0.14298102038E+03  0.41800000000E+01 0. -1.
         -5    1    3    3    0  502 -0.46197612532E+02 -0.33874525153E+02 -0.55453340288E+02  0.79838889065E+02  0.41800000000E+01 0. -1.
        -11    1    1    2    0    0 -0.14502292270E+02 -0.29879769543E+02  0.14660737180E+02  0.36305017885E+02  0.00000000000E+00 0. -1.
         11    1    1    2    0    0  0.23150371499E+02  0.12149033320E+02 -0.48143612080E+02  0.54784542485E+02  0.00000000000E+00 0.  1.
</event>
<event>
 7    1  0.2749315E-009  0.1303666E+03  0.7561462E-02  0.1226913E+00
         -1   -1    0    0    0  501 -0.00000000000E+00  0.00000000000E+00  0.27993818115E+02  0.27993818115E+02  0.00000000000E+00 0.  1.
          1   -1    0    0  501    0  0.00000000000E+00 -0.00000000000E+00 -0.74123551937E+03  0.74123551937E+03  0.00000000000E+00 0. -1.
         25    2    1    2    0    0  0.28192192880E+02  0.87983033647E+02 -0.32742903566E+03  0.36248257811E+03  0.12509209446E+03 0.  0.
          5    1    3    3  502    0  0.48172330154E+02  0.66738341522E+01 -0.22444347783E+03  0.22968992271E+03  0.41800000000E+01 0. -1.
         -5    1    3    3    0  502 -0.19980137274E+02  0.81309199495E+02 -0.10298555783E+03  0.13279265540E+03  0.41800000000E+01 0. -1.
        -11    1    1    2    0    0 -0.59578821924E+02 -0.44043763658E+02 -0.24402594822E+03  0.25502578799E+03  0.00000000000E+00 0. -1.
         11    1    1    2    0    0  0.31386629044E+02 -0.43939269989E+02 -0.14178671738E+03  0.15172097138E+03  0.00000000000E+00 0.  1.
</event>
<event>
 7    1  0.2749315E-009  0.1140162E+03  0.7561462E-02  0.1253308E+00
         -2   -1    0    0    0  501 -0.00000000000E+00  0.00000000000E+00  0.77831456758E+02  0.77831456758E+02  0.00000000000E+00 0. -1.
          2   -1    0    0  501    0  0.00000000000E+00 -0.00000000000E+00 -0.21184746619E+03  0.21184746619E+03  0.00000000000E+00 0.  1.
         25    2    1    2    0    0  0.60909392895E+02 -0.25003430101E+02 -0.60248307760E+02  0.15365179466E+03  0.12507553620E+03 0.  0.
          5    1    3    3  502    0 -0.46051632156E+01  0.28833663942E+02  0.20944946669E+02  0.36176662305E+02  0.41800000000E+01 0.  1.
         -5    1    3    3    0  502  0.65514556110E+02 -0.53837094043E+02 -0.81193254429E+02  0.11747513236E+03  0.41800000000E+01 0.  1.
        -11    1    1    2    0    0 -0.42672270566E+02 -0.32288149559E+02 -0.27516912742E+02  0.60171652496E+02  0.00000000000E+00 0.  1.
         11    1    1    2    0    0 -0.18237122329E+02  0.57291579660E+02 -0.46250788928E+02  0.75855475789E+02  0.00000000000E+00 0. -1.
</event>
<event>
 7    1  0.2749315E-009  0.1791883E+03  0.7561462E-02  0.1168591E+00
         -2   -1    0    0    0  501 -0.00000000000E+00  0.00000000000E+00  0.98416561946E+02  0.98416561946E+02  0.00000000000E+00 0.  1.
          2   -1    0    0  501    0  0.00000000000E+00 -0.00000000000E+00 -0.38507877872E+03  0.38507877872E+03  0.00000000000E+00 0. -1.
         25    2    1    2    0    0  0.13534861737E+03  0.77765668100E+02 -0.20033732738E+03  0.28310695247E+03  0.12509098463E+03 0.  0.
          5    1    3    3  502    0 -0.26177564018E+01 -0.26462695805E+02 -0.23272460635E+02  0.35583798868E+02  0.41800000000E+01 0. -1.
         -5    1    3    3    0  502  0.13796637378E+03  0.10422836391E+03 -0.17706486674E+03  0.24752315360E+03  0.41800000000E+01 0. -1.
        -11    1    1    2    0    0 -0.61311995519E+02 -0.51065585738E+02  0.48534398167E+01  0.79940044530E+02  0.00000000000E+00 0.  1.
         11    1    1    2    0    0 -0.74036621854E+02 -0.26700082361E+02 -0.91178329212E+02  0.12044834366E+03  0.00000000000E+00 0. -1.
</event>
<event>
 7    1  0.2749315E-009  0.1288342E+03  0.7561462E-02  0.1229196E+00
         -2   -1    0    0    0  501 -0.00000000000E+00  0.00000000000E+00  0.15071468442E+02  0.15071468442E+02  0.00000000000E+00 0.  1.
          2   -1    0    0  501    0  0.00000000000E+00 -0.00000000000E+00 -0.17073341224E+04  0.17073341224E+04  0.00000000000E+00 0. -1.
         25    2    1    2    0    0 -0.66849479182E+02  0.71178215587E+02 -0.12646047726E+04  0.12745234926E+04  0.12509880502E+03 0.  0.
          5    1    3    3  502    0  0.13335215668E+02 -0.14876682483E+02 -0.54298635730E+03  0.54336985587E+03  0.41800000000E+01 0.  1.
         -5    1    3    3    0  502 -0.80184694850E+02  0.86054898070E+02 -0.72161841532E+03  0.73115363672E+03  0.41800000000E+01 0.  1.
        -11    1    1    2    0    0  0.59259416121E+02 -0.12716736769E+02 -0.11792043333E+03  0.13258439723E+03  0.00000000000E+00 0.  1.
         11    1    1    2    0    0  0.75900630608E+01 -0.58461478819E+02 -0.30973744802E+03  0.31529770102E+03  0.00000000000E+00 0. -1.
</event>
<event>
 7    1  0.2749315E-009  0.1729107E+03  0.7561462E-02  0.1174846E+00
          2   -1    0    0  501    0  0.00000000000E+00  0.00000000000E+00  0.53751364592E+03  0.53751364592E+03  0.00000000000E+00 0. -1.
         -2   -1    0    0    0  501 -0.00000000000E+00 -0.00000000000E+00 -0.90221009229E+02  0.90221009229E+02  0.00000000000E+00 0.  1.
         25    2    1    2    0    0 -0.16822037642E+03 -0.14155980275E+02  0.10557101070E+03  0.23514191134E+03  0.12509193958E+03 0.  0.
          5    1    3    3  502    0 -0.15808126745E+03 -0.19132713597E+02  0.13149759447E+03  0.20655468428E+03  0.41800000000E+01 0.  1.
         -5    1    3    3    0  502 -0.10139108971E+02  0.49767333220E+01 -0.25926583764E+02  0.28587227059E+02  0.41800000000E+01 0.  1.
        -11    1    1    2    0    0  0.90284873545E+02 -0.14519402727E+02  0.26190693815E+03  0.27741199631E+03  0.00000000000E+00 0. -1.
         11    1    1    2    0    0  0.77935502877E+02  0.28675383002E+02  0.79814687832E+02  0.11518074749E+03  0.00000000000E+00 0.  1.
</event>
<event>
 7    1  0.2749315E-009  0.1741213E+03  0.7561462E-02  0.1173617E+00
         -1   -1    0    0    0  501 -0.00000000000E+00  0.00000000000E+00  0.55427582779E+02  0.55427582779E+02  0.00000000000E+00 0.  1.
          1   -1    0    0  501    0  0.00000000000E+00 -0.00000000000E+00 -0.65044723614E+03  0.65044723614E+03  0.00000000000E+00 0. -1.
         25    2    1    2    0    0 -0.33259450721E+02  0.13622313275E+03 -0.18750440458E+03  0.26546155395E+03  0.12509597088E+03 0.  0.
          5    1    3    3  502    0 -0.13717946340E+02 -0.21968527154E+02 -0.13697321792E+02  0.29595392570E+02  0.41800000000E+01 0.  1.
         -5    1    3    3    0  502 -0.19541504381E+02  0.15819165990E+03 -0.17380708278E+03  0.23586616138E+03  0.41800000000E+01 0.  1.
        -11    1    1    2    0    0 -0.36968023797E+00 -0.12791891580E+03 -0.27258874200E+03  0.30111128831E+03  0.00000000000E+00 0.  1.
         11    1    1    2    0    0  0.33629130959E+02 -0.83042169481E+01 -0.13492650679E+03  0.13930197666E+03  0.00000000000E+00 0. -1.
</event>
<event>
 7    1  0.2749315E-009  0.7722593E+02  0.7561462E-02  0.1337113E+00
          1   -1    0    0  501    0  0.00000000000E+00  0.00000000000E+00  0.23464525230E+03  0.23464525230E+03  0.00000000000E+00 0. -1.
         -1   -1    0    0    0  501 -0.00000000000E+00 -0.00000000000E+00 -0.59276658640E+02  0.59276658640E+02  0.00000000000E+00 0.  1.
         25    2    1    2    0    0 -0.82232339684E+01 -0.45346152055E+02  0.86594774829E+02  0.15896460554E+03  0.12508875131E+03 0.  0.
          5    1    3    3  502    0  0.13135679323E+02 -0.19101179919E+02 -0.29624014600E+02  0.37847797645E+02  0.41800000000E+01 0.  1.
         -5    1    3    3    0  502 -0.21358913291E+02 -0.26244972137E+02  0.11621878943E+03  0.12111680790E+03  0.41800000000E+01 0.  1.
        -11    1    1    2    0    0 -0.18719233412E+01 -0.25334263303E+02  0.68972173616E+01  0.26323005175E+02  0.00000000000E+00 0. -1.
         11    1    1    2    0    0  0.10095157310E+02  0.70680415358E+02  0.81876601465E+02  0.10863430022E+03  0.00000000000E+00 0.  1.
</event>
<event>
 7    1  0.2749315E-009  0.1104903E+03  0.7561462E-02  0.1259665E+00
         -2   -1    0    0    0  501 -0.00000000000E+00  0.00000000000E+00  0.17229562779E+03  0.17229562779E+03  0.00000000000E+00 0. -1.
          2   -1    0    0  501    0  0.00000000000E+00 -0.00000000000E+00 -0.10023669934E+03  0.10023669934E+03  0.00000000000E+00 0.  1.
         25    2    1    2    0    0  0.38040768466E+02 -0.43591285779E+02  0.88331473220E+02  0.16368941830E+03  0.12507788070E+03 0.  0.
          5    1    3    3  502    0 -0.39951090064E+02 -0.17148308622E+02  0.11532570564E+01  0.43691606605E+02  0.41800000000E+01 0.  1.
         -5    1    3    3    0  502  0.77991858530E+02 -0.26442977156E+02  0.87178216164E+02  0.11999781169E+03  0.41800000000E+01 0.  1.
        -11    1    1    2    0    0 -0.44280481914E+02 -0.61579606791E+01  0.17909707437E+02  0.48160556255E+02  0.00000000000E+00 0. -1.
         11    1    1    2    0    0  0.62397134479E+01  0.49749246458E+02 -0.34182252209E+02  0.60682352568E+02  0.00000000000E+00 0.  1.
</event>
<event>
 7    1  0.2749315E-009  0.1022244E+03  0.7561462E-02  0.1275687E+00
         -2   -1    0    0    0  501 -0.00000000000E+00  0.00000000000E+00  0.28496815719E+03  0.28496815719E+03  0.00000000000E+00 0. -1.
          2   -1    0    0  501    0  0.00000000000E+00 -0.00000000000E+00 -0.68235207599E+02  0.68235207599E+02  0.00000000000E+00 0.  1.
         25    2    1    2    0    0  0.61450307027E+02  0.55698934866E+02  0.84446824926E+02  0.17221347885E+03  0.12509078494E+03 0.  0.
          5    1    3    3  502    0  0.25117561975E+02  0.13260865068E+02 -0.32000209739E+02  0.42991025636E+02  0.41800000000E+01 0. -1.
         -5    1    3    3    0  502  0.36332745052E+02  0.42438069798E+02  0.11644703466E+03  0.12922245321E+03  0.41800000000E+01 0. -1.
        -11    1    1    2    0    0 -0.17645783464E+02  0.23394767434E+02  0.15058613493E+02  0.32946178195E+02  0.00000000000E+00 0.  1.
         11    1    1    2    0    0 -0.43804523563E+02 -0.79093702300E+02  0.11722751117E+03  0.14804370774E+03  0.00000000000E+00 0. -1.
</event>
<event>
 7    1  0.2749315E-009  0.9972631E+02  0.7561462E-02  0.1280873E+00
          1   -1    0    0  501    0  0.00000000000E+00  0.00000000000E+00  0.40957504224E+02  0.40957504224E+02  0.00000000000E+00 0. -1.
         -1   -1    0    0    0  501 -0.00000000000E+00 -0.00000000000E+00 -0.27810410731E+03  0.27810410731E+03  0.00000000000E+00 0.  1.
         25    2    1    2    0    0  0.93469194347E+01 -0.16360266306E+01 -0.12668752964E+03  0.17827786221E+03  0.12507287676E+03 0.  0.
          5    1    3    3  502    0  0.16639664304E+02 -0.60340541784E+02 -0.44432071059E+02  0.76873537382E+02  0.41800000000E+01 0.  1.
         -5    1    3    3    0  502 -0.72927448690E+01  0.58704515154E+02 -0.82255458583E+02  0.10140432483E+03  0.41800000000E+01 0.  1.
        -11    1    1    2    0    0 -0.37721046920E+02 -0.19092775751E+02 -0.91640202533E+02  0.10092243649E+03  0.00000000000E+00 0.  1.
         11    1    1    2    0    0  0.28374127485E+02  0.20728802382E+02 -0.18818870914E+02  0.39861312838E+02  0.00000000000E+00 0. -1.
</event>
<event>
 7    1  0.2749315E-009  0.1147748E+03  0.7561462E-02  0.1251975E+00
          2   -1    0    0  501    0  0.00000000000E+00  0.00000000000E+00  0.87966548308E+03  0.87966548308E+03  0.00000000000E+00 0. -1.
         -2   -1    0    0    0  501 -0.00000000000E+00 -0.00000000000E+00 -0.16498036884E+02  0.16498036884E+02  0.00000000000E+00 0.  1.
         25    2    1    2    0    0  0.45270937657E+02  0.55523549524E+01  0.38124447110E+03  0.40382580623E+03  0.12509056156E+03 0.  0.
          5    1    3    3  502    0 -0.20335046555E+02  0.48531389072E+02  0.12161562748E+03  0.13257693273E+03  0.41800000000E+01 0.  1.
         -5    1    3    3    0  502  0.65605984212E+02 -0.42979034120E+02  0.25962884362E+03  0.27124887350E+03  0.41800000000E+01 0.  1.
        -11    1    1    2    0    0  0.15045998227E+02 -0.29666524891E+02  0.11521239642E+03  0.11991822651E+03  0.00000000000E+00 0.  1.
         11    1    1    2    0    0 -0.60316935884E+02  0.24114169939E+02  0.36671057868E+03  0.37241948722E+03  0.00000000000E+00 0. -1.
</event>
<event>
 7    1  0.2749315E-009  0.1707158E+03  0.7561462E-02  0.1177103E+00
         -1   -1    0    0    0  501 -0.00000000000E+00  0.00000000000E+00  0.70377947730E+03  0.70377947730E+03  0.00000000000E+00 0.  1.
          1   -1    0    0  501    0  0.00000000000E+00 -0.00000000000E+00 -0.44856913455E+02  0.44856913455E+02  0.00000000000E+00 0. -1.
         25    2    1    2    0    0  0.86057035733E+02 -0.10875200499E+03  0.39874675592E+03  0.44031708940E+03  0.12508937553E+03 0.  0.
          5    1    3    3  502    0  0.11831339463E+03 -0.78020273028E+02  0.31217351864E+03  0.34286294709E+03  0.41800000000E+01 0. -1.
         -5    1    3    3    0  502 -0.32256358894E+02 -0.30731731963E+02  0.86573237285E+02  0.97454142305E+02  0.41800000000E+01 0. -1.
        -11    1    1    2    0    0 -0.41907227743E+02  0.10195221967E+03  0.22806145360E+03  0.25330317300E+03  0.00000000000E+00 0.  1.
         11    1    1    2    0    0 -0.44149807989E+02  0.67997853221E+01  0.32114354323E+02  0.55016128358E+02  0.00000000000E+00 0. -1.
</event>
<event>
 7    1  0.2749315E-009  0.1390406E+03  0.7561462E-02  0.1214626E+00
         -2   -1    0    0    0  501 -0.00000000000E+00  0.00000000000E+00  0.21243170559E+02  0.21243170559E+02  0.00000000000E+00 0.  1.
          2   -1    0    0  501    0  0.00000000000E+00 -0.00000000000E+00 -0.94738442234E+03  0.94738442234E+03  0.00000000000E+00 0. -1.
         25    2    1    2    0    0  0.40374127101E+02 -0.81751903881E+02 -0.52912173882E+03  0.55129879218E+03  0.12508836815E+03 0.  0.
          5    1    3    3  502    0 -0.41490598753E+02 -0.52606397065E+02 -0.20545890766E+03  0.21614749115E+03  0.41800000000E+01 0.  1.
         -5    1    3    3    0  502  0.81864725854E+02 -0.29145506816E+02 -0.32366283116E+03  0.33515130103E+03  0.41800000000E+01 0.  1.
        -11    1    1    2    0    0 -0.66493223822E+02  0.52371104850E+02 -0.31798574209E+03  0.32905776637E+03  0.00000000000E+00 0. -1.
         11    1    1    2    0    0  0.26119096722E+02  0.29380799031E+02 -0.79033770877E+02  0.88271034345E+02  0.00000000000E+00 0.  1.
</event>
<event>
 7    1  0.2749315E-009  0.2843675E+03  0.7561462E-02  0.1093327E+00
         -2   -1    0    0    0  501 -0.00000000000E+00  0.00000000000E+00  0.68732608056E+02  0.68732608056E+02  0.00000000000E+00 0.  1.
          2   -1    0    0  501    0  0.00000000000E+00 -0.00000000000E+00 -0.12998801131E+04  0.12998801131E+04  0.00000000000E+00 0. -1.
         25    2    1    2    0    0 -0.25167780583E+03  0.92097858831E+02 -0.45202962349E+03  0.54018702823E+03  0.12509001322E+03 0.  0.
          5    1    3    3  502    0 -0.24718576400E+03  0.56777768904E+02 -0.35158401748E+03  0.43353582402E+03  0.41800000000E+01 0.  1.
         -5    1    3    3    0  502 -0.44920418331E+01  0.35320089927E+02 -0.10044560601E+03  0.10665120421E+03  0.41800000000E+01 0.  1.
        -11    1    1    2    0    0  0.18370170999E+03 -0.28047408886E+02 -0.56643111854E+03  0.59613520903E+03  0.00000000000E+00 0.  1.
         11    1    1    2    0    0  0.67976095843E+02 -0.64050449945E+02 -0.21268676298E+03  0.23229048386E+03  0.00000000000E+00 0. -1.
</event>
<event>
 7    1  0.2749315E-009  0.1016739E+03  0.7561462E-02  0.1276815E+00
          2   -1    0    0  501    0  0.00000000000E+00  0.00000000000E+00  0.45958432063E+03  0.45958432063E+03  0.00000000000E+00 0. -1.
         -2   -1    0    0    0  501 -0.00000000000E+00 -0.00000000000E+00 -0.54465752477E+02  0.54465752477E+02  0.00000000000E+00 0.  1.
         25    2    1    2    0    0  0.81655603758E+02  0.47248185927E+02  0.32754259050E+03  0.36308540577E+03  0.12508730790E+03 0.  0.
          5    1    3    3  502    0  0.14165805054E+02  0.37653176984E+02  0.14953006524E+02  0.43121880454E+02  0.41800000000E+01 0.  1.
         -5    1    3    3    0  502  0.67489798704E+02  0.95950089436E+01  0.31258958397E+03  0.31996352532E+03  0.41800000000E+01 0.  1.
        -11    1    1    2    0    0 -0.15892252840E+02 -0.12543719366E+02  0.73781783220E+02  0.76509215987E+02  0.00000000000E+00 0. -1.
         11    1    1    2    0    0 -0.65763350918E+02 -0.34704466561E+02  0.37941944324E+01  0.74455451343E+02  0.00000000000E+00 0.  1.
</event>
<event>
 7    1  0.2749315E-009  0.1327991E+03  0.7561462E-02  0.1223361E+00
         -1   -1    0    0    0  501 -0.00000000000E+00  0.00000000000E+00  0.31096075185E+02  0.31096075185E+02  0.00000000000E+00 0.  1.
          1   -1    0    0  501    0  0.00000000000E+00 -0.00000000000E+00 -0.74295883982E+03  0.74295883982E+03  0.00000000000E+00 0. -1.
         25    2    1    2    0    0 -0.18963051818E+02 -0.88646553871E+02 -0.53289973535E+03  0.55483998618E+03  0.12508986159E+03 0.  0.
          5    1    3    3  502    0 -0.15577994179E+02  0.22730928364E+02 -0.23689400571E+03  0.23852800957E+03  0.41800000000E+01 0. -1.
         -5    1    3    3    0  502 -0.33850576394E+01 -0.11137748224E+03 -0.29600572964E+03  0.31631197660E+03  0.41800000000E+01 0. -1.
        -11    1    1    2    0    0 -0.35232144495E+02  0.40989529676E+02 -0.68310622931E+02  0.87107902936E+02  0.00000000000E+00 0.  1.
         11    1    1    2    0    0  0.54195196313E+02  0.47657024196E+02 -0.11065240635E+03  0.13210702589E+03  0.00000000000E+00 0. -1.
</event>
<event>
 7    1  0.2749315E-009  0.1402585E+03  0.7561462E-02  0.1212982E+00
          3   -1    0    0  501    0  0.00000000000E+00  0.00000000000E+00  0.36455832248E+03  0.36455832248E+03  0.00000000000E+00 0. -1.
         -3   -1    0    0    0  501 -0.00000000000E+00 -0.00000000000E+00 -0.16397248704E+03  0.16397248704E+03  0.00000000000E+00 0.  1.
         25    2    1    2    0    0  0.33165225973E+02  0.91410844994E+02  0.31481532929E+03  0.35243715976E+03  0.12508950888E+03 0.  0.
          5    1    3    3  502    0  0.25540119711E+02 -0.21374067371E+02  0.26630704125E+02  0.42846414938E+02  0.41800000000E+01 0. -1.
         -5    1    3    3    0  502  0.76251062619E+01  0.11278491237E+03  0.28818462516E+03  0.30959074483E+03  0.41800000000E+01 0. -1.
        -11    1    1    2    0    0 -0.65240183087E+02 -0.55210507303E+02 -0.77347103569E+02  0.11526949309E+03  0.00000000000E+00 0.  1.
         11    1    1    2    0    0  0.32074957114E+02 -0.36200337691E+02 -0.36882390276E+02  0.60824156676E+02  0.00000000000E+00 0. -1.
</event>
<event>
 7    1  0.2749315E-009  0.1434004E+03  0.7561462E-02  0.1208825E+00
          2   -1    0    0  501    0  0.00000000000E+00  0.00000000000E+00  0.60899165168E+02  0.60899165168E+02  0.00000000000E+00 0. -1.
         -2   -1    0    0    0  501 -0.00000000000E+00 -0.00000000000E+00 -0.37297747357E+03  0.37297747357E+03  0.00000000000E+00 0.  1.
         25    2    1    2    0    0  0.81876921189E+02 -0.61803023123E+02 -0.13739494312E+03  0.21224561124E+03  0.12508950877E+03 0.  0.
          5    1    3    3  502    0  0.16379085313E+02 -0.88929023281E+02 -0.71271179837E+02  0.11521154062E+03  0.41800000000E+01 0.  1.
         -5    1    3    3    0  502  0.65497835876E+02  0.27126000159E+02 -0.66123763281E+02  0.97034070612E+02  0.41800000000E+01 0.  1.
        -11    1    1    2    0    0 -0.26322388350E+02  0.64478780996E+02 -0.13921953276E+03  0.15566778610E+03  0.00000000000E+00 0.  1.
         11    1    1    2    0    0 -0.55554532839E+02 -0.26757578736E+01 -0.35463832524E+02  0.65963241404E+02  0.00000000000E+00 0. -1.
</event>
<event>
 7    1  0.2749315E-009  0.8797338E+02  0.7561462E-02  0.1307835E+00
         -3   -1    0    0    0  501 -0.00000000000E+00  0.00000000000E+00  0.43222978463E+02  0.43222978463E+02  0.00000000000E+00 0.  1.
          3   -1    0    0  501    0  0.00000000000E+00 -0.00000000000E+00 -0.52158159870E+03  0.52158159870E+03  0.00000000000E+00 0. -1.
         25    2    1    2    0    0  0.54860615800E+02 -0.29596282775E+01 -0.42192840621E+03  0.44349715376E+03  0.12509076248E+03 0.  0.
          5    1    3    3  502    0 -0.14401410686E+01 -0.15275817952E+02 -0.35382859042E+03  0.35418578235E+03  0.41800000000E+01 0.  1.
         -5    1    3    3    0  502  0.56300756868E+02  0.12316189674E+02 -0.68099815791E+02  0.89311371409E+02  0.41800000000E+01 0.  1.
        -11    1    1    2    0    0 -0.54450288266E+02 -0.34720436569E+02 -0.17024937181E+02  0.66784662115E+02  0.00000000000E+00 0.  1.
         11    1    1    2    0    0 -0.41032753367E+00  0.37680064846E+02 -0.39405276845E+02  0.54522761291E+02  0.00000000000E+00 0. -1.
</event>
<event>
 7    1  0.2749315E-009  0.1107602E+03  0.7561462E-02  0.1259169E+00
         -1   -1    0    0    0  501 -0.00000000000E+00  0.00000000000E+00  0.15146176319E+03  0.15146176319E+03  0.00000000000E+00 0.  1.
          1   -1    0    0  501    0  0.00000000000E+00 -0.00000000000E+00 -0.13000898227E+03  0.13000898227E+03  0.00000000000E+00 0. -1.
         25    2    1    2    0    0 -0.29596333288E+01  0.84479247966E+02  0.41263135196E+02  0.15651086351E+03  0.12508997284E+03 0.  0.
          5    1    3    3  502    0 -0.28115444083E+02  0.48778447428E+02  0.80046937447E+02  0.97953048570E+02  0.41800000000E+01 0.  1.
         -5    1    3    3    0  502  0.25155810755E+02  0.35700800538E+02 -0.38783802250E+02  0.58557814942E+02  0.41800000000E+01 0.  1.
        -11    1    1    2    0    0 -0.37109106017E+02 -0.13134709718E+02  0.44427069560E+01  0.39614946597E+02  0.00000000000E+00 0. -1.
         11    1    1    2    0    0  0.40068739346E+02 -0.71344538247E+02 -0.24253061240E+02  0.85344935351E+02  0.00000000000E+00 0.  1.
</event>
<event>
 7    1  0.2749315E-009  0.8328488E+02  0.7561462E-02  0.1319980E+00
         -2   -1    0    0    0  501 -0.00000000000E+00  0.00000000000E+00  0.11148475410E+03  0.11148475410E+03  0.00000000000E+00 0.  1.
          2   -1    0    0  501    0  0.00000000000E+00 -0.00000000000E+00 -0.12438918258E+03  0.12438918258E+03  0.00000000000E+00 0. -1.
         25    2    1    2    0    0  0.47401287496E+01  0.41559316206E+02  0.13659634310E+02  0.13260547492E+03  0.12509188936E+03 0.  0.
          5    1    3    3  502    0 -0.18655890701E+02  0.45777621214E+02 -0.46368897489E+02  0.67905669249E+02  0.41800000000E+01 0. -1.
         -5    1    3    3    0  502  0.23396019451E+02 -0.42183050076E+01  0.60028531799E+02  0.64699805666E+02  0.41800000000E+01 0. -1.
        -11    1    1    2    0    0 -0.77935698923E+01  0.25003245815E+02 -0.25608299919E+02  0.36629046639E+02  0.00000000000E+00 0. -1.
         11    1    1    2    0    0  0.30534411427E+01 -0.66562562021E+02 -0.95576287072E+00  0.66639415125E+02  0.00000000000E+00 0.  1.
</event>
<event>
 7    1  0.2749315E-009  0.9183596E+02  0.7561462E-02  0.1298466E+00
          1   -1    0    0  501    0  0.00000000000E+00  0.00000000000E+00  0.32551882831E+03  0.32551882831E+03  0.00000000000E+00 0. -1.
         -1   -1    0    0    0  501 -0.00000000000E+00 -0.00000000000E+00 -0.42753494419E+02  0.42753494419E+02  0.00000000000E+00 0.  1.
         25    2    1    2    0    0 -0.21885966564E+02  0.70505551358E+02  0.14156690792E+03  0.20282393192E+03  0.12508528944E+03 0.  0.
          5    1    3    3  502    0 -0.46984715547E+02  0.18549096748E+02  0.86615087361E+00  0.50693738297E+02  0.41800000000E+01 0.  1.
         -5    1    3    3    0  502  0.25098748983E+02  0.51956454610E+02  0.14070075705E+03  0.15213019362E+03  0.41800000000E+01 0.  1.
        -11    1    1    2    0    0  0.79251663807E+01 -0.47995324035E+02  0.12564125040E+03  0.13472966708E+03  0.00000000000E+00 0. -1.
         11    1    1    2    0    0  0.13960800183E+02 -0.22510227322E+02  0.15557175575E+02  0.30718723732E+02  0.00000000000E+00 0.  1.
</event>
<event>
 7    1  0.2749315E-009  0.8688451E+02  0.7561462E-02  0.1310577E+00
          1   -1    0    0  501    0  0.00000000000E+00  0.00000000000E+00  0.11798138761E+03  0.11798138761E+03  0.00000000000E+00 0. -1.
         -1   -1    0    0    0  501 -0.00000000000E+00 -0.00000000000E+00 -0.12478238606E+03  0.12478238606E+03  0.00000000000E+00 0.  1.
         25    2    1    2    0    0 -0.57103653072E+01  0.23521416618E+02  0.46087032613E+02  0.13548675492E+03  0.12508709315E+03 0.  0.
          5    1    3    3  502    0  0.39148839038E+02  0.43664917388E+02 -0.11223425021E+02  0.59855611915E+02  0.41800000000E+01 0.  1.
         -5    1    3    3    0  502 -0.44859204345E+02 -0.20143500770E+02  0.57310457634E+02  0.75631143003E+02  0.41800000000E+01 0.  1.
        -11    1    1    2    0    0 -0.27480125427E+02 -0.61422232012E+01 -0.62541502353E+02  0.68588072694E+02  0.00000000000E+00 0.  1.
         11    1    1    2    0    0  0.33190490734E+02 -0.17379193417E+02  0.96534712902E+01  0.38688946056E+02  0.00000000000E+00 0. -1.
</event>
<event>
 7    1  0.2749315E-009  0.1143853E+03  0.7561462E-02  0.1252658E+00
         -2   -1    0    0    0  501 -0.00000000000E+00  0.00000000000E+00  0.17082790357E+03  0.17082790357E+03  0.00000000000E+00 0. -1.
          2   -1    0    0  501    0  0.00000000000E+00 -0.00000000000E+00 -0.13304649639E+03  0.13304649639E+03  0.00000000000E+00 0.  1.
         25    2    1    2    0    0 -0.54201697256E+02 -0.87587011169E+02  0.42599090078E+02  0.16755478055E+03  0.12510241204E+03 0.  0.
          5    1    3    3  502    0  0.15332525174E+01  0.11172947796E+02  0.52297325478E+02  0.53662540733E+02  0.41800000000E+01 0.  1.
         -5    1    3    3    0  502 -0.55734949774E+02 -0.98759958965E+02 -0.96982354003E+01  0.11389223982E+03  0.41800000000E+01 0.  1.
        -11    1    1    2    0    0  0.19680655504E+02  0.38713520763E+02  0.41945652103E+02  0.60377997825E+02  0.00000000000E+00 0. -1.
         11    1    1    2    0    0  0.34521041753E+02  0.48873490406E+02 -0.46763335002E+02  0.75941621583E+02  0.00000000000E+00 0.  1.
</event>
<event>
 7    1  0.2749315E-009  0.1253677E+03  0.7561462E-02  0.1234496E+00
          2   -1    0    0  501    0  0.00000000000E+00  0.00000000000E+00  0.61597108322E+03  0.61597108322E+03  0.00000000000E+00 0. -1.
         -2   -1    0    0    0  501 -0.00000000000E+00 -0.00000000000E+00 -0.37419327643E+02  0.37419327643E+02  0.00000000000E+00 0.  1.
         25    2    1    2    0    0  0.48250225673E+02 -0.49792286092E+02  0.47760443357E+03  0.49855805133E+03  0.12508708786E+03 0.  0.
          5    1    3    3  502    0 -0.37018753721E+02 -0.36909056394E+02  0.24240121883E+03  0.24800905198E+03  0.41800000000E+01 0. -1.
         -5    1    3    3    0  502  0.85268979394E+02 -0.12883229698E+02  0.23520321474E+03  0.25054899935E+03  0.41800000000E+01 0. -1.
        -11    1    1    2    0    0 -0.54657986152E+02 -0.67305214750E+01  0.26431388867E+02  0.61085298452E+02  0.00000000000E+00 0.  1.
         11    1    1    2    0    0  0.64077604795E+01  0.56522807567E+02  0.74515933141E+02  0.93747061082E+02  0.00000000000E+00 0. -1.
</event>
<event>
 7    1  0.2749315E-009  0.1103360E+03  0.7561462E-02  0.1259949E+00
          1   -1    0    0  501    0  0.00000000000E+00  0.00000000000E+00  0.52246189320E+03  0.52246189320E+03  0.00000000000E+00 0. -1.
         -1   -1    0    0    0  501 -0.00000000000E+00 -0.00000000000E+00 -0.26094240537E+02  0.26094240537E+02  0.00000000000E+00 0.  1.
         25    2    1    2    0    0 -0.14064667846E+02  0.39430836773E+02  0.31761485483E+03  0.34391641625E+03  0.12508676824E+03 0.  0.
          5    1    3    3  502    0  0.51696920818E+02  0.66484727335E+01  0.83650956403E+02  0.98649524676E+02  0.41800000000E+01 0.  1.
         -5    1    3    3    0  502 -0.65761588664E+02  0.32782364039E+02  0.23396389843E+03  0.24526689158E+03  0.41800000000E+01 0.  1.
        -11    1    1    2    0    0  0.23138033566E+02  0.22450961380E+02  0.33498335193E+02  0.46492501813E+02  0.00000000000E+00 0.  1.
         11    1    1    2    0    0 -0.90733657194E+01 -0.61881798153E+02  0.14525446264E+03  0.15814721567E+03  0.00000000000E+00 0. -1.
</event>
<event>
 7    1  0.2749315E-009  0.1060589E+03  0.7561462E-02  0.1268047E+00
          1   -1    0    0  501    0  0.00000000000E+00  0.00000000000E+00  0.27219661675E+03  0.27219661675E+03  0.00000000000E+00 0. -1.
         -1   -1    0    0    0  501 -0.00000000000E+00 -0.00000000000E+00 -0.63180973440E+02  0.63180973440E+02  0.00000000000E+00 0.  1.
         25    2    1    2    0    0  0.55275980839E+01 -0.40835508435E+02  0.36651722946E+02  0.13670908441E+03  0.12509169387E+03 0.  0.
          5    1    3    3  502    0  0.32984563979E+02 -0.68476573891E+02  0.54531476153E+02  0.93638544010E+02  0.41800000000E+01 0.  1.
         -5    1    3    3    0  502 -0.27456965895E+02  0.27641065456E+02 -0.17879753207E+02  0.43070540401E+02  0.41800000000E+01 0.  1.
        -11    1    1    2    0    0  0.40963868091E+02  0.14995334224E+02  0.97696579468E+02  0.10699308472E+03  0.00000000000E+00 0. -1.
         11    1    1    2    0    0 -0.46491466175E+02  0.25840174211E+02  0.74667340894E+02  0.91675421060E+02  0.00000000000E+00 0.  1.
</event>
<event>
 7    1  0.2749315E-009  0.1710095E+03  0.7561462E-02  0.1176799E+00
         -1   -1    0    0    0  501 -0.00000000000E+00  0.00000000000E+00  0.60984391804E+02  0.60984391804E+02  0.00000000000E+00 0.  1.
          1   -1    0    0  501    0  0.00000000000E+00 -0.00000000000E+00 -0.65810606860E+03  0.65810606860E+03  0.00000000000E+00 0. -1.
         25    2    1    2    0    0  0.43099363532E+02 -0.68641171773E+02 -0.93973325151E+02  0.17620485143E+03  0.12509195909E+03 0.  0.
          5    1    3    3  502    0 -0.38666787822E+02 -0.50988930948E+02 -0.29920553526E+02  0.70765129005E+02  0.41800000000E+01 0. -1.
         -5    1    3    3    0  502  0.81766151354E+02 -0.17652240825E+02 -0.64052771624E+02  0.10543972243E+03  0.41800000000E+01 0. -1.
        -11    1    1    2    0    0 -0.50926246151E+02 -0.52267054485E+02 -0.27551463610E+03  0.28501516142E+03  0.00000000000E+00 0. -1.
         11    1    1    2    0    0  0.78268826190E+01  0.12090822626E+03 -0.22763371554E+03  0.25787044755E+03  0.00000000000E+00 0.  1.
</event>
<event>
 7    1  0.2749315E-009  0.1285036E+03  0.7561462E-02  0.1229693E+00
          3   -1    0    0  501    0  0.00000000000E+00  0.00000000000E+00  0.20818112567E+03  0.20818112567E+03  0.00000000000E+00 0. -1.
         -3   -1    0    0    0  501 -0.00000000000E+00 -0.00000000000E+00 -0.10615373665E+03  0.10615373665E+03  0.00000000000E+00 0.  1.
         25    2    1    2    0    0 -0.12759370850E+02 -0.90484133699E+02 -0.15385413925E+01  0.15492557417E+03  0.12509750767E+03 0.  0.
          5    1    3    3  502    0 -0.15892060749E+02 -0.12063845391E+03 -0.12558661469E+02  0.12239847439E+03  0.41800000000E+01 0. -1.
         -5    1    3    3    0  502  0.31326898988E+01  0.30154320209E+02  0.11020120077E+02  0.32527099775E+02  0.41800000000E+01 0. -1.
        -11    1    1    2    0    0  0.18323831947E+02  0.50103382504E+01  0.60747370221E+02  0.63648325157E+02  0.00000000000E+00 0. -1.
         11    1    1    2    0    0 -0.55644610968E+01  0.85473795449E+02  0.42818560201E+02  0.95760962993E+02  0.00000000000E+00 0.  1.
</event>
<event>
 7    1  0.2749315E-009  0.1152857E+03  0.7561462E-02  0.1251083E+00
         -3   -1    0    0    0  501 -0.00000000000E+00  0.00000000000E+00  0.55393655093E+02  0.55393655093E+02  0.00000000000E+00 0.  1.
          3   -1    0    0  501    0  0.00000000000E+00 -0.00000000000E+00 -0.29910055870E+03  0.29910055870E+03  0.00000000000E+00 0. -1.
         25    2    1    2    0    0 -0.11125224296E+02  0.45219905320E+02 -0.96273097516E+02  0.16457141738E+03  0.12508649671E+03 0.  0.
          5    1    3    3  502    0  0.46183916812E+02  0.31863435363E+02 -0.57982068665E+01  0.56562569673E+02  0.41800000000E+01 0. -1.
         -5    1    3    3    0  502 -0.57309141108E+02  0.13356469957E+02 -0.90474890650E+02  0.10800884770E+03  0.41800000000E+01 0. -1.
        -11    1    1    2    0    0  0.56249440033E+02 -0.41760975382E+02 -0.63439833331E+02  0.94512385548E+02  0.00000000000E+00 0.  1.
         11    1    1    2    0    0 -0.45124215737E+02 -0.34589299383E+01 -0.83993972763E+02  0.95410410872E+02  0.00000000000E+00 0. -1.
</event>
<event>
 7    1  0.2749315E-009  0.1327406E+03  0.7561462E-02  0.1223445E+00
         -1   -1    0    0    0  501 -0.00000000000E+00  0.00000000000E+00  0.57712912590E+02  0.57712912590E+02  0.00000000000E+00 0.  1.
          1   -1    0    0  501    0  0.00000000000E+00 -0.00000000000E+00 -0.51137114841E+03  0.51137114841E+03  0.00000000000E+00 0. -1.
         25    2    1    2    0    0  0.66465003723E+02 -0.93627052293E+02 -0.12455996664E+03  0.21058636843E+03  0.12509121328E+03 0.  0.
          5    1    3    3  502    0  0.88232654110E+02 -0.87795431135E+02 -0.13647124565E+03  0.18475635921E+03  0.41800000000E+01 0.  1.
         -5    1    3    3    0  502 -0.21767650387E+02 -0.58316211588E+01  0.11911279012E+02  0.25830009222E+02  0.41800000000E+01 0.  1.
        -11    1    1    2    0    0 -0.65077761669E+02  0.74819921203E+02 -0.32418224267E+03  0.33900923606E+03  0.00000000000E+00 0. -1.
         11    1    1    2    0    0 -0.13872420538E+01  0.18807131090E+02 -0.49160265133E+01  0.19488456508E+02  0.00000000000E+00 0.  1.
</event>
<event>
 7    1  0.2749315E-009  0.2097221E+03  0.7561462E-02  0.1141786E+00
         -2   -1    0    0    0  501 -0.00000000000E+00  0.00000000000E+00  0.26312693849E+03  0.26312693849E+03  0.00000000000E+00 0.  1.
          2   -1    0    0  501    0  0.00000000000E+00 -0.00000000000E+00 -0.21115993570E+03  0.21115993570E+03  0.00000000000E+00 0. -1.
         25    2    1    2    0    0 -0.11387956513E+02 -0.17951538972E+03 -0.80656489059E+02  0.23346999404E+03  0.12508920092E+03 0.  0.
          5    1    3    3  502    0 -0.67550371881E+02 -0.86153990663E+02 -0.48343656959E+02  0.11975034203E+03  0.41800000000E+01 0. -1.
         -5    1    3    3    0  502  0.56162415367E+02 -0.93361399059E+02 -0.32312832101E+02  0.11371965201E+03  0.41800000000E+01 0. -1.
        -11    1    1    2    0    0 -0.29634997110E+02  0.14266285698E+03  0.91967101957E+02  0.17230458977E+03  0.00000000000E+00 0. -1.
         11    1    1    2    0    0  0.41022953624E+02  0.36852532747E+02  0.40656389896E+02  0.68512290381E+02  0.00000000000E+00 0.  1.
</event>
<event>
 7    1  0.2749315E-009  0.1665216E+03  0.7561462E-02  0.1181525E+00
         -1   -1    0    0    0  501 -0.00000000000E+00  0.00000000000E+00  0.34936070068E+02  0.34936070068E+02  0.00000000000E+00 0.  1.
          1   -1    0    0  501    0  0.00000000000E+00 -0.00000000000E+00 -0.10231028132E+04  0.10231028132E+04  0.00000000000E+00 0. -1.
         25    2    1    2    0    0  0.31195019363E+01 -0.14598946961E+03 -0.37452117792E+03  0.42099287679E+03  0.12508490344E+03 0.  0.
          5    1    3    3  502    0  0.37519336564E+02 -0.12539287698E+03 -0.18151545801E+03  0.22382226902E+03  0.41800000000E+01 0. -1.
         -5    1    3    3    0  502 -0.34399834628E+02 -0.20596592631E+02 -0.19300571991E+03  0.19717060777E+03  0.41800000000E+01 0. -1.
        -11    1    1    2    0    0 -0.34830760853E+02  0.52028418466E+02 -0.34599879603E+03  0.35161812394E+03  0.00000000000E+00 0. -1.
         11    1    1    2    0    0  0.31711258917E+02  0.93961051146E+02 -0.26764676920E+03  0.28542788255E+03  0.00000000000E+00 0.  1.
</event>
<event>
 7    1  0.2749315E-009  0.9029653E+02  0.7561462E-02  0.1302135E+00
          4   -1    0    0  501    0  0.00000000000E+00  0.00000000000E+00  0.16223333804E+03  0.16223333804E+03  0.00000000000E+00 0. -1.
         -4   -1    0    0    0  501 -0.00000000000E+00 -0.00000000000E+00 -0.98455545624E+02  0.98455545624E+02  0.00000000000E+00 0.  1.
         25    2    1    2    0    0  0.32675643577E+02 -0.13379983380E+02 -0.18343924692E+02  0.13126536089E+03  0.12508946301E+03 0.  0.
          5    1    3    3  502    0  0.16046230693E+02  0.31423971201E+02 -0.58673213657E+02  0.68592753891E+02  0.41800000000E+01 0.  1.
         -5    1    3    3    0  502  0.16629412884E+02 -0.44803954581E+02  0.40329288965E+02  0.62672606994E+02  0.41800000000E+01 0.  1.
        -11    1    1    2    0    0 -0.22006909828E+02  0.52295919006E+02  0.62959351180E+02  0.84752859101E+02  0.00000000000E+00 0. -1.
         11    1    1    2    0    0 -0.10668733749E+02 -0.38915935626E+02  0.19162365928E+02  0.44670663678E+02  0.00000000000E+00 0.  1.
</event>
<event>
 7    1  0.2749315E-009  0.8516459E+02  0.7561462E-02  0.1315003E+00
         -3   -1    0    0    0  501 -0.00000000000E+00  0.00000000000E+00  0.27797399619E+03  0.27797399619E+03  0.00000000000E+00 0.  1.
          3   -1    0    0  501    0  0.00000000000E+00 -0.00000000000E+00 -0.45278691010E+02  0.45278691010E+02  0.00000000000E+00 0. -1.
         25    2    1    2    0    0  0.18477397269E+02  0.21101473687E+02  0.15482262365E+03  0.20100816835E+03  0.12509017766E+03 0.  0.
          5    1    3    3  502    0 -0.28217617732E+02 -0.15541496557E+02 -0.27247606047E+01  0.32598600983E+02  0.41800000000E+01 0.  1.
         -5    1    3    3    0  502  0.46695015000E+02  0.36642970244E+02  0.15754738425E+03  0.16840956736E+03  0.41800000000E+01 0.  1.
        -11    1    1    2    0    0  0.97656336710E+01 -0.42055451160E+02  0.78434596352E+01  0.43881071458E+02  0.00000000000E+00 0. -1.
         11    1    1    2    0    0 -0.28243030940E+02  0.20953977472E+02  0.70029221898E+02  0.78363447399E+02  0.00000000000E+00 0.  1.
</event>
<event>
 7    1  0.2749315E-009  0.1195201E+03  0.7561462E-02  0.1243891E+00
         -2   -1    0    0    0  501 -0.00000000000E+00  0.00000000000E+00  0.13872662302E+03  0.13872662302E+03  0.00000000000E+00 0.  1.
          2   -1    0    0  501    0  0.00000000000E+00 -0.00000000000E+00 -0.15088538097E+03  0.15088538097E+03  0.00000000000E+00 0. -1.
         25    2    1    2    0    0 -0.13377203614E+02 -0.86700049886E+02 -0.47055298988E+02  0.15986176278E+03  0.12508290774E+03 0.  0.
          5    1    3    3  502    0  0.32276336405E+02 -0.61636560687E+02  0.22160636117E+02  0.73139549480E+02  0.41800000000E+01 0.  1.
         -5    1    3    3    0  502 -0.45653540018E+02 -0.25063489199E+02 -0.69215935106E+02  0.86722213299E+02  0.41800000000E+01 0.  1.
        -11    1    1    2    0    0  0.39335854565E+02  0.81669376908E+02  0.63976912690E+01  0.90874237452E+02  0.00000000000E+00 0. -1.
         11    1    1    2    0    0 -0.25958650951E+02  0.50306729780E+01  0.28498849771E+02  0.38876003757E+02  0.00000000000E+00 0.  1.
</event>
<event>
 7    1  0.2749315E-009  0.1033321E+03  0.7561462E-02  0.1273441E+00
         -2   -1    0    0    0  501 -0.00000000000E+00  0.00000000000E+00  0.25016165570E+03  0.25016165570E+03  0.00000000000E+00 0.  1.
          2   -1    0    0  501    0  0.00000000000E+00 -0.00000000000E+00 -0.74280365446E+02  0.74280365446E+02  0.00000000000E+00 0. -1.
         25    2    1    2    0    0  0.57099196989E+02 -0.27488436264E+02  0.15921803138E+03  0.21216305609E+03  0.12508736319E+03 0.  0.
          5    1    3    3  502    0 -0.32135045704E+02  0.23356443562E+01  0.71090409912E+01  0.33258491559E+02  0.41800000000E+01 0. -1.
         -5    1    3    3    0  502  0.89234242692E+02 -0.29824080620E+02  0.15210899039E+03  0.17890456453E+03  0.41800000000E+01 0. -1.
        -11    1    1    2    0    0 -0.64119613765E+02  0.15284446149E+02  0.45563990520E+02  0.80131244815E+02  0.00000000000E+00 0.  1.
         11    1    1    2    0    0  0.70204167761E+01  0.12203990115E+02 -0.28900731651E+02  0.32147720236E+02  0.00000000000E+00 0. -1.
</event>
<event>
 7    1  0.2749315E-009  0.8088204E+02  0.7561462E-02  0.1326567E+00
         -1   -1    0    0    0  501 -0.00000000000E+00  0.00000000000E+00  0.42583399194E+03  0.42583399194E+03  0.00000000000E+00 0.  1.
          1   -1    0    0  501    0  0.00000000000E+00 -0.00000000000E+00 -0.35470534802E+02  0.35470534802E+02  0.00000000000E+00 0. -1.
         25    2    1    2    0    0 -0.75601209456E+01 -0.18798561087E+02  0.32308224119E+03  0.34704546197E+03  0.12509147364E+03 0.  0.
          5    1    3    3  502    0 -0.65241115801E+02 -0.97222071104E+00  0.18742438064E+03  0.19850118201E+03  0.41800000000E+01 0. -1.
         -5    1    3    3    0  502  0.57680994856E+02 -0.17826340376E+02  0.13565786055E+03  0.14854427996E+03  0.41800000000E+01 0. -1.
        -11    1    1    2    0    0 -0.76211036574E+01  0.19221804569E+02  0.86969542687E+02  0.89393849604E+02  0.00000000000E+00 0.  1.
         11    1    1    2    0    0  0.15181224603E+02 -0.42324348271E+00 -0.19688326737E+02  0.24865215165E+02  0.00000000000E+00 0. -1.
</event>
<event>
 7    1  0.2749315E-009  0.2098075E+03  0.7561462E-02  0.1141719E+00
         -2   -1    0    0    0  501 -0.00000000000E+00  0.00000000000E+00  0.37303995790E+03  0.37303995790E+03  0.00000000000E+00 0.  1.
          2   -1    0    0  501    0  0.00000000000E+00 -0.00000000000E+00 -0.38668730579E+03  0.38668730579E+03  0.00000000000E+00 0. -1.
         25    2    1    2    0    0  0.17471168740E+03  0.10889336887E+03 -0.30677677224E+03  0.39005255848E+03  0.12508825241E+03 0.  0.
          5    1    3    3  502    0  0.57620720132E+02  0.35305049122E+02 -0.21147324215E+03  0.22204728872E+03  0.41800000000E+01 0.  1.
         -5    1    3    3    0  502  0.11709096727E+03  0.73588319753E+02 -0.95303530097E+02  0.16800526977E+03  0.41800000000E+01 0.  1.
        -11    1    1    2    0    0 -0.12020199264E+03 -0.42152504332E+02  0.11419932122E+03  0.17107553193E+03  0.00000000000E+00 0. -1.
         11    1    1    2    0    0 -0.54509694762E+02 -0.66740864543E+02  0.17893010313E+03  0.19859917328E+03  0.00000000000E+00 0.  1.
</event>
<event>
 7    1  0.2749315E-009  0.1238129E+03  0.7561462E-02  0.1236936E+00
          1   -1    0    0  501    0  0.00000000000E+00  0.00000000000E+00  0.17449766557E+02  0.17449766557E+02  0.00000000000E+00 0. -1.
         -1   -1    0    0    0  501 -0.00000000000E+00 -0.00000000000E+00 -0.93610302497E+03  0.93610302497E+03  0.00000000000E+00 0.  1.
         25    2    1    2    0    0  0.42825058823E+02 -0.41050567775E+02 -0.39988688578E+03  0.42317415194E+03  0.12509079371E+03 0.  0.
          5    1    3    3  502    0  0.86377995689E+02 -0.19886305119E+02 -0.28297790504E+03  0.29656464794E+03  0.41800000000E+01 0. -1.
         -5    1    3    3    0  502 -0.43552936866E+02 -0.21164262655E+02 -0.11690898074E+03  0.12660950399E+03  0.41800000000E+01 0. -1.
        -11    1    1    2    0    0 -0.46460824581E+02 -0.18949465969E+02 -0.24670594991E+03  0.25175685930E+03  0.00000000000E+00 0.  1.
         11    1    1    2    0    0  0.36357657583E+01  0.60000033743E+02 -0.27206042272E+03  0.27862178029E+03  0.00000000000E+00 0. -1.
</event>
<event>
 7    1  0.2749315E-009  0.4107502E+03  0.7561462E-02  0.1040120E+00
         -2   -1    0    0    0  501 -0.00000000000E+00  0.00000000000E+00  0.29419936234E+03  0.29419936234E+03  0.00000000000E+00 0. -1.
          2   -1    0    0  501    0  0.00000000000E+00 -0.00000000000E+00 -0.63446003745E+03  0.63446003745E+03  0.00000000000E+00 0.  1.
         25    2    1    2    0    0 -0.27100187781E+03 -0.30247773413E+03 -0.67145441983E+02  0.43022169013E+03  0.12508954737E+03 0.  0.
          5    1    3    3  502    0 -0.26811089596E+03 -0.30043125795E+03 -0.84984070403E+02  0.41156063698E+03  0.41800000000E+01 0. -1.
         -5    1    3    3    0  502 -0.28909818485E+01 -0.20464761716E+01  0.17838628420E+02  0.18661053150E+02  0.41800000000E+01 0. -1.
        -11    1    1    2    0    0  0.11160865853E+03  0.70984618154E+02 -0.57636689040E+02  0.14428200371E+03  0.00000000000E+00 0. -1.
         11    1    1    2    0    0  0.15939321928E+03  0.23149311597E+03 -0.21547854408E+03  0.35415570595E+03  0.00000000000E+00 0.  1.
</event>
<event>
 7    1  0.2749315E-009  0.1043650E+03  0.7561462E-02  0.1271376E+00
         -2   -1    0    0    0  501 -0.00000000000E+00  0.00000000000E+00  0.30604281038E+02  0.30604281038E+02  0.00000000000E+00 0.  1.
          2   -1    0    0  501    0  0.00000000000E+00 -0.00000000000E+00 -0.55505742247E+03  0.55505742247E+03  0.00000000000E+00 0. -1.
         25    2    1    2    0    0 -0.35744979201E+02 -0.16782573907E+02 -0.42564245569E+03  0.44539755007E+03  0.12509244263E+03 0.  0.
          5    1    3    3  502    0 -0.40261768735E+02 -0.68225784164E+02 -0.26265001939E+03  0.27436886254E+03  0.41800000000E+01 0.  1.
         -5    1    3    3    0  502  0.45167895336E+01  0.51443210258E+02 -0.16299243629E+03  0.17102868753E+03  0.41800000000E+01 0.  1.
        -11    1    1    2    0    0  0.46734700106E+02  0.33558370923E+02 -0.10460939732E+03  0.11938769811E+03  0.00000000000E+00 0. -1.
         11    1    1    2    0    0 -0.10989720905E+02 -0.16775797016E+02  0.57987115699E+01  0.20876455326E+02  0.00000000000E+00 0.  1.
</event>
<event>
 7    1  0.2749315E-009  0.7489282E+02  0.7561462E-02  0.1344203E+00
          2   -1    0    0  501    0  0.00000000000E+00  0.00000000000E+00  0.10854858581E+04  0.10854858581E+04  0.00000000000E+00 0.  1.
         -2   -1    0    0    0  501 -0.00000000000E+00 -0.00000000000E+00 -0.13101835951E+02  0.13101835951E+02  0.00000000000E+00 0. -1.
         25    2    1    2    0    0 -0.16789757934E+02  0.37848050713E+02  0.73675107434E+03  0.74844100163E+03  0.12508963372E+03 0.  0.
          5    1    3    3  502    0  0.71164909460E+01  0.19635071081E+02  0.14996639263E+02  0.26049031631E+02  0.41800000000E+01 0. -1.
         -5    1    3    3    0  502 -0.23906248880E+02  0.18212979631E+02  0.72175443508E+03  0.72239197000E+03  0.41800000000E+01 0. -1.
        -11    1    1    2    0    0  0.48372995259E+02  0.61262035269E+00  0.19695762079E+03  0.20281180035E+03  0.00000000000E+00 0.  1.
         11    1    1    2    0    0 -0.31583237325E+02 -0.38460671065E+02  0.13867532706E+03  0.14733489211E+03  0.00000000000E+00 0. -1.
</event>
<event>
 7    1  0.2749315E-009  0.9763875E+02  0.7561462E-02  0.1285341E+00
          1   -1    0    0  501    0  0.00000000000E+00  0.00000000000E+00  0.67806721427E+03  0.67806721427E+03  0.00000000000E+00 0. -1.
         -1   -1    0    0    0  501 -0.00000000000E+00 -0.00000000000E+00 -0.29781197142E+02  0.29781197142E+02  0.00000000000E+00 0.  1.
         25    2    1    2    0    0  0.53819632457E+02 -0.92521854649E+01  0.55176593645E+03  0.56839781542E+03  0.12509305405E+03 0.  0.
          5    1    3    3  502    0  0.13084280145E+02  0.53348937745E+02  0.32434787602E+03  0.32899289449E+03  0.41800000000E+01 0.  1.
         -5    1    3    3    0  502  0.40735352312E+02 -0.62601123210E+02  0.22741806044E+03  0.23940492094E+03  0.41800000000E+01 0.  1.
        -11    1    1    2    0    0 -0.33600406482E+02 -0.12347608239E+02  0.10310286374E+03  0.10914051153E+03  0.00000000000E+00 0. -1.
         11    1    1    2    0    0 -0.20219225975E+02  0.21599793703E+02 -0.65827830687E+01  0.30310084460E+02  0.00000000000E+00 0.  1.
</event>
<event>
 7    1  0.2749315E-009  0.1597306E+03  0.7561462E-02  0.1189001E+00
         -1   -1    0    0    0  501 -0.00000000000E+00  0.00000000000E+00  0.32282720001E+03  0.32282720001E+03  0.00000000000E+00 0.  1.
          1   -1    0    0  501    0  0.00000000000E+00 -0.00000000000E+00 -0.17935305582E+03  0.17935305582E+03  0.00000000000E+00 0. -1.
         25    2    1    2    0    0  0.10942013553E+01 -0.13778199404E+03 -0.97852465148E+02  0.21025640662E+03  0.12509027312E+03 0.  0.
          5    1    3    3  502    0  0.20097246245E+02  0.13301425017E+02 -0.40842281258E+02  0.47606633492E+02  0.41800000000E+01 0. -1.
         -5    1    3    3    0  502 -0.19003044889E+02 -0.15108341906E+03 -0.57010183890E+02  0.16264977312E+03  0.41800000000E+01 0. -1.
        -11    1    1    2    0    0 -0.14266566637E+02  0.11827267657E+03  0.24047828694E+03  0.26836871546E+03  0.00000000000E+00 0.  1.
         11    1    1    2    0    0  0.13172365282E+02  0.19509317473E+02  0.84832240025E+00  0.23555133757E+02  0.00000000000E+00 0. -1.
</event>
<event>
 7    1  0.2749315E-009  0.1289305E+03  0.7561462E-02  0.1229051E+00
         -2   -1    0    0    0  501 -0.00000000000E+00  0.00000000000E+00  0.90112897204E+02  0.90112897204E+02  0.00000000000E+00 0.  1.
          2   -1    0    0  501    0  0.00000000000E+00 -0.00000000000E+00 -0.24750950536E+03  0.24750950536E+03  0.00000000000E+00 0. -1.
         25    2    1    2    0    0  0.32150298822E+02 -0.76973818202E+02 -0.15118207192E+03  0.21322059380E+03  0.12509353439E+03 0.  0.
          5    1    3    3  502    0 -0.53691929148E+01 -0.10162739768E+03 -0.12439600479E+03  0.16077560325E+03  0.41800000000E+01 0.  1.
         -5    1    3    3    0  502  0.37519491737E+02  0.24653579482E+02 -0.26786067128E+02  0.52444990548E+02  0.41800000000E+01 0.  1.
        -11    1    1    2    0    0 -0.50418931275E+01  0.82995238923E+02 -0.29433945932E+02  0.88204237672E+02  0.00000000000E+00 0. -1.
         11    1    1    2    0    0 -0.27108405695E+02 -0.60214207213E+01  0.23219409692E+02  0.36197571096E+02  0.00000000000E+00 0.  1.
</event>
<event>
 7    1  0.2749315E-009  0.1412442E+03  0.7561462E-02  0.1211665E+00
         -2   -1    0    0    0  501 -0.00000000000E+00  0.00000000000E+00  0.35871909267E+02  0.35871909267E+02  0.00000000000E+00 0.  1.
          2   -1    0    0  501    0  0.00000000000E+00 -0.00000000000E+00 -0.81035877211E+03  0.81035877211E+03  0.00000000000E+00 0. -1.
         25    2    1    2    0    0 -0.10524790253E+03 -0.13630978045E+02 -0.60312203206E+03  0.62503331526E+03  0.12509010782E+03 0.  0.
          5    1    3    3  502    0 -0.57474833070E+02  0.46204318098E+02 -0.42094054675E+03  0.42737174889E+03  0.41800000000E+01 0. -1.
         -5    1    3    3    0  502 -0.47773069456E+02 -0.59835296143E+02 -0.18218148531E+03  0.19766156637E+03  0.41800000000E+01 0. -1.
        -11    1    1    2    0    0  0.87733963533E+02  0.43034667091E+02 -0.89685205179E+02  0.13263735129E+03  0.00000000000E+00 0.  1.
         11    1    1    2    0    0  0.17513938992E+02 -0.29403689046E+02 -0.81679625597E+02  0.88560014827E+02  0.00000000000E+00 0. -1.
</event>
<event>
 7    1  0.2749315E-009  0.1163712E+03  0.7561462E-02  0.1249206E+00
         -2   -1    0    0    0  501 -0.00000000000E+00  0.00000000000E+00  0.13460367737E+02  0.13460367737E+02  0.00000000000E+00 0.  1.
          2   -1    0    0  501    0  0.00000000000E+00 -0.00000000000E+00 -0.11085671834E+04  0.11085671834E+04  0.00000000000E+00 0. -1.
         25    2    1    2    0    0  0.24266103916E+02  0.35625647956E+02 -0.74430273845E+03  0.75597053986E+03  0.12508740978E+03 0.  0.
          5    1    3    3  502    0  0.72710033465E+02  0.89748757452E+01 -0.33598202549E+03  0.34390215354E+03  0.41800000000E+01 0. -1.
         -5    1    3    3    0  502 -0.48443929549E+02  0.26650772210E+02 -0.40832071296E+03  0.41206838632E+03  0.41800000000E+01 0. -1.
        -11    1    1    2    0    0 -0.51187019848E+02 -0.51540263405E+02 -0.26312968342E+03  0.27297204994E+03  0.00000000000E+00 0.  1.
         11    1    1    2    0    0  0.26920915932E+02  0.15914615450E+02 -0.87674393817E+02  0.93084961357E+02  0.00000000000E+00 0. -1.
</event>
<event>
 7    1  0.4179365E-009  0.1645999E+03  0.7561462E-02  0.1183599E+00
          1   -1    0    0  501    0  0.00000000000E+00  0.00000000000E+00  0.81750072373E+03  0.81750072373E+03  0.00000000000E+00 0. -1.
         -1   -1    0    0    0  501 -0.00000000000E+00 -0.00000000000E+00 -0.49685768014E+02  0.49685768014E+02  0.00000000000E+00 0.  1.
         25    2    1    2    0    0 -0.48123319187E+02 -0.14509898743E+03  0.24324447777E+03  0.31334530123E+03  0.12509129398E+03 0.  0.
          5    1    3    3  502    0 -0.22543914968E+02 -0.29913364293E+01 -0.72090216710E+01  0.24220210345E+02  0.41800000000E+01 0.  1.
         -5    1    3    3    0  502 -0.25579404219E+02 -0.14210765100E+03  0.25045349944E+03  0.28912509088E+03  0.41800000000E+01 0.  1.
        -11    1    1    2    0    0 -0.54044517180E+01  0.65379148084E+02  0.10813638437E+03  0.12647971666E+03  0.00000000000E+00 0.  1.
         11    1    1    2    0    0  0.53527770905E+02  0.79719839348E+02  0.41643409357E+03  0.42736147385E+03  0.00000000000E+00 0. -1.
</event>
<event>
 7    1  0.2749315E-009  0.1404496E+03  0.7561462E-02  0.1212725E+00
          1   -1    0    0  501    0  0.00000000000E+00  0.00000000000E+00  0.69324014571E+03  0.69324014571E+03  0.00000000000E+00 0. -1.
         -1   -1    0    0    0  501 -0.00000000000E+00 -0.00000000000E+00 -0.50105892155E+02  0.50105892155E+02  0.00000000000E+00 0.  1.
         25    2    1    2    0    0 -0.49292241862E+02  0.11174057425E+03  0.51046730213E+03  0.53957347208E+03  0.12508790584E+03 0.  0.
          5    1    3    3  502    0 -0.45327773501E+02  0.54737856483E+02  0.87778054760E+02  0.11301902176E+03  0.41800000000E+01 0.  1.
         -5    1    3    3    0  502 -0.39644683610E+01  0.57002717768E+02  0.42268924737E+03  0.42655445032E+03  0.41800000000E+01 0.  1.
        -11    1    1    2    0    0  0.72516232940E+02 -0.54720341614E+02  0.95730866506E+02  0.13197468935E+03  0.00000000000E+00 0. -1.
         11    1    1    2    0    0 -0.23223991078E+02 -0.57020232637E+02  0.36936084912E+02  0.71797876432E+02  0.00000000000E+00 0.  1.
</event>
<event>
 7    1  0.2749315E-009  0.7703025E+02  0.7561462E-02  0.1337697E+00
          2   -1    0    0  501    0  0.00000000000E+00  0.00000000000E+00  0.67922216634E+03  0.67922216634E+03  0.00000000000E+00 0. -1.
         -2   -1    0    0    0  501 -0.00000000000E+00 -0.00000000000E+00 -0.19336954189E+02  0.19336954189E+02  0.00000000000E+00 0.  1.
         25    2    1    2    0    0  0.46420955747E+02  0.19919203394E+01  0.40825359188E+03  0.42950822386E+03  0.12508975259E+03 0.  0.
          5    1    3    3  502    0  0.50674274591E+02  0.67918938840E+01  0.51557689318E+02  0.72730183938E+02  0.41800000000E+01 0.  1.
         -5    1    3    3    0  502 -0.42533188440E+01 -0.47999735446E+01  0.35669590256E+03  0.35677803992E+03  0.41800000000E+01 0.  1.
        -11    1    1    2    0    0  0.26063799214E+01 -0.35581687131E+02  0.10125217074E+03  0.10735386232E+03  0.00000000000E+00 0. -1.
         11    1    1    2    0    0 -0.49027335669E+02  0.33589766791E+02  0.15037944953E+03  0.16169703435E+03  0.00000000000E+00 0.  1.
</event>
<event>
 7    1  0.2749315E-009  0.1003354E+03  0.7561462E-02  0.1279592E+00
          1   -1    0    0  501    0  0.00000000000E+00  0.00000000000E+00  0.12599902438E+03  0.12599902438E+03  0.00000000000E+00 0. -1.
         -1   -1    0    0    0  501 -0.00000000000E+00 -0.00000000000E+00 -0.10463777552E+03  0.10463777552E+03  0.00000000000E+00 0.  1.
         25    2    1    2    0    0 -0.36228286367E+01 -0.21326906968E+02 -0.18972750444E+02  0.12835459517E+03  0.12508786909E+03 0.  0.
          5    1    3    3  502    0 -0.11211997181E+02  0.44363617310E+02  0.21480757744E+02  0.50722132988E+02  0.41800000000E+01 0. -1.
         -5    1    3    3    0  502  0.75891685441E+01 -0.65690524277E+02 -0.40453508188E+02  0.77632462177E+02  0.41800000000E+01 0. -1.
        -11    1    1    2    0    0  0.33527629478E+02 -0.18783580879E+02  0.67158870783E+00  0.38436647623E+02  0.00000000000E+00 0.  1.
         11    1    1    2    0    0 -0.29904800842E+02  0.40110487847E+02  0.39662410591E+02  0.63845557109E+02  0.00000000000E+00 0. -1.
</event>
<event>
 7    1  0.2749315E-009  0.1024825E+03  0.7561462E-02  0.1275160E+00
         -2   -1    0    0    0  501 -0.00000000000E+00  0.00000000000E+00  0.80305929225E+02  0.80305929225E+02  0.00000000000E+00 0. -1.
          2   -1    0    0  501    0  0.00000000000E+00 -0.00000000000E+00 -0.24910508701E+03  0.24910508701E+03  0.00000000000E+00 0.  1.
         25    2    1    2    0    0  0.26270222383E+02 -0.28027942005E+02  0.36348362917E+01  0.13090882060E+03  0.12509283416E+03 0.  0.
          5    1    3    3  502    0  0.60039856623E+02 -0.38836499673E+02  0.38232575760E+02  0.81192735755E+02  0.41800000000E+01 0.  1.
         -5    1    3    3    0  502 -0.33769634240E+02  0.10808557668E+02 -0.34597739468E+02  0.49716084841E+02  0.41800000000E+01 0.  1.
        -11    1    1    2    0    0 -0.59527862384E+02  0.12038415781E+02 -0.95496427819E+02  0.11317268920E+03  0.00000000000E+00 0. -1.
         11    1    1    2    0    0  0.33257640001E+02  0.15989526224E+02 -0.76937566253E+02  0.85329506434E+02  0.00000000000E+00 0.  1.
</event>
<event>
 7    1  0.2749315E-009  0.2746348E+03  0.7561462E-02  0.1098656E+00
          1   -1    0    0  501    0  0.00000000000E+00  0.00000000000E+00  0.43842117825E+03  0.43842117825E+03  0.00000000000E+00 0. -1.
         -1   -1    0    0    0  501 -0.00000000000E+00 -0.00000000000E+00 -0.25407349829E+03  0.25407349829E+03  0.00000000000E+00 0.  1.
         25    2    1    2    0    0 -0.12868445477E+03 -0.22593969635E+03 -0.91437165755E+02  0.30268409594E+03  0.12509385025E+03 0.  0.
          5    1    3    3  502    0 -0.13903800198E+03 -0.12866584990E+03 -0.47386951839E+02  0.19531887397E+03  0.41800000000E+01 0. -1.
         -5    1    3    3    0  502  0.10353547211E+02 -0.97273846448E+02 -0.44050213916E+02  0.10736522197E+03  0.41800000000E+01 0. -1.
        -11    1    1    2    0    0  0.40781117035E+02  0.10266587337E+03  0.17826189299E+03  0.20971572081E+03  0.00000000000E+00 0. -1.
         11    1    1    2    0    0  0.87903337738E+02  0.12327382298E+03  0.97522952726E+02  0.18009485980E+03  0.00000000000E+00 0.  1.
</event>
<event>
 7    1  0.2749315E-009  0.7464133E+02  0.7561462E-02  0.1344985E+00
          3   -1    0    0  501    0  0.00000000000E+00  0.00000000000E+00  0.10528663089E+03  0.10528663089E+03  0.00000000000E+00 0. -1.
         -3   -1    0    0    0  501 -0.00000000000E+00 -0.00000000000E+00 -0.16611567166E+03  0.16611567166E+03  0.00000000000E+00 0.  1.
         25    2    1    2    0    0  0.43899192925E+02 -0.14758361999E+02  0.28434882689E+02  0.13638472669E+03  0.12508917912E+03 0.  0.
          5    1    3    3  502    0  0.33171602334E+02  0.19239838366E+02  0.70940884477E+02  0.80750282180E+02  0.41800000000E+01 0. -1.
         -5    1    3    3    0  502  0.10727590591E+02 -0.33998200365E+02 -0.42506001788E+02  0.55634444510E+02  0.41800000000E+01 0. -1.
        -11    1    1    2    0    0 -0.55612530470E+02 -0.45340457625E+00 -0.98954263692E+02  0.11351169730E+03  0.00000000000E+00 0. -1.
         11    1    1    2    0    0  0.11713337545E+02  0.15211766575E+02  0.96903402277E+01  0.21505878557E+02  0.00000000000E+00 0.  1.
</event>
<event>
 7    1  0.2749315E-009  0.7787133E+02  0.7561462E-02  0.1335203E+00
          1   -1    0    0  501    0  0.00000000000E+00  0.00000000000E+00  0.15091923091E+02  0.15091923091E+02  0.00000000000E+00 0. -1.
         -1   -1    0    0    0  501 -0.00000000000E+00 -0.00000000000E+00 -0.84013871106E+03  0.84013871106E+03  0.00000000000E+00 0.  1.
         25    2    1    2    0    0  0.54470290249E+01  0.25451367435E+02 -0.41913731171E+03  0.43817879112E+03  0.12508846744E+03 0.  0.
          5    1    3    3  502    0 -0.17547226269E+02  0.33563735319E+02 -0.41006071235E+03  0.41182725710E+03  0.41800000000E+01 0.  1.
         -5    1    3    3    0  502  0.22994255294E+02 -0.81123678838E+01 -0.90765993660E+01  0.26351534021E+02  0.41800000000E+01 0.  1.
        -11    1    1    2    0    0 -0.37617452933E+02  0.15617847434E+02 -0.22964673507E+03  0.23323081454E+03  0.00000000000E+00 0.  1.
         11    1    1    2    0    0  0.32170423908E+02 -0.41069214870E+02 -0.17626274118E+03  0.18382102848E+03  0.00000000000E+00 0. -1.
</event>
<event>
 7    1  0.2749315E-009  0.1211735E+03  0.7561462E-02  0.1241174E+00
         -2   -1    0    0    0  501 -0.00000000000E+00  0.00000000000E+00  0.15925839213E+03  0.15925839213E+03  0.00000000000E+00 0.  1.
          2   -1    0    0  501    0  0.00000000000E+00 -0.00000000000E+00 -0.98953828147E+02  0.98953828147E+02  0.00000000000E+00 0. -1.
         25    2    1    2    0    0  0.53005090492E+02  0.20631215454E+02  0.59811909169E+02  0.14986796064E+03  0.12509098480E+03 0.  0.
          5    1    3    3  502    0  0.25960953614E+02  0.72277785694E+02  0.46655752390E+02  0.89957106715E+02  0.41800000000E+01 0. -1.
         -5    1    3    3    0  502  0.27044136878E+02 -0.51646570240E+02  0.13156156778E+02  0.59910853926E+02  0.41800000000E+01 0. -1.
        -11    1    1    2    0    0 -0.58432311871E+02  0.23163675615E+02  0.87071978495E+01  0.63456333277E+02  0.00000000000E+00 0. -1.
         11    1    1    2    0    0  0.54272213789E+01 -0.43794891069E+02 -0.82145430331E+01  0.44887926360E+02  0.00000000000E+00 0.  1.
</event>
<event>
 7    1  0.2749315E-009  0.1868470E+03  0.7561462E-02  0.1161336E+00
          1   -1    0    0  501    0  0.00000000000E+00  0.00000000000E+00  0.78421435644E+02  0.78421435644E+02  0.00000000000E+00 0. -1.
         -1   -1    0    0    0  501 -0.00000000000E+00 -0.00000000000E+00 -0.57291327338E+03  0.57291327338E+03  0.00000000000E+00 0.  1.
         25    2    1    2    0    0 -0.11870458449E+03  0.10474377739E+03 -0.39640784202E+03  0.44480220907E+03  0.12509112959E+03 0.  0.
          5    1    3    3  502    0  0.36980799976E+01  0.61953774236E+02 -0.19971062809E+03  0.20917397857E+03  0.41800000000E+01 0.  1.
         -5    1    3    3    0  502 -0.12240266449E+03  0.42790003157E+02 -0.19669721393E+03  0.23562823051E+03  0.41800000000E+01 0.  1.
        -11    1    1    2    0    0  0.96246353781E+02 -0.25750239629E+02 -0.53979536441E+02  0.11331472019E+03  0.00000000000E+00 0. -1.
         11    1    1    2    0    0  0.22458230713E+02 -0.78993537763E+02 -0.44104459277E+02  0.93217779759E+02  0.00000000000E+00 0.  1.
</event>
<event>
 7    1  0.2749315E-009  0.1629484E+03  0.7561462E-02  0.1185408E+00
          2   -1    0    0  501    0  0.00000000000E+00  0.00000000000E+00  0.61627810068E+03  0.61627810068E+03  0.00000000000E+00 0. -1.
         -2   -1    0    0    0  501 -0.00000000000E+00 -0.00000000000E+00 -0.57008168771E+02  0.57008168771E+02  0.00000000000E+00 0.  1.
         25    2    1    2    0    0  0.14854900693E+03 -0.32282876278E+02  0.27871378800E+03  0.34123259438E+03  0.12509722733E+03 0.  0.
          5    1    3    3  502    0  0.10505964629E+03 -0.42387272706E+02  0.83141687694E+02  0.14058528656E+03  0.41800000000E+01 0.  1.
         -5    1    3    3    0  502  0.43489360644E+02  0.10104396428E+02  0.19557210031E+03  0.20064730782E+03  0.41800000000E+01 0.  1.
        -11    1    1    2    0    0 -0.19727127175E+02 -0.20520271105E+02  0.10048032842E+03  0.10443436920E+03  0.00000000000E+00 0. -1.
         11    1    1    2    0    0 -0.12882187975E+03  0.52803147383E+02  0.18007581549E+03  0.22761930586E+03  0.00000000000E+00 0.  1.
</event>
<event>
 7    1  0.2749315E-009  0.9897155E+02  0.7561462E-02  0.1282474E+00
          2   -1    0    0  501    0  0.00000000000E+00  0.00000000000E+00  0.66180002907E+02  0.66180002907E+02  0.00000000000E+00 0. -1.
         -2   -1    0    0    0  501 -0.00000000000E+00 -0.00000000000E+00 -0.19358488764E+03  0.19358488764E+03  0.00000000000E+00 0.  1.
         25    2    1    2    0    0  0.17318794171E+02 -0.26800154582E+02 -0.62682679053E+02  0.14351000907E+03  0.12509122884E+03 0.  0.
          5    1    3    3  502    0  0.44004811034E+02 -0.62737659332E+02 -0.61815560379E+02  0.98544777627E+02  0.41800000000E+01 0. -1.
         -5    1    3    3    0  502 -0.26686016862E+02  0.35937504750E+02 -0.86711867485E+00  0.44965231440E+02  0.41800000000E+01 0. -1.
        -11    1    1    2    0    0 -0.11097522925E+02 -0.23272398978E+02  0.86606719230E+01  0.27198654515E+02  0.00000000000E+00 0. -1.
         11    1    1    2    0    0 -0.62212712464E+01  0.50072553560E+02 -0.73382877602E+02  0.89056226964E+02  0.00000000000E+00 0.  1.
</event>
<event>
 7    1  0.2749315E-009  0.9074044E+02  0.7561462E-02  0.1301068E+00
         -1   -1    0    0    0  501 -0.00000000000E+00  0.00000000000E+00  0.44684388705E+03  0.44684388705E+03  0.00000000000E+00 0.  1.
          1   -1    0    0  501    0  0.00000000000E+00 -0.00000000000E+00 -0.29956352699E+02  0.29956352699E+02  0.00000000000E+00 0. -1.
         25    2    1    2    0    0  0.37826873104E+02 -0.28573717608E+01  0.19168007225E+03  0.23200940992E+03  0.12509228311E+03 0.  0.
          5    1    3    3  502    0  0.51654688238E+02 -0.36537144351E+02  0.18392833258E+03  0.19455146790E+03  0.41800000000E+01 0. -1.
         -5    1    3    3    0  502 -0.13827815134E+02  0.33679772591E+02  0.77517396687E+01  0.37457942029E+02  0.41800000000E+01 0. -1.
        -11    1    1    2    0    0 -0.23313982894E+02  0.37335694209E+02  0.54614044837E+02  0.70144064282E+02  0.00000000000E+00 0. -1.
         11    1    1    2    0    0 -0.14512890210E+02 -0.34478322448E+02  0.17059341726E+03  0.17464676554E+03  0.00000000000E+00 0.  1.
</event>
<event>
 7    1  0.2749315E-009  0.9675344E+02  0.7561462E-02  0.1287275E+00
          1   -1    0    0  501    0  0.00000000000E+00  0.00000000000E+00  0.26021472847E+02  0.26021472847E+02  0.00000000000E+00 0. -1.
         -1   -1    0    0    0  501 -0.00000000000E+00 -0.00000000000E+00 -0.49620820753E+03  0.49620820753E+03  0.00000000000E+00 0.  1.
         25    2    1    2    0    0 -0.65840452126E+01  0.37222134757E+02 -0.29455837290E+03  0.32224172156E+03  0.12508499151E+03 0.  0.
          5    1    3    3  502    0 -0.43980882536E+02 -0.11630517816E+02 -0.41303898418E+02  0.61587916005E+02  0.41800000000E+01 0. -1.
         -5    1    3    3    0  502  0.37396837323E+02  0.48852652573E+02 -0.25325447448E+03  0.26065380555E+03  0.41800000000E+01 0. -1.
        -11    1    1    2    0    0  0.19524514074E+02  0.19727741850E+02 -0.21324383113E+02  0.35001710865E+02  0.00000000000E+00 0. -1.
         11    1    1    2    0    0 -0.12940468861E+02 -0.56949876607E+02 -0.15430397867E+03  0.16498624796E+03  0.00000000000E+00 0.  1.
</event>
<event>
 7    1  0.2749315E-009  0.1288651E+03  0.7561462E-02  0.1229149E+00
          2   -1    0    0  501    0  0.00000000000E+00  0.00000000000E+00  0.13529295378E+03  0.13529295378E+03  0.00000000000E+00 0. -1.
         -2   -1    0    0    0  501 -0.00000000000E+00 -0.00000000000E+00 -0.17207260187E+03  0.17207260187E+03  0.00000000000E+00 0.  1.
         25    2    1    2    0    0  0.18485870485E+02 -0.91767615418E+02  0.33035277852E+02  0.15969439145E+03  0.12509175205E+03 0.  0.
          5    1    3    3  502    0  0.66094798262E+02 -0.71136011805E+02 -0.15372119050E+01  0.97204372090E+02  0.41800000000E+01 0. -1.
         -5    1    3    3    0  502 -0.47608927777E+02 -0.20631603613E+02  0.34572489757E+02  0.62490019361E+02  0.41800000000E+01 0. -1.
        -11    1    1    2    0    0 -0.16192801617E+02 -0.48656597247E+00  0.15187553182E+02  0.22205975374E+02  0.00000000000E+00 0. -1.
         11    1    1    2    0    0 -0.22930688677E+01  0.92254181390E+02 -0.85002479132E+02  0.12546518883E+03  0.00000000000E+00 0.  1.
</event>
<event>
 7    1  0.2749315E-009  0.1436250E+03  0.7561462E-02  0.1208533E+00
         -2   -1    0    0    0  501 -0.00000000000E+00  0.00000000000E+00  0.33108033591E+02  0.33108033591E+02  0.00000000000E+00 0.  1.
          2   -1    0    0  501    0  0.00000000000E+00 -0.00000000000E+00 -0.79871805633E+03  0.79871805633E+03  0.00000000000E+00 0. -1.
         25    2    1    2    0    0 -0.69242099543E+02 -0.66704540749E+02 -0.22486720958E+03  0.27469377000E+03  0.12508973271E+03 0.  0.
          5    1    3    3  502    0 -0.27311099152E+02 -0.10020008827E+03 -0.14770252850E+03  0.18060859103E+03  0.41800000000E+01 0.  1.
         -5    1    3    3    0  502 -0.41931000391E+02  0.33495547521E+02 -0.77164681076E+02  0.94085178977E+02  0.41800000000E+01 0.  1.
        -11    1    1    2    0    0 -0.17705576201E+02  0.30562235235E+02 -0.90487013453E+02  0.97136178918E+02  0.00000000000E+00 0.  1.
         11    1    1    2    0    0  0.86947675744E+02  0.36142305514E+02 -0.45025579971E+03  0.45999614100E+03  0.00000000000E+00 0. -1.
</event>
<event>
 7    1  0.2749315E-009  0.1223356E+03  0.7561462E-02  0.1239293E+00
         -2   -1    0    0    0  501 -0.00000000000E+00  0.00000000000E+00  0.14347326611E+03  0.14347326611E+03  0.00000000000E+00 0.  1.
          2   -1    0    0  501    0  0.00000000000E+00 -0.00000000000E+00 -0.11183046830E+03  0.11183046830E+03  0.00000000000E+00 0. -1.
         25    2    1    2    0    0 -0.45873077708E+02  0.35492476475E+02 -0.13126822372E+02  0.13850267877E+03  0.12508646377E+03 0.  0.
          5    1    3    3  502    0 -0.21373092942E+02  0.81708763430E+02 -0.15515848151E+02  0.85972932177E+02  0.41800000000E+01 0. -1.
         -5    1    3    3    0  502 -0.24499984766E+02 -0.46216286955E+02  0.23890257790E+01  0.52529746598E+02  0.41800000000E+01 0. -1.
        -11    1    1    2    0    0  0.69901372722E+02 -0.68323690237E+01  0.25428858035E+02  0.74696117676E+02  0.00000000000E+00 0. -1.
         11    1    1    2    0    0 -0.24028295014E+02 -0.28660107451E+02  0.19340762149E+02  0.42104937963E+02  0.00000000000E+00 0.  1.
</event>
<event>
 7    1  0.2749315E-009  0.1081773E+03  0.7561462E-02  0.1263983E+00
          2   -1    0    0  501    0  0.00000000000E+00  0.00000000000E+00  0.74712130429E+03  0.74712130429E+03  0.00000000000E+00 0. -1.
         -2   -1    0    0    0  501 -0.00000000000E+00 -0.00000000000E+00 -0.21314458877E+02  0.21314458877E+02  0.00000000000E+00 0.  1.
         25    2    1    2    0    0 -0.44341509306E+02  0.23332567773E+02  0.51079300342E+03  0.52826635059E+03  0.12508104036E+03 0.  0.
          5    1    3    3  502    0  0.31009563056E+02  0.45579803697E+01  0.32929081251E+03  0.33080550145E+03  0.41800000000E+01 0.  1.
         -5    1    3    3    0  502 -0.75351072361E+02  0.18774587404E+02  0.18150219091E+03  0.19746084914E+03  0.41800000000E+01 0.  1.
        -11    1    1    2    0    0 -0.17385738399E+02  0.23679011867E+02  0.56172681954E+02  0.63390296580E+02  0.00000000000E+00 0.  1.
         11    1    1    2    0    0  0.61727247704E+02 -0.47011579640E+02  0.15884116004E+03  0.17677911599E+03  0.00000000000E+00 0. -1.
</event>
<event>
 7    1  0.2749315E-009  0.1053786E+03  0.7561462E-02  0.1269376E+00
         -2   -1    0    0    0  501 -0.00000000000E+00  0.00000000000E+00  0.24028952235E+02  0.24028952235E+02  0.00000000000E+00 0.  1.
          2   -1    0    0  501    0  0.00000000000E+00 -0.00000000000E+00 -0.56220903121E+03  0.56220903121E+03  0.00000000000E+00 0. -1.
         25    2    1    2    0    0 -0.21176166864E+02 -0.11303347298E+02 -0.22355797840E+03  0.25729597908E+03  0.12508739122E+03 0.  0.
          5    1    3    3  502    0  0.48102208405E+02  0.15150140605E+02 -0.11628639211E+03  0.12682013486E+03  0.41800000000E+01 0.  1.
         -5    1    3    3    0  502 -0.69278375269E+02 -0.26453487903E+02 -0.10727158628E+03  0.13047584422E+03  0.41800000000E+01 0.  1.
        -11    1    1    2    0    0 -0.31067813777E+02  0.12826821009E+02 -0.57859724090E+02  0.66914004975E+02  0.00000000000E+00 0.  1.
         11    1    1    2    0    0  0.52243980640E+02 -0.15234737112E+01 -0.25676237649E+03  0.26202799939E+03  0.00000000000E+00 0. -1.
</event>
<event>
 7    1  0.2749315E-009  0.1135710E+03  0.7561462E-02  0.1254096E+00
          2   -1    0    0  501    0  0.00000000000E+00  0.00000000000E+00  0.40181520012E+02  0.40181520012E+02  0.00000000000E+00 0. -1.
         -2   -1    0    0    0  501 -0.00000000000E+00 -0.00000000000E+00 -0.45608383568E+03  0.45608383568E+03  0.00000000000E+00 0.  1.
         25    2    1    2    0    0 -0.57389545234E+02  0.54467636531E+02 -0.18442553188E+03  0.23647647693E+03  0.12509222199E+03 0.  0.
          5    1    3    3  502    0 -0.45827811943E+02 -0.34092620131E+02 -0.56909386971E+02  0.80738131142E+02  0.41800000000E+01 0.  1.
         -5    1    3    3    0  502 -0.11561733291E+02  0.88560256662E+02 -0.12751614491E+03  0.15573834579E+03  0.41800000000E+01 0.  1.
        -11    1    1    2    0    0  0.48393787106E+02 -0.37375338854E+02 -0.23253976461E+03  0.24044462296E+03  0.00000000000E+00 0.  1.
         11    1    1    2    0    0  0.89957581282E+01 -0.17092297677E+02  0.10629808254E+01  0.19344255799E+02  0.00000000000E+00 0. -1.
</event>
<event>
 7    1  0.2749315E-009  0.1276613E+03  0.7561462E-02  0.1230968E+00
         -4   -1    0    0    0  501 -0.00000000000E+00  0.00000000000E+00  0.91976267658E+03  0.91976267658E+03  0.00000000000E+00 0.  1.
          4   -1    0    0  501    0  0.00000000000E+00 -0.00000000000E+00 -0.48504092936E+02  0.48504092936E+02  0.00000000000E+00 0. -1.
         25    2    1    2    0    0  0.33878029368E+02  0.86547494018E+02  0.80885465286E+03  0.82373042140E+03  0.12509103918E+03 0.  0.
          5    1    3    3  502    0 -0.21324642258E+02  0.96876818918E+02  0.49383126591E+03  0.50371286464E+03  0.41800000000E+01 0.  1.
         -5    1    3    3    0  502  0.55202671626E+02 -0.10329324900E+02  0.31502338695E+03  0.32001755676E+03  0.41800000000E+01 0.  1.
        -11    1    1    2    0    0 -0.16549600557E+02 -0.64339854064E+01  0.59959882476E+02  0.62533774500E+02  0.00000000000E+00 0.  1.
         11    1    1    2    0    0 -0.17328428811E+02 -0.80113508612E+02  0.24440483024E+01  0.82002573614E+02  0.00000000000E+00 0. -1.
</event>
<event>
 7    1  0.2749315E-009  0.1200346E+03  0.7561462E-02  0.1243040E+00
         -1   -1    0    0    0  501 -0.00000000000E+00  0.00000000000E+00  0.31393029378E+03  0.31393029378E+03  0.00000000000E+00 0.  1.
          1   -1    0    0  501    0  0.00000000000E+00 -0.00000000000E+00 -0.54451901964E+02  0.54451901964E+02  0.00000000000E+00 0. -1.
         25    2    1    2    0    0  0.54687553975E+02  0.35993773578E+02  0.10150662968E+03  0.17388772114E+03  0.12508822245E+03 0.  0.
          5    1    3    3  502    0 -0.25905687280E+02  0.48801165622E+02  0.21219473866E+02  0.59332932429E+02  0.41800000000E+01 0.  1.
         -5    1    3    3    0  502  0.80593241255E+02 -0.12807392043E+02  0.80287155816E+02  0.11455478871E+03  0.41800000000E+01 0.  1.
        -11    1    1    2    0    0 -0.68044868608E+02 -0.38654086336E+01  0.13912902696E+03  0.15492556817E+03  0.00000000000E+00 0.  1.
         11    1    1    2    0    0  0.13357314633E+02 -0.32128364945E+02  0.18842735171E+02  0.39568906441E+02  0.00000000000E+00 0. -1.
</event>
<event>
 7    1  0.2749315E-009  0.8580720E+02  0.7561462E-02  0.1313335E+00
          2   -1    0    0  501    0  0.00000000000E+00  0.00000000000E+00  0.20781670127E+03  0.20781670127E+03  0.00000000000E+00 0.  1.
         -2   -1    0    0    0  501 -0.00000000000E+00 -0.00000000000E+00 -0.65759994452E+02  0.65759994452E+02  0.00000000000E+00 0. -1.
         25    2    1    2    0    0 -0.11697944521E+02  0.39218900765E+02  0.98352861778E+02  0.16430350604E+03  0.12508953831E+03 0.  0.
          5    1    3    3  502    0  0.13541714797E+02 -0.30709853074E+02 -0.77315356228E+01  0.34694699286E+02  0.41800000000E+01 0. -1.
         -5    1    3    3    0  502 -0.25239659318E+02  0.69928753840E+02  0.10608439740E+03  0.12960880675E+03  0.41800000000E+01 0. -1.
        -11    1    1    2    0    0  0.17833733117E+02 -0.48798030100E+02  0.66147195249E+02  0.84111480892E+02  0.00000000000E+00 0.  1.
         11    1    1    2    0    0 -0.61357885959E+01  0.95791293347E+01 -0.22443350210E+02  0.25161708789E+02  0.00000000000E+00 0. -1.
</event>
<event>
 7    1  0.2749315E-009  0.1483833E+03  0.7561462E-02  0.1202474E+00
         -2   -1    0    0    0  501 -0.00000000000E+00  0.00000000000E+00  0.11025925345E+03  0.11025925345E+03  0.00000000000E+00 0.  1.
          2   -1    0    0  501    0  0.00000000000E+00 -0.00000000000E+00 -0.70143216108E+03  0.70143216108E+03  0.00000000000E+00 0. -1.
         25    2    1    2    0    0 -0.80836288364E+02  0.10443565957E+03  0.17047058720E+02  0.18269982460E+03  0.12508921293E+03 0.  0.
          5    1    3    3  502    0 -0.71582928149E+02  0.18656805198E+02  0.50936227044E+02  0.89911977000E+02  0.41800000000E+01 0. -1.
         -5    1    3    3    0  502 -0.92533602150E+01  0.85778854368E+02 -0.33889168325E+02  0.92787847597E+02  0.41800000000E+01 0. -1.
        -11    1    1    2    0    0  0.28298935192E+02 -0.13681845211E+02 -0.38502689317E+02  0.49703920429E+02  0.00000000000E+00 0.  1.
         11    1    1    2    0    0  0.52537353171E+02 -0.90753814355E+02 -0.56971727703E+03  0.57928766951E+03  0.00000000000E+00 0. -1.
</event>
<event>
 7    1  0.2749315E-009  0.8290026E+02  0.7561462E-02  0.1321017E+00
         -2   -1    0    0    0  501 -0.00000000000E+00  0.00000000000E+00  0.52208688406E+03  0.52208688406E+03  0.00000000000E+00 0.  1.
          2   -1    0    0  501    0  0.00000000000E+00 -0.00000000000E+00 -0.73037535894E+02  0.73037535894E+02  0.00000000000E+00 0. -1.
         25    2    1    2    0    0 -0.23612712477E+02  0.15019064256E+01 -0.90783471877E+01  0.12763077315E+03  0.12508949577E+03 0.  0.
          5    1    3    3  502    0 -0.32952511617E+02 -0.27392386064E+02  0.46989194712E+02  0.63731214141E+02  0.41800000000E+01 0. -1.
         -5    1    3    3    0  502  0.93397991401E+01  0.28894292490E+02 -0.56067541900E+02  0.63899559006E+02  0.41800000000E+01 0. -1.
        -11    1    1    2    0    0  0.35889861738E+02  0.37080557149E+02  0.29029931731E+03  0.29485037481E+03  0.00000000000E+00 0.  1.
         11    1    1    2    0    0 -0.12277149262E+02 -0.38582463575E+02  0.16782837805E+03  0.17264327200E+03  0.00000000000E+00 0. -1.
</event>
<event>
 7    1  0.2749315E-009  0.1068720E+03  0.7561462E-02  0.1266475E+00
          1   -1    0    0  501    0  0.00000000000E+00  0.00000000000E+00  0.14417658129E+03  0.14417658129E+03  0.00000000000E+00 0. -1.
         -1   -1    0    0    0  501 -0.00000000000E+00 -0.00000000000E+00 -0.13797656233E+03  0.13797656233E+03  0.00000000000E+00 0.  1.
         25    2    1    2    0    0 -0.52450070683E+02  0.66639851605E+02 -0.27587363936E+02  0.15362457528E+03  0.12509023840E+03 0.  0.
          5    1    3    3  502    0 -0.74269629508E+02  0.19690731092E+02  0.23814182818E+02  0.80549925273E+02  0.41800000000E+01 0. -1.
         -5    1    3    3    0  502  0.21819558825E+02  0.46949120513E+02 -0.51401546754E+02  0.73074650003E+02  0.41800000000E+01 0. -1.
        -11    1    1    2    0    0  0.38685851275E+02 -0.47038330640E+02  0.65072901673E+02  0.89127336830E+02  0.00000000000E+00 0.  1.
         11    1    1    2    0    0  0.13764219408E+02 -0.19601520965E+02 -0.31285518770E+02  0.39401231513E+02  0.00000000000E+00 0. -1.
</event>
<event>
 7    1  0.2749315E-009  0.1763218E+03  0.7561462E-02  0.1171411E+00
          2   -1    0    0  501    0  0.00000000000E+00  0.00000000000E+00  0.73200010295E+03  0.73200010295E+03  0.00000000000E+00 0.  1.
         -2   -1    0    0    0  501 -0.00000000000E+00 -0.00000000000E+00 -0.49696054238E+02  0.49696054238E+02  0.00000000000E+00 0. -1.
         25    2    1    2    0    0 -0.78107540612E+02  0.11507912784E+03  0.50409545443E+03  0.53768358972E+03  0.12508965548E+03 0.  0.
          5    1    3    3  502    0 -0.64294278070E+01 -0.26856025811E+02  0.80596326467E+02  0.85298440222E+02  0.41800000000E+01 0.  1.
         -5    1    3    3    0  502 -0.71678112805E+02  0.14193515365E+03  0.42349912797E+03  0.45238514950E+03  0.41800000000E+01 0.  1.
        -11    1    1    2    0    0  0.84456245104E+02 -0.45786634940E+02  0.89785632513E+02  0.13149423212E+03  0.00000000000E+00 0. -1.
         11    1    1    2    0    0 -0.63487044925E+01 -0.69292492903E+02  0.88422961770E+02  0.11251833535E+03  0.00000000000E+00 0.  1.
</event>
<event>
 7    1  0.2749315E-009  0.1304090E+03  0.7561462E-02  0.1226850E+00
         -1   -1    0    0    0  501 -0.00000000000E+00  0.00000000000E+00  0.62832921252E+02  0.62832921252E+02  0.00000000000E+00 0.  1.
          1   -1    0    0  501    0  0.00000000000E+00 -0.00000000000E+00 -0.33727091238E+03  0.33727091238E+03  0.00000000000E+00 0. -1.
         25    2    1    2    0    0 -0.97052008841E+02  0.19289383262E+02 -0.16008355473E+03  0.22597656547E+03  0.12508993132E+03 0.  0.
          5    1    3    3  502    0 -0.11123799685E+03 -0.88998167840E+01 -0.15877890943E+03  0.19411675137E+03  0.41800000000E+01 0.  1.
         -5    1    3    3    0  502  0.14185988009E+02  0.28189200045E+02 -0.13046453003E+01  0.31859814098E+02  0.41800000000E+01 0.  1.
        -11    1    1    2    0    0  0.76983816915E+00 -0.21001769667E+02 -0.59944054198E+02  0.63521308343E+02  0.00000000000E+00 0. -1.
         11    1    1    2    0    0  0.96282170672E+02  0.17123864055E+01 -0.54410382196E+02  0.11060595982E+03  0.00000000000E+00 0.  1.
</event>
<event>
 7    1  0.2749315E-009  0.1005852E+03  0.7561462E-02  0.1279070E+00
          2   -1    0    0  501    0  0.00000000000E+00  0.00000000000E+00  0.92210306216E+03  0.92210306216E+03  0.00000000000E+00 0. -1.
         -2   -1    0    0    0  501 -0.00000000000E+00 -0.00000000000E+00 -0.18244091953E+02  0.18244091953E+02  0.00000000000E+00 0.  1.
         25    2    1    2    0    0  0.43411178664E+02 -0.23865572473E+02  0.67531987872E+03  0.68859262016E+03  0.12509501172E+03 0.  0.
          5    1    3    3  502    0  0.77479549303E+02 -0.48435991929E+02  0.49677388952E+03  0.50512463372E+03  0.41800000000E+01 0. -1.
         -5    1    3    3    0  502 -0.34068370640E+02  0.24570419456E+02  0.17854598920E+03  0.18346798644E+03  0.41800000000E+01 0. -1.
        -11    1    1    2    0    0 -0.12733468130E+02 -0.13888920075E+02  0.78062364427E+00  0.18858756182E+02  0.00000000000E+00 0.  1.
         11    1    1    2    0    0 -0.30677710534E+02  0.37754492548E+02  0.22775846784E+03  0.23289577777E+03  0.00000000000E+00 0. -1.
</event>
<event>
 7    1  0.3360531E-009  0.7507568E+02  0.7561462E-02  0.1343637E+00
         -3   -1    0    0    0  501 -0.00000000000E+00  0.00000000000E+00  0.73999860875E+02  0.73999860875E+02  0.00000000000E+00 0.  1.
          3   -1    0    0  501    0  0.00000000000E+00 -0.00000000000E+00 -0.18228907297E+03  0.18228907297E+03  0.00000000000E+00 0. -1.
         25    2    1    2    0    0  0.34016178413E+02 -0.18803212871E+02 -0.44468859762E+02  0.13833230543E+03  0.12509071120E+03 0.  0.
          5    1    3    3  502    0  0.37746725731E+02  0.38215544386E+02  0.14826282778E+02  0.55879640274E+02  0.41800000000E+01 0. -1.
         -5    1    3    3    0  502 -0.37305473180E+01 -0.57018757257E+02 -0.59295142540E+02  0.82452665156E+02  0.41800000000E+01 0. -1.
        -11    1    1    2    0    0 -0.10147907235E+02  0.71949545843E+01  0.23555551772E+02  0.26638532467E+02  0.00000000000E+00 0.  1.
         11    1    1    2    0    0 -0.23868271177E+02  0.11608258287E+02 -0.87375904108E+02  0.91318095951E+02  0.00000000000E+00 0. -1.
</event>
<event>
 7    1  0.2749315E-009  0.2055939E+03  0.7561462E-02  0.1145103E+00
          2   -1    0    0  501    0  0.00000000000E+00  0.00000000000E+00  0.25152093510E+03  0.25152093510E+03  0.00000000000E+00 0. -1.
         -2   -1    0    0    0  501 -0.00000000000E+00 -0.00000000000E+00 -0.22370105623E+03  0.22370105623E+03  0.00000000000E+00 0.  1.
         25    2    1    2    0    0  0.15335076799E+03  0.10667158925E+03 -0.82902188211E+02  0.23960990681E+03  0.12507936934E+03 0.  0.
          5    1    3    3  502    0  0.96456912159E+02  0.18063873139E+02  0.10512494066E+02  0.98783725115E+02  0.41800000000E+01 0.  1.
         -5    1    3    3    0  502  0.56893855828E+02  0.88607716110E+02 -0.93414682277E+02  0.14082618169E+03  0.41800000000E+01 0.  1.
        -11    1    1    2    0    0 -0.54187319512E+02  0.93159974831E+01  0.35823158896E+02  0.65622801817E+02  0.00000000000E+00 0.  1.
         11    1    1    2    0    0 -0.99163448476E+02 -0.11598758673E+03  0.74898908185E+02  0.16998928271E+03  0.00000000000E+00 0. -1.
</event>
<event>
 7    1  0.2749315E-009  0.1565729E+03  0.7561462E-02  0.1192621E+00
         -1   -1    0    0    0  501 -0.00000000000E+00  0.00000000000E+00  0.77793277812E+02  0.77793277812E+02  0.00000000000E+00 0.  1.
          1   -1    0    0  501    0  0.00000000000E+00 -0.00000000000E+00 -0.45731182866E+03  0.45731182866E+03  0.00000000000E+00 0. -1.
         25    2    1    2    0    0  0.13182517769E+03 -0.78878117681E+02 -0.17498986022E+03  0.26432718520E+03  0.12509106577E+03 0.  0.
          5    1    3    3  502    0  0.12027666886E+03 -0.61263585658E+02 -0.19350817182E+03  0.23597158507E+03  0.41800000000E+01 0.  1.
         -5    1    3    3    0  502  0.11548508830E+02 -0.17614532023E+02  0.18518311596E+02  0.28355600134E+02  0.41800000000E+01 0.  1.
        -11    1    1    2    0    0 -0.20191221902E+02  0.44791066059E+00  0.49448394697E+01  0.20792727171E+02  0.00000000000E+00 0.  1.
         11    1    1    2    0    0 -0.11163395579E+03  0.78430207021E+02 -0.20947353009E+03  0.24998519410E+03  0.00000000000E+00 0. -1.
</event>
<event>
 7    1  0.2749315E-009  0.1186250E+03  0.7561462E-02  0.1245383E+00
          1   -1    0    0  501    0  0.00000000000E+00  0.00000000000E+00  0.20919738497E+03  0.20919738497E+03  0.00000000000E+00 0. -1.
         -1   -1    0    0    0  501 -0.00000000000E+00 -0.00000000000E+00 -0.72921394929E+02  0.72921394929E+02  0.00000000000E+00 0.  1.
         25    2    1    2    0    0 -0.28141526581E+02  0.46986194668E+02  0.10208661504E+03  0.17049640103E+03  0.12509075819E+03 0.  0.
          5    1    3    3  502    0  0.14547860425E+02 -0.38181369884E+02  0.34100711948E+02  0.53383407577E+02  0.41800000000E+01 0.  1.
         -5    1    3    3    0  502 -0.42689387006E+02  0.85167564552E+02  0.67985903096E+02  0.11711299345E+03  0.41800000000E+01 0.  1.
        -11    1    1    2    0    0  0.30646973027E+02  0.18160592525E+02  0.29511472374E+02  0.46259821425E+02  0.00000000000E+00 0. -1.
         11    1    1    2    0    0 -0.25054464458E+01 -0.65146787193E+02  0.46779026238E+01  0.65362557450E+02  0.00000000000E+00 0.  1.
</event>
<event>
 7    1  0.2749315E-009  0.1741861E+03  0.7561462E-02  0.1173551E+00
         -1   -1    0    0    0  501 -0.00000000000E+00  0.00000000000E+00  0.70317338045E+03  0.70317338045E+03  0.00000000000E+00 0.  1.
          1   -1    0    0  501    0  0.00000000000E+00 -0.00000000000E+00 -0.44074253625E+02  0.44074253625E+02  0.00000000000E+00 0. -1.
         25    2    1    2    0    0  0.13019489492E+03  0.45009648854E+02  0.38286885944E+03  0.42569032997E+03  0.12508842611E+03 0.  0.
          5    1    3    3  502    0  0.13478342984E+03  0.74326014293E+02  0.34151096132E+03  0.37461732269E+03  0.41800000000E+01 0. -1.
         -5    1    3    3    0  502 -0.45885349182E+01 -0.29316365439E+02  0.41357898125E+02  0.51073007279E+02  0.41800000000E+01 0. -1.
        -11    1    1    2    0    0 -0.45525353876E+02 -0.63140616183E+02  0.12332066907E+03  0.14583306442E+03  0.00000000000E+00 0. -1.
         11    1    1    2    0    0 -0.84669541046E+02  0.18130967329E+02  0.15290959831E+03  0.17572423969E+03  0.00000000000E+00 0.  1.
</event>
<event>
 7    1  0.2749315E-009  0.1427042E+03  0.7561462E-02  0.1209736E+00
          4   -1    0    0  501    0  0.00000000000E+00  0.00000000000E+00  0.56278822147E+02  0.56278822147E+02  0.00000000000E+00 0.  1.
         -4   -1    0    0    0  501 -0.00000000000E+00 -0.00000000000E+00 -0.45060966215E+03  0.45060966215E+03  0.00000000000E+00 0. -1.
         25    2    1    2    0    0  0.96076650759E+02 -0.64203063392E+02 -0.22675116384E+03  0.28357728601E+03  0.12508889107E+03 0.  0.
          5    1    3    3  502    0  0.10249111702E+02 -0.68105164098E+02 -0.16146426006E+03  0.17558911510E+03  0.41800000000E+01 0.  1.
         -5    1    3    3    0  502  0.85827539057E+02  0.39021007060E+01 -0.65286903786E+02  0.10798817091E+03  0.41800000000E+01 0.  1.
        -11    1    1    2    0    0  0.72020064930E+01  0.13584662835E+02  0.47784415520E+01  0.16101101376E+02  0.00000000000E+00 0.  1.
         11    1    1    2    0    0 -0.10327865725E+03  0.50618400557E+02 -0.17235811772E+03  0.20721009691E+03  0.00000000000E+00 0. -1.
</event>
<event>
 7    1  0.2749315E-009  0.1782097E+03  0.7561462E-02  0.1169547E+00
          1   -1    0    0  501    0  0.00000000000E+00  0.00000000000E+00  0.40820659366E+03  0.40820659366E+03  0.00000000000E+00 0. -1.
         -1   -1    0    0    0  501 -0.00000000000E+00 -0.00000000000E+00 -0.10916113953E+03  0.10916113953E+03  0.00000000000E+00 0.  1.
         25    2    1    2    0    0  0.13718459855E+03  0.10935289227E+03  0.10766735895E+03  0.24086730925E+03  0.12508849409E+03 0.  0.
          5    1    3    3  502    0  0.60283853413E+02  0.38561084615E+02 -0.21326265262E+02  0.74788917755E+02  0.41800000000E+01 0. -1.
         -5    1    3    3    0  502  0.76900745138E+02  0.70791807652E+02  0.12899362422E+03  0.16607839149E+03  0.41800000000E+01 0. -1.
        -11    1    1    2    0    0 -0.74060493684E+02 -0.33053522237E+02  0.28657023149E+02  0.86015795252E+02  0.00000000000E+00 0.  1.
         11    1    1    2    0    0 -0.63124104867E+02 -0.76299370030E+02  0.16272107203E+03  0.19048462868E+03  0.00000000000E+00 0. -1.
</event>
<event>
 7    1  0.2749315E-009  0.1250438E+03  0.7561462E-02  0.1235001E+00
         -2   -1    0    0    0  501 -0.00000000000E+00  0.00000000000E+00  0.95089868482E+02  0.95089868482E+02  0.00000000000E+00 0. -1.
          2   -1    0    0  501    0  0.00000000000E+00 -0.00000000000E+00 -0.19812085076E+03  0.19812085076E+03  0.00000000000E+00 0.  1.
         25    2    1    2    0    0 -0.58390707683E+02  0.28921584117E+02 -0.11211300970E+03  0.18017244418E+03  0.12508736916E+03 0.  0.
          5    1    3    3  502    0  0.42001273499E-01 -0.43939587537E+02 -0.55367565825E+02  0.70807689289E+02  0.41800000000E+01 0. -1.
         -5    1    3    3    0  502 -0.58432708957E+02  0.72861171654E+02 -0.56745443879E+02  0.10936475489E+03  0.41800000000E+01 0. -1.
        -11    1    1    2    0    0  0.78825013687E+02 -0.22477014903E+01  0.95525970974E+01  0.79433538610E+02  0.00000000000E+00 0. -1.
         11    1    1    2    0    0 -0.20434306004E+02 -0.26673882627E+02 -0.47056966981E+00  0.33604736453E+02  0.00000000000E+00 0.  1.
</event>
<event>
 7    1  0.2749315E-009  0.1523036E+03  0.7561462E-02  0.1197671E+00
          2   -1    0    0  501    0  0.00000000000E+00  0.00000000000E+00  0.17835514061E+03  0.17835514061E+03  0.00000000000E+00 0. -1.
         -2   -1    0    0    0  501 -0.00000000000E+00 -0.00000000000E+00 -0.18015326022E+03  0.18015326022E+03  0.00000000000E+00 0.  1.
         25    2    1    2    0    0  0.11354754162E+03  0.51553427844E+02  0.66815214938E+02  0.18884881995E+03  0.12509517865E+03 0.  0.
          5    1    3    3  502    0  0.12701778179E+03  0.43519280635E+02  0.89162136421E+02  0.16122904096E+03  0.41800000000E+01 0. -1.
         -5    1    3    3    0  502 -0.13470240173E+02  0.80341472089E+01 -0.22346921484E+02  0.27619778991E+02  0.41800000000E+01 0. -1.
        -11    1    1    2    0    0 -0.33961081102E+02  0.26114161764E+02 -0.28443225333E+02  0.51422967063E+02  0.00000000000E+00 0.  1.
         11    1    1    2    0    0 -0.79586460517E+02 -0.77667589608E+02 -0.40170109214E+02  0.11823661382E+03  0.00000000000E+00 0. -1.
</event>
<event>
 7    1  0.2749315E-009  0.1386036E+03  0.7561462E-02  0.1215220E+00
         -2   -1    0    0    0  501 -0.00000000000E+00  0.00000000000E+00  0.18931625008E+02  0.18931625008E+02  0.00000000000E+00 0.  1.
          2   -1    0    0  501    0  0.00000000000E+00 -0.00000000000E+00 -0.23313956386E+04  0.23313956386E+04  0.00000000000E+00 0. -1.
         25    2    1    2    0    0  0.61937851960E+02 -0.10642113747E+03 -0.19217169533E+04  0.19297163470E+04  0.12508946938E+03 0.  0.
          5    1    3    3  502    0  0.38870793786E+02 -0.83011047122E+02 -0.18282573704E+04  0.18305584551E+04  0.41800000000E+01 0.  1.
         -5    1    3    3    0  502  0.23067058174E+02 -0.23410090349E+02 -0.93459582904E+02  0.99157891968E+02  0.41800000000E+01 0.  1.
        -11    1    1    2    0    0 -0.73353501114E+02  0.11611524806E+03 -0.31888291822E+03  0.34720282616E+03  0.00000000000E+00 0. -1.
         11    1    1    2    0    0  0.11415649154E+02 -0.96941105849E+01 -0.71864142097E+02  0.73408090460E+02  0.00000000000E+00 0.  1.
</event>
<event>
 7    1  0.2749315E-009  0.1389550E+03  0.7561462E-02  0.1214742E+00
          2   -1    0    0  501    0  0.00000000000E+00  0.00000000000E+00  0.50616862462E+03  0.50616862462E+03  0.00000000000E+00 0. -1.
         -2   -1    0    0    0  501 -0.00000000000E+00 -0.00000000000E+00 -0.51927390597E+02  0.51927390597E+02  0.00000000000E+00 0.  1.
         25    2    1    2    0    0 -0.10832188778E+03 -0.49315239486E+02  0.24733255890E+03  0.30163791106E+03  0.12508561261E+03 0.  0.
          5    1    3    3  502    0 -0.83105654696E+02 -0.16394542430E+02  0.46893212138E+02  0.96911178966E+02  0.41800000000E+01 0. -1.
         -5    1    3    3    0  502 -0.25216233083E+02 -0.32920697056E+02  0.20043934676E+03  0.20472673210E+03  0.41800000000E+01 0. -1.
        -11    1    1    2    0    0  0.96318317730E+02 -0.43630006121E+01  0.12716201217E+03  0.15958205239E+03  0.00000000000E+00 0.  1.
         11    1    1    2    0    0  0.12003570049E+02  0.53678240098E+02  0.79746662951E+02  0.96876051765E+02  0.00000000000E+00 0. -1.
</event>
<event>
 7    1  0.2749315E-009  0.2830894E+03  0.7561462E-02  0.1094013E+00
          2   -1    0    0  501    0  0.00000000000E+00  0.00000000000E+00  0.11243974292E+04  0.11243974292E+04  0.00000000000E+00 0. -1.
         -2   -1    0    0    0  501 -0.00000000000E+00 -0.00000000000E+00 -0.77970847569E+02  0.77970847569E+02  0.00000000000E+00 0.  1.
         25    2    1    2    0    0  0.20584361244E+03  0.17001863534E+03  0.66820572514E+03  0.73035946627E+03  0.12509248463E+03 0.  0.
          5    1    3    3  502    0  0.99665666787E+02  0.14536448948E+03  0.49713067387E+03  0.52746607402E+03  0.41800000000E+01 0.  1.
         -5    1    3    3    0  502  0.10617794565E+03  0.24654145861E+02  0.17107505127E+03  0.20289339225E+03  0.41800000000E+01 0.  1.
        -11    1    1    2    0    0 -0.89595554140E+02 -0.21403705960E+02  0.10131495931E+03  0.13693138038E+03  0.00000000000E+00 0. -1.
         11    1    1    2    0    0 -0.11624805830E+03 -0.14861492938E+03  0.27690589720E+03  0.33507743015E+03  0.00000000000E+00 0.  1.
</event>
<event>
 7    1  0.2749315E-009  0.1226374E+03  0.7561462E-02  0.1238809E+00
          1   -1    0    0  501    0  0.00000000000E+00  0.00000000000E+00  0.18839665060E+04  0.18839665060E+04  0.00000000000E+00 0. -1.
         -1   -1    0    0    0  501 -0.00000000000E+00 -0.00000000000E+00 -0.91266765070E+01  0.91266765070E+01  0.00000000000E+00 0.  1.
         25    2    1    2    0    0 -0.48670315947E+02 -0.32912727459E+02  0.13521027255E+04  0.13591472322E+04  0.12508945282E+03 0.  0.
          5    1    3    3  502    0  0.57282110334E+01  0.43061692526E+02  0.35678495287E+03  0.35944414971E+03  0.41800000000E+01 0. -1.
         -5    1    3    3    0  502 -0.54398526980E+02 -0.75974419985E+02  0.99531777262E+03  0.99970308248E+03  0.41800000000E+01 0. -1.
        -11    1    1    2    0    0  0.72181951849E+02  0.41267831032E+02  0.37404760171E+03  0.38317734327E+03  0.00000000000E+00 0.  1.
         11    1    1    2    0    0 -0.23511635903E+02 -0.83551035729E+01  0.14868950223E+03  0.15076860699E+03  0.00000000000E+00 0. -1.
</event>
<event>
 7    1  0.2749315E-009  0.1129247E+03  0.7561462E-02  0.1255248E+00
         -1   -1    0    0    0  501 -0.00000000000E+00  0.00000000000E+00  0.15537572475E+02  0.15537572475E+02  0.00000000000E+00 0.  1.
          1   -1    0    0  501    0  0.00000000000E+00 -0.00000000000E+00 -0.93184242899E+03  0.93184242899E+03  0.00000000000E+00 0. -1.
         25    2    1    2    0    0 -0.14484136192E+02  0.29843863586E+02 -0.59453497235E+03  0.60845685159E+03  0.12508980977E+03 0.  0.
          5    1    3    3  502    0  0.15930025477E+02 -0.42418989949E+02 -0.14054687878E+03  0.14772959742E+03  0.41800000000E+01 0. -1.
         -5    1    3    3    0  502 -0.30414161669E+02  0.72262853535E+02 -0.45398809357E+03  0.46072725417E+03  0.41800000000E+01 0. -1.
        -11    1    1    2    0    0  0.47847934843E+02  0.10997028590E+02 -0.20499951762E+03  0.21079649364E+03  0.00000000000E+00 0. -1.
         11    1    1    2    0    0 -0.33363798651E+02 -0.40840892176E+02 -0.11677036655E+03  0.12812665624E+03  0.00000000000E+00 0.  1.
</event>
<event>
 7    1  0.2749315E-009  0.1552065E+03  0.7561462E-02  0.1194217E+00
          1   -1    0    0  501    0  0.00000000000E+00  0.00000000000E+00  0.48821399847E+03  0.48821399847E+03  0.00000000000E+00 0. -1.
         -1   -1    0    0    0  501 -0.00000000000E+00 -0.00000000000E+00 -0.71630962997E+02  0.71630962997E+02  0.00000000000E+00 0.  1.
         25    2    1    2    0    0  0.12809122733E+03  0.70318245714E+02  0.28367134618E+03  0.34273665279E+03  0.12508781844E+03 0.  0.
          5    1    3    3  502    0  0.10233388228E+03  0.86092778045E+02  0.28208029030E+03  0.31220338318E+03  0.41800000000E+01 0. -1.
         -5    1    3    3    0  502  0.25757345048E+02 -0.15774532331E+02  0.15910558828E+01  0.30533269609E+02  0.41800000000E+01 0. -1.
        -11    1    1    2    0    0 -0.96662567817E+02 -0.53309101946E+02  0.14236017556E+03  0.18014419767E+03  0.00000000000E+00 0. -1.
         11    1    1    2    0    0 -0.31428659510E+02 -0.17009143768E+02 -0.94484862659E+01  0.36964111014E+02  0.00000000000E+00 0.  1.
</event>
<event>
 7    1  0.2749315E-009  0.1577114E+03  0.7561462E-02  0.1191305E+00
          1   -1    0    0  501    0  0.00000000000E+00  0.00000000000E+00  0.10228091596E+03  0.10228091596E+03  0.00000000000E+00 0. -1.
         -1   -1    0    0    0  501 -0.00000000000E+00 -0.00000000000E+00 -0.32805700435E+03  0.32805700435E+03  0.00000000000E+00 0.  1.
         25    2    1    2    0    0  0.89348073699E+02 -0.90131245129E+02 -0.31565982204E+02  0.18096726442E+03  0.12508405148E+03 0.  0.
          5    1    3    3  502    0  0.46718105581E+02  0.14222240050E+02 -0.46032532688E+02  0.67240761200E+02  0.41800000000E+01 0.  1.
         -5    1    3    3    0  502  0.42629968118E+02 -0.10435348518E+03  0.14466550485E+02  0.11372650322E+03  0.41800000000E+01 0.  1.
        -11    1    1    2    0    0 -0.10677775178E+03  0.74546615336E+02 -0.17944148116E+03  0.22171587966E+03  0.00000000000E+00 0. -1.
         11    1    1    2    0    0  0.17429678082E+02  0.15584629793E+02 -0.14768625029E+02  0.27654776243E+02  0.00000000000E+00 0.  1.
</event>
<event>
 7    1  0.3214468E-009  0.1112799E+03  0.7561462E-02  0.1258218E+00
         -1   -1    0    0    0  501 -0.00000000000E+00  0.00000000000E+00  0.28964645086E+02  0.28964645086E+02  0.00000000000E+00 0.  1.
          1   -1    0    0  501    0  0.00000000000E+00 -0.00000000000E+00 -0.46391896259E+03  0.46391896259E+03  0.00000000000E+00 0. -1.
         25    2    1    2    0    0 -0.21829230605E+02 -0.31351573600E+02 -0.27080870069E+03  0.30073857045E+03  0.12508756497E+03 0.  0.
          5    1    3    3  502    0  0.51629240490E+02 -0.10172382952E+02 -0.13293091333E+03  0.14302851452E+03  0.41800000000E+01 0. -1.
         -5    1    3    3    0  502 -0.73458471095E+02 -0.21179190648E+02 -0.13787778737E+03  0.15771005593E+03  0.41800000000E+01 0. -1.
        -11    1    1    2    0    0  0.13586613650E+02 -0.29142702533E+02 -0.92960384850E+02  0.98364253329E+02  0.00000000000E+00 0.  1.
         11    1    1    2    0    0  0.82426169551E+01  0.60494276133E+02 -0.71185231963E+02  0.93780783899E+02  0.00000000000E+00 0. -1.
</event>
<event>
 7    1  0.2749315E-009  0.8761527E+02  0.7561462E-02  0.1308732E+00
         -2   -1    0    0    0  501 -0.00000000000E+00  0.00000000000E+00  0.27335646837E+02  0.27335646837E+02  0.00000000000E+00 0.  1.
          2   -1    0    0  501    0  0.00000000000E+00 -0.00000000000E+00 -0.53859460472E+03  0.53859460472E+03  0.00000000000E+00 0. -1.
         25    2    1    2    0    0 -0.71020505671E+01 -0.45216934604E+02 -0.21838422973E+03  0.25580141566E+03  0.12509069574E+03 0.  0.
          5    1    3    3  502    0  0.21966016863E+02 -0.42811539368E+02 -0.22100360126E+03  0.22621980013E+03  0.41800000000E+01 0.  1.
         -5    1    3    3    0  502 -0.29068067431E+02 -0.24053952364E+01  0.26193715274E+01  0.29581615534E+02  0.41800000000E+01 0.  1.
        -11    1    1    2    0    0 -0.36843870054E+02  0.38004474748E+02 -0.11238868712E+03  0.12422973821E+03  0.00000000000E+00 0.  1.
         11    1    1    2    0    0  0.43945920622E+02  0.72124598558E+01 -0.18048604103E+03  0.18589909769E+03  0.00000000000E+00 0. -1.
</event>
<event>
 7    1  0.2749315E-009  0.1042137E+03  0.7561462E-02  0.1271677E+00
          2   -1    0    0  501    0  0.00000000000E+00  0.00000000000E+00  0.33963129648E+02  0.33963129648E+02  0.00000000000E+00 0. -1.
         -2   -1    0    0    0  501 -0.00000000000E+00 -0.00000000000E+00 -0.35889586600E+03  0.35889586600E+03  0.00000000000E+00 0.  1.
         25    2    1    2    0    0 -0.22850937873E+02  0.18808624554E+02 -0.19971711655E+03  0.23750626098E+03  0.12508544138E+03 0.  0.
          5    1    3    3  502    0 -0.53720266489E+02  0.53105185343E+02 -0.85029403740E+02  0.11381344227E+03  0.41800000000E+01 0.  1.
         -5    1    3    3    0  502  0.30869328616E+02 -0.34296560789E+02 -0.11468771281E+03  0.12369281871E+03  0.41800000000E+01 0.  1.
        -11    1    1    2    0    0 -0.16022374571E+02 -0.39341288820E+02 -0.88144252596E+02  0.97846117749E+02  0.00000000000E+00 0.  1.
         11    1    1    2    0    0  0.38873312444E+02  0.20532664266E+02 -0.37071367205E+02  0.57506616912E+02  0.00000000000E+00 0. -1.
</event>
<event>
 7    1  0.2749315E-009  0.1595033E+03  0.7561462E-02  0.1189259E+00
         -1   -1    0    0    0  501 -0.00000000000E+00  0.00000000000E+00  0.20681116503E+03  0.20681116503E+03  0.00000000000E+00 0.  1.
          1   -1    0    0  501    0  0.00000000000E+00 -0.00000000000E+00 -0.16663439562E+03  0.16663439562E+03  0.00000000000E+00 0. -1.
         25    2    1    2    0    0 -0.11574908749E+03 -0.64556673370E+02 -0.50165247320E+02  0.18902214321E+03  0.12508958091E+03 0.  0.
          5    1    3    3  502    0 -0.67015376470E+02  0.24730147778E+02  0.76195091767E+01  0.71959503978E+02  0.41800000000E+01 0. -1.
         -5    1    3    3    0  502 -0.48733711021E+02 -0.89286821148E+02 -0.57784756496E+02  0.11706263923E+03  0.41800000000E+01 0. -1.
        -11    1    1    2    0    0  0.56715766514E+02 -0.19095644465E+01 -0.12803360626E+01  0.56762345512E+02  0.00000000000E+00 0. -1.
         11    1    1    2    0    0  0.59033320977E+02  0.66466237817E+02  0.91622352787E+02  0.12766107193E+03  0.00000000000E+00 0.  1.
</event>
<event>
 7    1  0.2749315E-009  0.3254179E+03  0.7561462E-02  0.1073182E+00
         -2   -1    0    0    0  501 -0.00000000000E+00  0.00000000000E+00  0.67050142412E+02  0.67050142412E+02  0.00000000000E+00 0. -1.
          2   -1    0    0  501    0  0.00000000000E+00 -0.00000000000E+00 -0.18094183229E+04  0.18094183229E+04  0.00000000000E+00 0.  1.
         25    2    1    2    0    0  0.32497917478E+03  0.38929163683E+01 -0.10446531339E+04  0.11011692456E+04  0.12508764325E+03 0.  0.
          5    1    3    3  502    0  0.14513630867E+03 -0.89448286310E+01 -0.66677906556E+03  0.68246344423E+03  0.41800000000E+01 0.  1.
         -5    1    3    3    0  502  0.17984286611E+03  0.12837744999E+02 -0.37787406836E+03  0.41870580140E+03  0.41800000000E+01 0.  1.
        -11    1    1    2    0    0 -0.20706539724E+03 -0.10995027384E+01 -0.33441537379E+03  0.39333310294E+03  0.00000000000E+00 0. -1.
         11    1    1    2    0    0 -0.11791377754E+03 -0.27934136299E+01 -0.36329967276E+03  0.38196611672E+03  0.00000000000E+00 0.  1.
</event>
<event>
 7    1  0.2749315E-009  0.1010432E+03  0.7561462E-02  0.1278117E+00
         -2   -1    0    0    0  501 -0.00000000000E+00  0.00000000000E+00  0.20983408514E+02  0.20983408514E+02  0.00000000000E+00 0.  1.
          2   -1    0    0  501    0  0.00000000000E+00 -0.00000000000E+00 -0.89381231317E+03  0.89381231317E+03  0.00000000000E+00 0. -1.
         25    2    1    2    0    0  0.54962884263E+02 -0.57854215173E+02 -0.53053899886E+03  0.55089691501E+03  0.12509097808E+03 0.  0.
          5    1    3    3  502    0  0.57131641380E+01 -0.76128338444E+01 -0.41787674243E+03  0.41800602836E+03  0.41800000000E+01 0. -1.
         -5    1    3    3    0  502  0.49249720125E+02 -0.50241381328E+02 -0.11266225643E+03  0.13289088665E+03  0.41800000000E+01 0. -1.
        -11    1    1    2    0    0 -0.27878459116E+02 -0.22874314182E+02 -0.72213041105E+02  0.80716578456E+02  0.00000000000E+00 0.  1.
         11    1    1    2    0    0 -0.27084425147E+02  0.80728529355E+02 -0.27007686469E+03  0.28318222822E+03  0.00000000000E+00 0. -1.
</event>
<event>
 7    1  0.2749315E-009  0.1056394E+03  0.7561462E-02  0.1268865E+00
          1   -1    0    0  501    0  0.00000000000E+00  0.00000000000E+00  0.83196990190E+02  0.83196990190E+02  0.00000000000E+00 0. -1.
         -1   -1    0    0    0  501 -0.00000000000E+00 -0.00000000000E+00 -0.17629936556E+03  0.17629936556E+03  0.00000000000E+00 0.  1.
         25    2    1    2    0    0 -0.48999632124E+02  0.22115310360E+02 -0.53073286560E+02  0.14612900878E+03  0.12508741967E+03 0.  0.
          5    1    3    3  502    0  0.30981091314E+02  0.43203856688E+02 -0.21227385983E+02  0.57397522311E+02  0.41800000000E+01 0.  1.
         -5    1    3    3    0  502 -0.79980723437E+02 -0.21088546328E+02 -0.31845900577E+02  0.88731486471E+02  0.41800000000E+01 0.  1.
        -11    1    1    2    0    0 -0.42648662917E+01 -0.21442199073E+02 -0.54033273949E+02  0.58288520990E+02  0.00000000000E+00 0.  1.
         11    1    1    2    0    0  0.53264498415E+02 -0.67311128655E+00  0.14004185136E+02  0.55078825982E+02  0.00000000000E+00 0. -1.
</event>
<event>
 7    1  0.2749315E-009  0.1005566E+03  0.7561462E-02  0.1279130E+00
          3   -1    0    0  501    0  0.00000000000E+00  0.00000000000E+00  0.22546156143E+03  0.22546156143E+03  0.00000000000E+00 0. -1.
         -3   -1    0    0    0  501 -0.00000000000E+00 -0.00000000000E+00 -0.70562345757E+02  0.70562345757E+02  0.00000000000E+00 0.  1.
         25    2    1    2    0    0 -0.53488825722E+02 -0.18399486770E+02  0.11517093445E+03  0.17920247565E+03  0.12509831152E+03 0.  0.
          5    1    3    3  502    0 -0.78682470361E+02 -0.32008381522E+02  0.31540294084E+02  0.90706836461E+02  0.41800000000E+01 0. -1.
         -5    1    3    3    0  502  0.25193644639E+02  0.13608894752E+02  0.83630640366E+02  0.88495639184E+02  0.41800000000E+01 0. -1.
        -11    1    1    2    0    0 -0.14841806452E+02 -0.37311037706E+01 -0.18748893126E+02  0.24201680676E+02  0.00000000000E+00 0.  1.
         11    1    1    2    0    0  0.68330632174E+02  0.22130590541E+02  0.58477174353E+02  0.92619750870E+02  0.00000000000E+00 0. -1.
</event>
<event>
 7    1  0.2749315E-009  0.3365866E+03  0.7561462E-02  0.1068259E+00
         -1   -1    0    0    0  501 -0.00000000000E+00  0.00000000000E+00  0.32133963241E+03  0.32133963241E+03  0.00000000000E+00 0.  1.
          1   -1    0    0  501    0  0.00000000000E+00 -0.00000000000E+00 -0.38225310669E+03  0.38225310669E+03  0.00000000000E+00 0. -1.
         25    2    1    2    0    0 -0.29644630931E+03  0.15054769560E+03 -0.14906862658E+02  0.35554882740E+03  0.12509089160E+03 0.  0.
          5    1    3    3  502    0 -0.67254113749E+02  0.66973026014E+02 -0.52709488310E+02  0.10864743249E+03  0.41800000000E+01 0. -1.
         -5    1    3    3    0  502 -0.22919219556E+03  0.83574669583E+02  0.37802625652E+02  0.24690139491E+03  0.41800000000E+01 0. -1.
        -11    1    1    2    0    0  0.25427878103E+03 -0.14168756038E+03 -0.69069521786E+02  0.29917162647E+03  0.00000000000E+00 0. -1.
         11    1    1    2    0    0  0.42167528280E+02 -0.88601352208E+01  0.23062910162E+02  0.48872285219E+02  0.00000000000E+00 0.  1.
</event>
<event>
 7    1  0.2749315E-009  0.8776421E+02  0.7561462E-02  0.1308358E+00
          2   -1    0    0  501    0  0.00000000000E+00  0.00000000000E+00  0.42678099800E+03  0.42678099800E+03  0.00000000000E+00 0. -1.
         -2   -1    0    0    0  501 -0.00000000000E+00 -0.00000000000E+00 -0.45440227563E+02  0.45440227563E+02  0.00000000000E+00 0.  1.
         25    2    1    2    0    0  0.12600314644E+02  0.70558875688E+02  0.12369599375E+03  0.18996291292E+03  0.12509151268E+03 0.  0.
          5    1    3    3  502    0  0.18023182344E+02 -0.99154594812E+01 -0.17480604945E+02  0.27316577160E+02  0.41800000000E+01 0. -1.
         -5    1    3    3    0  502 -0.54228677003E+01  0.80474335169E+02  0.14117659870E+03  0.16264633576E+03  0.41800000000E+01 0. -1.
        -11    1    1    2    0    0 -0.17051721918E+02 -0.57540190576E+02  0.26123425067E+03  0.26803911744E+03  0.00000000000E+00 0. -1.
         11    1    1    2    0    0  0.44514072740E+01 -0.13018685112E+02 -0.35894739920E+01  0.14219195205E+02  0.00000000000E+00 0.  1.
</event>
<event>
 7    1  0.2749315E-009  0.1938149E+03  0.7561462E-02  0.1155065E+00
          1   -1    0    0  501    0  0.00000000000E+00  0.00000000000E+00  0.45002310871E+03  0.45002310871E+03  0.00000000000E+00 0. -1.
         -1   -1    0    0    0  501 -0.00000000000E+00 -0.00000000000E+00 -0.99028178519E+02  0.99028178519E+02  0.00000000000E+00 0.  1.
         25    2    1    2    0    0  0.73780094141E+02 -0.15368721342E+03  0.10390857156E+03  0.23560088548E+03  0.12509006409E+03 0.  0.
          5    1    3    3  502    0  0.90917686639E+01  0.21308090964E+02  0.20410340666E+02  0.31156851639E+02  0.41800000000E+01 0.  1.
         -5    1    3    3    0  502  0.64688325477E+02 -0.17499530438E+03  0.83498230893E+02  0.20444403384E+03  0.41800000000E+01 0.  1.
        -11    1    1    2    0    0 -0.13732929273E+02  0.85582359580E+02  0.59765784653E+02  0.10528476923E+03  0.00000000000E+00 0.  1.
         11    1    1    2    0    0 -0.60047164868E+02  0.68104853841E+02  0.18732057398E+03  0.20816563252E+03  0.00000000000E+00 0. -1.
</event>
<event>
 7    1  0.2749315E-009  0.1148476E+03  0.7561462E-02  0.1251847E+00
          2   -1    0    0  501    0  0.00000000000E+00  0.00000000000E+00  0.24692707923E+03  0.24692707923E+03  0.00000000000E+00 0. -1.
         -2   -1    0    0    0  501 -0.00000000000E+00 -0.00000000000E+00 -0.70489853015E+02  0.70489853015E+02  0.00000000000E+00 0.  1.
         25    2    1    2    0    0 -0.21582447882E+02  0.53865890482E+02  0.15026997822E+03  0.20394985722E+03  0.12508853541E+03 0.  0.
          5    1    3    3  502    0  0.28359514123E+02  0.76197822159E+02  0.10469691470E+03  0.13262460741E+03  0.41800000000E+01 0. -1.
         -5    1    3    3    0  502 -0.49941962006E+02 -0.22331931677E+02  0.45573063517E+02  0.71325249805E+02  0.41800000000E+01 0. -1.
        -11    1    1    2    0    0  0.41393537845E+02 -0.59806445344E+02 -0.83663899510E+01  0.73213607757E+02  0.00000000000E+00 0.  1.
         11    1    1    2    0    0 -0.19811089962E+02  0.59405548618E+01  0.34533637950E+02  0.40253467275E+02  0.00000000000E+00 0. -1.
</event>
<event>
 7    1  0.2749315E-009  0.1105143E+03  0.7561462E-02  0.1259620E+00
         -2   -1    0    0    0  501 -0.00000000000E+00  0.00000000000E+00  0.21282964329E+03  0.21282964329E+03  0.00000000000E+00 0. -1.
          2   -1    0    0  501    0  0.00000000000E+00 -0.00000000000E+00 -0.66117770723E+02  0.66117770723E+02  0.00000000000E+00 0.  1.
         25    2    1    2    0    0 -0.14107604153E+02 -0.27333762553E+02  0.40075535489E+02  0.13490476895E+03  0.12508832507E+03 0.  0.
          5    1    3    3  502    0 -0.31078569750E+02 -0.73051919255E+02  0.29750029010E+02  0.84882253920E+02  0.41800000000E+01 0.  1.
         -5    1    3    3    0  502  0.16970965597E+02  0.45718156702E+02  0.10325506479E+02  0.50022515027E+02  0.41800000000E+01 0.  1.
        -11    1    1    2    0    0  0.43490603135E+01  0.59148195656E+02  0.87346497074E+02  0.10557856755E+03  0.00000000000E+00 0. -1.
         11    1    1    2    0    0  0.97585438392E+01 -0.31814433103E+02  0.19289840001E+02  0.38464077512E+02  0.00000000000E+00 0.  1.
</event>
<event>
 7    1  0.2749315E-009  0.1023268E+03  0.7561462E-02  0.1275478E+00
         -2   -1    0    0    0  501 -0.00000000000E+00  0.00000000000E+00  0.18672697857E+03  0.18672697857E+03  0.00000000000E+00 0.  1.
          2   -1    0    0  501    0  0.00000000000E+00 -0.00000000000E+00 -0.83523112358E+02  0.83523112358E+02  0.00000000000E+00 0. -1.
         25    2    1    2    0    0 -0.21220423104E+02 -0.33140139416E+02  0.10878271631E+03  0.17038015363E+03  0.12508853739E+03 0.  0.
          5    1    3    3  502    0 -0.64145436317E+02  0.74301129106E+01  0.28708948222E+02  0.70792087737E+02  0.41800000000E+01 0. -1.
         -5    1    3    3    0  502  0.42925013213E+02 -0.40570252326E+02  0.80073768086E+02  0.99588065895E+02  0.41800000000E+01 0. -1.
        -11    1    1    2    0    0 -0.10670627736E+02  0.45346906282E+02 -0.32150130040E+02  0.56602429871E+02  0.00000000000E+00 0. -1.
         11    1    1    2    0    0  0.31891050840E+02 -0.12206766867E+02  0.26571279947E+02  0.43267507428E+02  0.00000000000E+00 0.  1.
</event>
<event>
 7    1  0.2749315E-009  0.1091316E+03  0.7561462E-02  0.1262186E+00
          1   -1    0    0  501    0  0.00000000000E+00  0.00000000000E+00  0.35715421011E+03  0.35715421011E+03  0.00000000000E+00 0. -1.
         -1   -1    0    0    0  501 -0.00000000000E+00 -0.00000000000E+00 -0.41724197721E+02  0.41724197721E+02  0.00000000000E+00 0.  1.
         25    2    1    2    0    0  0.25672339292E+02  0.66547854526E+02  0.20375237175E+03  0.24949991862E+03  0.12508994545E+03 0.  0.
          5    1    3    3  502    0  0.38451361644E+02 -0.13848829649E+02  0.14032928061E+03  0.14621927606E+03  0.41800000000E+01 0.  1.
         -5    1    3    3    0  502 -0.12779022351E+02  0.80396684175E+02  0.63423091139E+02  0.10328064256E+03  0.41800000000E+01 0.  1.
        -11    1    1    2    0    0  0.20507305191E+02 -0.10478716498E+02  0.11789774294E+02  0.25871834947E+02  0.00000000000E+00 0.  1.
         11    1    1    2    0    0 -0.46179644483E+02 -0.56069138028E+02  0.99887866352E+02  0.12350665427E+03  0.00000000000E+00 0. -1.
</event>
<event>
 7    1  0.2749315E-009  0.1397515E+03  0.7561462E-02  0.1213664E+00
          2   -1    0    0  501    0  0.00000000000E+00  0.00000000000E+00  0.20203215532E+03  0.20203215532E+03  0.00000000000E+00 0. -1.
         -2   -1    0    0    0  501 -0.00000000000E+00 -0.00000000000E+00 -0.12146402685E+03  0.12146402685E+03  0.00000000000E+00 0.  1.
         25    2    1    2    0    0 -0.82228038659E+02  0.34459487269E+02 -0.20829704099E+02  0.15501669769E+03  0.12508954148E+03 0.  0.
          5    1    3    3  502    0 -0.49771023209E+02  0.77156669285E+02  0.10907693108E+02  0.92556774660E+02  0.41800000000E+01 0.  1.
         -5    1    3    3    0  502 -0.32457015449E+02 -0.42697182016E+02 -0.31737397207E+02  0.62459923035E+02  0.41800000000E+01 0.  1.
        -11    1    1    2    0    0  0.65517259216E+02  0.26435326816E+02  0.44613033840E+02  0.83556331582E+02  0.00000000000E+00 0.  1.
         11    1    1    2    0    0  0.16710779443E+02 -0.60894814085E+02  0.56784798723E+02  0.84923152897E+02  0.00000000000E+00 0. -1.
</event>
<event>
 7    1  0.2749315E-009  0.1557165E+03  0.7561462E-02  0.1193619E+00
         -4   -1    0    0    0  501 -0.00000000000E+00  0.00000000000E+00  0.62890191838E+02  0.62890191838E+02  0.00000000000E+00 0.  1.
          4   -1    0    0  501    0  0.00000000000E+00 -0.00000000000E+00 -0.47433555007E+03  0.47433555007E+03  0.00000000000E+00 0. -1.
         25    2    1    2    0    0 -0.11557597909E+03 -0.29991436691E+02 -0.30996225009E+03  0.35494245051E+03  0.12510097311E+03 0.  0.
          5    1    3    3  502    0 -0.10196185135E+03 -0.74380857924E+02 -0.22981218904E+03  0.26222098655E+03  0.41800000000E+01 0.  1.
         -5    1    3    3    0  502 -0.13614127736E+02  0.44389421233E+02 -0.80150061050E+02  0.92721463954E+02  0.41800000000E+01 0.  1.
        -11    1    1    2    0    0  0.11549625035E+03  0.44687768890E+02 -0.58702641160E+02  0.13704882565E+03  0.00000000000E+00 0.  1.
         11    1    1    2    0    0  0.79728744371E-01 -0.14696332199E+02 -0.42780466982E+02  0.45234465753E+02  0.00000000000E+00 0. -1.
</event>
<event>
 7    1  0.2749315E-009  0.9323797E+02  0.7561462E-02  0.1295195E+00
         -3   -1    0    0    0  501 -0.00000000000E+00  0.00000000000E+00  0.19916916147E+02  0.19916916147E+02  0.00000000000E+00 0.  1.
          3   -1    0    0  501    0  0.00000000000E+00 -0.00000000000E+00 -0.70397633837E+03  0.70397633837E+03  0.00000000000E+00 0. -1.
         25    2    1    2    0    0  0.11664035426E+02 -0.16595570875E+02 -0.52963698841E+03  0.54458644041E+03  0.12509032293E+03 0.  0.
          5    1    3    3  502    0 -0.19529908488E+02  0.40796032780E+02 -0.98000838788E+02  0.10801560267E+03  0.41800000000E+01 0.  1.
         -5    1    3    3    0  502  0.31193943913E+02 -0.57391603656E+02 -0.43163614963E+03  0.43657083775E+03  0.41800000000E+01 0.  1.
        -11    1    1    2    0    0  0.30601891886E+02  0.12310014942E+01 -0.17689879387E+02  0.35368389621E+02  0.00000000000E+00 0.  1.
         11    1    1    2    0    0 -0.42265927312E+02  0.15364569381E+02 -0.13673255442E+03  0.14393842448E+03  0.00000000000E+00 0. -1.
</event>
<event>
 7    1  0.2749315E-009  0.1137033E+03  0.7561462E-02  0.1253862E+00
          1   -1    0    0  501    0  0.00000000000E+00  0.00000000000E+00  0.34781304054E+03  0.34781304054E+03  0.00000000000E+00 0. -1.
         -1   -1    0    0    0  501 -0.00000000000E+00 -0.00000000000E+00 -0.83051272191E+02  0.83051272191E+02  0.00000000000E+00 0.  1.
         25    2    1    2    0    0  0.70169365461E+01  0.65389949518E+02 -0.21084583114E+01  0.14134363773E+03  0.12509394644E+03 0.  0.
          5    1    3    3  502    0  0.51178210110E+02  0.25935455576E+02  0.38674694906E+02  0.69318550707E+02  0.41800000000E+01 0.  1.
         -5    1    3    3    0  502 -0.44161273564E+02  0.39454493943E+02 -0.40783153217E+02  0.72025087028E+02  0.41800000000E+01 0.  1.
        -11    1    1    2    0    0  0.36847216515E+02 -0.70375956854E+01  0.11604682643E+03  0.12195946475E+03  0.00000000000E+00 0. -1.
         11    1    1    2    0    0 -0.43864153061E+02 -0.58352353833E+02  0.15082340024E+03  0.16756121025E+03  0.00000000000E+00 0.  1.
</event>
<event>
 7    1  0.2749315E-009  0.1046970E+03  0.7561462E-02  0.1270718E+00
         -2   -1    0    0    0  501 -0.00000000000E+00  0.00000000000E+00  0.10760829037E+03  0.10760829037E+03  0.00000000000E+00 0.  1.
          2   -1    0    0  501    0  0.00000000000E+00 -0.00000000000E+00 -0.23181551586E+03  0.23181551586E+03  0.00000000000E+00 0. -1.
         25    2    1    2    0    0  0.45642540050E+02 -0.46079614773E+02 -0.17185071320E+03  0.22223640840E+03  0.12509908565E+03 0.  0.
          5    1    3    3  502    0 -0.25625826121E+02 -0.60305002166E+02 -0.10229996746E+03  0.12155711412E+03  0.41800000000E+01 0.  1.
         -5    1    3    3    0  502  0.71268366172E+02  0.14225387393E+02 -0.69550745741E+02  0.10067929428E+03  0.41800000000E+01 0.  1.
        -11    1    1    2    0    0 -0.42256997629E+02  0.23983650499E+02 -0.14857170978E+02  0.50809495858E+02  0.00000000000E+00 0. -1.
         11    1    1    2    0    0 -0.33855424219E+01  0.22095964274E+02  0.62500658689E+02  0.66377901980E+02  0.00000000000E+00 0.  1.
</event>
<event>
 7    1  0.2749315E-009  0.1034743E+03  0.7561462E-02  0.1273155E+00
          2   -1    0    0  501    0  0.00000000000E+00  0.00000000000E+00  0.73631277913E+03  0.73631277913E+03  0.00000000000E+00 0. -1.
         -2   -1    0    0    0  501 -0.00000000000E+00 -0.00000000000E+00 -0.24250499280E+02  0.24250499280E+02  0.00000000000E+00 0.  1.
         25    2    1    2    0    0 -0.56219063967E+02 -0.20150532398E+02  0.51065930327E+03  0.52914000980E+03  0.12509835670E+03 0.  0.
          5    1    3    3  502    0  0.36811422191E+02  0.12687738476E+02  0.17042554482E+03  0.17486680142E+03  0.41800000000E+01 0. -1.
         -5    1    3    3    0  502 -0.93030486158E+02 -0.32838270874E+02  0.34023375845E+03  0.35427320838E+03  0.41800000000E+01 0. -1.
        -11    1    1    2    0    0  0.17720507540E+02 -0.98156007949E+01 -0.37046503933E+01  0.20593368859E+02  0.00000000000E+00 0.  1.
         11    1    1    2    0    0  0.38498556427E+02  0.29966133193E+02  0.20510762697E+03  0.21082989975E+03  0.00000000000E+00 0. -1.
</event>
<event>
 7    1  0.2749315E-009  0.7893554E+02  0.7561462E-02  0.1332100E+00
          2   -1    0    0  501    0  0.00000000000E+00  0.00000000000E+00  0.74846406443E+03  0.74846406443E+03  0.00000000000E+00 0. -1.
         -2   -1    0    0    0  501 -0.00000000000E+00 -0.00000000000E+00 -0.16748704515E+02  0.16748704515E+02  0.00000000000E+00 0.  1.
         25    2    1    2    0    0 -0.13025393078E+02  0.22589568923E+02  0.38951861283E+03  0.40994168754E+03  0.12508991946E+03 0.  0.
          5    1    3    3  502    0 -0.30438580042E+02  0.31041081337E+02  0.38077916374E+02  0.57943558753E+02  0.41800000000E+01 0.  1.
         -5    1    3    3    0  502  0.17413186964E+02 -0.84515124141E+01  0.35144069646E+03  0.35199812879E+03  0.41800000000E+01 0.  1.
        -11    1    1    2    0    0 -0.33271190006E+02  0.13284081520E+02  0.15691906863E+03  0.16095661840E+03  0.00000000000E+00 0. -1.
         11    1    1    2    0    0  0.46296583084E+02 -0.35873650443E+02  0.18527767845E+03  0.19431446300E+03  0.00000000000E+00 0.  1.
</event>
<event>
 7    1  0.2749315E-009  0.7688623E+02  0.7561462E-02  0.1338128E+00
         -1   -1    0    0    0  501 -0.00000000000E+00  0.00000000000E+00  0.30178870278E+03  0.30178870278E+03  0.00000000000E+00 0.  1.
          1   -1    0    0  501    0  0.00000000000E+00 -0.00000000000E+00 -0.41268658014E+02  0.41268658014E+02  0.00000000000E+00 0. -1.
         25    2    1    2    0    0 -0.29465259425E+02  0.17795381078E+02  0.17380179661E+03  0.21688604807E+03  0.12509043226E+03 0.  0.
          5    1    3    3  502    0  0.68433524037E+01  0.34069865038E+02  0.17337809000E+03  0.17687572380E+03  0.41800000000E+01 0. -1.
         -5    1    3    3    0  502 -0.36308611829E+02 -0.16274483960E+02  0.42370660219E+00  0.40010324272E+02  0.41800000000E+01 0. -1.
        -11    1    1    2    0    0 -0.19267925719E+02 -0.22710756317E+02  0.40155852467E+01  0.30052559606E+02  0.00000000000E+00 0. -1.
         11    1    1    2    0    0  0.48733185144E+02  0.49153752388E+01  0.82702662917E+02  0.96118753121E+02  0.00000000000E+00 0.  1.
</event>
<event>
 7    1  0.2749315E-009  0.1277918E+03  0.7561462E-02  0.1230770E+00
         -1   -1    0    0    0  501 -0.00000000000E+00  0.00000000000E+00  0.40745384087E+03  0.40745384087E+03  0.00000000000E+00 0.  1.
          1   -1    0    0  501    0  0.00000000000E+00 -0.00000000000E+00 -0.46326709507E+02  0.46326709507E+02  0.00000000000E+00 0. -1.
         25    2    1    2    0    0  0.26293019623E+02  0.72365531233E+02  0.24887695091E+03  0.28899003762E+03  0.12508961651E+03 0.  0.
          5    1    3    3  502    0  0.74285482799E+02  0.55879664894E+02  0.13196521718E+03  0.16147185776E+03  0.41800000000E+01 0.  1.
         -5    1    3    3    0  502 -0.47992463176E+02  0.16485866339E+02  0.11691173373E+03  0.12751817986E+03  0.41800000000E+01 0.  1.
        -11    1    1    2    0    0 -0.41985128866E+02 -0.48070468157E+01  0.74942166011E+02  0.86035963360E+02  0.00000000000E+00 0.  1.
         11    1    1    2    0    0  0.15692109243E+02 -0.67558484417E+02  0.37308014444E+02  0.78754549399E+02  0.00000000000E+00 0. -1.
</event>
<event>
 7    1  0.2749315E-009  0.1704019E+03  0.7561462E-02  0.1177429E+00
          1   -1    0    0  501    0  0.00000000000E+00  0.00000000000E+00  0.15479593169E+04  0.15479593169E+04  0.00000000000E+00 0. -1.
         -1   -1    0    0    0  501 -0.00000000000E+00 -0.00000000000E+00 -0.20250091968E+02  0.20250091968E+02  0.00000000000E+00 0.  1.
         25    2    1    2    0    0  0.46564049483E+02 -0.12749840349E+03  0.94520152682E+03  0.96305661533E+03  0.12509222367E+03 0.  0.
          5    1    3    3  502    0  0.28750436134E+02 -0.15127873029E+03  0.76204351671E+03  0.77745715996E+03  0.41800000000E+01 0.  1.
         -5    1    3    3    0  502  0.17813613348E+02  0.23780326806E+02  0.18315801011E+03  0.18559945536E+03  0.41800000000E+01 0.  1.
        -11    1    1    2    0    0  0.18401425289E+02  0.66765226421E+01  0.29642420876E+02  0.35522690251E+02  0.00000000000E+00 0.  1.
         11    1    1    2    0    0 -0.64965474772E+02  0.12082188084E+03  0.55286527724E+03  0.56963010329E+03  0.00000000000E+00 0. -1.
</event>
<event>
 7    1  0.2749315E-009  0.8533791E+02  0.7561462E-02  0.1314551E+00
         -1   -1    0    0    0  501 -0.00000000000E+00  0.00000000000E+00  0.15932777741E+03  0.15932777741E+03  0.00000000000E+00 0.  1.
          1   -1    0    0  501    0  0.00000000000E+00 -0.00000000000E+00 -0.10086314392E+03  0.10086314392E+03  0.00000000000E+00 0. -1.
         25    2    1    2    0    0  0.15577668672E+02  0.44820234018E+02 -0.11632902939E+02  0.13429837484E+03  0.12509681017E+03 0.  0.
          5    1    3    3  502    0 -0.18493056182E+02  0.31003175707E+02 -0.61960712280E+02  0.71831694238E+02  0.41800000000E+01 0. -1.
         -5    1    3    3    0  502  0.34070724854E+02  0.13817058311E+02  0.50327809341E+02  0.62466680603E+02  0.41800000000E+01 0. -1.
        -11    1    1    2    0    0  0.85060644480E+00  0.25299459597E+02  0.41069497087E+02  0.48244064695E+02  0.00000000000E+00 0.  1.
         11    1    1    2    0    0 -0.16428275117E+02 -0.70119693616E+02  0.29028039347E+02  0.77648481791E+02  0.00000000000E+00 0. -1.
</event>
<event>
 7    1  0.2749315E-009  0.4854128E+03  0.7561462E-02  0.1017658E+00
          2   -1    0    0  501    0  0.00000000000E+00  0.00000000000E+00  0.14866385645E+04  0.14866385645E+04  0.00000000000E+00 0. -1.
         -2   -1    0    0    0  501 -0.00000000000E+00 -0.00000000000E+00 -0.16872326491E+03  0.16872326491E+03  0.00000000000E+00 0.  1.
         25    2    1    2    0    0 -0.35461672895E+03 -0.32881541585E+03  0.54741162401E+03  0.74106608058E+03  0.12508735961E+03 0.  0.
          5    1    3    3  502    0 -0.23257164184E+03 -0.17741598295E+03  0.40673463578E+03  0.50101550469E+03  0.41800000000E+01 0.  1.
         -5    1    3    3    0  502 -0.12204508711E+03 -0.15139943289E+03  0.14067698823E+03  0.24005057590E+03  0.41800000000E+01 0.  1.
        -11    1    1    2    0    0  0.25329462889E+03  0.24255950328E+03  0.47711573248E+03  0.59214246920E+03  0.00000000000E+00 0.  1.
         11    1    1    2    0    0  0.10132210006E+03  0.86255912567E+02  0.29338794309E+03  0.32215327961E+03  0.00000000000E+00 0. -1.
</event>
<event>
 7    1  0.2749315E-009  0.9635328E+02  0.7561462E-02  0.1288157E+00
         -2   -1    0    0    0  501 -0.00000000000E+00  0.00000000000E+00  0.59444599887E+02  0.59444599887E+02  0.00000000000E+00 0.  1.
          2   -1    0    0  501    0  0.00000000000E+00 -0.00000000000E+00 -0.25290975447E+03  0.25290975447E+03  0.00000000000E+00 0. -1.
         25    2    1    2    0    0 -0.50315601277E+02  0.19385787125E+02 -0.12254785021E+03  0.18322917680E+03  0.12508991632E+03 0.  0.
          5    1    3    3  502    0 -0.30601411245E+01 -0.51035249765E+02 -0.45118913258E+02  0.68316542037E+02  0.41800000000E+01 0.  1.
         -5    1    3    3    0  502 -0.47255460153E+02  0.70421036890E+02 -0.77428936949E+02  0.11491263476E+03  0.41800000000E+01 0.  1.
        -11    1    1    2    0    0  0.23490030869E+02 -0.15128694380E+00  0.20970018395E+02  0.31488825152E+02  0.00000000000E+00 0.  1.
         11    1    1    2    0    0  0.26825570408E+02 -0.19234500181E+02 -0.91887322775E+02  0.97636352409E+02  0.00000000000E+00 0. -1.
</event>
<event>
 7    1  0.2749315E-009  0.9692988E+02  0.7561462E-02  0.1286888E+00
         -2   -1    0    0    0  501 -0.00000000000E+00  0.00000000000E+00  0.27187064738E+02  0.27187064738E+02  0.00000000000E+00 0.  1.
          2   -1    0    0  501    0  0.00000000000E+00 -0.00000000000E+00 -0.48075078990E+03  0.48075078990E+03  0.00000000000E+00 0. -1.
         25    2    1    2    0    0 -0.37391476002E+00  0.24100614327E+02 -0.32358906555E+03  0.34776340056E+03  0.12509404463E+03 0.  0.
          5    1    3    3  502    0 -0.28092773871E+02 -0.44042646490E+02 -0.15952241078E+03  0.16791018609E+03  0.41800000000E+01 0.  1.
         -5    1    3    3    0  502  0.27718859111E+02  0.68143260817E+02 -0.16406665478E+03  0.17985321447E+03  0.41800000000E+01 0.  1.
        -11    1    1    2    0    0  0.31816515580E+02 -0.13825644862E+02 -0.10559072376E+02  0.36262006687E+02  0.00000000000E+00 0.  1.
         11    1    1    2    0    0 -0.31442600820E+02 -0.10274969465E+02 -0.11941558723E+03  0.12391244739E+03  0.00000000000E+00 0. -1.
</event>
<event>
 7    1  0.4077144E-009  0.1938189E+03  0.7561462E-02  0.1155061E+00
         -1   -1    0    0    0  501 -0.00000000000E+00  0.00000000000E+00  0.11460650746E+03  0.11460650746E+03  0.00000000000E+00 0.  1.
          1   -1    0    0  501    0  0.00000000000E+00 -0.00000000000E+00 -0.42799594664E+03  0.42799594664E+03  0.00000000000E+00 0. -1.
         25    2    1    2    0    0 -0.19930716929E+02  0.18645973724E+03 -0.21650363470E+03  0.31254555664E+03  0.12508570680E+03 0.  0.
          5    1    3    3  502    0  0.12951234465E+02  0.95627744751E+02 -0.18862118511E+03  0.21191466187E+03  0.41800000000E+01 0. -1.
         -5    1    3    3    0  502 -0.32881951394E+02  0.90831992490E+02 -0.27882449590E+02  0.10063089477E+03  0.41800000000E+01 0. -1.
        -11    1    1    2    0    0  0.36275118557E+02 -0.10027707534E+03 -0.94218986599E+02  0.14229755269E+03  0.00000000000E+00 0. -1.
         11    1    1    2    0    0 -0.16344401628E+02 -0.86182661899E+02 -0.26668178748E+01  0.87759344768E+02  0.00000000000E+00 0.  1.
</event>
<event>
 7    1  0.2749315E-009  0.9043082E+02  0.7561462E-02  0.1301812E+00
         -4   -1    0    0    0  501 -0.00000000000E+00  0.00000000000E+00  0.46906271786E+02  0.46906271786E+02  0.00000000000E+00 0.  1.
          4   -1    0    0  501    0  0.00000000000E+00 -0.00000000000E+00 -0.28923951448E+03  0.28923951448E+03  0.00000000000E+00 0. -1.
         25    2    1    2    0    0 -0.30786410732E+02  0.24315718467E+02 -0.15354093792E+03  0.20189739054E+03  0.12509468189E+03 0.  0.
          5    1    3    3  502    0 -0.22195091039E+02 -0.23244731028E+02  0.78720222907E+01  0.33352372056E+02  0.41800000000E+01 0. -1.
         -5    1    3    3    0  502 -0.85913196929E+01  0.47560449495E+02 -0.16141296021E+03  0.16854501848E+03  0.41800000000E+01 0. -1.
        -11    1    1    2    0    0  0.47442995195E+02  0.20834599957E+02 -0.54180643853E+02  0.74969730670E+02  0.00000000000E+00 0.  1.
         11    1    1    2    0    0 -0.16656584463E+02 -0.45150318423E+02 -0.34611660919E+02  0.59278665060E+02  0.00000000000E+00 0. -1.
</event>
<event>
 7    1  0.2749315E-009  0.9765451E+02  0.7561462E-02  0.1285307E+00
          2   -1    0    0  501    0  0.00000000000E+00  0.00000000000E+00  0.90288962756E+03  0.90288962756E+03  0.00000000000E+00 0. -1.
         -2   -1    0    0    0  501 -0.00000000000E+00 -0.00000000000E+00 -0.27346715761E+02  0.27346715761E+02  0.00000000000E+00 0.  1.
         25    2    1    2    0    0 -0.23792126880E+02  0.21698755242E+02  0.79215768601E+03  0.80261993322E+03  0.12509219165E+03 0.  0.
          5    1    3    3  502    0  0.39910466092E+02  0.24565687830E+02  0.55540639596E+03  0.55739577985E+03  0.41800000000E+01 0.  1.
         -5    1    3    3    0  502 -0.63702592973E+02 -0.28669325880E+01  0.23675129005E+03  0.24522415336E+03  0.41800000000E+01 0.  1.
        -11    1    1    2    0    0  0.32830863434E+02 -0.47088348128E+02  0.23653055651E+02  0.62085788752E+02  0.00000000000E+00 0.  1.
         11    1    1    2    0    0 -0.90387365538E+01  0.25389592886E+02  0.59732170135E+02  0.65530621350E+02  0.00000000000E+00 0. -1.
</event>
<event>
 7    1  0.2749315E-009  0.1213614E+03  0.7561462E-02  0.1240868E+00
          1   -1    0    0  501    0  0.00000000000E+00  0.00000000000E+00  0.46165772763E+03  0.46165772763E+03  0.00000000000E+00 0. -1.
         -1   -1    0    0    0  501 -0.00000000000E+00 -0.00000000000E+00 -0.54960119004E+02  0.54960119004E+02  0.00000000000E+00 0.  1.
         25    2    1    2    0    0 -0.57275751680E+02  0.16252214295E+02  0.36964559162E+03  0.39475300215E+03  0.12508966024E+03 0.  0.
          5    1    3    3  502    0  0.33616385613E+02 -0.15685850261E+01  0.18559769260E+03  0.18867034144E+03  0.41800000000E+01 0.  1.
         -5    1    3    3    0  502 -0.90892137294E+02  0.17820799321E+02  0.18404789902E+03  0.20608266070E+03  0.41800000000E+01 0.  1.
        -11    1    1    2    0    0 -0.25071106571E+02 -0.22262069857E+02  0.10446757365E+02  0.35118298343E+02  0.00000000000E+00 0. -1.
         11    1    1    2    0    0  0.82346858251E+02  0.60098555622E+01  0.26605259644E+02  0.86746546147E+02  0.00000000000E+00 0.  1.
</event>
<event>
 7    1  0.2749315E-009  0.1019914E+03  0.7561462E-02  0.1276163E+00
          2   -1    0    0  501    0  0.00000000000E+00  0.00000000000E+00  0.12411648138E+03  0.12411648138E+03  0.00000000000E+00 0. -1.
         -2   -1    0    0    0  501 -0.00000000000E+00 -0.00000000000E+00 -0.13618183307E+03  0.13618183307E+03  0.00000000000E+00 0.  1.
         25    2    1    2    0    0  0.22683394140E+02 -0.59276806625E+02  0.24644153832E+01  0.14029213478E+03  0.12509010178E+03 0.  0.
          5    1    3    3  502    0 -0.48186052911E+02 -0.47901335945E+02 -0.33809065073E+01  0.68156706268E+02  0.41800000000E+01 0. -1.
         -5    1    3    3    0  502  0.70869447052E+02 -0.11375470680E+02  0.58453218905E+01  0.72135428512E+02  0.41800000000E+01 0. -1.
        -11    1    1    2    0    0 -0.76936389012E+01  0.10728653233E+02 -0.54048377001E+02  0.55637425679E+02  0.00000000000E+00 0.  1.
         11    1    1    2    0    0 -0.14989755239E+02  0.48548153392E+02  0.39518609923E+02  0.64368753989E+02  0.00000000000E+00 0. -1.
</event>
<event>
 7    1  0.2749315E-009  0.8680854E+02  0.7561462E-02  0.1310770E+00
         -2   -1    0    0    0  501 -0.00000000000E+00  0.00000000000E+00  0.73953713258E+02  0.73953713258E+02  0.00000000000E+00 0.  1.
          2   -1    0    0  501    0  0.00000000000E+00 -0.00000000000E+00 -0.16587226602E+03  0.16587226602E+03  0.00000000000E+00 0. -1.
         25    2    1    2    0    0  0.22788368705E+02  0.52653687332E+01 -0.62508219445E+02  0.14178177145E+03  0.12509100432E+03 0.  0.
          5    1    3    3  502    0 -0.12273517156E+01 -0.50256679877E+02 -0.63546923689E+02  0.81135221543E+02  0.41800000000E+01 0.  1.
         -5    1    3    3    0  502  0.24015720421E+02  0.55522048610E+02  0.10387042435E+01  0.60646549907E+02  0.41800000000E+01 0.  1.
        -11    1    1    2    0    0  0.19613385899E+02  0.11638309190E+01  0.23048177267E+02  0.30286265603E+02  0.00000000000E+00 0.  1.
         11    1    1    2    0    0 -0.42401754604E+02 -0.64291996522E+01 -0.52458510581E+02  0.67757942221E+02  0.00000000000E+00 0. -1.
</event>
<event>
 7    1  0.2749315E-009  0.1059912E+03  0.7561462E-02  0.1268179E+00
          2   -1    0    0  501    0  0.00000000000E+00  0.00000000000E+00  0.74638893467E+03  0.74638893467E+03  0.00000000000E+00 0. -1.
         -2   -1    0    0    0  501 -0.00000000000E+00 -0.00000000000E+00 -0.25819352226E+02  0.25819352226E+02  0.00000000000E+00 0.  1.
         25    2    1    2    0    0 -0.69080323491E+02 -0.43048716818E+02  0.45278531052E+03  0.47674378930E+03  0.12507925527E+03 0.  0.
          5    1    3    3  502    0 -0.25534963565E+01 -0.54553090142E+02  0.74553427208E+02  0.92510787998E+02  0.41800000000E+01 0.  1.
         -5    1    3    3    0  502 -0.66526827134E+02  0.11504373324E+02  0.37823188332E+03  0.38423300130E+03  0.41800000000E+01 0.  1.
        -11    1    1    2    0    0  0.31869501437E+02 -0.10237045029E+01  0.13339450005E+02  0.34563767433E+02  0.00000000000E+00 0.  1.
         11    1    1    2    0    0  0.37210822054E+02  0.44072421321E+02  0.25444482191E+03  0.26090073016E+03  0.00000000000E+00 0. -1.
</event>
<event>
 7    1  0.2749315E-009  0.1010336E+03  0.7561462E-02  0.1278137E+00
          2   -1    0    0  501    0  0.00000000000E+00  0.00000000000E+00  0.64528690256E+03  0.64528690256E+03  0.00000000000E+00 0. -1.
         -2   -1    0    0    0  501 -0.00000000000E+00 -0.00000000000E+00 -0.25255881878E+02  0.25255881878E+02  0.00000000000E+00 0.  1.
         25    2    1    2    0    0 -0.21892887179E+02 -0.50040007630E+02  0.42306243151E+03  0.44453428284E+03  0.12508239999E+03 0.  0.
          5    1    3    3  502    0 -0.61709176054E+02 -0.92032269233E+01  0.11213852575E+03  0.12839487198E+03  0.41800000000E+01 0.  1.
         -5    1    3    3    0  502  0.39816288876E+02 -0.40836780706E+02  0.31092390576E+03  0.31613941085E+03  0.41800000000E+01 0.  1.
        -11    1    1    2    0    0  0.42836701662E+02  0.41768941958E+02  0.19433582387E+03  0.20333725670E+03  0.00000000000E+00 0. -1.
         11    1    1    2    0    0 -0.20943814484E+02  0.82710656715E+01  0.26327653018E+01  0.22671244906E+02  0.00000000000E+00 0.  1.
</event>
<event>
 7    1  0.2749315E-009  0.1281981E+03  0.7561462E-02  0.1230154E+00
          2   -1    0    0  501    0  0.00000000000E+00  0.00000000000E+00  0.90112272194E+02  0.90112272194E+02  0.00000000000E+00 0.  1.
         -2   -1    0    0    0  501 -0.00000000000E+00 -0.00000000000E+00 -0.32236886806E+03  0.32236886806E+03  0.00000000000E+00 0. -1.
         25    2    1    2    0    0  0.62863782892E+02  0.70351721957E+02 -0.23284837636E+03  0.28065706236E+03  0.12509516496E+03 0.  0.
          5    1    3    3  502    0  0.88258463542E+02  0.78779352114E+01 -0.12204800030E+03  0.15088010150E+03  0.41800000000E+01 0. -1.
         -5    1    3    3    0  502 -0.25394680651E+02  0.62473786745E+02 -0.11080037606E+03  0.12977696086E+03  0.41800000000E+01 0. -1.
        -11    1    1    2    0    0 -0.13085986349E+01 -0.21491393551E+02  0.38849323838E+02  0.44416915582E+02  0.00000000000E+00 0.  1.
         11    1    1    2    0    0 -0.61555184257E+02 -0.48860328405E+02 -0.38257543340E+02  0.87407162310E+02  0.00000000000E+00 0. -1.
</event>
<event>
 7    1  0.2749315E-009  0.1085180E+03  0.7561462E-02  0.1263339E+00
         -2   -1    0    0    0  501 -0.00000000000E+00  0.00000000000E+00  0.15167035248E+02  0.15167035248E+02  0.00000000000E+00 0.  1.
          2   -1    0    0  501    0  0.00000000000E+00 -0.00000000000E+00 -0.97698321299E+03  0.97698321299E+03  0.00000000000E+00 0. -1.
         25    2    1    2    0    0  0.12993936031E+02  0.20037942702E+02 -0.73531609937E+03  0.74626249845E+03  0.12509032368E+03 0.  0.
          5    1    3    3  502    0  0.75070786251E+01  0.72901983914E+02 -0.38875026002E+03  0.39562013669E+03  0.41800000000E+01 0.  1.
         -5    1    3    3    0  502  0.54868574061E+01 -0.52864041212E+02 -0.34656583935E+03  0.35064236176E+03  0.41800000000E+01 0.  1.
        -11    1    1    2    0    0 -0.17913818413E+02 -0.53539260680E+02 -0.17798757079E+03  0.18672689330E+03  0.00000000000E+00 0. -1.
         11    1    1    2    0    0  0.49198823814E+01  0.33501317979E+02 -0.48512507582E+02  0.59160856492E+02  0.00000000000E+00 0.  1.
</event>
<event>
 7    1  0.2749315E-009  0.1513075E+03  0.7561462E-02  0.1198875E+00
         -2   -1    0    0    0  501 -0.00000000000E+00  0.00000000000E+00  0.31492205284E+02  0.31492205284E+02  0.00000000000E+00 0.  1.
          2   -1    0    0  501    0  0.00000000000E+00 -0.00000000000E+00 -0.11014552206E+04  0.11014552206E+04  0.00000000000E+00 0. -1.
         25    2    1    2    0    0  0.12405547811E+03  0.57649024166E+02 -0.36943448564E+03  0.41333171789E+03  0.12509235864E+03 0.  0.
          5    1    3    3  502    0  0.74674162090E+02  0.56016182180E+02 -0.34617110521E+03  0.35856094270E+03  0.41800000000E+01 0.  1.
         -5    1    3    3    0  502  0.49381316024E+02  0.16328419858E+01 -0.23263380437E+02  0.54770775187E+02  0.41800000000E+01 0.  1.
        -11    1    1    2    0    0 -0.37928462973E+02  0.20653172107E+02 -0.12005666682E+03  0.12758810708E+03  0.00000000000E+00 0.  1.
         11    1    1    2    0    0 -0.86127015141E+02 -0.78302196272E+02 -0.58047186287E+03  0.59202760092E+03  0.00000000000E+00 0. -1.
</event>
<event>
 7    1  0.2749315E-009  0.8497006E+02  0.7561462E-02  0.1315511E+00
          2   -1    0    0  501    0  0.00000000000E+00  0.00000000000E+00  0.43898250271E+03  0.43898250271E+03  0.00000000000E+00 0. -1.
         -2   -1    0    0    0  501 -0.00000000000E+00 -0.00000000000E+00 -0.31656397594E+02  0.31656397594E+02  0.00000000000E+00 0.  1.
         25    2    1    2    0    0 -0.12282003878E+02  0.56553791943E+01  0.12486039892E+03  0.17725674194E+03  0.12508797869E+03 0.  0.
          5    1    3    3  502    0  0.31908807343E+01  0.48657420270E+02  0.12179795228E+03  0.13126286546E+03  0.41800000000E+01 0. -1.
         -5    1    3    3    0  502 -0.15472884612E+02 -0.43002041076E+02  0.30624466341E+01  0.45993876487E+02  0.41800000000E+01 0. -1.
        -11    1    1    2    0    0  0.21432642360E+02 -0.36832955742E+02  0.11170707955E+03  0.11955959355E+03  0.00000000000E+00 0.  1.
         11    1    1    2    0    0 -0.91506384825E+01  0.31177576547E+02  0.17075862664E+03  0.17382256481E+03  0.00000000000E+00 0. -1.
</event>
<event>
 7    1  0.2749315E-009  0.2666106E+03  0.7561462E-02  0.1103235E+00
          2   -1    0    0  501    0  0.00000000000E+00  0.00000000000E+00  0.20300316986E+03  0.20300316986E+03  0.00000000000E+00 0. -1.
         -2   -1    0    0    0  501 -0.00000000000E+00 -0.00000000000E+00 -0.38147166995E+03  0.38147166995E+03  0.00000000000E+00 0.  1.
         25    2    1    2    0    0  0.24087126446E+03 -0.87321419419E+02 -0.81709030670E+02  0.29659456839E+03  0.12509187014E+03 0.  0.
          5    1    3    3  502    0  0.24320332844E+03 -0.63088353926E+02 -0.49687583656E+02  0.25615293818E+03  0.41800000000E+01 0.  1.
         -5    1    3    3    0  502 -0.23320639863E+01 -0.24233065493E+02 -0.32021447014E+02  0.40441630216E+02  0.41800000000E+01 0.  1.
        -11    1    1    2    0    0 -0.93702870420E+02  0.45928286546E+02  0.45965782667E+01  0.10445460240E+03  0.00000000000E+00 0.  1.
         11    1    1    2    0    0 -0.14716839404E+03  0.41393132873E+02 -0.10135604768E+03  0.18342566902E+03  0.00000000000E+00 0. -1.
</event>
<event>
 7    1  0.2749315E-009  0.1306807E+03  0.7561462E-02  0.1226449E+00
         -1   -1    0    0    0  501 -0.00000000000E+00  0.00000000000E+00  0.12854118628E+03  0.12854118628E+03  0.00000000000E+00 0.  1.
          1   -1    0    0  501    0  0.00000000000E+00 -0.00000000000E+00 -0.15543305447E+03  0.15543305447E+03  0.00000000000E+00 0. -1.
         25    2    1    2    0    0 -0.86115492289E+02  0.20293882795E+02 -0.33362521163E+02  0.15680290446E+03  0.12508546414E+03 0.  0.
          5    1    3    3  502    0 -0.86813018396E+02 -0.37896995068E+02 -0.22618562168E+02  0.97476941646E+02  0.41800000000E+01 0. -1.
         -5    1    3    3    0  502  0.69752610702E+00  0.58190877863E+02 -0.10743958994E+02  0.59325962815E+02  0.41800000000E+01 0. -1.
        -11    1    1    2    0    0  0.27123015924E+02 -0.37928056067E+02  0.35977359676E+02  0.58894531487E+02  0.00000000000E+00 0.  1.
         11    1    1    2    0    0  0.58992476365E+02  0.17634173272E+02 -0.29506706703E+02  0.68276804810E+02  0.00000000000E+00 0. -1.
</event>
<event>
 7    1  0.2749315E-009  0.1109984E+03  0.7561462E-02  0.1258732E+00
          1   -1    0    0  501    0  0.00000000000E+00  0.00000000000E+00  0.44465698580E+03  0.44465698580E+03  0.00000000000E+00 0. -1.
         -1   -1    0    0    0  501 -0.00000000000E+00 -0.00000000000E+00 -0.44474763471E+02  0.44474763471E+02  0.00000000000E+00 0.  1.
         25    2    1    2    0    0 -0.20249142834E+02 -0.72752727737E+02  0.13926151234E+03  0.20185255282E+03  0.12509075539E+03 0.  0.
          5    1    3    3  502    0  0.71856073146E+01 -0.10318387199E+03  0.11172282628E+03  0.15230891866E+03  0.41800000000E+01 0.  1.
         -5    1    3    3    0  502 -0.27434750149E+02  0.30431144254E+02  0.27538686059E+02  0.49543634164E+02  0.41800000000E+01 0.  1.
        -11    1    1    2    0    0 -0.27501853709E+01  0.12538655298E+02 -0.49113666241E+01  0.13744195807E+02  0.00000000000E+00 0.  1.
         11    1    1    2    0    0  0.22999328205E+02  0.60214072438E+02  0.26583207662E+03  0.27353500064E+03  0.00000000000E+00 0. -1.
</event>
<event>
 7    1  0.2749315E-009  0.1200033E+03  0.7561462E-02  0.1243092E+00
         -2   -1    0    0    0  501 -0.00000000000E+00  0.00000000000E+00  0.41127352235E+03  0.41127352235E+03  0.00000000000E+00 0.  1.
          2   -1    0    0  501    0  0.00000000000E+00 -0.00000000000E+00 -0.36658745630E+02  0.36658745630E+02  0.00000000000E+00 0. -1.
         25    2    1    2    0    0  0.19307731754E+02  0.51985174914E+02  0.24223546460E+03  0.27821251718E+03  0.12509571330E+03 0.  0.
          5    1    3    3  502    0 -0.10636454399E+02  0.86896690471E+02  0.12936820380E+03  0.15626187485E+03  0.41800000000E+01 0.  1.
         -5    1    3    3    0  502  0.29944186153E+02 -0.34911515557E+02  0.11286726080E+03  0.12195064232E+03  0.41800000000E+01 0.  1.
        -11    1    1    2    0    0 -0.63230544692E+01  0.26184488584E+02  0.35413157694E+02  0.44493822022E+02  0.00000000000E+00 0. -1.
         11    1    1    2    0    0 -0.12984677285E+02 -0.78169663498E+02  0.96966154426E+02  0.12522592878E+03  0.00000000000E+00 0.  1.
</event>
<event>
 7    1  0.2749315E-009  0.1135231E+03  0.7561462E-02  0.1254181E+00
         -1   -1    0    0    0  501 -0.00000000000E+00  0.00000000000E+00  0.61567018173E+02  0.61567018173E+02  0.00000000000E+00 0.  1.
          1   -1    0    0  501    0  0.00000000000E+00 -0.00000000000E+00 -0.30563858190E+03  0.30563858190E+03  0.00000000000E+00 0. -1.
         25    2    1    2    0    0  0.29068751233E+02  0.72020254161E+02 -0.61567616509E+02  0.15959526938E+03  0.12509264286E+03 0.  0.
          5    1    3    3  502    0  0.37271077580E+01  0.10193482246E+03 -0.23434406206E+02  0.10474370223E+03  0.41800000000E+01 0. -1.
         -5    1    3    3    0  502  0.25341643475E+02 -0.29914568302E+02 -0.38133210303E+02  0.54851567149E+02  0.41800000000E+01 0. -1.
        -11    1    1    2    0    0  0.42640767667E+01 -0.36765569296E+02 -0.13395347670E+03  0.13897274321E+03  0.00000000000E+00 0. -1.
         11    1    1    2    0    0 -0.33332827999E+02 -0.35254684865E+02 -0.48550470514E+02  0.68637587476E+02  0.00000000000E+00 0.  1.
</event>
<event>
 7    1  0.2749315E-009  0.1904820E+03  0.7561462E-02  0.1158027E+00
         -2   -1    0    0    0  501 -0.00000000000E+00  0.00000000000E+00  0.12017161234E+04  0.12017161234E+04  0.00000000000E+00 0.  1.
          2   -1    0    0  501    0  0.00000000000E+00 -0.00000000000E+00 -0.30909411306E+02  0.30909411306E+02  0.00000000000E+00 0. -1.
         25    2    1    2    0    0  0.63734087696E+02  0.14456768194E+03  0.65234634694E+03  0.68276253877E+03  0.12508828637E+03 0.  0.
          5    1    3    3  502    0  0.16653052306E+02 -0.22134517329E+02  0.80023993308E+02  0.84785452251E+02  0.41800000000E+01 0.  1.
         -5    1    3    3    0  502  0.47081035390E+02  0.16670219927E+03  0.57232235363E+03  0.59797708651E+03  0.41800000000E+01 0.  1.
        -11    1    1    2    0    0 -0.83028431372E+02 -0.93274700231E+02  0.30720922617E+03  0.33161935825E+03  0.00000000000E+00 0. -1.
         11    1    1    2    0    0  0.19294343676E+02 -0.51292981708E+02  0.21125113899E+03  0.21824363770E+03  0.00000000000E+00 0.  1.
</event>
<event>
 7    1  0.2749315E-009  0.1245347E+03  0.7561462E-02  0.1235798E+00
         -1   -1    0    0    0  501 -0.00000000000E+00  0.00000000000E+00  0.33792077088E+03  0.33792077088E+03  0.00000000000E+00 0.  1.
          1   -1    0    0  501    0  0.00000000000E+00 -0.00000000000E+00 -0.87931011064E+02  0.87931011064E+02  0.00000000000E+00 0. -1.
         25    2    1    2    0    0  0.10046502349E+03 -0.62068050544E+02  0.54340572318E+02  0.18040501484E+03  0.12508959884E+03 0.  0.
          5    1    3    3  502    0  0.68459851916E+02 -0.31836777754E+02 -0.33002472317E+02  0.82504347286E+02  0.41800000000E+01 0.  1.
         -5    1    3    3    0  502  0.32005171570E+02 -0.30231272791E+02  0.87343044635E+02  0.97900667556E+02  0.41800000000E+01 0.  1.
        -11    1    1    2    0    0 -0.90952784217E+02  0.71607066482E+02  0.20017476471E+03  0.23123563167E+03  0.00000000000E+00 0.  1.
         11    1    1    2    0    0 -0.95122392683E+01 -0.95390159377E+01 -0.45255772182E+01  0.14211135427E+02  0.00000000000E+00 0. -1.
</event>
<event>
 7    1  0.2749315E-009  0.8108742E+02  0.7561462E-02  0.1325994E+00
          2   -1    0    0  501    0  0.00000000000E+00  0.00000000000E+00  0.11973038898E+03  0.11973038898E+03  0.00000000000E+00 0.  1.
         -2   -1    0    0    0  501 -0.00000000000E+00 -0.00000000000E+00 -0.16382853409E+03  0.16382853409E+03  0.00000000000E+00 0. -1.
         25    2    1    2    0    0  0.69017120191E+02  0.29131255312E+02 -0.10091215151E+03  0.17732257779E+03  0.12509213148E+03 0.  0.
          5    1    3    3  502    0  0.50175309615E+01  0.63977610179E+01  0.29142221245E+02  0.30542567379E+02  0.41800000000E+01 0.  1.
         -5    1    3    3    0  502  0.63999589230E+02  0.22733494294E+02 -0.13005437276E+03  0.14678001041E+03  0.41800000000E+01 0.  1.
        -11    1    1    2    0    0 -0.15202223952E+02  0.10220970362E+02  0.28333389175E+02  0.33739543422E+02  0.00000000000E+00 0.  1.
         11    1    1    2    0    0 -0.53814896239E+02 -0.39352225674E+02  0.28480617226E+02  0.72496801863E+02  0.00000000000E+00 0. -1.
</event>
<event>
 7    1  0.2749315E-009  0.1632691E+03  0.7561462E-02  0.1185055E+00
         -1   -1    0    0    0  501 -0.00000000000E+00  0.00000000000E+00  0.11177477246E+03  0.11177477246E+03  0.00000000000E+00 0.  1.
          1   -1    0    0  501    0  0.00000000000E+00 -0.00000000000E+00 -0.28180735880E+03  0.28180735880E+03  0.00000000000E+00 0. -1.
         25    2    1    2    0    0 -0.12120477214E+03 -0.70847412758E+02 -0.86961208636E+02  0.20717032516E+03  0.12508932462E+03 0.  0.
          5    1    3    3  502    0 -0.89834225135E+02 -0.21429644713E+01  0.25304140448E+01  0.89992531343E+02  0.41800000000E+01 0.  1.
         -5    1    3    3    0  502 -0.31370547009E+02 -0.68704448287E+02 -0.89491622681E+02  0.11717779382E+03  0.41800000000E+01 0.  1.
        -11    1    1    2    0    0  0.12137090600E+03  0.36711118987E+02 -0.43280269121E+02  0.13398427063E+03  0.00000000000E+00 0.  1.
         11    1    1    2    0    0 -0.16613386075E+00  0.34136293771E+02 -0.39791108577E+02  0.52427535463E+02  0.00000000000E+00 0. -1.
</event>
<event>
 7    1  0.2749315E-009  0.2405327E+03  0.7561462E-02  0.1119438E+00
         -2   -1    0    0    0  501 -0.00000000000E+00  0.00000000000E+00  0.13846123890E+03  0.13846123890E+03  0.00000000000E+00 0.  1.
          2   -1    0    0  501    0  0.00000000000E+00 -0.00000000000E+00 -0.57666877348E+03  0.57666877348E+03  0.00000000000E+00 0. -1.
         25    2    1    2    0    0 -0.63779971884E+02  0.21392810756E+03 -0.54960017218E+02  0.26172667000E+03  0.12508847381E+03 0.  0.
          5    1    3    3  502    0  0.16744637601E+02 -0.72964773404E+01  0.36288605820E+01  0.19085662134E+02  0.41800000000E+01 0. -1.
         -5    1    3    3    0  502 -0.80524609485E+02  0.22122458490E+03 -0.58588877800E+02  0.24264100787E+03  0.41800000000E+01 0. -1.
        -11    1    1    2    0    0  0.36139510810E+02 -0.17748576445E+03 -0.22592919252E+03  0.28957082183E+03  0.00000000000E+00 0.  1.
         11    1    1    2    0    0  0.27640461074E+02 -0.36442343105E+02 -0.15731832485E+03  0.16383252056E+03  0.00000000000E+00 0. -1.
</event>
<event>
 7    1  0.2749315E-009  0.1056011E+03  0.7561462E-02  0.1268940E+00
          2   -1    0    0  501    0  0.00000000000E+00  0.00000000000E+00  0.17266808599E+03  0.17266808599E+03  0.00000000000E+00 0. -1.
         -2   -1    0    0    0  501 -0.00000000000E+00 -0.00000000000E+00 -0.69974059893E+02  0.69974059893E+02  0.00000000000E+00 0.  1.
         25    2    1    2    0    0 -0.64668494312E+01  0.12901839388E+02  0.76329775622E+02  0.14724789385E+03  0.12508968781E+03 0.  0.
          5    1    3    3  502    0 -0.51373394963E+02 -0.31548056592E+02  0.23715174687E+02  0.64918314020E+02  0.41800000000E+01 0. -1.
         -5    1    3    3    0  502  0.44906545531E+02  0.44449895979E+02  0.52614600934E+02  0.82329579834E+02  0.41800000000E+01 0. -1.
        -11    1    1    2    0    0  0.45634742925E+02 -0.15494758251E+02  0.28663603236E+02  0.56073339883E+02  0.00000000000E+00 0. -1.
         11    1    1    2    0    0 -0.39167893494E+02  0.25929188637E+01 -0.22993527605E+01  0.39320912147E+02  0.00000000000E+00 0.  1.
</event>
<event>
 7    1  0.2749315E-009  0.1244572E+03  0.7561462E-02  0.1235920E+00
          1   -1    0    0  501    0  0.00000000000E+00  0.00000000000E+00  0.47378869594E+03  0.47378869594E+03  0.00000000000E+00 0. -1.
         -1   -1    0    0    0  501 -0.00000000000E+00 -0.00000000000E+00 -0.44082786664E+02  0.44082786664E+02  0.00000000000E+00 0.  1.
         25    2    1    2    0    0 -0.58453747011E+02  0.69122969258E+02  0.18047481451E+03  0.23750684680E+03  0.12507405082E+03 0.  0.
          5    1    3    3  502    0 -0.70985218939E+02 -0.42681459622E+01  0.49347923374E+02  0.86659150233E+02  0.41800000000E+01 0.  1.
         -5    1    3    3    0  502  0.12531471928E+02  0.73391115220E+02  0.13112689113E+03  0.15084769657E+03  0.41800000000E+01 0.  1.
        -11    1    1    2    0    0  0.34277871240E+02 -0.50783347248E+01  0.17887550765E+03  0.18220101311E+03  0.00000000000E+00 0. -1.
         11    1    1    2    0    0  0.24175875771E+02 -0.64044634533E+02  0.70355587120E+02  0.98163622696E+02  0.00000000000E+00 0.  1.
</event>
<event>
 7    1  0.2749315E-009  0.8923053E+02  0.7561462E-02  0.1304726E+00
         -2   -1    0    0    0  501 -0.00000000000E+00  0.00000000000E+00  0.69413518187E+02  0.69413518187E+02  0.00000000000E+00 0.  1.
          2   -1    0    0  501    0  0.00000000000E+00 -0.00000000000E+00 -0.28700093564E+03  0.28700093564E+03  0.00000000000E+00 0. -1.
         25    2    1    2    0    0 -0.34081559577E+02 -0.21468563343E+02 -0.22116479335E+03  0.25726176231E+03  0.12508915467E+03 0.  0.
          5    1    3    3  502    0 -0.43482108675E+02 -0.55557556227E+02 -0.20735792655E+03  0.21907103399E+03  0.41800000000E+01 0. -1.
         -5    1    3    3    0  502  0.94005490987E+01  0.34088992884E+02 -0.13806866795E+02  0.38190728324E+02  0.41800000000E+01 0. -1.
        -11    1    1    2    0    0 -0.37540359777E+01  0.32541147120E+02  0.35589484703E+02  0.48369726725E+02  0.00000000000E+00 0.  1.
         11    1    1    2    0    0  0.37835595554E+02 -0.11072583777E+02 -0.32012108812E+02  0.50782964792E+02  0.00000000000E+00 0. -1.
</event>
<event>
 7    1  0.2749315E-009  0.1166057E+03  0.7561462E-02  0.1248804E+00
         -2   -1    0    0    0  501 -0.00000000000E+00  0.00000000000E+00  0.30283902846E+02  0.30283902846E+02  0.00000000000E+00 0.  1.
          2   -1    0    0  501    0  0.00000000000E+00 -0.00000000000E+00 -0.56369238368E+03  0.56369238368E+03  0.00000000000E+00 0. -1.
         25    2    1    2    0    0 -0.40679118536E+02 -0.13050198235E+02 -0.39237928454E+03  0.41404339899E+03  0.12508131334E+03 0.  0.
          5    1    3    3  502    0 -0.12195351156E+01 -0.63831854739E+02 -0.14655870926E+03  0.15991535451E+03  0.41800000000E+01 0.  1.
         -5    1    3    3    0  502 -0.39459583420E+02  0.50781656504E+02 -0.24582057528E+03  0.25412804448E+03  0.41800000000E+01 0.  1.
        -11    1    1    2    0    0  0.68719357416E+02  0.26542872709E+02 -0.66795633452E+02  0.99441092228E+02  0.00000000000E+00 0.  1.
         11    1    1    2    0    0 -0.28040238880E+02 -0.13492674474E+02 -0.74233562834E+02  0.80491795308E+02  0.00000000000E+00 0. -1.
</event>
<event>
 7    1  0.2749315E-009  0.2734734E+03  0.7561462E-02  0.1099308E+00
         -1   -1    0    0    0  501 -0.00000000000E+00  0.00000000000E+00  0.13992344500E+03  0.13992344500E+03  0.00000000000E+00 0.  1.
          1   -1    0    0  501    0  0.00000000000E+00 -0.00000000000E+00 -0.57625050674E+03  0.57625050674E+03  0.00000000000E+00 0. -1.
         25    2    1    2    0    0 -0.17854956245E+03  0.19026795221E+03 -0.25169621610E+03  0.38351049300E+03  0.12508986032E+03 0.  0.
          5    1    3    3  502    0 -0.10356768697E+03  0.28443366077E+02 -0.66648971725E+02  0.12647074242E+03  0.41800000000E+01 0. -1.
         -5    1    3    3    0  502 -0.74981875488E+02  0.16182458613E+03 -0.18504724437E+03  0.25703975058E+03  0.41800000000E+01 0. -1.
        -11    1    1    2    0    0  0.14847488483E+03 -0.16270360948E+03 -0.10680836025E+03  0.24479640885E+03  0.00000000000E+00 0.  1.
         11    1    1    2    0    0  0.30074677622E+02 -0.27564342727E+02 -0.77822485389E+02  0.87867049889E+02  0.00000000000E+00 0. -1.
</event>
<event>
 7    1  0.2749315E-009  0.1061047E+03  0.7561462E-02  0.1267958E+00
         -4   -1    0    0    0  501 -0.00000000000E+00  0.00000000000E+00  0.48033162887E+03  0.48033162887E+03  0.00000000000E+00 0.  1.
          4   -1    0    0  501    0  0.00000000000E+00 -0.00000000000E+00 -0.42682625470E+02  0.42682625470E+02  0.00000000000E+00 0. -1.
         25    2    1    2    0    0  0.32900282801E+02  0.53250469934E+02  0.36418870822E+03  0.39012636870E+03  0.12508847749E+03 0.  0.
          5    1    3    3  502    0  0.78686310270E+02  0.49882115966E+02  0.22748732242E+03  0.24586117054E+03  0.41800000000E+01 0. -1.
         -5    1    3    3    0  502 -0.45786027469E+02  0.33683539682E+01  0.13670138580E+03  0.14426519816E+03  0.41800000000E+01 0. -1.
        -11    1    1    2    0    0 -0.39895335619E+02 -0.34169108795E+02 -0.41206888485E+01  0.52689143821E+02  0.00000000000E+00 0. -1.
         11    1    1    2    0    0  0.69950528174E+01 -0.19081361139E+02  0.77580984031E+02  0.80198741824E+02  0.00000000000E+00 0.  1.
</event>
<event>
 7    1  0.2749315E-009  0.2253086E+03  0.7561462E-02  0.1129986E+00
          2   -1    0    0  501    0  0.00000000000E+00  0.00000000000E+00  0.73362682556E+03  0.73362682556E+03  0.00000000000E+00 0. -1.
         -2   -1    0    0    0  501 -0.00000000000E+00 -0.00000000000E+00 -0.83915718339E+02  0.83915718339E+02  0.00000000000E+00 0.  1.
         25    2    1    2    0    0 -0.12487300807E+03  0.16777913085E+03  0.46008143131E+03  0.52063909514E+03  0.12508812518E+03 0.  0.
          5    1    3    3  502    0 -0.89236148280E+02  0.57299621839E+02  0.11480089489E+03  0.15634274748E+03  0.41800000000E+01 0.  1.
         -5    1    3    3    0  502 -0.35636859790E+02  0.11047950901E+03  0.34528053642E+03  0.36429634766E+03  0.41800000000E+01 0.  1.
        -11    1    1    2    0    0  0.13288031871E+03 -0.11739616153E+03  0.15137878918E+03  0.23314067782E+03  0.00000000000E+00 0. -1.
         11    1    1    2    0    0 -0.80073106413E+01 -0.50382969323E+02  0.38250886729E+02  0.63762770933E+02  0.00000000000E+00 0.  1.
</event>
<event>
 7    1  0.2749315E-009  0.1168088E+03  0.7561462E-02  0.1248456E+00
         -1   -1    0    0    0  501 -0.00000000000E+00  0.00000000000E+00  0.41259686514E+02  0.41259686514E+02  0.00000000000E+00 0.  1.
          1   -1    0    0  501    0  0.00000000000E+00 -0.00000000000E+00 -0.46118534449E+03  0.46118534449E+03  0.00000000000E+00 0. -1.
         25    2    1    2    0    0 -0.73015771816E+02 -0.48308397398E+01 -0.29922152930E+03  0.33247396732E+03  0.12510305911E+03 0.  0.
          5    1    3    3  502    0 -0.93605339661E+02  0.16485963603E+02 -0.28271602392E+03  0.29829443373E+03  0.41800000000E+01 0. -1.
         -5    1    3    3    0  502  0.20589567845E+02 -0.21316803343E+02 -0.16505505380E+02  0.34179533593E+02  0.41800000000E+01 0. -1.
        -11    1    1    2    0    0  0.25283822282E+02 -0.37180397081E+02 -0.87171350191E+02  0.98084136793E+02  0.00000000000E+00 0. -1.
         11    1    1    2    0    0  0.47731949534E+02  0.42011236821E+02 -0.33532778486E+02  0.71886926896E+02  0.00000000000E+00 0.  1.
</event>
<event>
 7    1  0.2749315E-009  0.3221889E+03  0.7561462E-02  0.1074646E+00
          1   -1    0    0  501    0  0.00000000000E+00  0.00000000000E+00  0.27369531571E+03  0.27369531571E+03  0.00000000000E+00 0. -1.
         -1   -1    0    0    0  501 -0.00000000000E+00 -0.00000000000E+00 -0.40631468250E+03  0.40631468250E+03  0.00000000000E+00 0.  1.
         25    2    1    2    0    0 -0.21353990471E+03  0.22501240832E+03 -0.12345098765E+03  0.35653558201E+03  0.12509036767E+03 0.  0.
          5    1    3    3  502    0 -0.51732022746E+02 -0.56935238721E+01 -0.12721573097E+02  0.53739456766E+02  0.41800000000E+01 0. -1.
         -5    1    3    3    0  502 -0.16180788197E+03  0.23070593220E+03 -0.11072941456E+03  0.30279612525E+03  0.41800000000E+01 0. -1.
        -11    1    1    2    0    0  0.11257292425E+03 -0.12519162440E+03 -0.50195426753E+02  0.17568490818E+03  0.00000000000E+00 0.  1.
         11    1    1    2    0    0  0.10096698046E+03 -0.99820783928E+02  0.41027047613E+02  0.14778950803E+03  0.00000000000E+00 0. -1.
</event>
<event>
 7    1  0.2749315E-009  0.1104714E+03  0.7561462E-02  0.1259700E+00
          2   -1    0    0  501    0  0.00000000000E+00  0.00000000000E+00  0.66993251610E+03  0.66993251610E+03  0.00000000000E+00 0. -1.
         -2   -1    0    0    0  501 -0.00000000000E+00 -0.00000000000E+00 -0.25804440311E+02  0.25804440311E+02  0.00000000000E+00 0.  1.
         25    2    1    2    0    0  0.27298856405E+02  0.50712023201E+02  0.24077342899E+03  0.27737502451E+03  0.12509245882E+03 0.  0.
          5    1    3    3  502    0 -0.35491294723E+02  0.10563211957E+02  0.17162073623E+03  0.17561993894E+03  0.41800000000E+01 0.  1.
         -5    1    3    3    0  502  0.62790151128E+02  0.40148811244E+02  0.69152692762E+02  0.10175508557E+03  0.41800000000E+01 0.  1.
        -11    1    1    2    0    0 -0.53603017406E+02 -0.19631132340E+01  0.15887166074E+03  0.16768226464E+03  0.00000000000E+00 0.  1.
         11    1    1    2    0    0  0.26304161001E+02 -0.48748909967E+02  0.24448298605E+03  0.25067966726E+03  0.00000000000E+00 0. -1.
</event>
<event>
 7    1  0.2749315E-009  0.1072563E+03  0.7561462E-02  0.1265737E+00
          1   -1    0    0  501    0  0.00000000000E+00  0.00000000000E+00  0.26823733928E+03  0.26823733928E+03  0.00000000000E+00 0. -1.
         -1   -1    0    0    0  501 -0.00000000000E+00 -0.00000000000E+00 -0.88221287204E+02  0.88221287204E+02  0.00000000000E+00 0.  1.
         25    2    1    2    0    0 -0.87581335608E+02  0.61251125688E+02  0.70275896879E+02  0.17890946933E+03  0.12509079019E+03 0.  0.
          5    1    3    3  502    0 -0.32532967687E+02  0.21916899639E+02  0.98023670253E+02  0.10566388601E+03  0.41800000000E+01 0.  1.
         -5    1    3    3    0  502 -0.55048367921E+02  0.39334226049E+02 -0.27747773374E+02  0.73245583327E+02  0.41800000000E+01 0.  1.
        -11    1    1    2    0    0  0.24157114196E+02 -0.22109899404E+02 -0.11941346445E+02  0.34856987432E+02  0.00000000000E+00 0.  1.
         11    1    1    2    0    0  0.63424221412E+02 -0.39141226285E+02  0.12168150164E+03  0.14269216972E+03  0.00000000000E+00 0. -1.
</event>
<event>
 7    1  0.2749315E-009  0.2277918E+03  0.7561462E-02  0.1128204E+00
         -1   -1    0    0    0  501 -0.00000000000E+00  0.00000000000E+00  0.49182937116E+02  0.49182937116E+02  0.00000000000E+00 0.  1.
          1   -1    0    0  501    0  0.00000000000E+00 -0.00000000000E+00 -0.14758418300E+04  0.14758418300E+04  0.00000000000E+00 0. -1.
         25    2    1    2    0    0  0.19629628689E+03 -0.57175556334E+02 -0.11232284863E+04  0.11485171896E+04  0.12509286842E+03 0.  0.
          5    1    3    3  502    0  0.20725128943E+03 -0.72113946948E+02 -0.10606693361E+04  0.10831391560E+04  0.41800000000E+01 0.  1.
         -5    1    3    3    0  502 -0.10955002545E+02  0.14938390614E+02 -0.62559150183E+02  0.65378033517E+02  0.41800000000E+01 0.  1.
        -11    1    1    2    0    0 -0.17722100117E+03  0.73644064776E+02 -0.29053991369E+03  0.34820133971E+03  0.00000000000E+00 0. -1.
         11    1    1    2    0    0 -0.19075285714E+02 -0.16468508442E+02 -0.12890492904E+02  0.28306237876E+02  0.00000000000E+00 0.  1.
</event>
<event>
 7    1  0.2749315E-009  0.1206354E+03  0.7561462E-02  0.1242053E+00
          2   -1    0    0  501    0  0.00000000000E+00  0.00000000000E+00  0.20044262876E+03  0.20044262876E+03  0.00000000000E+00 0. -1.
         -2   -1    0    0    0  501 -0.00000000000E+00 -0.00000000000E+00 -0.75621421905E+02  0.75621421905E+02  0.00000000000E+00 0.  1.
         25    2    1    2    0    0  0.55473006670E+02 -0.12380368850E+02  0.60533697951E+02  0.15013872496E+03  0.12508709023E+03 0.  0.
          5    1    3    3  502    0 -0.35132409837E+02 -0.26117510958E+02  0.30856686746E+02  0.53721672689E+02  0.41800000000E+01 0.  1.
         -5    1    3    3    0  502  0.90605416508E+02  0.13737142108E+02  0.29677011205E+02  0.96417052267E+02  0.41800000000E+01 0.  1.
        -11    1    1    2    0    0 -0.62079361071E+02 -0.25495600166E+02  0.53962807806E+02  0.86115372177E+02  0.00000000000E+00 0.  1.
         11    1    1    2    0    0  0.66063544012E+01  0.37875969016E+02  0.10324701099E+02  0.39809953532E+02  0.00000000000E+00 0. -1.
</event>
<event>
 7    1  0.2749315E-009  0.1093507E+03  0.7561462E-02  0.1261777E+00
         -1   -1    0    0    0  501 -0.00000000000E+00  0.00000000000E+00  0.13793353646E+02  0.13793353646E+02  0.00000000000E+00 0.  1.
          1   -1    0    0  501    0  0.00000000000E+00 -0.00000000000E+00 -0.91319999935E+03  0.91319999935E+03  0.00000000000E+00 0. -1.
         25    2    1    2    0    0 -0.55364929886E+00  0.14180896929E+02 -0.41822150772E+03  0.43675956521E+03  0.12509310102E+03 0.  0.
          5    1    3    3  502    0 -0.18603905533E+02  0.66639646448E+02 -0.25823850836E+03  0.26737903317E+03  0.41800000000E+01 0. -1.
         -5    1    3    3    0  502  0.18050256234E+02 -0.52458749519E+02 -0.15998299936E+03  0.16938053204E+03  0.41800000000E+01 0. -1.
        -11    1    1    2    0    0  0.29138671270E+02 -0.43788884596E+02 -0.26824127314E+03  0.27334942691E+03  0.00000000000E+00 0.  1.
         11    1    1    2    0    0 -0.28585021971E+02  0.29607987667E+02 -0.21294386484E+03  0.21688436087E+03  0.00000000000E+00 0. -1.
</event>
<event>
 7    1  0.2749315E-009  0.1077097E+03  0.7561462E-02  0.1264871E+00
         -1   -1    0    0    0  501 -0.00000000000E+00  0.00000000000E+00  0.14294028877E+02  0.14294028877E+02  0.00000000000E+00 0.  1.
          1   -1    0    0  501    0  0.00000000000E+00 -0.00000000000E+00 -0.10269598825E+04  0.10269598825E+04  0.00000000000E+00 0. -1.
         25    2    1    2    0    0 -0.25592832380E+02 -0.36651490756E+02 -0.70724326386E+03  0.71961026822E+03  0.12509028346E+03 0.  0.
          5    1    3    3  502    0  0.16210724333E+02  0.41060400923E+02 -0.22024749774E+03  0.22466681279E+03  0.41800000000E+01 0. -1.
         -5    1    3    3    0  502 -0.41803556713E+02 -0.77711891679E+02 -0.48699576612E+03  0.49494345544E+03  0.41800000000E+01 0. -1.
        -11    1    1    2    0    0 -0.40235217534E+01 -0.19146908003E+02 -0.15618813728E+02  0.25034778921E+02  0.00000000000E+00 0.  1.
         11    1    1    2    0    0  0.29616354134E+02  0.55798398759E+02 -0.28980377604E+03  0.29660886423E+03  0.00000000000E+00 0. -1.
</event>
<event>
 7    1  0.2749315E-009  0.1656611E+03  0.7561462E-02  0.1182450E+00
          1   -1    0    0  501    0  0.00000000000E+00  0.00000000000E+00  0.22161558111E+03  0.22161558111E+03  0.00000000000E+00 0. -1.
         -1   -1    0    0    0  501 -0.00000000000E+00 -0.00000000000E+00 -0.15058027326E+03  0.15058027326E+03  0.00000000000E+00 0.  1.
         25    2    1    2    0    0 -0.13875092179E+03 -0.47478666479E+02  0.35084194187E+02  0.19591968605E+03  0.12509028992E+03 0.  0.
          5    1    3    3  502    0 -0.13783286565E+03 -0.19377185997E+02 -0.13214991185E+02  0.13987666918E+03  0.41800000000E+01 0.  1.
         -5    1    3    3    0  502 -0.91805614511E+00 -0.28101480482E+02  0.48299185371E+02  0.56043016870E+02  0.41800000000E+01 0.  1.
        -11    1    1    2    0    0  0.35101952357E+02  0.48648305362E+02 -0.13405467662E+02  0.61469596038E+02  0.00000000000E+00 0. -1.
         11    1    1    2    0    0  0.10364896943E+03 -0.11696388824E+01  0.49356581324E+02  0.11480657229E+03  0.00000000000E+00 0.  1.
</event>
<event>
 7    1  0.2749315E-009  0.1474595E+03  0.7561462E-02  0.1203630E+00
          2   -1    0    0  501    0  0.00000000000E+00  0.00000000000E+00  0.66143635353E+03  0.66143635353E+03  0.00000000000E+00 0. -1.
         -2   -1    0    0    0  501 -0.00000000000E+00 -0.00000000000E+00 -0.34294165204E+02  0.34294165204E+02  0.00000000000E+00 0.  1.
         25    2    1    2    0    0  0.12082192964E+03 -0.33228219473E+01  0.36502825880E+03  0.40435380854E+03  0.12508953965E+03 0.  0.
          5    1    3    3  502    0 -0.59541229383E+01  0.39401352291E+02  0.81002187036E+02  0.90370043969E+02  0.41800000000E+01 0.  1.
         -5    1    3    3    0  502  0.12677605258E+03 -0.42724174238E+02  0.28402607176E+03  0.31398376457E+03  0.41800000000E+01 0.  1.
        -11    1    1    2    0    0 -0.47847878924E+02 -0.15010400697E+01  0.62085817337E+02  0.78398478003E+02  0.00000000000E+00 0.  1.
         11    1    1    2    0    0 -0.72974050714E+02  0.48238620170E+01  0.20002811219E+03  0.21297823220E+03  0.00000000000E+00 0. -1.
</event>
<event>
 7    1  0.2749315E-009  0.2234033E+03  0.7561462E-02  0.1131371E+00
          2   -1    0    0  501    0  0.00000000000E+00  0.00000000000E+00  0.27925920171E+03  0.27925920171E+03  0.00000000000E+00 0. -1.
         -2   -1    0    0    0  501 -0.00000000000E+00 -0.00000000000E+00 -0.21562005529E+03  0.21562005529E+03  0.00000000000E+00 0.  1.
         25    2    1    2    0    0  0.12989944128E+02  0.20919315234E+03 -0.32984005384E+02  0.24630489658E+03  0.12509054253E+03 0.  0.
          5    1    3    3  502    0 -0.48448189032E+02  0.10774932924E+03  0.13229859800E+02  0.11895228692E+03  0.41800000000E+01 0.  1.
         -5    1    3    3    0  502  0.61438133160E+02  0.10144382310E+03 -0.46213865184E+02  0.12735260966E+03  0.41800000000E+01 0.  1.
        -11    1    1    2    0    0 -0.73428157193E+01 -0.42340901433E+02 -0.17444792467E+02  0.46378763039E+02  0.00000000000E+00 0.  1.
         11    1    1    2    0    0 -0.56471284086E+01 -0.16685225091E+03  0.11406794427E+03  0.20219559739E+03  0.00000000000E+00 0. -1.
</event>
<event>
 7    1  0.2749315E-009  0.1041474E+03  0.7561462E-02  0.1271809E+00
          1   -1    0    0  501    0  0.00000000000E+00  0.00000000000E+00  0.29719948726E+02  0.29719948726E+02  0.00000000000E+00 0. -1.
         -1   -1    0    0    0  501 -0.00000000000E+00 -0.00000000000E+00 -0.46498193541E+03  0.46498193541E+03  0.00000000000E+00 0.  1.
         25    2    1    2    0    0 -0.82076561682E+01  0.39530568948E+02 -0.25426331948E+03  0.28622998360E+03  0.12509091243E+03 0.  0.
          5    1    3    3  502    0  0.78094872279E+01  0.81843221313E+02 -0.19411784849E+03  0.21085187329E+03  0.41800000000E+01 0.  1.
         -5    1    3    3    0  502 -0.16017143396E+02 -0.42312652365E+02 -0.60145470994E+02  0.75378110309E+02  0.41800000000E+01 0.  1.
        -11    1    1    2    0    0  0.41184788428E+01  0.20226432331E+02 -0.32412596768E+01  0.20894405881E+02  0.00000000000E+00 0. -1.
         11    1    1    2    0    0  0.40891773254E+01 -0.59757001279E+02 -0.17775740752E+03  0.18757749466E+03  0.00000000000E+00 0.  1.
</event>
<event>
 7    1  0.2749315E-009  0.1325795E+03  0.7561462E-02  0.1223678E+00
          3   -1    0    0  501    0  0.00000000000E+00  0.00000000000E+00  0.91129178890E+02  0.91129178890E+02  0.00000000000E+00 0. -1.
         -3   -1    0    0    0  501 -0.00000000000E+00 -0.00000000000E+00 -0.30990667236E+03  0.30990667236E+03  0.00000000000E+00 0.  1.
         25    2    1    2    0    0  0.83384068050E+02  0.63724658532E+02 -0.35041770162E+02  0.16700218004E+03  0.12509223626E+03 0.  0.
          5    1    3    3  502    0 -0.91403749912E+01 -0.54008379350E+01  0.31598123589E+02  0.33595078802E+02  0.41800000000E+01 0. -1.
         -5    1    3    3    0  502  0.92524443041E+02  0.69125496467E+02 -0.66639893751E+02  0.13340710124E+03  0.41800000000E+01 0. -1.
        -11    1    1    2    0    0  0.97572139947E+01  0.13864645705E+02 -0.43066675073E+01  0.17492255729E+02  0.00000000000E+00 0. -1.
         11    1    1    2    0    0 -0.93141282044E+02 -0.77589304237E+02 -0.17942905580E+03  0.21654141548E+03  0.00000000000E+00 0.  1.
</event>
<event>
 7    1  0.2749315E-009  0.2717989E+03  0.7561462E-02  0.1100254E+00
         -2   -1    0    0    0  501 -0.00000000000E+00  0.00000000000E+00  0.49859880349E+02  0.49859880349E+02  0.00000000000E+00 0.  1.
          2   -1    0    0  501    0  0.00000000000E+00 -0.00000000000E+00 -0.15791519598E+04  0.15791519598E+04  0.00000000000E+00 0. -1.
         25    2    1    2    0    0  0.25691421480E+03  0.28586554614E+02 -0.78822290726E+03  0.83890700411E+03  0.12508998819E+03 0.  0.
          5    1    3    3  502    0  0.17218450385E+03 -0.18954446248E+02 -0.62814461421E+03  0.65160563469E+03  0.41800000000E+01 0.  1.
         -5    1    3    3    0  502  0.84729710951E+02  0.47541000862E+02 -0.16007829305E+03  0.18730136942E+03  0.41800000000E+01 0.  1.
        -11    1    1    2    0    0 -0.12198304056E+03 -0.57855339382E+02 -0.33381580411E+03  0.36008345359E+03  0.00000000000E+00 0.  1.
         11    1    1    2    0    0 -0.13493117424E+03  0.29268784768E+02 -0.40725336805E+03  0.43002138241E+03  0.00000000000E+00 0. -1.
</event>
<event>
 7    1  0.2749315E-009  0.1485226E+03  0.7561462E-02  0.1202300E+00
          1   -1    0    0  501    0  0.00000000000E+00  0.00000000000E+00  0.15312158285E+03  0.15312158285E+03  0.00000000000E+00 0. -1.
         -1   -1    0    0    0  501 -0.00000000000E+00 -0.00000000000E+00 -0.18506129006E+03  0.18506129006E+03  0.00000000000E+00 0.  1.
         25    2    1    2    0    0 -0.13105718282E+03 -0.20983276085E+02 -0.14447202910E+02  0.18295839359E+03  0.12509504015E+03 0.  0.
          5    1    3    3  502    0 -0.71572085405E+01 -0.20452079147E+02 -0.49441129584E+02  0.54142505207E+02  0.41800000000E+01 0.  1.
         -5    1    3    3    0  502 -0.12389997428E+03 -0.53119693787E+00  0.34993926674E+02  0.12881588838E+03  0.41800000000E+01 0.  1.
        -11    1    1    2    0    0  0.73238612634E+02  0.47607240972E+02 -0.25674578627E+02  0.91046843774E+02  0.00000000000E+00 0.  1.
         11    1    1    2    0    0  0.57818570184E+02 -0.26623964887E+02  0.81820743213E+01  0.64177635548E+02  0.00000000000E+00 0. -1.
</event>
<event>
 7    1  0.2749315E-009  0.6996984E+02  0.7561462E-02  0.1360196E+00
         -1   -1    0    0    0  501 -0.00000000000E+00  0.00000000000E+00  0.22752219871E+02  0.22752219871E+02  0.00000000000E+00 0.  1.
          1   -1    0    0  501    0  0.00000000000E+00 -0.00000000000E+00 -0.57675250980E+03  0.57675250980E+03  0.00000000000E+00 0. -1.
         25    2    1    2    0    0  0.74142852055E+01  0.26378235444E+02 -0.39356025200E+03  0.41386862143E+03  0.12508709335E+03 0.  0.
          5    1    3    3  502    0 -0.16462168515E+02  0.53371220235E+02 -0.76886886411E+02  0.95123897332E+02  0.41800000000E+01 0. -1.
         -5    1    3    3    0  502  0.23876453720E+02 -0.26992984791E+02 -0.31667336559E+03  0.31874472410E+03  0.41800000000E+01 0. -1.
        -11    1    1    2    0    0 -0.36900104990E+01 -0.36593419019E+02 -0.16826664278E+03  0.17223924514E+03  0.00000000000E+00 0. -1.
         11    1    1    2    0    0 -0.37242747065E+01  0.10215183576E+02  0.78266048474E+01  0.13396863103E+02  0.00000000000E+00 0.  1.
</event>
<event>
 7    1  0.2749315E-009  0.6271478E+02  0.7561462E-02  0.1386780E+00
         -2   -1    0    0    0  501 -0.00000000000E+00  0.00000000000E+00  0.35310508279E+02  0.35310508279E+02  0.00000000000E+00 0.  1.
          2   -1    0    0  501    0  0.00000000000E+00 -0.00000000000E+00 -0.37477135157E+03  0.37477135157E+03  0.00000000000E+00 0. -1.
         25    2    1    2    0    0  0.42124461704E+00  0.31469850000E+02 -0.16234953957E+03  0.20735636250E+03  0.12509500055E+03 0.  0.
          5    1    3    3  502    0 -0.22586873632E+02  0.95388571170E+01 -0.17206787086E+03  0.17385620851E+03  0.41800000000E+01 0.  1.
         -5    1    3    3    0  502  0.23008118249E+02  0.21930992883E+02  0.97183312889E+01  0.33500153988E+02  0.41800000000E+01 0.  1.
        -11    1    1    2    0    0  0.28106308858E+02 -0.28147396198E+02 -0.22973867226E+02  0.45935161758E+02  0.00000000000E+00 0.  1.
         11    1    1    2    0    0 -0.28527553475E+02 -0.33224538013E+01 -0.15413743650E+03  0.15679033560E+03  0.00000000000E+00 0. -1.
</event>
<event>
 7    1  0.2749315E-009  0.9202789E+02  0.7561462E-02  0.1298014E+00
          1   -1    0    0  501    0  0.00000000000E+00  0.00000000000E+00  0.71452106213E+03  0.71452106213E+03  0.00000000000E+00 0. -1.
         -1   -1    0    0    0  501 -0.00000000000E+00 -0.00000000000E+00 -0.25752907094E+02  0.25752907094E+02  0.00000000000E+00 0.  1.
         25    2    1    2    0    0  0.26293714306E+01 -0.56972167989E+02  0.54314366239E+03  0.56026944007E+03  0.12507624059E+03 0.  0.
          5    1    3    3  502    0 -0.54797872874E+02 -0.31022853133E+02  0.16072716706E+03  0.17267286678E+03  0.41800000000E+01 0.  1.
         -5    1    3    3    0  502  0.57427244305E+02 -0.25949314856E+02  0.38241649533E+03  0.38759657329E+03  0.41800000000E+01 0.  1.
        -11    1    1    2    0    0 -0.58449101910E+01  0.25829258246E+02 -0.43146721682E+01  0.26831510442E+02  0.00000000000E+00 0.  1.
         11    1    1    2    0    0  0.32155387604E+01  0.31142909743E+02  0.14993916482E+03  0.15317301872E+03  0.00000000000E+00 0. -1.
</event>
<event>
 7    1  0.2749315E-009  0.1136639E+03  0.7561462E-02  0.1253931E+00
          2   -1    0    0  501    0  0.00000000000E+00  0.00000000000E+00  0.10291995302E+03  0.10291995302E+03  0.00000000000E+00 0.  1.
         -2   -1    0    0    0  501 -0.00000000000E+00 -0.00000000000E+00 -0.12874784227E+03  0.12874784227E+03  0.00000000000E+00 0. -1.
         25    2    1    2    0    0  0.26526559507E+02  0.27216931404E+02 -0.24055595593E+02  0.13292051638E+03  0.12507906412E+03 0.  0.
          5    1    3    3  502    0 -0.44337604534E+02  0.37051560813E+02 -0.21102455359E+01  0.57970396503E+02  0.41800000000E+01 0.  1.
         -5    1    3    3    0  502  0.70864164041E+02 -0.98346294086E+01 -0.21945350057E+02  0.74950119879E+02  0.41800000000E+01 0.  1.
        -11    1    1    2    0    0 -0.47199847165E+02  0.15988068246E+02 -0.79145238416E+01  0.50458731516E+02  0.00000000000E+00 0.  1.
         11    1    1    2    0    0  0.20673287658E+02 -0.43204999650E+02  0.61422301804E+01  0.48288547389E+02  0.00000000000E+00 0. -1.
</event>
<event>
 7    1  0.2749315E-009  0.8857524E+02  0.7561462E-02  0.1306339E+00
          1   -1    0    0  501    0  0.00000000000E+00  0.00000000000E+00  0.44188118767E+03  0.44188118767E+03  0.00000000000E+00 0. -1.
         -1   -1    0    0    0  501 -0.00000000000E+00 -0.00000000000E+00 -0.35315785353E+02  0.35315785353E+02  0.00000000000E+00 0.  1.
         25    2    1    2    0    0 -0.48559898291E+02 -0.30316439527E+01  0.30733815070E+03  0.33536778701E+03  0.12509020385E+03 0.  0.
          5    1    3    3  502    0 -0.33828313515E+02  0.39474261679E+02  0.44156365040E+02  0.68336147857E+02  0.41800000000E+01 0. -1.
         -5    1    3    3    0  502 -0.14731584776E+02 -0.42505905632E+02  0.26318178566E+03  0.26703163915E+03  0.41800000000E+01 0. -1.
        -11    1    1    2    0    0  0.58713768000E+02  0.18282592868E+02  0.26730091923E+02  0.67052647740E+02  0.00000000000E+00 0.  1.
         11    1    1    2    0    0 -0.10153869709E+02 -0.15250948915E+02  0.72497159693E+02  0.74776538275E+02  0.00000000000E+00 0. -1.
</event>
<event>
 7    1  0.2749315E-009  0.1834664E+03  0.7561462E-02  0.1164490E+00
          2   -1    0    0  501    0  0.00000000000E+00  0.00000000000E+00  0.18947400387E+03  0.18947400387E+03  0.00000000000E+00 0. -1.
         -2   -1    0    0    0  501 -0.00000000000E+00 -0.00000000000E+00 -0.23768646454E+03  0.23768646454E+03  0.00000000000E+00 0.  1.
         25    2    1    2    0    0  0.26538816188E+02 -0.16853567944E+03 -0.87424250134E+02  0.22890874306E+03  0.12509048376E+03 0.  0.
          5    1    3    3  502    0 -0.14438612552E+02 -0.13581793491E+03 -0.10619165351E+03  0.17305815396E+03  0.41800000000E+01 0. -1.
         -5    1    3    3    0  502  0.40977428740E+02 -0.32717744537E+02  0.18767403379E+02  0.55850589105E+02  0.41800000000E+01 0. -1.
        -11    1    1    2    0    0  0.86702284837E+01  0.10233131767E+03  0.61899435882E+02  0.11991001460E+03  0.00000000000E+00 0.  1.
         11    1    1    2    0    0 -0.35209044672E+02  0.66204361770E+02 -0.22687646410E+02  0.78341710753E+02  0.00000000000E+00 0. -1.
</event>
<event>
 7    1  0.2749315E-009  0.2400335E+03  0.7561462E-02  0.1119770E+00
         -1   -1    0    0    0  501 -0.00000000000E+00  0.00000000000E+00  0.78331389005E+02  0.78331389005E+02  0.00000000000E+00 0.  1.
          1   -1    0    0  501    0  0.00000000000E+00 -0.00000000000E+00 -0.82850949108E+03  0.82850949108E+03  0.00000000000E+00 0. -1.
         25    2    1    2    0    0  0.10876220343E+03  0.20170157953E+03 -0.34066185991E+03  0.42919712067E+03  0.12508765531E+03 0.  0.
          5    1    3    3  502    0  0.91464531421E+02  0.11555660103E+03 -0.11494678002E+03  0.18694738080E+03  0.41800000000E+01 0.  1.
         -5    1    3    3    0  502  0.17297672011E+02  0.86144978506E+02 -0.22571507989E+03  0.24224973987E+03  0.41800000000E+01 0.  1.
        -11    1    1    2    0    0 -0.22239502806E+02  0.29932205074E+01 -0.25560782178E+02  0.34013356782E+02  0.00000000000E+00 0.  1.
         11    1    1    2    0    0 -0.86522700626E+02 -0.20469480004E+03 -0.38395545999E+03  0.44363040263E+03  0.00000000000E+00 0. -1.
</event>
<event>
 7    1  0.2749315E-009  0.1115865E+03  0.7561462E-02  0.1257660E+00
          1   -1    0    0  501    0  0.00000000000E+00  0.00000000000E+00  0.90550590560E+03  0.90550590560E+03  0.00000000000E+00 0. -1.
         -1   -1    0    0    0  501 -0.00000000000E+00 -0.00000000000E+00 -0.15853365284E+02  0.15853365284E+02  0.00000000000E+00 0.  1.
         25    2    1    2    0    0  0.42997168273E+02  0.22500922706E+02  0.56868302739E+03  0.58429314044E+03  0.12507214047E+03 0.  0.
          5    1    3    3  502    0 -0.27711255632E+02  0.43136795657E+02  0.34355144135E+03  0.34738129207E+03  0.41800000000E+01 0.  1.
         -5    1    3    3    0  502  0.70708423905E+02 -0.20635872951E+02  0.22513158604E+03  0.23691184837E+03  0.41800000000E+01 0.  1.
        -11    1    1    2    0    0  0.21072261235E+02 -0.26386770895E+02  0.65946035812E+02  0.74089010731E+02  0.00000000000E+00 0. -1.
         11    1    1    2    0    0 -0.64069429509E+02  0.38858481886E+01  0.25502347711E+03  0.26297711971E+03  0.00000000000E+00 0.  1.
</event>
<event>
 7    1  0.2749315E-009  0.9600290E+02  0.7561462E-02  0.1288933E+00
         -1   -1    0    0    0  501 -0.00000000000E+00  0.00000000000E+00  0.23988052999E+03  0.23988052999E+03  0.00000000000E+00 0.  1.
          1   -1    0    0  501    0  0.00000000000E+00 -0.00000000000E+00 -0.53207013367E+02  0.53207013367E+02  0.00000000000E+00 0. -1.
         25    2    1    2    0    0 -0.97270810799E+01  0.16504008608E+02  0.13524147758E+03  0.18522148010E+03  0.12509892496E+03 0.  0.
          5    1    3    3  502    0  0.37900384196E+02  0.29499414240E+02  0.82535963473E+01  0.48910620681E+02  0.41800000000E+01 0.  1.
         -5    1    3    3    0  502 -0.47627465276E+02 -0.12995405632E+02  0.12698788124E+03  0.13631085942E+03  0.41800000000E+01 0.  1.
        -11    1    1    2    0    0 -0.25795919730E+02  0.27495527144E+02  0.14881111316E+02  0.40532467993E+02  0.00000000000E+00 0. -1.
         11    1    1    2    0    0  0.35523000810E+02 -0.43999535752E+02  0.36550927722E+02  0.67333595257E+02  0.00000000000E+00 0.  1.
</event>
<event>
 7    1  0.2749315E-009  0.1842597E+03  0.7561462E-02  0.1163743E+00
         -2   -1    0    0    0  501 -0.00000000000E+00  0.00000000000E+00  0.84587837193E+02  0.84587837193E+02  0.00000000000E+00 0.  1.
          2   -1    0    0  501    0  0.00000000000E+00 -0.00000000000E+00 -0.57147687519E+03  0.57147687519E+03  0.00000000000E+00 0. -1.
         25    2    1    2    0    0  0.12881196903E+03  0.11311131835E+03 -0.36099438103E+03  0.41874948371E+03  0.12508994072E+03 0.  0.
          5    1    3    3  502    0 -0.13387037218E+02 -0.18144687860E+01 -0.94417645658E+02  0.95470777069E+02  0.41800000000E+01 0. -1.
         -5    1    3    3    0  502  0.14219900624E+03  0.11492578714E+03 -0.26657673537E+03  0.32327870664E+03  0.41800000000E+01 0. -1.
        -11    1    1    2    0    0 -0.77051946798E+02 -0.70845577989E+02 -0.12124144082E+02  0.10537121664E+03  0.00000000000E+00 0.  1.
         11    1    1    2    0    0 -0.51760022228E+02 -0.42265740364E+02 -0.11377051288E+03  0.13194401203E+03  0.00000000000E+00 0. -1.
</event>
<event>
 7    1  0.2749315E-009  0.1168358E+03  0.7561462E-02  0.1248410E+00
         -2   -1    0    0    0  501 -0.00000000000E+00  0.00000000000E+00  0.65308378121E+02  0.65308378121E+02  0.00000000000E+00 0.  1.
          2   -1    0    0  501    0  0.00000000000E+00 -0.00000000000E+00 -0.30712908475E+03  0.30712908475E+03  0.00000000000E+00 0. -1.
         25    2    1    2    0    0 -0.53278039903E+02 -0.69336208689E+01 -0.22878440976E+03  0.26622999632E+03  0.12509788230E+03 0.  0.
          5    1    3    3  502    0 -0.72750352672E+02  0.41278198688E+02 -0.14848107552E+03  0.17047171521E+03  0.41800000000E+01 0.  1.
         -5    1    3    3    0  502  0.19472312769E+02 -0.48211819557E+02 -0.80303334246E+02  0.95758281107E+02  0.41800000000E+01 0.  1.
        -11    1    1    2    0    0  0.49217180619E+01 -0.34029972318E+02 -0.23945808472E+02  0.41900645198E+02  0.00000000000E+00 0. -1.
         11    1    1    2    0    0  0.48356321841E+02  0.40963593187E+02  0.10909511608E+02  0.64306821352E+02  0.00000000000E+00 0.  1.
</event>
<event>
 7    1  0.2749315E-009  0.1626346E+03  0.7561462E-02  0.1185754E+00
         -1   -1    0    0    0  501 -0.00000000000E+00  0.00000000000E+00  0.88896857316E+02  0.88896857316E+02  0.00000000000E+00 0.  1.
          1   -1    0    0  501    0  0.00000000000E+00 -0.00000000000E+00 -0.35024436003E+03  0.35024436003E+03  0.00000000000E+00 0. -1.
         25    2    1    2    0    0  0.93724401428E+02 -0.10244658964E+03 -0.12745314327E+03  0.22620798972E+03  0.12508470623E+03 0.  0.
          5    1    3    3  502    0 -0.14280010758E+02 -0.36160400178E+01  0.15329875287E+02  0.21667300916E+02  0.41800000000E+01 0.  1.
         -5    1    3    3    0  502  0.10800441219E+03 -0.98830549625E+02 -0.14278301855E+03  0.20454068881E+03  0.41800000000E+01 0.  1.
        -11    1    1    2    0    0 -0.97669835712E+02  0.47852189586E+02 -0.10438057175E+03  0.15074658409E+03  0.00000000000E+00 0. -1.
         11    1    1    2    0    0  0.39454342843E+01  0.54594400057E+02 -0.29513787694E+02  0.62186643528E+02  0.00000000000E+00 0.  1.
</event>
<event>
 7    1  0.2749315E-009  0.1125709E+03  0.7561462E-02  0.1255882E+00
          2   -1    0    0  501    0  0.00000000000E+00  0.00000000000E+00  0.10547160694E+04  0.10547160694E+04  0.00000000000E+00 0. -1.
         -2   -1    0    0    0  501 -0.00000000000E+00 -0.00000000000E+00 -0.16370793037E+02  0.16370793037E+02  0.00000000000E+00 0.  1.
         25    2    1    2    0    0  0.70716494960E+02 -0.22720776478E+02  0.56030344086E+03  0.57888209454E+03  0.12508987647E+03 0.  0.
          5    1    3    3  502    0  0.42458198467E+02  0.31384093298E+02  0.88571510276E+02  0.10319905407E+03  0.41800000000E+01 0.  1.
         -5    1    3    3    0  502  0.28258296493E+02 -0.54104869776E+02  0.47173193058E+03  0.47568304046E+03  0.41800000000E+01 0.  1.
        -11    1    1    2    0    0 -0.24419132324E+02  0.51140408872E+02  0.16441351203E+03  0.17390640696E+03  0.00000000000E+00 0.  1.
         11    1    1    2    0    0 -0.46297362637E+02 -0.28419632394E+02  0.31362832346E+03  0.31829836093E+03  0.00000000000E+00 0. -1.
</event>
<event>
 7    1  0.2749315E-009  0.1315070E+03  0.7561462E-02  0.1225237E+00
         -4   -1    0    0    0  501 -0.00000000000E+00  0.00000000000E+00  0.15886450840E+03  0.15886450840E+03  0.00000000000E+00 0.  1.
          4   -1    0    0  501    0  0.00000000000E+00 -0.00000000000E+00 -0.18340317420E+03  0.18340317420E+03  0.00000000000E+00 0. -1.
         25    2    1    2    0    0  0.84745270985E+02  0.90686837301E+02  0.28092018163E+02  0.17844217933E+03  0.12508631607E+03 0.  0.
          5    1    3    3  502    0  0.85073913809E+02  0.76494664754E+02 -0.30119290194E+02  0.11837925742E+03  0.41800000000E+01 0.  1.
         -5    1    3    3    0  502 -0.32864282398E+00  0.14192172547E+02  0.58211308357E+02  0.60062921910E+02  0.41800000000E+01 0.  1.
        -11    1    1    2    0    0 -0.58129132961E+02 -0.25798239399E+02  0.16125853413E+02  0.65609362161E+02  0.00000000000E+00 0.  1.
         11    1    1    2    0    0 -0.26616138024E+02 -0.64888597902E+02 -0.68756537379E+02  0.98216141104E+02  0.00000000000E+00 0. -1.
</event>
<event>
 7    1  0.2749315E-009  0.1494461E+03  0.7561462E-02  0.1201155E+00
          1   -1    0    0  501    0  0.00000000000E+00  0.00000000000E+00  0.34021607973E+03  0.34021607973E+03  0.00000000000E+00 0. -1.
         -1   -1    0    0    0  501 -0.00000000000E+00 -0.00000000000E+00 -0.79489502612E+02  0.79489502612E+02  0.00000000000E+00 0.  1.
         25    2    1    2    0    0  0.77769073646E+02  0.84596169498E+02  0.19228695553E+03  0.25656577352E+03  0.12508869720E+03 0.  0.
          5    1    3    3  502    0 -0.29425901115E+02  0.46543627748E+02  0.51395880473E+02  0.75440054812E+02  0.41800000000E+01 0.  1.
         -5    1    3    3    0  502  0.10719497476E+03  0.38052541749E+02  0.14089107506E+03  0.18112571871E+03  0.41800000000E+01 0.  1.
        -11    1    1    2    0    0 -0.86657596964E+02 -0.65002799449E+02  0.20029480647E+02  0.11016389219E+03  0.00000000000E+00 0.  1.
         11    1    1    2    0    0  0.88885233179E+01 -0.19593370049E+02  0.48410140944E+02  0.52975916631E+02  0.00000000000E+00 0. -1.
</event>
<event>
 7    1  0.2749315E-009  0.1432799E+03  0.7561462E-02  0.1208983E+00
         -1   -1    0    0    0  501 -0.00000000000E+00  0.00000000000E+00  0.21671331560E+02  0.21671331560E+02  0.00000000000E+00 0.  1.
          1   -1    0    0  501    0  0.00000000000E+00 -0.00000000000E+00 -0.10406598403E+04  0.10406598403E+04  0.00000000000E+00 0. -1.
         25    2    1    2    0    0 -0.97823276892E+02 -0.35687764069E+02 -0.57838974703E+03  0.60084976739E+03  0.12507091387E+03 0.  0.
          5    1    3    3  502    0 -0.74844989727E+02 -0.81793596794E+02 -0.38402511467E+03  0.39973081700E+03  0.41800000000E+01 0.  1.
         -5    1    3    3    0  502 -0.22978287165E+02  0.46105832725E+02 -0.19436463236E+03  0.20111895039E+03  0.41800000000E+01 0.  1.
        -11    1    1    2    0    0 -0.81536288638E+01  0.13318261518E+02 -0.12822053724E+02  0.20205514476E+02  0.00000000000E+00 0.  1.
         11    1    1    2    0    0  0.10597690576E+03  0.22369502550E+02 -0.42777670804E+03  0.44127589005E+03  0.00000000000E+00 0. -1.
</event>
<event>
 7    1  0.2749315E-009  0.1673006E+03  0.7561462E-02  0.1180692E+00
          2   -1    0    0  501    0  0.00000000000E+00  0.00000000000E+00  0.51177976955E+03  0.51177976955E+03  0.00000000000E+00 0. -1.
         -2   -1    0    0    0  501 -0.00000000000E+00 -0.00000000000E+00 -0.58708129413E+02  0.58708129413E+02  0.00000000000E+00 0.  1.
         25    2    1    2    0    0 -0.56920912520E+02 -0.11704099473E+03  0.18031571077E+03  0.25514714794E+03  0.12509087425E+03 0.  0.
          5    1    3    3  502    0 -0.37625722015E+02 -0.14147177579E+03  0.12996316002E+03  0.19580054562E+03  0.41800000000E+01 0.  1.
         -5    1    3    3    0  502 -0.19295190504E+02  0.24430781057E+02  0.50352550752E+02  0.59346602320E+02  0.41800000000E+01 0.  1.
        -11    1    1    2    0    0 -0.14559971498E+02  0.69229669946E+02  0.10171719288E+03  0.12389966626E+03  0.00000000000E+00 0.  1.
         11    1    1    2    0    0  0.71480884018E+02  0.47811324789E+02  0.17103873648E+03  0.19144108476E+03  0.00000000000E+00 0. -1.
</event>
<event>
 7    1  0.2749315E-009  0.2142857E+03  0.7561462E-02  0.1138216E+00
          1   -1    0    0  501    0  0.00000000000E+00  0.00000000000E+00  0.20977871717E+03  0.20977871717E+03  0.00000000000E+00 0. -1.
         -1   -1    0    0    0  501 -0.00000000000E+00 -0.00000000000E+00 -0.25835214767E+03  0.25835214767E+03  0.00000000000E+00 0.  1.
         25    2    1    2    0    0 -0.74551427619E+02 -0.18039196754E+03 -0.91831301381E+02  0.24935871325E+03  0.12509037792E+03 0.  0.
          5    1    3    3  502    0 -0.21951683844E+02 -0.17429928468E+03 -0.52941793644E+02  0.18352771719E+03  0.41800000000E+01 0. -1.
         -5    1    3    3    0  502 -0.52599743774E+02 -0.60926828576E+01 -0.38889507737E+02  0.65830996055E+02  0.41800000000E+01 0. -1.
        -11    1    1    2    0    0  0.36498583427E+02  0.13808328475E+03 -0.67953712755E+01  0.14298712247E+03  0.00000000000E+00 0.  1.
         11    1    1    2    0    0  0.38052844191E+02  0.42308682785E+02  0.50053242148E+02  0.75785029126E+02  0.00000000000E+00 0. -1.
</event>
<event>
 7    1  0.2749315E-009  0.1050007E+03  0.7561462E-02  0.1270118E+00
         -1   -1    0    0    0  501 -0.00000000000E+00  0.00000000000E+00  0.68566451438E+02  0.68566451438E+02  0.00000000000E+00 0.  1.
          1   -1    0    0  501    0  0.00000000000E+00 -0.00000000000E+00 -0.26471289824E+03  0.26471289824E+03  0.00000000000E+00 0. -1.
         25    2    1    2    0    0 -0.55421881845E+02  0.55876151590E+02 -0.88170740076E+02  0.17208873409E+03  0.12508686458E+03 0.  0.
          5    1    3    3  502    0 -0.24870904778E+02  0.76272536994E+02 -0.10438506936E+03  0.13171855188E+03  0.41800000000E+01 0.  1.
         -5    1    3    3    0  502 -0.30550977067E+02 -0.20396385404E+02  0.16214329286E+02  0.40370182208E+02  0.41800000000E+01 0.  1.
        -11    1    1    2    0    0  0.11951527359E+02 -0.46782840819E+02 -0.43883231618E+01  0.48484333361E+02  0.00000000000E+00 0.  1.
         11    1    1    2    0    0  0.43470354486E+02 -0.90933107716E+01 -0.10358738357E+03  0.11270628223E+03  0.00000000000E+00 0. -1.
</event>
<event>
 7    1  0.2749315E-009  0.1198255E+03  0.7561462E-02  0.1243385E+00
          2   -1    0    0  501    0  0.00000000000E+00  0.00000000000E+00  0.22374832795E+03  0.22374832795E+03  0.00000000000E+00 0. -1.
         -2   -1    0    0    0  501 -0.00000000000E+00 -0.00000000000E+00 -0.77528908071E+02  0.77528908071E+02  0.00000000000E+00 0.  1.
         25    2    1    2    0    0  0.61155627022E+02  0.11464439671E+02  0.50923483795E+02  0.14870331703E+03  0.12509209087E+03 0.  0.
          5    1    3    3  502    0  0.67585226603E+02 -0.37118163120E+02  0.61109835439E+02  0.98475404421E+02  0.41800000000E+01 0.  1.
         -5    1    3    3    0  502 -0.64295995812E+01  0.48582602792E+02 -0.10186351644E+02  0.50227912605E+02  0.41800000000E+01 0.  1.
        -11    1    1    2    0    0 -0.85870054062E+02  0.30967602540E+00  0.49213660255E+02  0.98973463309E+02  0.00000000000E+00 0.  1.
         11    1    1    2    0    0  0.24714427039E+02 -0.11774115697E+02  0.46082275834E+02  0.53600455692E+02  0.00000000000E+00 0. -1.
</event>
<event>
 7    1  0.2749315E-009  0.7942644E+02  0.7561462E-02  0.1330687E+00
          2   -1    0    0  501    0  0.00000000000E+00  0.00000000000E+00  0.62099329949E+03  0.62099329949E+03  0.00000000000E+00 0.  1.
         -2   -1    0    0    0  501 -0.00000000000E+00 -0.00000000000E+00 -0.27005531366E+02  0.27005531366E+02  0.00000000000E+00 0. -1.
         25    2    1    2    0    0 -0.45518422740E+02 -0.14750239394E+01  0.18431862331E+03  0.22736141631E+03  0.12508299734E+03 0.  0.
          5    1    3    3  502    0 -0.51433345944E+02  0.14664467041E+02  0.13088237824E+02  0.55219652642E+02  0.41800000000E+01 0.  1.
         -5    1    3    3    0  502  0.59149232041E+01 -0.16139490981E+02  0.17123038548E+03  0.17214176367E+03  0.41800000000E+01 0.  1.
        -11    1    1    2    0    0  0.65286737756E+02  0.98902938634E+01  0.36668389076E+03  0.37258187259E+03  0.00000000000E+00 0. -1.
         11    1    1    2    0    0 -0.19768315016E+02 -0.84152699240E+01  0.42985254052E+02  0.48055541952E+02  0.00000000000E+00 0.  1.
</event>
<event>
 7    1  0.2749315E-009  0.1522562E+03  0.7561462E-02  0.1197728E+00
         -2   -1    0    0    0  501 -0.00000000000E+00  0.00000000000E+00  0.52353736212E+03  0.52353736212E+03  0.00000000000E+00 0. -1.
          2   -1    0    0  501    0  0.00000000000E+00 -0.00000000000E+00 -0.44565024910E+02  0.44565024910E+02  0.00000000000E+00 0.  1.
         25    2    1    2    0    0  0.10496990181E+03 -0.43243746288E+01  0.23475409006E+03  0.28599645491E+03  0.12508840441E+03 0.  0.
          5    1    3    3  502    0  0.10775971482E+03  0.42731837356E+02  0.16416007715E+03  0.20100788390E+03  0.41800000000E+01 0.  1.
         -5    1    3    3    0  502 -0.27898130056E+01 -0.47056211985E+02  0.70594012915E+02  0.84988571010E+02  0.41800000000E+01 0.  1.
        -11    1    1    2    0    0 -0.12697031217E+02  0.40223542609E+02  0.70638888199E+02  0.82273935774E+02  0.00000000000E+00 0. -1.
         11    1    1    2    0    0 -0.92272870596E+02 -0.35899167980E+02  0.17357935895E+03  0.19983199635E+03  0.00000000000E+00 0.  1.
</event>
<event>
 7    1  0.5171532E-009  0.2691195E+03  0.7561462E-02  0.1101785E+00
          2   -1    0    0  501    0  0.00000000000E+00  0.00000000000E+00  0.58171976725E+03  0.58171976725E+03  0.00000000000E+00 0. -1.
         -2   -1    0    0    0  501 -0.00000000000E+00 -0.00000000000E+00 -0.14313760813E+03  0.14313760813E+03  0.00000000000E+00 0.  1.
         25    2    1    2    0    0  0.22729082213E+03  0.13823518086E+03  0.25373107926E+03  0.38832730478E+03  0.12509417252E+03 0.  0.
          5    1    3    3  502    0  0.22689932482E+03  0.12832342501E+03  0.26569170004E+03  0.37223615741E+03  0.41800000000E+01 0.  1.
         -5    1    3    3    0  502  0.39149731021E+00  0.99117558479E+01 -0.11960620781E+02  0.16091147367E+02  0.41800000000E+01 0.  1.
        -11    1    1    2    0    0 -0.14609986842E+03 -0.77560857848E+02  0.60555948193E+02  0.17614732778E+03  0.00000000000E+00 0.  1.
         11    1    1    2    0    0 -0.81190953709E+02 -0.60674323013E+02  0.12429513167E+03  0.16038274282E+03  0.00000000000E+00 0. -1.
</event>
<event>
 7    1  0.2749315E-009  0.7975098E+02  0.7561462E-02  0.1329760E+00
         -1   -1    0    0    0  501 -0.00000000000E+00  0.00000000000E+00  0.77191546514E+02  0.77191546514E+02  0.00000000000E+00 0.  1.
          1   -1    0    0  501    0  0.00000000000E+00 -0.00000000000E+00 -0.17345502852E+03  0.17345502852E+03  0.00000000000E+00 0. -1.
         25    2    1    2    0    0  0.57434120906E+02  0.52482754543E+01 -0.65576064871E+02  0.15254409956E+03  0.12507301622E+03 0.  0.
          5    1    3    3  502    0  0.43785036239E+02  0.39317046492E+02 -0.90465989118E+02  0.10800244039E+03  0.41800000000E+01 0.  1.
         -5    1    3    3    0  502  0.13649084666E+02 -0.34068771038E+02  0.24889924247E+02  0.44541659166E+02  0.41800000000E+01 0.  1.
        -11    1    1    2    0    0 -0.15605130518E+02 -0.13849036582E+02  0.21974630924E+02  0.30301820358E+02  0.00000000000E+00 0.  1.
         11    1    1    2    0    0 -0.41828990387E+02  0.86007611274E+01 -0.52662048059E+02  0.67800655119E+02  0.00000000000E+00 0. -1.
</event>
<event>
 7    1  0.2749315E-009  0.9272450E+02  0.7561462E-02  0.1296385E+00
          2   -1    0    0  501    0  0.00000000000E+00  0.00000000000E+00  0.21095849242E+03  0.21095849242E+03  0.00000000000E+00 0. -1.
         -2   -1    0    0    0  501 -0.00000000000E+00 -0.00000000000E+00 -0.83561522679E+02  0.83561522679E+02  0.00000000000E+00 0.  1.
         25    2    1    2    0    0  0.31509237692E+02 -0.91358932316E+01 -0.63505338956E+01  0.12947679811E+03  0.12509042875E+03 0.  0.
          5    1    3    3  502    0 -0.33939741370E+02  0.36015996258E+02 -0.38911020681E+01  0.49816373875E+02  0.41800000000E+01 0.  1.
         -5    1    3    3    0  502  0.65448979063E+02 -0.45151889490E+02 -0.24594318275E+01  0.79660424238E+02  0.41800000000E+01 0.  1.
        -11    1    1    2    0    0 -0.21331157556E+02  0.27717759894E+02  0.13890256467E+03  0.14323831529E+03  0.00000000000E+00 0.  1.
         11    1    1    2    0    0 -0.10178080136E+02 -0.18581866662E+02 -0.51550610266E+01  0.21804901699E+02  0.00000000000E+00 0. -1.
</event>
<event>
 7    1  0.2749315E-009  0.1769441E+03  0.7561462E-02  0.1170794E+00
          1   -1    0    0  501    0  0.00000000000E+00  0.00000000000E+00  0.16142843517E+03  0.16142843517E+03  0.00000000000E+00 0. -1.
         -1   -1    0    0    0  501 -0.00000000000E+00 -0.00000000000E+00 -0.22362565409E+03  0.22362565409E+03  0.00000000000E+00 0.  1.
         25    2    1    2    0    0  0.15050693181E+03  0.36481346142E+02 -0.36007902826E+02  0.20230570854E+03  0.12509118876E+03 0.  0.
          5    1    3    3  502    0  0.55416127680E+02  0.73772224336E+02 -0.38459352015E+02  0.10004940004E+03  0.41800000000E+01 0.  1.
         -5    1    3    3    0  502  0.95090804128E+02 -0.37290878194E+02  0.24514491894E+01  0.10225630851E+03  0.41800000000E+01 0.  1.
        -11    1    1    2    0    0 -0.65305345853E+02 -0.34981656093E+02 -0.55571343638E+02  0.92610359538E+02  0.00000000000E+00 0.  1.
         11    1    1    2    0    0 -0.85201585955E+02 -0.14996900491E+01  0.29382027542E+02  0.90138021178E+02  0.00000000000E+00 0. -1.
</event>
<event>
 7    1  0.2749315E-009  0.1180089E+03  0.7561462E-02  0.1246418E+00
          3   -1    0    0  501    0  0.00000000000E+00  0.00000000000E+00  0.19065511843E+04  0.19065511843E+04  0.00000000000E+00 0. -1.
         -3   -1    0    0    0  501 -0.00000000000E+00 -0.00000000000E+00 -0.10404539849E+02  0.10404539849E+02  0.00000000000E+00 0.  1.
         25    2    1    2    0    0 -0.48132411495E+02 -0.68200403367E+01  0.15219363608E+04  0.15278426213E+04  0.12509814995E+03 0.  0.
          5    1    3    3  502    0 -0.80818688102E+02  0.26578072224E+02  0.84502979432E+03  0.84931200389E+03  0.41800000000E+01 0.  1.
         -5    1    3    3    0  502  0.32686276607E+02 -0.33398112561E+02  0.67690656645E+03  0.67853061737E+03  0.41800000000E+01 0.  1.
        -11    1    1    2    0    0  0.70208634341E+02  0.25807842738E+02  0.22562167476E+03  0.23769820615E+03  0.00000000000E+00 0.  1.
         11    1    1    2    0    0 -0.22076222846E+02 -0.18987802401E+02  0.14858860895E+03  0.15141489678E+03  0.00000000000E+00 0. -1.
</event>
<event>
 7    1  0.2749315E-009  0.1567855E+03  0.7561462E-02  0.1192374E+00
         -1   -1    0    0    0  501 -0.00000000000E+00  0.00000000000E+00  0.58189267327E+03  0.58189267327E+03  0.00000000000E+00 0.  1.
          1   -1    0    0  501    0  0.00000000000E+00 -0.00000000000E+00 -0.53637062017E+02  0.53637062017E+02  0.00000000000E+00 0. -1.
         25    2    1    2    0    0 -0.53745732342E+02 -0.12439697336E+03  0.22433961357E+03  0.29041139873E+03  0.12508919844E+03 0.  0.
          5    1    3    3  502    0  0.30778872362E+02 -0.71767430403E+02  0.61458657095E+02  0.99461258702E+02  0.41800000000E+01 0.  1.
         -5    1    3    3    0  502 -0.84524604703E+02 -0.52629542959E+02  0.16288095648E+03  0.19095014003E+03  0.41800000000E+01 0.  1.
        -11    1    1    2    0    0  0.37720841723E+02  0.78377650386E+02  0.27506053565E+03  0.28848607636E+03  0.00000000000E+00 0.  1.
         11    1    1    2    0    0  0.16024890619E+02  0.46019322976E+02  0.28855462028E+02  0.56632260200E+02  0.00000000000E+00 0. -1.
</event>
<event>
 7    1  0.2749315E-009  0.1090327E+03  0.7561462E-02  0.1262372E+00
         -4   -1    0    0    0  501 -0.00000000000E+00  0.00000000000E+00  0.49746779880E+02  0.49746779880E+02  0.00000000000E+00 0.  1.
          4   -1    0    0  501    0  0.00000000000E+00 -0.00000000000E+00 -0.27549157813E+03  0.27549157813E+03  0.00000000000E+00 0. -1.
         25    2    1    2    0    0 -0.16848020130E+02 -0.28750543080E+02 -0.86631767910E+02  0.15576488868E+03  0.12508871982E+03 0.  0.
          5    1    3    3  502    0 -0.38646602589E+02  0.38263509002E+02 -0.57905556698E+02  0.79549870580E+02  0.41800000000E+01 0. -1.
         -5    1    3    3    0  502  0.21798582458E+02 -0.67014052082E+02 -0.28726211212E+02  0.76215018102E+02  0.41800000000E+01 0. -1.
        -11    1    1    2    0    0  0.11764555190E+02  0.60062925987E+02 -0.67313563202E+02  0.90978434961E+02  0.00000000000E+00 0.  1.
         11    1    1    2    0    0  0.50834649405E+01 -0.31312382907E+02 -0.71799467133E+02  0.78495034363E+02  0.00000000000E+00 0. -1.
</event>
<event>
 7    1  0.2749315E-009  0.1385127E+03  0.7561462E-02  0.1215344E+00
         -1   -1    0    0    0  501 -0.00000000000E+00  0.00000000000E+00  0.72291479851E+03  0.72291479851E+03  0.00000000000E+00 0.  1.
          1   -1    0    0  501    0  0.00000000000E+00 -0.00000000000E+00 -0.35987745632E+02  0.35987745632E+02  0.00000000000E+00 0. -1.
         25    2    1    2    0    0  0.76981077282E+02 -0.47348713486E+02  0.56410575171E+03  0.58483306934E+03  0.12508570240E+03 0.  0.
          5    1    3    3  502    0  0.88860021306E+02  0.15105939342E+02  0.31031209141E+03  0.32316460088E+03  0.41800000000E+01 0. -1.
         -5    1    3    3    0  502 -0.11878944024E+02 -0.62454652828E+02  0.25379366031E+03  0.26166846845E+03  0.41800000000E+01 0. -1.
        -11    1    1    2    0    0  0.51732096631E+01  0.40294795680E+02  0.46018837767E+02  0.61385389847E+02  0.00000000000E+00 0. -1.
         11    1    1    2    0    0 -0.82154286945E+02  0.70539178054E+01  0.76802463401E+02  0.11268408496E+03  0.00000000000E+00 0.  1.
</event>
<event>
 7    1  0.2749315E-009  0.1088345E+03  0.7561462E-02  0.1262744E+00
          2   -1    0    0  501    0  0.00000000000E+00  0.00000000000E+00  0.59396176496E+03  0.59396176496E+03  0.00000000000E+00 0. -1.
         -2   -1    0    0    0  501 -0.00000000000E+00 -0.00000000000E+00 -0.23881109107E+02  0.23881109107E+02  0.00000000000E+00 0.  1.
         25    2    1    2    0    0  0.33617718446E+01  0.15091041587E+02  0.44332281971E+03  0.46089180926E+03  0.12508835408E+03 0.  0.
          5    1    3    3  502    0 -0.51761250577E+01  0.69990583142E+02  0.24348689565E+03  0.25343404419E+03  0.41800000000E+01 0.  1.
         -5    1    3    3    0  502  0.85378969023E+01 -0.54899541555E+02  0.19983592406E+03  0.20745776508E+03  0.41800000000E+01 0.  1.
        -11    1    1    2    0    0 -0.26852319155E+02  0.30331098988E+02  0.67058517167E+02  0.78344542468E+02  0.00000000000E+00 0.  1.
         11    1    1    2    0    0  0.23490547310E+02 -0.45422140576E+02  0.59699318976E+02  0.78606522335E+02  0.00000000000E+00 0. -1.
</event>
<event>
 7    1  0.2749315E-009  0.1099672E+03  0.7561462E-02  0.1260631E+00
         -2   -1    0    0    0  501 -0.00000000000E+00  0.00000000000E+00  0.89527701516E+03  0.89527701516E+03  0.00000000000E+00 0.  1.
          2   -1    0    0  501    0  0.00000000000E+00 -0.00000000000E+00 -0.45401004528E+02  0.45401004528E+02  0.00000000000E+00 0. -1.
         25    2    1    2    0    0  0.79488230060E+01  0.51420841759E+02  0.81920504256E+03  0.83033220566E+03  0.12508950092E+03 0.  0.
          5    1    3    3  502    0  0.28692841117E+02  0.79267331744E+02  0.72405444155E+03  0.72895740324E+03  0.41800000000E+01 0. -1.
         -5    1    3    3    0  502 -0.20744018111E+02 -0.27846489985E+02  0.95150601008E+02  0.10137480241E+03  0.41800000000E+01 0. -1.
        -11    1    1    2    0    0  0.38803319011E+02 -0.30408337785E+02  0.32514584402E+02  0.59055590523E+02  0.00000000000E+00 0.  1.
         11    1    1    2    0    0 -0.46752142017E+02 -0.21012503974E+02 -0.18436163293E+01  0.51290223509E+02  0.00000000000E+00 0. -1.
</event>
<event>
 7    1  0.2784561E-009  0.1016609E+03  0.7561462E-02  0.1276842E+00
          2   -1    0    0  501    0  0.00000000000E+00  0.00000000000E+00  0.40347257261E+03  0.40347257261E+03  0.00000000000E+00 0. -1.
         -2   -1    0    0    0  501 -0.00000000000E+00 -0.00000000000E+00 -0.34435670436E+02  0.34435670436E+02  0.00000000000E+00 0.  1.
         25    2    1    2    0    0 -0.19171554202E+02 -0.35194189564E+02  0.16437796513E+03  0.21041188784E+03  0.12508744004E+03 0.  0.
          5    1    3    3  502    0  0.43627842934E+02 -0.29598343691E+02  0.12558699789E+03  0.13626818068E+03  0.41800000000E+01 0. -1.
         -5    1    3    3    0  502 -0.62799397136E+02 -0.55958458726E+01  0.38790967241E+02  0.74143707158E+02  0.41800000000E+01 0. -1.
        -11    1    1    2    0    0  0.46531514167E+02  0.37543161679E+02  0.80140449347E+02  0.99985811099E+02  0.00000000000E+00 0.  1.
         11    1    1    2    0    0 -0.27359959965E+02 -0.23489721154E+01  0.12451848769E+03  0.12751054410E+03  0.00000000000E+00 0. -1.
</event>
<event>
 7    1  0.2749315E-009  0.1090722E+03  0.7561462E-02  0.1262298E+00
          1   -1    0    0  501    0  0.00000000000E+00  0.00000000000E+00  0.81287434978E+03  0.81287434978E+03  0.00000000000E+00 0. -1.
         -1   -1    0    0    0  501 -0.00000000000E+00 -0.00000000000E+00 -0.15120160572E+02  0.15120160572E+02  0.00000000000E+00 0.  1.
         25    2    1    2    0    0 -0.63867492633E+01  0.16788564249E+02  0.51658852711E+03  0.53182120095E+03  0.12508971572E+03 0.  0.
          5    1    3    3  502    0  0.23414786782E+02  0.64506396381E+02  0.24678737663E+03  0.25618510706E+03  0.41800000000E+01 0.  1.
         -5    1    3    3    0  502 -0.29801536045E+02 -0.47717832131E+02  0.26980115048E+03  0.27563609389E+03  0.41800000000E+01 0.  1.
        -11    1    1    2    0    0  0.75702553750E+01 -0.54612992586E+02  0.17358488239E+03  0.18213071987E+03  0.00000000000E+00 0.  1.
         11    1    1    2    0    0 -0.11835061117E+01  0.37824428336E+02  0.10758077971E+03  0.11404258954E+03  0.00000000000E+00 0. -1.
</event>
<event>
 7    1  0.2749315E-009  0.1488964E+03  0.7561462E-02  0.1201836E+00
          1   -1    0    0  501    0  0.00000000000E+00  0.00000000000E+00  0.52509953152E+02  0.52509953152E+02  0.00000000000E+00 0. -1.
         -1   -1    0    0    0  501 -0.00000000000E+00 -0.00000000000E+00 -0.74937853651E+03  0.74937853651E+03  0.00000000000E+00 0.  1.
         25    2    1    2    0    0  0.13744314111E+03  0.10471120355E+02 -0.55564912798E+03  0.58599517675E+03  0.12507650599E+03 0.  0.
          5    1    3    3  502    0  0.47460019737E+02 -0.13318051506E+02 -0.41081109744E+03  0.41377899191E+03  0.41800000000E+01 0. -1.
         -5    1    3    3    0  502  0.89983121368E+02  0.23789171861E+02 -0.14483803055E+03  0.17221618484E+03  0.41800000000E+01 0. -1.
        -11    1    1    2    0    0 -0.43975600277E+02 -0.37568339849E+02 -0.21721567942E+02  0.61782360691E+02  0.00000000000E+00 0. -1.
         11    1    1    2    0    0 -0.93467540829E+02  0.27097219494E+02 -0.11949788744E+03  0.15411095222E+03  0.00000000000E+00 0.  1.
</event>
<event>
 7    1  0.2749315E-009  0.1504867E+03  0.7561462E-02  0.1199876E+00
          2   -1    0    0  501    0  0.00000000000E+00  0.00000000000E+00  0.58443612615E+03  0.58443612615E+03  0.00000000000E+00 0. -1.
         -2   -1    0    0    0  501 -0.00000000000E+00 -0.00000000000E+00 -0.55611081429E+02  0.55611081429E+02  0.00000000000E+00 0.  1.
         25    2    1    2    0    0  0.16490585580E+02  0.13837234038E+03  0.33959404421E+03  0.38780241258E+03  0.12509097627E+03 0.  0.
          5    1    3    3  502    0  0.30181996775E+01  0.47439704498E+02  0.14407234611E+02  0.49846523463E+02  0.41800000000E+01 0. -1.
         -5    1    3    3    0  502  0.13472385902E+02  0.90932635879E+02  0.32518680960E+03  0.33795588911E+03  0.41800000000E+01 0. -1.
        -11    1    1    2    0    0  0.28560628029E+02 -0.93032116556E+02  0.14456019897E+03  0.17426512936E+03  0.00000000000E+00 0. -1.
         11    1    1    2    0    0 -0.45051213609E+02 -0.45340223821E+02  0.44670801546E+02  0.77979665648E+02  0.00000000000E+00 0.  1.
</event>
<event>
 7    1  0.2749315E-009  0.3155220E+03  0.7561462E-02  0.1077729E+00
         -1   -1    0    0    0  501 -0.00000000000E+00  0.00000000000E+00  0.58377640259E+03  0.58377640259E+03  0.00000000000E+00 0.  1.
          1   -1    0    0  501    0  0.00000000000E+00 -0.00000000000E+00 -0.18221795246E+03  0.18221795246E+03  0.00000000000E+00 0. -1.
         25    2    1    2    0    0  0.11857267915E+03  0.28120544219E+03  0.16114746392E+03  0.36708827116E+03  0.12509721315E+03 0.  0.
          5    1    3    3  502    0  0.20732281686E+02  0.14844755048E+03  0.22564221065E+02  0.15163482192E+03  0.41800000000E+01 0.  1.
         -5    1    3    3    0  502  0.97840397469E+02  0.13275789171E+03  0.13858324285E+03  0.21545344923E+03  0.41800000000E+01 0.  1.
        -11    1    1    2    0    0 -0.52124996215E+02 -0.21896348758E+03  0.19167277749E+03  0.29563571799E+03  0.00000000000E+00 0.  1.
         11    1    1    2    0    0 -0.66447682940E+02 -0.62241954612E+02  0.48738208727E+02  0.10327036589E+03  0.00000000000E+00 0. -1.
</event>
<event>
 7    1  0.2749315E-009  0.1439158E+03  0.7561462E-02  0.1208155E+00
         -1   -1    0    0    0  501 -0.00000000000E+00  0.00000000000E+00  0.24792475644E+03  0.24792475644E+03  0.00000000000E+00 0.  1.
          1   -1    0    0  501    0  0.00000000000E+00 -0.00000000000E+00 -0.10872033311E+03  0.10872033311E+03  0.00000000000E+00 0. -1.
         25    2    1    2    0    0 -0.35108642183E+02  0.11341765672E+03  0.10676143399E+03  0.20283047344E+03  0.12508403398E+03 0.  0.
          5    1    3    3  502    0  0.11946851547E+02 -0.22163436341E+02  0.32076737824E+02  0.40991885560E+02  0.41800000000E+01 0. -1.
         -5    1    3    3    0  502 -0.47055493730E+02  0.13558109306E+03  0.74684696164E+02  0.16183858788E+03  0.41800000000E+01 0. -1.
        -11    1    1    2    0    0  0.25969263120E+02 -0.85609483783E+02  0.64587011084E+02  0.11033978585E+03  0.00000000000E+00 0.  1.
         11    1    1    2    0    0  0.91393790627E+01 -0.27808172940E+02 -0.32144021740E+02  0.43474830253E+02  0.00000000000E+00 0. -1.
</event>
<event>
 7    1  0.2749315E-009  0.2691076E+03  0.7561462E-02  0.1101791E+00
         -2   -1    0    0    0  501 -0.00000000000E+00  0.00000000000E+00  0.93511348973E+02  0.93511348973E+02  0.00000000000E+00 0.  1.
          2   -1    0    0  501    0  0.00000000000E+00 -0.00000000000E+00 -0.10492048799E+04  0.10492048799E+04  0.00000000000E+00 0. -1.
         25    2    1    2    0    0 -0.17213962809E+03  0.20518794503E+03 -0.26738299782E+03  0.39858928581E+03  0.12508240042E+03 0.  0.
          5    1    3    3  502    0 -0.53984307260E+02  0.54738160443E+02 -0.96569137579E+01  0.77597036169E+02  0.41800000000E+01 0.  1.
         -5    1    3    3    0  502 -0.11815532084E+03  0.15044978459E+03 -0.25772608406E+03  0.32099224964E+03  0.41800000000E+01 0.  1.
        -11    1    1    2    0    0  0.56103015942E+02 -0.92126867202E+02 -0.39023785854E+03  0.40487096005E+03  0.00000000000E+00 0.  1.
         11    1    1    2    0    0  0.11603661215E+03 -0.11306107783E+03 -0.29807267456E+03  0.33925598299E+03  0.00000000000E+00 0. -1.
</event>
<event>
 7    1  0.2749315E-009  0.1430657E+03  0.7561462E-02  0.1209262E+00
          2   -1    0    0  501    0  0.00000000000E+00  0.00000000000E+00  0.12650365226E+04  0.12650365226E+04  0.00000000000E+00 0. -1.
         -2   -1    0    0    0  501 -0.00000000000E+00 -0.00000000000E+00 -0.21715596558E+02  0.21715596558E+02  0.00000000000E+00 0.  1.
         25    2    1    2    0    0  0.41774752834E+02 -0.11699363474E+03  0.64729240881E+03  0.67087081532E+03  0.12509015871E+03 0.  0.
          5    1    3    3  502    0 -0.17212228707E+02 -0.13781995862E+01  0.29284295300E+03  0.29338136917E+03  0.41800000000E+01 0. -1.
         -5    1    3    3    0  502  0.58986981541E+02 -0.11561543515E+03  0.35444945580E+03  0.37748944615E+03  0.41800000000E+01 0. -1.
        -11    1    1    2    0    0 -0.32289138388E+02  0.14199430011E+02  0.56808303393E+02  0.66868494860E+02  0.00000000000E+00 0.  1.
         11    1    1    2    0    0 -0.94856144465E+01  0.10279420472E+03  0.53922021386E+03  0.54901280899E+03  0.00000000000E+00 0. -1.
</event>
<event>
 7    1  0.2749315E-009  0.8599481E+02  0.7561462E-02  0.1312851E+00
         -2   -1    0    0    0  501 -0.00000000000E+00  0.00000000000E+00  0.13734590458E+02  0.13734590458E+02  0.00000000000E+00 0. -1.
          2   -1    0    0  501    0  0.00000000000E+00 -0.00000000000E+00 -0.10296037892E+04  0.10296037892E+04  0.00000000000E+00 0.  1.
         25    2    1    2    0    0  0.48195076190E+02  0.23908792767E+01 -0.62264507469E+03  0.63691720488E+03  0.12509258637E+03 0.  0.
          5    1    3    3  502    0  0.22932019037E+02  0.27392140107E+02 -0.58056001314E+03  0.58167311103E+03  0.41800000000E+01 0.  1.
         -5    1    3    3    0  502  0.25263057153E+02 -0.25001260831E+02 -0.42085061552E+02  0.55244093854E+02  0.41800000000E+01 0.  1.
        -11    1    1    2    0    0 -0.38427399183E+02  0.40744367617E+02 -0.17440313782E+03  0.18317538858E+03  0.00000000000E+00 0. -1.
         11    1    1    2    0    0 -0.97676770076E+01 -0.43135246894E+02 -0.21882098620E+03  0.22324578617E+03  0.00000000000E+00 0.  1.
</event>
<event>
 7    1  0.2749315E-009  0.7557689E+02  0.7561462E-02  0.1342094E+00
         -4   -1    0    0    0  501 -0.00000000000E+00  0.00000000000E+00  0.13571547669E+03  0.13571547669E+03  0.00000000000E+00 0.  1.
          4   -1    0    0  501    0  0.00000000000E+00 -0.00000000000E+00 -0.10476519633E+03  0.10476519633E+03  0.00000000000E+00 0. -1.
         25    2    1    2    0    0 -0.76066450853E+01  0.36129019575E+02 -0.16156791450E+02  0.13142146998E+03  0.12508954295E+03 0.  0.
          5    1    3    3  502    0  0.28558476633E+02  0.12346897029E+02  0.45922344809E+02  0.55627031258E+02  0.41800000000E+01 0. -1.
         -5    1    3    3    0  502 -0.36165121718E+02  0.23782122546E+02 -0.62079136259E+02  0.75794438717E+02  0.41800000000E+01 0. -1.
        -11    1    1    2    0    0 -0.17577461400E+02 -0.45986288313E+02  0.61215412820E+02  0.78555920393E+02  0.00000000000E+00 0.  1.
         11    1    1    2    0    0  0.25184106486E+02  0.98572687373E+01 -0.14108341015E+02  0.30503282653E+02  0.00000000000E+00 0. -1.
</event>
<event>
 7    1  0.2749315E-009  0.1393722E+03  0.7561462E-02  0.1214176E+00
          3   -1    0    0  501    0  0.00000000000E+00  0.00000000000E+00  0.26198661559E+03  0.26198661559E+03  0.00000000000E+00 0. -1.
         -3   -1    0    0    0  501 -0.00000000000E+00 -0.00000000000E+00 -0.90155594647E+02  0.90155594647E+02  0.00000000000E+00 0.  1.
         25    2    1    2    0    0 -0.10776488862E+03  0.17712734086E+02  0.97418634929E+02  0.19252582564E+03  0.12509512756E+03 0.  0.
          5    1    3    3  502    0 -0.85549124756E+02 -0.41681343462E+02  0.29978817179E+02  0.99860848278E+02  0.41800000000E+01 0. -1.
         -5    1    3    3    0  502 -0.22215763862E+02  0.59394077547E+02  0.67439817751E+02  0.92664977364E+02  0.41800000000E+01 0. -1.
        -11    1    1    2    0    0  0.29095490120E+02 -0.28266244295E+02 -0.11979618287E+02  0.42297037321E+02  0.00000000000E+00 0. -1.
         11    1    1    2    0    0  0.78669398498E+02  0.10553510209E+02  0.86392004303E+02  0.11731934728E+03  0.00000000000E+00 0.  1.
</event>
<event>
 7    1  0.2749315E-009  0.1137953E+03  0.7561462E-02  0.1253699E+00
         -2   -1    0    0    0  501 -0.00000000000E+00  0.00000000000E+00  0.82061943263E+01  0.82061943263E+01  0.00000000000E+00 0.  1.
          2   -1    0    0  501    0  0.00000000000E+00 -0.00000000000E+00 -0.20983473934E+04  0.20983473934E+04  0.00000000000E+00 0. -1.
         25    2    1    2    0    0  0.50784857034E+02 -0.73252580963E+01 -0.15625663791E+04  0.15684047258E+04  0.12508770369E+03 0.  0.
          5    1    3    3  502    0  0.83601707511E+02  0.12103009070E+02 -0.13307661798E+04  0.13334510962E+04  0.41800000000E+01 0. -1.
         -5    1    3    3    0  502 -0.32816850477E+02 -0.19428267167E+02 -0.23180019930E+03  0.23495362954E+03  0.41800000000E+01 0. -1.
        -11    1    1    2    0    0 -0.43231653595E+02 -0.38690917296E+02 -0.24676359551E+03  0.25349208079E+03  0.00000000000E+00 0.  1.
         11    1    1    2    0    0 -0.75532034393E+01  0.46016175392E+02 -0.28081122447E+03  0.28465678117E+03  0.00000000000E+00 0. -1.
</event>
<event>
 7    1  0.2749315E-009  0.2159937E+03  0.7561462E-02  0.1136906E+00
         -1   -1    0    0    0  501 -0.00000000000E+00  0.00000000000E+00  0.44184970457E+03  0.44184970457E+03  0.00000000000E+00 0.  1.
          1   -1    0    0  501    0  0.00000000000E+00 -0.00000000000E+00 -0.15151865146E+03  0.15151865146E+03  0.00000000000E+00 0. -1.
         25    2    1    2    0    0 -0.19114645839E+03  0.55695895679E+02  0.61538737124E+01  0.23520763944E+03  0.12508302098E+03 0.  0.
          5    1    3    3  502    0 -0.12974987619E+03  0.76376012399E+02 -0.39656921189E+02  0.15575130638E+03  0.41800000000E+01 0.  1.
         -5    1    3    3    0  502 -0.61396582199E+02 -0.20680116720E+02  0.45810794902E+02  0.79456333057E+02  0.41800000000E+01 0.  1.
        -11    1    1    2    0    0  0.16184009254E+03 -0.99820808155E+01  0.23039469248E+03  0.28173315711E+03  0.00000000000E+00 0.  1.
         11    1    1    2    0    0  0.29306365856E+02 -0.45713814864E+02  0.53782486916E+02  0.76427559479E+02  0.00000000000E+00 0. -1.
</event>
<event>
 7    1  0.2749315E-009  0.9798870E+02  0.7561462E-02  0.1284583E+00
          2   -1    0    0  501    0  0.00000000000E+00  0.00000000000E+00  0.94464620645E+02  0.94464620645E+02  0.00000000000E+00 0. -1.
         -2   -1    0    0    0  501 -0.00000000000E+00 -0.00000000000E+00 -0.16930523734E+03  0.16930523734E+03  0.00000000000E+00 0.  1.
         25    2    1    2    0    0  0.11689814988E+02 -0.16994829451E+00 -0.11501653066E+03  0.17033168657E+03  0.12508956978E+03 0.  0.
          5    1    3    3  502    0 -0.76476364962E+01 -0.53777154183E+02 -0.95505416568E+02  0.10995101477E+03  0.41800000000E+01 0. -1.
         -5    1    3    3    0  502  0.19337451484E+02  0.53607205888E+02 -0.19511114089E+02  0.60380671792E+02  0.41800000000E+01 0. -1.
        -11    1    1    2    0    0 -0.47865418512E+02  0.37088003452E+01  0.22494527892E+02  0.53017518561E+02  0.00000000000E+00 0. -1.
         11    1    1    2    0    0  0.36175603524E+02 -0.35388520507E+01  0.17681386070E+02  0.40420652858E+02  0.00000000000E+00 0.  1.
</event>
<event>
 7    1  0.2749315E-009  0.1050978E+03  0.7561462E-02  0.1269927E+00
         -1   -1    0    0    0  501 -0.00000000000E+00  0.00000000000E+00  0.14149967335E+02  0.14149967335E+02  0.00000000000E+00 0.  1.
          1   -1    0    0  501    0  0.00000000000E+00 -0.00000000000E+00 -0.83656872552E+03  0.83656872552E+03  0.00000000000E+00 0. -1.
         25    2    1    2    0    0  0.10275575908E+01  0.12235697770E+02 -0.51599159307E+03  0.53107976211E+03  0.12509045298E+03 0.  0.
          5    1    3    3  502    0  0.11923853376E+02  0.67691807557E+02 -0.29631100578E+03  0.30420723797E+03  0.41800000000E+01 0.  1.
         -5    1    3    3    0  502 -0.10896295785E+02 -0.55456109787E+02 -0.21968058730E+03  0.22687252414E+03  0.41800000000E+01 0.  1.
        -11    1    1    2    0    0  0.19615925554E+02 -0.43202326501E+02 -0.11125359642E+03  0.12094870097E+03  0.00000000000E+00 0.  1.
         11    1    1    2    0    0 -0.20643483145E+02  0.30966628731E+02 -0.19517356869E+03  0.19869022977E+03  0.00000000000E+00 0. -1.
</event>
<event>
 7    1  0.2749315E-009  0.1010331E+03  0.7561462E-02  0.1278138E+00
          4   -1    0    0  501    0  0.00000000000E+00  0.00000000000E+00  0.48797509361E+03  0.48797509361E+03  0.00000000000E+00 0. -1.
         -4   -1    0    0    0  501 -0.00000000000E+00 -0.00000000000E+00 -0.25524226139E+02  0.25524226139E+02  0.00000000000E+00 0.  1.
         25    2    1    2    0    0 -0.44146831040E+01  0.22102416632E+02  0.23463800278E+03  0.26685095726E+03  0.12508570980E+03 0.  0.
          5    1    3    3  502    0 -0.28917148767E+02 -0.45745834658E+02  0.11320232979E+03  0.12554331027E+03  0.41800000000E+01 0.  1.
         -5    1    3    3    0  502  0.24502465663E+02  0.67848251290E+02  0.12143567299E+03  0.14130764700E+03  0.41800000000E+01 0.  1.
        -11    1    1    2    0    0  0.13475462912E+02 -0.47073131031E+02  0.20752565081E+03  0.21322374050E+03  0.00000000000E+00 0. -1.
         11    1    1    2    0    0 -0.90607798076E+01  0.24970714399E+02  0.20287213882E+02  0.33424621994E+02  0.00000000000E+00 0.  1.
</event>
<event>
 7    1  0.3548112E-009  0.1227858E+03  0.7561462E-02  0.1238571E+00
         -1   -1    0    0    0  501 -0.00000000000E+00  0.00000000000E+00  0.29651922474E+02  0.29651922474E+02  0.00000000000E+00 0.  1.
          1   -1    0    0  501    0  0.00000000000E+00 -0.00000000000E+00 -0.81692909067E+03  0.81692909067E+03  0.00000000000E+00 0. -1.
         25    2    1    2    0    0  0.82422720744E+02  0.52054618838E+02 -0.56607937089E+03  0.58787490234E+03  0.12509140028E+03 0.  0.
          5    1    3    3  502    0  0.95039425137E+02  0.12427672046E+02 -0.23001549156E+03  0.24922186525E+03  0.41800000000E+01 0.  1.
         -5    1    3    3    0  502 -0.12616704393E+02  0.39626946792E+02 -0.33606387933E+03  0.33865303709E+03  0.41800000000E+01 0.  1.
        -11    1    1    2    0    0 -0.53519265433E+02 -0.57358577227E+02 -0.71476595079E+02  0.10612832703E+03  0.00000000000E+00 0.  1.
         11    1    1    2    0    0 -0.28903455311E+02  0.53039583889E+01 -0.14972120222E+03  0.15257778377E+03  0.00000000000E+00 0. -1.
</event>
<event>
 7    1  0.2749315E-009  0.1745594E+03  0.7561462E-02  0.1173175E+00
          2   -1    0    0  501    0  0.00000000000E+00  0.00000000000E+00  0.47561863814E+03  0.47561863814E+03  0.00000000000E+00 0. -1.
         -2   -1    0    0    0  501 -0.00000000000E+00 -0.00000000000E+00 -0.90118041558E+02  0.90118041558E+02  0.00000000000E+00 0.  1.
         25    2    1    2    0    0 -0.13769985118E+02 -0.15797892991E+03  0.30184043574E+03  0.36318412295E+03  0.12509238077E+03 0.  0.
          5    1    3    3  502    0 -0.37648888492E+02 -0.23526838499E+02  0.16061732557E+03  0.16669237718E+03  0.41800000000E+01 0.  1.
         -5    1    3    3    0  502  0.23878903374E+02 -0.13445209141E+03  0.14122311017E+03  0.19649174577E+03  0.41800000000E+01 0.  1.
        -11    1    1    2    0    0  0.34012082865E+02  0.72761577194E+02  0.82237563209E+02  0.11495253672E+03  0.00000000000E+00 0. -1.
         11    1    1    2    0    0 -0.20242097746E+02  0.85217352713E+02  0.14225976298E+01  0.87600020026E+02  0.00000000000E+00 0.  1.
</event>
<event>
 7    1  0.2749315E-009  0.2659968E+03  0.7561462E-02  0.1103593E+00
         -1   -1    0    0    0  501 -0.00000000000E+00  0.00000000000E+00  0.63703793321E+02  0.63703793321E+02  0.00000000000E+00 0.  1.
          1   -1    0    0  501    0  0.00000000000E+00 -0.00000000000E+00 -0.12813829296E+04  0.12813829296E+04  0.00000000000E+00 0. -1.
         25    2    1    2    0    0  0.83271801691E+02 -0.24140765425E+03 -0.77991202432E+03  0.83013312743E+03  0.12508555112E+03 0.  0.
          5    1    3    3  502    0 -0.25633982993E+02 -0.49099552706E+02 -0.90851784197E+02  0.10648655432E+03  0.41800000000E+01 0. -1.
         -5    1    3    3    0  502  0.10890578468E+03 -0.19230810155E+03 -0.68906024012E+03  0.72364657311E+03  0.41800000000E+01 0. -1.
        -11    1    1    2    0    0 -0.65938887244E+02  0.18548159939E+03 -0.24959081113E+03  0.31787880326E+03  0.00000000000E+00 0. -1.
         11    1    1    2    0    0 -0.17332914447E+02  0.55926054862E+02 -0.18817630082E+03  0.19707479221E+03  0.00000000000E+00 0.  1.
</event>
<event>
 7    1  0.2749315E-009  0.1180558E+03  0.7561462E-02  0.1246339E+00
          2   -1    0    0  501    0  0.00000000000E+00  0.00000000000E+00  0.17649042287E+04  0.17649042287E+04  0.00000000000E+00 0.  1.
         -2   -1    0    0    0  501 -0.00000000000E+00 -0.00000000000E+00 -0.11883686603E+02  0.11883686603E+02  0.00000000000E+00 0. -1.
         25    2    1    2    0    0 -0.47685117333E+02  0.75065870572E+02  0.11406939881E+04  0.11509732667E+04  0.12509168980E+03 0.  0.
          5    1    3    3  502    0  0.46761006403E+01 -0.12228720414E+02  0.63345399906E+03  0.63360306884E+03  0.41800000000E+01 0.  1.
         -5    1    3    3    0  502 -0.52361217973E+02  0.87294590986E+02  0.50723998902E+03  0.51737019785E+03  0.41800000000E+01 0.  1.
        -11    1    1    2    0    0  0.26862616465E+02  0.13107373570E+02  0.72199430378E+02  0.78141929540E+02  0.00000000000E+00 0. -1.
         11    1    1    2    0    0  0.20822500868E+02 -0.88173244142E+02  0.54012712361E+03  0.54767271904E+03  0.00000000000E+00 0.  1.
</event>
<event>
 7    1  0.2749315E-009  0.7911701E+02  0.7561462E-02  0.1331576E+00
         -1   -1    0    0    0  501 -0.00000000000E+00  0.00000000000E+00  0.24213697488E+02  0.24213697488E+02  0.00000000000E+00 0.  1.
          1   -1    0    0  501    0  0.00000000000E+00 -0.00000000000E+00 -0.55144882879E+03  0.55144882879E+03  0.00000000000E+00 0. -1.
         25    2    1    2    0    0 -0.24635421532E+02 -0.13594977450E+01 -0.38380677401E+03  0.40442969623E+03  0.12508791783E+03 0.  0.
          5    1    3    3  502    0  0.38039481476E+02 -0.12901561757E+02 -0.48582091503E+02  0.63175505234E+02  0.41800000000E+01 0. -1.
         -5    1    3    3    0  502 -0.62674903008E+02  0.11542064012E+02 -0.33522468251E+03  0.34125419100E+03  0.41800000000E+01 0. -1.
        -11    1    1    2    0    0  0.18003997883E+02 -0.22730840890E+02 -0.14334273706E+03  0.14624628315E+03  0.00000000000E+00 0. -1.
         11    1    1    2    0    0  0.66314236496E+01  0.24090338635E+02 -0.85620231514E-01  0.24986546900E+02  0.00000000000E+00 0.  1.
</event>
<event>
 7    1  0.2749315E-009  0.9029701E+02  0.7561462E-02  0.1302134E+00
         -4   -1    0    0    0  501 -0.00000000000E+00  0.00000000000E+00  0.46189616015E+03  0.46189616015E+03  0.00000000000E+00 0.  1.
          4   -1    0    0  501    0  0.00000000000E+00 -0.00000000000E+00 -0.31102948544E+02  0.31102948544E+02  0.00000000000E+00 0. -1.
         25    2    1    2    0    0  0.46203441760E+02  0.35830140817E+01  0.20303039606E+03  0.24293272376E+03  0.12508945010E+03 0.  0.
          5    1    3    3  502    0 -0.22773502893E+02  0.11345432572E+02  0.15799490638E+03  0.16008502152E+03  0.41800000000E+01 0.  1.
         -5    1    3    3    0  502  0.68976944653E+02 -0.77624184900E+01  0.45035489680E+02  0.82847702233E+02  0.41800000000E+01 0.  1.
        -11    1    1    2    0    0  0.10179941976E+01  0.28284824886E+02  0.20056164704E+02  0.34688865269E+02  0.00000000000E+00 0. -1.
         11    1    1    2    0    0 -0.47221435958E+02 -0.31867838968E+02  0.20770665084E+03  0.21537751967E+03  0.00000000000E+00 0.  1.
</event>
<event>
 7    1  0.2749315E-009  0.9987424E+02  0.7561462E-02  0.1280561E+00
         -1   -1    0    0    0  501 -0.00000000000E+00  0.00000000000E+00  0.30394107431E+02  0.30394107431E+02  0.00000000000E+00 0.  1.
          1   -1    0    0  501    0  0.00000000000E+00 -0.00000000000E+00 -0.60058192268E+03  0.60058192268E+03  0.00000000000E+00 0. -1.
         25    2    1    2    0    0  0.66966462069E+01 -0.16256781388E+02 -0.13109569106E+03  0.18205069085E+03  0.12508895160E+03 0.  0.
          5    1    3    3  502    0 -0.17305834315E+02 -0.56526789326E+02 -0.21966161085E+02  0.63204069850E+02  0.41800000000E+01 0.  1.
         -5    1    3    3    0  502  0.24002480522E+02  0.40270007938E+02 -0.10912952997E+03  0.11884662100E+03  0.41800000000E+01 0.  1.
        -11    1    1    2    0    0 -0.36905336315E+02  0.40420234179E+02 -0.25184833026E+03  0.25772733777E+03  0.00000000000E+00 0.  1.
         11    1    1    2    0    0  0.30208690108E+02 -0.24163452791E+02 -0.18724379393E+03  0.19119800149E+03  0.00000000000E+00 0. -1.
</event>
<event>
 7    1  0.2749315E-009  0.9629990E+02  0.7561462E-02  0.1288275E+00
          1   -1    0    0  501    0  0.00000000000E+00  0.00000000000E+00  0.54209419375E+03  0.54209419375E+03  0.00000000000E+00 0. -1.
         -1   -1    0    0    0  501 -0.00000000000E+00 -0.00000000000E+00 -0.32365884083E+02  0.32365884083E+02  0.00000000000E+00 0.  1.
         25    2    1    2    0    0  0.70417186086E+02  0.12726419328E+01  0.32349923308E+03  0.35391702266E+03  0.12508119527E+03 0.  0.
          5    1    3    3  502    0 -0.10107753042E+02 -0.29894080103E+01 -0.72469582849E+01  0.13457118421E+02  0.41800000000E+01 0. -1.
         -5    1    3    3    0  502  0.80524939129E+02  0.42620499431E+01  0.33074619136E+03  0.34045990424E+03  0.41800000000E+01 0. -1.
        -11    1    1    2    0    0 -0.17472467484E+02 -0.34031591113E+02  0.20277406780E+02  0.43296761304E+02  0.00000000000E+00 0.  1.
         11    1    1    2    0    0 -0.52944718602E+02  0.32758949180E+02  0.16595166981E+03  0.17724629387E+03  0.00000000000E+00 0. -1.
</event>
<event>
 7    1  0.2749315E-009  0.1091447E+03  0.7561462E-02  0.1262162E+00
         -1   -1    0    0    0  501 -0.00000000000E+00  0.00000000000E+00  0.20965529881E+03  0.20965529881E+03  0.00000000000E+00 0.  1.
          1   -1    0    0  501    0  0.00000000000E+00 -0.00000000000E+00 -0.69565707217E+02  0.69565707217E+02  0.00000000000E+00 0. -1.
         25    2    1    2    0    0  0.31137671503E+01 -0.51299569784E+02  0.83379518992E+02  0.15887501599E+03  0.12509110725E+03 0.  0.
          5    1    3    3  502    0  0.63938602824E+02 -0.27968176045E+02  0.41088596014E+02  0.81093211336E+02  0.41800000000E+01 0.  1.
         -5    1    3    3    0  502 -0.60824835674E+02 -0.23331393739E+02  0.42290922978E+02  0.77781804651E+02  0.41800000000E+01 0.  1.
        -11    1    1    2    0    0 -0.33929868292E+02  0.32584696187E+02 -0.65865248487E+01  0.47501375743E+02  0.00000000000E+00 0. -1.
         11    1    1    2    0    0  0.30816101141E+02  0.18714873598E+02  0.63296597455E+02  0.72844614301E+02  0.00000000000E+00 0.  1.
</event>
<event>
 7    1  0.2749315E-009  0.1629767E+03  0.7561462E-02  0.1185376E+00
         -2   -1    0    0    0  501 -0.00000000000E+00  0.00000000000E+00  0.71830387330E+02  0.71830387330E+02  0.00000000000E+00 0.  1.
          2   -1    0    0  501    0  0.00000000000E+00 -0.00000000000E+00 -0.38019335849E+03  0.38019335849E+03  0.00000000000E+00 0. -1.
         25    2    1    2    0    0  0.11761541329E+03  0.34054566115E+02 -0.19579064707E+03  0.26263198686E+03  0.12509390122E+03 0.  0.
          5    1    3    3  502    0 -0.19334131968E+02  0.31150611483E+02 -0.54313738409E+02  0.65662956335E+02  0.41800000000E+01 0. -1.
         -5    1    3    3    0  502  0.13694954526E+03  0.29039546320E+01 -0.14147690867E+03  0.19696903052E+03  0.41800000000E+01 0. -1.
        -11    1    1    2    0    0 -0.78063555890E+02  0.24082073550E+02 -0.66365603651E+02  0.10525330576E+03  0.00000000000E+00 0.  1.
         11    1    1    2    0    0 -0.39551857399E+02 -0.58136639665E+02 -0.46206720439E+02  0.84138453212E+02  0.00000000000E+00 0. -1.
</event>
<event>
 7    1  0.2749315E-009  0.1040844E+03  0.7561462E-02  0.1271934E+00
         -2   -1    0    0    0  501 -0.00000000000E+00  0.00000000000E+00  0.15323642986E+02  0.15323642986E+02  0.00000000000E+00 0.  1.
          2   -1    0    0  501    0  0.00000000000E+00 -0.00000000000E+00 -0.28268012160E+04  0.28268012160E+04  0.00000000000E+00 0. -1.
         25    2    1    2    0    0 -0.21550445692E+02 -0.80236172311E+02 -0.25340722613E+04  0.25385177287E+04  0.12509104154E+03 0.  0.
          5    1    3    3  502    0  0.32757537147E+02 -0.83054043617E+01 -0.15354949152E+04  0.15358724371E+04  0.41800000000E+01 0. -1.
         -5    1    3    3    0  502 -0.54307982839E+02 -0.71930767949E+02 -0.99857734611E+03  0.10026452917E+04  0.41800000000E+01 0. -1.
        -11    1    1    2    0    0  0.10501282292E+02  0.59249992247E+02 -0.27291338297E+03  0.27946834009E+03  0.00000000000E+00 0. -1.
         11    1    1    2    0    0  0.11049163400E+02  0.20986180064E+02 -0.44919287500E+01  0.24138790139E+02  0.00000000000E+00 0.  1.
</event>
<event>
 7    1  0.2749315E-009  0.1087123E+03  0.7561462E-02  0.1262973E+00
         -2   -1    0    0    0  501 -0.00000000000E+00  0.00000000000E+00  0.50191950708E+02  0.50191950708E+02  0.00000000000E+00 0.  1.
          2   -1    0    0  501    0  0.00000000000E+00 -0.00000000000E+00 -0.42652441938E+03  0.42652441938E+03  0.00000000000E+00 0. -1.
         25    2    1    2    0    0 -0.42369760840E+02  0.78590433625E+02 -0.26486850558E+03  0.30622628002E+03  0.12509019319E+03 0.  0.
          5    1    3    3  502    0  0.25114056435E+02  0.21453608594E+02 -0.18182930290E+03  0.18485221380E+03  0.41800000000E+01 0.  1.
         -5    1    3    3    0  502 -0.67483817275E+02  0.57136825031E+02 -0.83039202684E+02  0.12137406622E+03  0.41800000000E+01 0.  1.
        -11    1    1    2    0    0  0.47139518439E+02 -0.59384980725E+02 -0.22120292994E+02  0.78981121140E+02  0.00000000000E+00 0.  1.
         11    1    1    2    0    0 -0.47697575993E+01 -0.19205452900E+02 -0.89343670098E+02  0.91508968933E+02  0.00000000000E+00 0. -1.
</event>
<event>
 7    1  0.2749315E-009  0.8847162E+02  0.7561462E-02  0.1306596E+00
          1   -1    0    0  501    0  0.00000000000E+00  0.00000000000E+00  0.46506988011E+03  0.46506988011E+03  0.00000000000E+00 0. -1.
         -1   -1    0    0    0  501 -0.00000000000E+00 -0.00000000000E+00 -0.64464045543E+02  0.64464045543E+02  0.00000000000E+00 0.  1.
         25    2    1    2    0    0  0.13874797831E+02 -0.43842752584E+02  0.40700053259E+03  0.42826894804E+03  0.12510060495E+03 0.  0.
          5    1    3    3  502    0  0.29656529491E+02 -0.56871054918E+00  0.36363741463E+03  0.36486912023E+03  0.41800000000E+01 0. -1.
         -5    1    3    3    0  502 -0.15781731660E+02 -0.43274042035E+02  0.43363117959E+02  0.63399827818E+02  0.41800000000E+01 0. -1.
        -11    1    1    2    0    0 -0.23284203957E+02  0.69559359328E+02 -0.82655522696E+01  0.73817192972E+02  0.00000000000E+00 0.  1.
         11    1    1    2    0    0  0.94094061259E+01 -0.25716606744E+02  0.18708542473E+01  0.27447784641E+02  0.00000000000E+00 0. -1.
</event>
<event>
 7    1  0.2749315E-009  0.1215774E+03  0.7561462E-02  0.1240517E+00
         -2   -1    0    0    0  501 -0.00000000000E+00  0.00000000000E+00  0.39770592468E+02  0.39770592468E+02  0.00000000000E+00 0. -1.
          2   -1    0    0  501    0  0.00000000000E+00 -0.00000000000E+00 -0.69997146762E+03  0.69997146762E+03  0.00000000000E+00 0.  1.
         25    2    1    2    0    0 -0.82651385356E+02 -0.44681452936E+02 -0.16444262372E+03  0.22697353530E+03  0.12509166836E+03 0.  0.
          5    1    3    3  502    0 -0.65067672299E+02 -0.60051388653E+02 -0.17856989249E+03  0.19936060333E+03  0.41800000000E+01 0. -1.
         -5    1    3    3    0  502 -0.17583713058E+02  0.15369935717E+02  0.14127268771E+02  0.27612931966E+02  0.41800000000E+01 0. -1.
        -11    1    1    2    0    0 -0.16122446239E+02 -0.89002709339E+01 -0.79975053187E+02  0.82068003678E+02  0.00000000000E+00 0. -1.
         11    1    1    2    0    0  0.98773831595E+02  0.53581723870E+02 -0.41578319825E+03  0.43070052111E+03  0.00000000000E+00 0.  1.
</event>
<event>
 7    1  0.2749315E-009  0.1030216E+03  0.7561462E-02  0.1274067E+00
          1   -1    0    0  501    0  0.00000000000E+00  0.00000000000E+00  0.15528906631E+04  0.15528906631E+04  0.00000000000E+00 0. -1.
         -1   -1    0    0    0  501 -0.00000000000E+00 -0.00000000000E+00 -0.13925434807E+02  0.13925434807E+02  0.00000000000E+00 0.  1.
         25    2    1    2    0    0  0.62262238568E+01 -0.79239053518E+02  0.11558362416E+04  0.11653000382E+04  0.12509663510E+03 0.  0.
          5    1    3    3  502    0  0.46452897616E+01 -0.81275697964E+02  0.34689311072E+03  0.35634199929E+03  0.41800000000E+01 0.  1.
         -5    1    3    3    0  502  0.15809340952E+01  0.20366444453E+01  0.80894313089E+03  0.80895803889E+03  0.41800000000E+01 0.  1.
        -11    1    1    2    0    0  0.33527800371E+02  0.30333253496E+01  0.12495017459E+03  0.12940579813E+03  0.00000000000E+00 0. -1.
         11    1    1    2    0    0 -0.39754024228E+02  0.76205728169E+02  0.25817881212E+03  0.27211026162E+03  0.00000000000E+00 0.  1.
</event>
<event>
 7    1  0.2749315E-009  0.1129819E+03  0.7561462E-02  0.1255145E+00
          2   -1    0    0  501    0  0.00000000000E+00  0.00000000000E+00  0.74691062949E+03  0.74691062949E+03  0.00000000000E+00 0. -1.
         -2   -1    0    0    0  501 -0.00000000000E+00 -0.00000000000E+00 -0.17533870448E+02  0.17533870448E+02  0.00000000000E+00 0.  1.
         25    2    1    2    0    0 -0.30193126864E+02  0.15551577077E+02  0.38568723613E+03  0.40688475730E+03  0.12508830940E+03 0.  0.
          5    1    3    3  502    0 -0.13267401852E+02  0.70532714373E+02  0.21940148864E+03  0.23087956464E+03  0.41800000000E+01 0. -1.
         -5    1    3    3    0  502 -0.16925725012E+02 -0.54981137296E+02  0.16628574749E+03  0.17600519266E+03  0.41800000000E+01 0. -1.
        -11    1    1    2    0    0  0.14216797117E+02  0.37966820984E+02  0.18311013641E+03  0.18754444506E+03  0.00000000000E+00 0.  1.
         11    1    1    2    0    0  0.15976329747E+02 -0.53518398061E+02  0.16057938650E+03  0.17001529758E+03  0.00000000000E+00 0. -1.
</event>
<event>
 7    1  0.2749315E-009  0.1671440E+03  0.7561462E-02  0.1180859E+00
         -3   -1    0    0    0  501 -0.00000000000E+00  0.00000000000E+00  0.20525185811E+03  0.20525185811E+03  0.00000000000E+00 0.  1.
          3   -1    0    0  501    0  0.00000000000E+00 -0.00000000000E+00 -0.20669603437E+03  0.20669603437E+03  0.00000000000E+00 0. -1.
         25    2    1    2    0    0 -0.11766448579E+03 -0.57517454610E+02  0.11530916326E+03  0.21469811865E+03  0.12508353297E+03 0.  0.
          5    1    3    3  502    0 -0.57680092330E+02 -0.90424125820E+02  0.94650746670E+02  0.14310748348E+03  0.41800000000E+01 0.  1.
         -5    1    3    3    0  502 -0.59984393460E+02  0.32906671210E+02  0.20658416586E+02  0.71590635175E+02  0.41800000000E+01 0.  1.
        -11    1    1    2    0    0  0.37392904176E+02 -0.23655006795E+02 -0.40344070967E+02  0.59878482708E+02  0.00000000000E+00 0. -1.
         11    1    1    2    0    0  0.80271581615E+02  0.81172461405E+02 -0.76409268542E+02  0.13737129112E+03  0.00000000000E+00 0.  1.
</event>
<event>
 7    1  0.2749315E-009  0.7751718E+02  0.7561462E-02  0.1336249E+00
          3   -1    0    0  501    0  0.00000000000E+00  0.00000000000E+00  0.38523707591E+03  0.38523707591E+03  0.00000000000E+00 0. -1.
         -3   -1    0    0    0  501 -0.00000000000E+00 -0.00000000000E+00 -0.40073372356E+02  0.40073372356E+02  0.00000000000E+00 0.  1.
         25    2    1    2    0    0 -0.55043736120E+01  0.35681928519E+02  0.27734437569E+03  0.30638374343E+03  0.12509035680E+03 0.  0.
          5    1    3    3  502    0  0.14694156985E+02 -0.24717934952E+02  0.88033804850E+01  0.30362253963E+02  0.41800000000E+01 0. -1.
         -5    1    3    3    0  502 -0.20198530597E+02  0.60399863471E+02  0.26854099520E+03  0.27602148947E+03  0.41800000000E+01 0. -1.
        -11    1    1    2    0    0 -0.85910373379E+01  0.10672997073E+02 -0.16641424007E+02  0.21555875813E+02  0.00000000000E+00 0.  1.
         11    1    1    2    0    0  0.14095410950E+02 -0.46354925593E+02  0.84460751873E+02  0.97370829017E+02  0.00000000000E+00 0. -1.
</event>
<event>
 7    1  0.2749315E-009  0.1232447E+03  0.7561462E-02  0.1237838E+00
          2   -1    0    0  501    0  0.00000000000E+00  0.00000000000E+00  0.53006495871E+03  0.53006495871E+03  0.00000000000E+00 0. -1.
         -2   -1    0    0    0  501 -0.00000000000E+00 -0.00000000000E+00 -0.31984349977E+02  0.31984349977E+02  0.00000000000E+00 0.  1.
         25    2    1    2    0    0 -0.15178892718E+01  0.71384416518E+02  0.30467804037E+03  0.33700771092E+03  0.12508976789E+03 0.  0.
          5    1    3    3  502    0 -0.36855816150E+02  0.93196740997E+02  0.18793778366E+03  0.21303067066E+03  0.41800000000E+01 0. -1.
         -5    1    3    3    0  502  0.35337926879E+02 -0.21812324479E+02  0.11674025671E+03  0.12397704026E+03  0.41800000000E+01 0. -1.
        -11    1    1    2    0    0 -0.32518786737E+02 -0.96007920250E+01  0.24003448223E+02  0.41542896203E+02  0.00000000000E+00 0.  1.
         11    1    1    2    0    0  0.34036676008E+02 -0.61783624493E+02  0.16939912014E+03  0.18349870156E+03  0.00000000000E+00 0. -1.
</event>
<event>
 7    1  0.2749315E-009  0.1066846E+03  0.7561462E-02  0.1266836E+00
         -2   -1    0    0    0  501 -0.00000000000E+00  0.00000000000E+00  0.57124809136E+02  0.57124809136E+02  0.00000000000E+00 0.  1.
          2   -1    0    0  501    0  0.00000000000E+00 -0.00000000000E+00 -0.26839085060E+03  0.26839085060E+03  0.00000000000E+00 0. -1.
         25    2    1    2    0    0  0.16392315524E+02  0.42963707343E+02 -0.16689345615E+03  0.21357788407E+03  0.12508996244E+03 0.  0.
          5    1    3    3  502    0 -0.11206864090E+02  0.76008444052E+02 -0.57841325336E+02  0.96259901759E+02  0.41800000000E+01 0. -1.
         -5    1    3    3    0  502  0.27599179614E+02 -0.33044736709E+02 -0.10905213081E+03  0.11731798232E+03  0.41800000000E+01 0. -1.
        -11    1    1    2    0    0  0.21382619378E+02  0.13460817991E+02  0.76485542580E+01  0.26399060868E+02  0.00000000000E+00 0.  1.
         11    1    1    2    0    0 -0.37774934902E+02 -0.56424525334E+02 -0.52021139567E+02  0.85538714789E+02  0.00000000000E+00 0. -1.
</event>
<event>
 7    1  0.2749315E-009  0.1634231E+03  0.7561462E-02  0.1184885E+00
         -2   -1    0    0    0  501 -0.00000000000E+00  0.00000000000E+00  0.18465770831E+03  0.18465770831E+03  0.00000000000E+00 0.  1.
          2   -1    0    0  501    0  0.00000000000E+00 -0.00000000000E+00 -0.19679187102E+03  0.19679187102E+03  0.00000000000E+00 0. -1.
         25    2    1    2    0    0 -0.61991364872E+02  0.14066518716E+03  0.22226111427E+02  0.19942936455E+03  0.12509375372E+03 0.  0.
          5    1    3    3  502    0 -0.44662656374E+02  0.10391518732E+03  0.72683470661E+02  0.13451200072E+03  0.41800000000E+01 0. -1.
         -5    1    3    3    0  502 -0.17328708498E+02  0.36749999839E+02 -0.50457359234E+02  0.64917363835E+02  0.41800000000E+01 0. -1.
        -11    1    1    2    0    0  0.81025985120E+02 -0.10807628109E+03 -0.67257976146E+01  0.13524396161E+03  0.00000000000E+00 0. -1.
         11    1    1    2    0    0 -0.19034620248E+02 -0.32588906072E+02 -0.27634476532E+02  0.46776253165E+02  0.00000000000E+00 0.  1.
</event>
<event>
 7    1  0.2749315E-009  0.1313990E+03  0.7561462E-02  0.1225394E+00
         -2   -1    0    0    0  501 -0.00000000000E+00  0.00000000000E+00  0.40484343081E+02  0.40484343081E+02  0.00000000000E+00 0. -1.
          2   -1    0    0  501    0  0.00000000000E+00 -0.00000000000E+00 -0.51928336221E+03  0.51928336221E+03  0.00000000000E+00 0.  1.
         25    2    1    2    0    0  0.37391928396E+02  0.73724091621E+02 -0.16877579053E+03  0.22575193334E+03  0.12508105350E+03 0.  0.
          5    1    3    3  502    0 -0.22569486209E+02  0.75900983174E+02 -0.53278992428E+02  0.95532530525E+02  0.41800000000E+01 0. -1.
         -5    1    3    3    0  502  0.59961414605E+02 -0.21768915526E+01 -0.11549679810E+03  0.13021940282E+03  0.41800000000E+01 0. -1.
        -11    1    1    2    0    0  0.25495591077E+02 -0.50032073151E+02 -0.16187239202E+03  0.17133564955E+03  0.00000000000E+00 0.  1.
         11    1    1    2    0    0 -0.62887519473E+02 -0.23692018470E+02 -0.14815083659E+03  0.16268012240E+03  0.00000000000E+00 0. -1.
</event>
<event>
 7    1  0.2749315E-009  0.1002014E+03  0.7561462E-02  0.1279873E+00
          1   -1    0    0  501    0  0.00000000000E+00  0.00000000000E+00  0.17407546375E+03  0.17407546375E+03  0.00000000000E+00 0. -1.
         -1   -1    0    0    0  501 -0.00000000000E+00 -0.00000000000E+00 -0.75483964165E+02  0.75483964165E+02  0.00000000000E+00 0.  1.
         25    2    1    2    0    0  0.16468585984E+02 -0.20204972695E+02  0.89360556445E+02  0.15592313860E+03  0.12508901173E+03 0.  0.
          5    1    3    3  502    0 -0.51094825070E+02 -0.28587718005E+02  0.50427283747E+02  0.77384249792E+02  0.41800000000E+01 0. -1.
         -5    1    3    3    0  502  0.67563411055E+02  0.83827453090E+01  0.38933272698E+02  0.78538888808E+02  0.41800000000E+01 0. -1.
        -11    1    1    2    0    0  0.26819541367E+02  0.12240130415E+02  0.32475439526E+02  0.43860720059E+02  0.00000000000E+00 0. -1.
         11    1    1    2    0    0 -0.43288127351E+02  0.79648422806E+01 -0.23244496390E+02  0.49775569253E+02  0.00000000000E+00 0.  1.
</event>
<event>
 7    1  0.2749315E-009  0.9685563E+02  0.7561462E-02  0.1287051E+00
         -2   -1    0    0    0  501 -0.00000000000E+00  0.00000000000E+00  0.16291691064E+03  0.16291691064E+03  0.00000000000E+00 0.  1.
          2   -1    0    0  501    0  0.00000000000E+00 -0.00000000000E+00 -0.87457430055E+02  0.87457430055E+02  0.00000000000E+00 0. -1.
         25    2    1    2    0    0  0.69040404840E+01 -0.39386044451E+02  0.72925031547E+02  0.15021543387E+03  0.12509072737E+03 0.  0.
          5    1    3    3  502    0 -0.71198984341E+01  0.26505658190E+02  0.77738515439E+02  0.82546908195E+02  0.41800000000E+01 0. -1.
         -5    1    3    3    0  502  0.14023938918E+02 -0.65891702640E+02 -0.48134838926E+01  0.67668525673E+02  0.41800000000E+01 0. -1.
        -11    1    1    2    0    0  0.22868462450E+02 -0.21049520053E+02  0.93158696013E+01  0.32447408151E+02  0.00000000000E+00 0.  1.
         11    1    1    2    0    0 -0.29772502934E+02  0.60435564503E+02 -0.67814205666E+01  0.67711498674E+02  0.00000000000E+00 0. -1.
</event>
<event>
 7    1  0.2891581E-009  0.1781414E+03  0.7561462E-02  0.1169614E+00
         -1   -1    0    0    0  501 -0.00000000000E+00  0.00000000000E+00  0.28841914869E+03  0.28841914869E+03  0.00000000000E+00 0.  1.
          1   -1    0    0  501    0  0.00000000000E+00 -0.00000000000E+00 -0.20741333525E+03  0.20741333525E+03  0.00000000000E+00 0. -1.
         25    2    1    2    0    0  0.13305937379E+03  0.11725588954E+03 -0.88069894692E+02  0.23421682987E+03  0.12508987352E+03 0.  0.
          5    1    3    3  502    0  0.79101645843E+02  0.76261200758E+02 -0.11687279739E+03  0.16046670772E+03  0.41800000000E+01 0.  1.
         -5    1    3    3    0  502  0.53957727946E+02  0.40994688782E+02  0.28802902696E+02  0.73750122150E+02  0.41800000000E+01 0.  1.
        -11    1    1    2    0    0 -0.56249524088E+02 -0.62621914865E+02  0.13931566448E+03  0.16277090511E+03  0.00000000000E+00 0.  1.
         11    1    1    2    0    0 -0.76809849700E+02 -0.54633974674E+02  0.29760043648E+02  0.98844748963E+02  0.00000000000E+00 0. -1.
</event>
<event>
 7    1  0.2749315E-009  0.1009840E+03  0.7561462E-02  0.1278240E+00
          2   -1    0    0  501    0  0.00000000000E+00  0.00000000000E+00  0.44682145957E+02  0.44682145957E+02  0.00000000000E+00 0. -1.
         -2   -1    0    0    0  501 -0.00000000000E+00 -0.00000000000E+00 -0.33636850761E+03  0.33636850761E+03  0.00000000000E+00 0.  1.
         25    2    1    2    0    0  0.59086764688E+02 -0.19865507081E+02 -0.17650165929E+03  0.22513757177E+03  0.12509279099E+03 0.  0.
          5    1    3    3  502    0 -0.14720925149E+02  0.87578753625E+01 -0.13406554678E+03  0.13522000315E+03  0.41800000000E+01 0.  1.
         -5    1    3    3    0  502  0.73807689837E+02 -0.28623382444E+02 -0.42436112507E+02  0.89917568619E+02  0.41800000000E+01 0.  1.
        -11    1    1    2    0    0  0.17857471016E+02 -0.12281013673E+02 -0.24856482650E+02  0.32978133629E+02  0.00000000000E+00 0.  1.
         11    1    1    2    0    0 -0.76944235704E+02  0.32146520754E+02 -0.90328219718E+02  0.12293494817E+03  0.00000000000E+00 0. -1.
</event>
<event>
 7    1  0.2749315E-009  0.9344173E+02  0.7561462E-02  0.1294725E+00
          2   -1    0    0  501    0  0.00000000000E+00  0.00000000000E+00  0.73349277414E+03  0.73349277414E+03  0.00000000000E+00 0. -1.
         -2   -1    0    0    0  501 -0.00000000000E+00 -0.00000000000E+00 -0.19448255894E+02  0.19448255894E+02  0.00000000000E+00 0.  1.
         25    2    1    2    0    0 -0.33006070483E+02 -0.34500388851E+02  0.41116276826E+03  0.43241437611E+03  0.12509073963E+03 0.  0.
          5    1    3    3  502    0  0.33210329044E+02 -0.28917348465E+02  0.57536984877E+02  0.72574899423E+02  0.41800000000E+01 0. -1.
         -5    1    3    3    0  502 -0.66216399528E+02 -0.55830403858E+01  0.35362578339E+03  0.35983947669E+03  0.41800000000E+01 0. -1.
        -11    1    1    2    0    0  0.22977766832E+02 -0.13755394567E+02  0.20106315945E+02  0.33488096231E+02  0.00000000000E+00 0.  1.
         11    1    1    2    0    0  0.10028303651E+02  0.48255783419E+02  0.28277543404E+03  0.28703855770E+03  0.00000000000E+00 0. -1.
</event>
<event>
 7    1  0.2749315E-009  0.1089644E+03  0.7561462E-02  0.1262500E+00
          2   -1    0    0  501    0  0.00000000000E+00  0.00000000000E+00  0.38858581974E+02  0.38858581974E+02  0.00000000000E+00 0. -1.
         -2   -1    0    0    0  501 -0.00000000000E+00 -0.00000000000E+00 -0.35342622080E+03  0.35342622080E+03  0.00000000000E+00 0.  1.
         25    2    1    2    0    0  0.33211807516E+02  0.18508021692E+02 -0.14072332799E+03  0.19208431235E+03  0.12509099483E+03 0.  0.
          5    1    3    3  502    0 -0.31975760621E+02 -0.27761276298E+02 -0.83399605850E+02  0.93627476656E+02  0.41800000000E+01 0. -1.
         -5    1    3    3    0  502  0.65187568137E+02  0.46269297990E+02 -0.57323722135E+02  0.98456835697E+02  0.41800000000E+01 0. -1.
        -11    1    1    2    0    0 -0.15904088833E+02 -0.53756959795E+02 -0.73449733212E+02  0.92399210370E+02  0.00000000000E+00 0. -1.
         11    1    1    2    0    0 -0.17307718684E+02  0.35248938103E+02 -0.10039457763E+03  0.10780128005E+03  0.00000000000E+00 0.  1.
</event>
<event>
 7    1  0.2749315E-009  0.1094413E+03  0.7561462E-02  0.1261608E+00
          2   -1    0    0  501    0  0.00000000000E+00  0.00000000000E+00  0.28505993840E+03  0.28505993840E+03  0.00000000000E+00 0.  1.
         -2   -1    0    0    0  501 -0.00000000000E+00 -0.00000000000E+00 -0.52308609926E+02  0.52308609926E+02  0.00000000000E+00 0. -1.
         25    2    1    2    0    0 -0.37448198294E+02 -0.45224598034E+02  0.13313871366E+03  0.19188538141E+03  0.12508577338E+03 0.  0.
          5    1    3    3  502    0 -0.45998971683E+02 -0.72852351012E+02  0.13752270691E+03  0.16233711147E+03  0.41800000000E+01 0. -1.
         -5    1    3    3    0  502  0.85507733888E+01  0.27627752978E+02 -0.43839932459E+01  0.29548269949E+02  0.41800000000E+01 0. -1.
        -11    1    1    2    0    0  0.50369109804E+02  0.63480093885E+02  0.63269285310E+02  0.10280939649E+03  0.00000000000E+00 0. -1.
         11    1    1    2    0    0 -0.12920911510E+02 -0.18255495852E+02  0.36343329504E+02  0.42673770427E+02  0.00000000000E+00 0.  1.
</event>
<event>
 7    1  0.2749315E-009  0.1304765E+03  0.7561462E-02  0.1226750E+00
          1   -1    0    0  501    0  0.00000000000E+00  0.00000000000E+00  0.39771719236E+02  0.39771719236E+02  0.00000000000E+00 0. -1.
         -1   -1    0    0    0  501 -0.00000000000E+00 -0.00000000000E+00 -0.49252872133E+03  0.49252872133E+03  0.00000000000E+00 0.  1.
         25    2    1    2    0    0  0.71053875534E+02  0.24071839275E+01 -0.15090091733E+03  0.20849839158E+03  0.12508415039E+03 0.  0.
          5    1    3    3  502    0  0.81679584996E+02  0.49311078674E+02 -0.10388984628E+03  0.14111594398E+03  0.41800000000E+01 0. -1.
         -5    1    3    3    0  502 -0.10625709462E+02 -0.46903894747E+02 -0.47011071054E+02  0.67382447608E+02  0.41800000000E+01 0. -1.
        -11    1    1    2    0    0 -0.79415695937E+02  0.29100192872E+02 -0.21746949768E+03  0.23333807321E+03  0.00000000000E+00 0. -1.
         11    1    1    2    0    0  0.83618204035E+01 -0.31507376799E+02 -0.84386587077E+02  0.90463975767E+02  0.00000000000E+00 0.  1.
</event>
<event>
 7    1  0.2749315E-009  0.1748288E+03  0.7561462E-02  0.1172904E+00
         -2   -1    0    0    0  501 -0.00000000000E+00  0.00000000000E+00  0.34421299069E+02  0.34421299069E+02  0.00000000000E+00 0.  1.
          2   -1    0    0  501    0  0.00000000000E+00 -0.00000000000E+00 -0.11086948110E+04  0.11086948110E+04  0.00000000000E+00 0. -1.
         25    2    1    2    0    0 -0.14773123292E+03 -0.56780915606E+02 -0.69905606060E+03  0.72758159926E+03  0.12508804167E+03 0.  0.
          5    1    3    3  502    0  0.73761334915E+01 -0.25218279121E+02 -0.25029582455E+03  0.25170586233E+03  0.41800000000E+01 0.  1.
         -5    1    3    3    0  502 -0.15510736641E+03 -0.31562636485E+02 -0.44876023605E+03  0.47587573693E+03  0.41800000000E+01 0.  1.
        -11    1    1    2    0    0  0.59150978902E+02 -0.62787188796E+00 -0.65181736773E+02  0.88022107092E+02  0.00000000000E+00 0.  1.
         11    1    1    2    0    0  0.88580254020E+02  0.57408787494E+02 -0.31003571454E+03  0.32751240369E+03  0.00000000000E+00 0. -1.
</event>
<event>
 7    1  0.2749315E-009  0.1164614E+03  0.7561462E-02  0.1249051E+00
          2   -1    0    0  501    0  0.00000000000E+00  0.00000000000E+00  0.11588385924E+04  0.11588385924E+04  0.00000000000E+00 0. -1.
         -2   -1    0    0    0  501 -0.00000000000E+00 -0.00000000000E+00 -0.20915814089E+02  0.20915814089E+02  0.00000000000E+00 0.  1.
         25    2    1    2    0    0 -0.82196393962E+02 -0.65616562625E+02  0.47191678922E+03  0.49941369935E+03  0.12508719631E+03 0.  0.
          5    1    3    3  502    0 -0.54955249946E+01 -0.22587756095E+02  0.33996446115E+03  0.34078397081E+03  0.41800000000E+01 0. -1.
         -5    1    3    3    0  502 -0.76700868967E+02 -0.43028806530E+02  0.13195232807E+03  0.15862972854E+03  0.41800000000E+01 0. -1.
        -11    1    1    2    0    0  0.92075061650E+02  0.59899532367E+02  0.65608861760E+03  0.66522029817E+03  0.00000000000E+00 0. -1.
         11    1    1    2    0    0 -0.98786676880E+01  0.57170302581E+01  0.99173715136E+01  0.15120408989E+02  0.00000000000E+00 0.  1.
</event>
<event>
 7    1  0.2749315E-009  0.8420635E+02  0.7561462E-02  0.1317521E+00
          1   -1    0    0  501    0  0.00000000000E+00  0.00000000000E+00  0.17833760702E+03  0.17833760702E+03  0.00000000000E+00 0. -1.
         -1   -1    0    0    0  501 -0.00000000000E+00 -0.00000000000E+00 -0.77422594582E+02  0.77422594582E+02  0.00000000000E+00 0.  1.
         25    2    1    2    0    0 -0.17697552122E+02  0.19740037048E+02  0.97693811137E+02  0.16091734573E+03  0.12508972383E+03 0.  0.
          5    1    3    3  502    0 -0.51801569295E+02  0.23497920874E+02 -0.26876572424E+00  0.57035949206E+02  0.41800000000E+01 0.  1.
         -5    1    3    3    0  502  0.34104017174E+02 -0.37578838257E+01  0.97962576861E+02  0.10388139652E+03  0.41800000000E+01 0.  1.
        -11    1    1    2    0    0  0.42659697892E+02  0.33743349480E+01  0.29397364579E+02  0.51917636741E+02  0.00000000000E+00 0. -1.
         11    1    1    2    0    0 -0.24962145771E+02 -0.23114371996E+02 -0.26176163273E+02  0.42925219137E+02  0.00000000000E+00 0.  1.
</event>
<event>
 7    1  0.2749315E-009  0.1206098E+03  0.7561462E-02  0.1242094E+00
         -2   -1    0    0    0  501 -0.00000000000E+00  0.00000000000E+00  0.59229309111E+02  0.59229309111E+02  0.00000000000E+00 0.  1.
          2   -1    0    0  501    0  0.00000000000E+00 -0.00000000000E+00 -0.47109339982E+03  0.47109339982E+03  0.00000000000E+00 0. -1.
         25    2    1    2    0    0  0.68121124159E+02 -0.59788057906E+02 -0.78638324552E+02  0.17335244384E+03  0.12510789052E+03 0.  0.
          5    1    3    3  502    0  0.54012860323E+02  0.13289327738E+02 -0.81491365667E+02  0.98753786713E+02  0.41800000000E+01 0. -1.
         -5    1    3    3    0  502  0.14108263837E+02 -0.73077385644E+02  0.28530411154E+01  0.74598657124E+02  0.41800000000E+01 0. -1.
        -11    1    1    2    0    0 -0.62999880330E+02  0.13634687657E+02 -0.27521530524E+03  0.28266296868E+03  0.00000000000E+00 0. -1.
         11    1    1    2    0    0 -0.51212438292E+01  0.46153370249E+02 -0.58010460924E+02  0.74307296414E+02  0.00000000000E+00 0.  1.
</event>
<event>
 7    1  0.2749315E-009  0.1693707E+03  0.7561462E-02  0.1178506E+00
         -2   -1    0    0    0  501 -0.00000000000E+00  0.00000000000E+00  0.42213280449E+02  0.42213280449E+02  0.00000000000E+00 0.  1.
          2   -1    0    0  501    0  0.00000000000E+00 -0.00000000000E+00 -0.74690326404E+03  0.74690326404E+03  0.00000000000E+00 0. -1.
         25    2    1    2    0    0  0.13840205478E+03  0.16706285664E+02 -0.34036017502E+03  0.38849298291E+03  0.12509004872E+03 0.  0.
          5    1    3    3  502    0 -0.56065189220E+01  0.39384800042E+02 -0.94711947291E+02  0.10281255219E+03  0.41800000000E+01 0. -1.
         -5    1    3    3    0  502  0.14400857370E+03 -0.22678514377E+02 -0.24564822773E+03  0.28568043072E+03  0.41800000000E+01 0. -1.
        -11    1    1    2    0    0 -0.22365300125E+01  0.13281695188E+02 -0.36833625380E+01  0.13963260835E+02  0.00000000000E+00 0. -1.
         11    1    1    2    0    0 -0.13616552476E+03 -0.29987980852E+02 -0.36064644604E+03  0.38666030074E+03  0.00000000000E+00 0.  1.
</event>
<event>
 7    1  0.2749315E-009  0.6690405E+02  0.7561462E-02  0.1370949E+00
         -1   -1    0    0    0  501 -0.00000000000E+00  0.00000000000E+00  0.12217158763E+03  0.12217158763E+03  0.00000000000E+00 0.  1.
          1   -1    0    0  501    0  0.00000000000E+00 -0.00000000000E+00 -0.10944872587E+03  0.10944872587E+03  0.00000000000E+00 0. -1.
         25    2    1    2    0    0  0.11563541506E+02  0.25555803789E+02  0.30408095738E+02  0.13177175969E+03  0.12510927130E+03 0.  0.
          5    1    3    3  502    0 -0.42324607552E+02 -0.47636440830E+01 -0.24206258155E+02  0.49167876131E+02  0.41800000000E+01 0. -1.
         -5    1    3    3    0  502  0.53888149058E+02  0.30319447872E+02  0.54614353893E+02  0.82603883561E+02  0.41800000000E+01 0. -1.
        -11    1    1    2    0    0 -0.84108529779E+01 -0.95527240369E+01  0.38915777587E+02  0.40944288119E+02  0.00000000000E+00 0.  1.
         11    1    1    2    0    0 -0.31526885285E+01 -0.16003079752E+02 -0.56601011561E+02  0.58904265688E+02  0.00000000000E+00 0. -1.
</event>
<event>
 7    1  0.2749315E-009  0.7694507E+02  0.7561462E-02  0.1337951E+00
         -2   -1    0    0    0  501 -0.00000000000E+00  0.00000000000E+00  0.23777761164E+03  0.23777761164E+03  0.00000000000E+00 0.  1.
          2   -1    0    0  501    0  0.00000000000E+00 -0.00000000000E+00 -0.56820629000E+02  0.56820629000E+02  0.00000000000E+00 0. -1.
         25    2    1    2    0    0  0.35180471736E+02 -0.13298804631E+02  0.95116098183E+02  0.16158490343E+03  0.12509230627E+03 0.  0.
          5    1    3    3  502    0  0.45480055831E+02  0.74964473020E+01  0.11920596273E+03  0.12787558856E+03  0.41800000000E+01 0. -1.
         -5    1    3    3    0  502 -0.10299584095E+02 -0.20795251933E+02 -0.24089864542E+02  0.33709314872E+02  0.41800000000E+01 0. -1.
        -11    1    1    2    0    0 -0.67161518578E+01  0.42629815516E+02  0.81099794939E+02  0.91867211811E+02  0.00000000000E+00 0.  1.
         11    1    1    2    0    0 -0.28464319879E+02 -0.29331010884E+02  0.47410895213E+01  0.41146125401E+02  0.00000000000E+00 0. -1.
</event>
<event>
 7    1  0.2749315E-009  0.9933994E+02  0.7561462E-02  0.1281690E+00
          2   -1    0    0  501    0  0.00000000000E+00  0.00000000000E+00  0.98020903876E+03  0.98020903876E+03  0.00000000000E+00 0.  1.
         -2   -1    0    0    0  501 -0.00000000000E+00 -0.00000000000E+00 -0.17862073327E+02  0.17862073327E+02  0.00000000000E+00 0. -1.
         25    2    1    2    0    0 -0.69028590398E+02 -0.80176793574E+01  0.63525229521E+03  0.65117026597E+03  0.12509199512E+03 0.  0.
          5    1    3    3  502    0 -0.63764741920E+02 -0.22818218355E+02  0.63063085886E+03  0.63427073553E+03  0.41800000000E+01 0.  1.
         -5    1    3    3    0  502 -0.52638484773E+01  0.14800538998E+02  0.46214363536E+01  0.16899530449E+02  0.41800000000E+01 0.  1.
        -11    1    1    2    0    0  0.10271932003E+02 -0.38363079798E+02  0.92876629650E+02  0.10101141923E+03  0.00000000000E+00 0.  1.
         11    1    1    2    0    0  0.58756658395E+02  0.46380759156E+02  0.23421804057E+03  0.24588942688E+03  0.00000000000E+00 0. -1.
</event>
<event>
 7    1  0.2749315E-009  0.7619953E+02  0.7561462E-02  0.1340196E+00
         -4   -1    0    0    0  501 -0.00000000000E+00  0.00000000000E+00  0.12713006316E+03  0.12713006316E+03  0.00000000000E+00 0.  1.
          4   -1    0    0  501    0  0.00000000000E+00 -0.00000000000E+00 -0.11745014640E+03  0.11745014640E+03  0.00000000000E+00 0. -1.
         25    2    1    2    0    0  0.31556203607E+02 -0.24586544541E+02  0.46773917976E+02  0.13940943253E+03  0.12508756260E+03 0.  0.
          5    1    3    3  502    0 -0.15591453282E+02  0.17512909969E+02  0.68435784259E+02  0.72461882381E+02  0.41800000000E+01 0. -1.
         -5    1    3    3    0  502  0.47147656890E+02 -0.42099454510E+02 -0.21661866284E+02  0.66947550150E+02  0.41800000000E+01 0. -1.
        -11    1    1    2    0    0 -0.42702376344E+02  0.30634328195E+02 -0.59523851024E+02  0.79404306244E+02  0.00000000000E+00 0. -1.
         11    1    1    2    0    0  0.11146172737E+02 -0.60477836537E+01  0.22429849808E+02  0.25766470775E+02  0.00000000000E+00 0.  1.
</event>
<event>
 7    1  0.2749315E-009  0.2057098E+03  0.7561462E-02  0.1145009E+00
         -1   -1    0    0    0  501 -0.00000000000E+00  0.00000000000E+00  0.12228169400E+03  0.12228169400E+03  0.00000000000E+00 0.  1.
          1   -1    0    0  501    0  0.00000000000E+00 -0.00000000000E+00 -0.56520528323E+03  0.56520528323E+03  0.00000000000E+00 0. -1.
         25    2    1    2    0    0 -0.43844812979E+01  0.19487878097E+03 -0.40798904775E+03  0.46914754742E+03  0.12508954880E+03 0.  0.
          5    1    3    3  502    0  0.37870032048E+02  0.14339004156E+03 -0.35215751865E+03  0.38213509874E+03  0.41800000000E+01 0.  1.
         -5    1    3    3    0  502 -0.42254513346E+02  0.51488739410E+02 -0.55831529100E+02  0.87012448683E+02  0.41800000000E+01 0.  1.
        -11    1    1    2    0    0  0.11339560510E+02 -0.49982015394E+02  0.30020687538E+02  0.59397215218E+02  0.00000000000E+00 0.  1.
         11    1    1    2    0    0 -0.69550792121E+01 -0.14489676558E+03 -0.64955229022E+02  0.15894221459E+03  0.00000000000E+00 0. -1.
</event>
<event>
 7    1  0.2749315E-009  0.9780482E+02  0.7561462E-02  0.1284981E+00
          3   -1    0    0  501    0  0.00000000000E+00  0.00000000000E+00  0.11859916922E+03  0.11859916922E+03  0.00000000000E+00 0. -1.
         -3   -1    0    0    0  501 -0.00000000000E+00 -0.00000000000E+00 -0.11917338434E+03  0.11917338434E+03  0.00000000000E+00 0.  1.
         25    2    1    2    0    0  0.10318862793E+02 -0.47011514959E+02 -0.53092472830E+01  0.13413803730E+03  0.12509301929E+03 0.  0.
          5    1    3    3  502    0 -0.55483609947E+02 -0.23452737757E+02  0.13002263594E+02  0.61765630731E+02  0.41800000000E+01 0.  1.
         -5    1    3    3    0  502  0.65802472741E+02 -0.23558777202E+02 -0.18311510877E+02  0.72372406569E+02  0.41800000000E+01 0.  1.
        -11    1    1    2    0    0  0.46547027707E+01  0.49768144890E+02 -0.35040901717E+02  0.61044240489E+02  0.00000000000E+00 0.  1.
         11    1    1    2    0    0 -0.14973565564E+02 -0.27566299318E+01  0.39775933885E+02  0.42590275776E+02  0.00000000000E+00 0. -1.
</event>
<event>
 7    1  0.2900773E-009  0.1095716E+03  0.7561462E-02  0.1261365E+00
          4   -1    0    0  501    0  0.00000000000E+00  0.00000000000E+00  0.30142391409E+03  0.30142391409E+03  0.00000000000E+00 0. -1.
         -4   -1    0    0    0  501 -0.00000000000E+00 -0.00000000000E+00 -0.85829941832E+02  0.85829941832E+02  0.00000000000E+00 0.  1.
         25    2    1    2    0    0  0.60107625394E+02  0.40339485754E+02  0.27966430965E+01  0.14455437016E+03  0.12509174224E+03 0.  0.
          5    1    3    3  502    0  0.59282434240E+02  0.81580057790E+02  0.13247881172E+02  0.10179730642E+03  0.41800000000E+01 0. -1.
         -5    1    3    3    0  502  0.82519115338E+00 -0.41240572035E+02 -0.10451238076E+02  0.42757063739E+02  0.41800000000E+01 0. -1.
        -11    1    1    2    0    0 -0.44002947721E+02 -0.14548949527E+02  0.20651488661E+03  0.21165143452E+03  0.00000000000E+00 0. -1.
         11    1    1    2    0    0 -0.16104677673E+02 -0.25790536227E+02  0.62824425457E+01  0.31048051246E+02  0.00000000000E+00 0.  1.
</event>
<event>
 7    1  0.2749315E-009  0.1173351E+03  0.7561462E-02  0.1247559E+00
         -3   -1    0    0    0  501 -0.00000000000E+00  0.00000000000E+00  0.13449477438E+03  0.13449477438E+03  0.00000000000E+00 0.  1.
          3   -1    0    0  501    0  0.00000000000E+00 -0.00000000000E+00 -0.13249016261E+03  0.13249016261E+03  0.00000000000E+00 0. -1.
         25    2    1    2    0    0  0.49165460255E+02  0.22265049061E+02 -0.51702429357E+02  0.14571529219E+03  0.12508729066E+03 0.  0.
          5    1    3    3  502    0  0.31272996587E+02 -0.47982861679E+02 -0.44688809665E+02  0.72766183353E+02  0.41800000000E+01 0.  1.
         -5    1    3    3    0  502  0.17892463668E+02  0.70247910741E+02 -0.70136196922E+01  0.72949108841E+02  0.41800000000E+01 0.  1.
        -11    1    1    2    0    0 -0.49270716277E+02  0.26447103501E+02  0.45016684457E+02  0.71788262589E+02  0.00000000000E+00 0.  1.
         11    1    1    2    0    0  0.10525602152E+00 -0.48712152562E+02  0.86903566741E+01  0.49481382208E+02  0.00000000000E+00 0. -1.
</event>
<event>
 7    1  0.2749315E-009  0.1493234E+03  0.7561462E-02  0.1201307E+00
          2   -1    0    0  501    0  0.00000000000E+00  0.00000000000E+00  0.82370889876E+03  0.82370889876E+03  0.00000000000E+00 0. -1.
         -2   -1    0    0    0  501 -0.00000000000E+00 -0.00000000000E+00 -0.35483278417E+02  0.35483278417E+02  0.00000000000E+00 0.  1.
         25    2    1    2    0    0  0.11882406837E+03 -0.20116235018E+02  0.56407668489E+03  0.59021452572E+03  0.12508740067E+03 0.  0.
          5    1    3    3  502    0  0.34733684934E+02 -0.53333263453E+02  0.37741331710E+03  0.38276513710E+03  0.41800000000E+01 0.  1.
         -5    1    3    3    0  502  0.84090383432E+02  0.33217028435E+02  0.18666336779E+03  0.20744938862E+03  0.41800000000E+01 0.  1.
        -11    1    1    2    0    0 -0.87010618071E+02  0.50296876408E+02  0.12374997724E+03  0.15941982405E+03  0.00000000000E+00 0.  1.
         11    1    1    2    0    0 -0.31813450295E+02 -0.30180641390E+02  0.10039895821E+03  0.10955782740E+03  0.00000000000E+00 0. -1.
</event>
<event>
 7    1  0.2749315E-009  0.9219279E+02  0.7561462E-02  0.1297627E+00
          2   -1    0    0  501    0  0.00000000000E+00  0.00000000000E+00  0.35976398751E+02  0.35976398751E+02  0.00000000000E+00 0. -1.
         -2   -1    0    0    0  501 -0.00000000000E+00 -0.00000000000E+00 -0.37309199639E+03  0.37309199639E+03  0.00000000000E+00 0.  1.
         25    2    1    2    0    0  0.29134736079E+02 -0.18487099400E+02 -0.15312773199E+03  0.20071706415E+03  0.12509449166E+03 0.  0.
          5    1    3    3  502    0  0.65087182066E+02 -0.37995161710E+02 -0.52305652711E+02  0.91833149180E+02  0.41800000000E+01 0.  1.
         -5    1    3    3    0  502 -0.35952445987E+02  0.19508062310E+02 -0.10082207928E+03  0.10888391497E+03  0.41800000000E+01 0.  1.
        -11    1    1    2    0    0 -0.43868576958E+02 -0.35274225047E+00 -0.17850108264E+03  0.18381298370E+03  0.00000000000E+00 0.  1.
         11    1    1    2    0    0  0.14733840879E+02  0.18839841651E+02 -0.54867830057E+01  0.24538347300E+02  0.00000000000E+00 0. -1.
</event>
<event>
 7    1  0.2749315E-009  0.1543701E+03  0.7561462E-02  0.1195204E+00
         -1   -1    0    0    0  501 -0.00000000000E+00  0.00000000000E+00  0.39260422084E+03  0.39260422084E+03  0.00000000000E+00 0.  1.
          1   -1    0    0  501    0  0.00000000000E+00 -0.00000000000E+00 -0.95835784625E+02  0.95835784625E+02  0.00000000000E+00 0. -1.
         25    2    1    2    0    0 -0.70867892578E+02  0.10836202888E+03  0.36561175551E+02  0.18370826008E+03  0.12508963891E+03 0.  0.
          5    1    3    3  502    0  0.26857744219E+02 -0.67395108105E+01 -0.11290368514E+01  0.28026889851E+02  0.41800000000E+01 0. -1.
         -5    1    3    3    0  502 -0.97725636797E+02  0.11510153969E+03  0.37690212403E+02  0.15568137023E+03  0.41800000000E+01 0. -1.
        -11    1    1    2    0    0  0.22031310908E+02 -0.40094043334E+02  0.18961527062E+03  0.19505604790E+03  0.00000000000E+00 0.  1.
         11    1    1    2    0    0  0.48836581670E+02 -0.68267985544E+02  0.70591990048E+02  0.10967569748E+03  0.00000000000E+00 0. -1.
</event>
<event>
 7    1  0.2787795E-009  0.1232186E+03  0.7561462E-02  0.1237880E+00
          2   -1    0    0  501    0  0.00000000000E+00  0.00000000000E+00  0.90462049620E+03  0.90462049620E+03  0.00000000000E+00 0. -1.
         -2   -1    0    0    0  501 -0.00000000000E+00 -0.00000000000E+00 -0.18100499286E+02  0.18100499286E+02  0.00000000000E+00 0.  1.
         25    2    1    2    0    0 -0.65787752335E+02  0.15560593773E+02  0.51521613436E+03  0.53447637934E+03  0.12508866665E+03 0.  0.
          5    1    3    3  502    0 -0.59102684713E+02 -0.48959003877E+02  0.26098881478E+03  0.27207121354E+03  0.41800000000E+01 0.  1.
         -5    1    3    3    0  502 -0.66850676222E+01  0.64519597650E+02  0.25422731959E+03  0.26240516579E+03  0.41800000000E+01 0.  1.
        -11    1    1    2    0    0  0.41182502082E+02  0.31247810884E+02  0.25905906380E+03  0.26416665706E+03  0.00000000000E+00 0. -1.
         11    1    1    2    0    0  0.24605250253E+02 -0.46808404657E+02  0.11224479875E+03  0.12407795909E+03  0.00000000000E+00 0.  1.
</event>
<event>
 7    1  0.2749315E-009  0.1130045E+03  0.7561462E-02  0.1255105E+00
          1   -1    0    0  501    0  0.00000000000E+00  0.00000000000E+00  0.10486544060E+04  0.10486544060E+04  0.00000000000E+00 0. -1.
         -1   -1    0    0    0  501 -0.00000000000E+00 -0.00000000000E+00 -0.21473756171E+02  0.21473756171E+02  0.00000000000E+00 0.  1.
         25    2    1    2    0    0 -0.12370136230E+02  0.42758398830E+02  0.90020093587E+03  0.90993994576E+03  0.12509068319E+03 0.  0.
          5    1    3    3  502    0 -0.48349599918E+02  0.71281647129E+02  0.62083688251E+03  0.62679714750E+03  0.41800000000E+01 0. -1.
         -5    1    3    3    0  502  0.35979463688E+02 -0.28523248300E+02  0.27936405336E+03  0.28314279827E+03  0.41800000000E+01 0. -1.
        -11    1    1    2    0    0  0.43501974218E+02 -0.36068727737E+01  0.36924856430E+02  0.57174087789E+02  0.00000000000E+00 0.  1.
         11    1    1    2    0    0 -0.31131837988E+02 -0.39151526056E+02  0.90054857503E+02  0.10301412859E+03  0.00000000000E+00 0. -1.
</event>
<event>
 7    1  0.2749315E-009  0.1970856E+03  0.7561462E-02  0.1152221E+00
         -1   -1    0    0    0  501 -0.00000000000E+00  0.00000000000E+00  0.26549471649E+03  0.26549471649E+03  0.00000000000E+00 0.  1.
          1   -1    0    0  501    0  0.00000000000E+00 -0.00000000000E+00 -0.14737582114E+03  0.14737582114E+03  0.00000000000E+00 0. -1.
         25    2    1    2    0    0  0.16561961700E+03  0.58372146327E+01  0.76620820444E+02  0.22131366681E+03  0.12508020778E+03 0.  0.
          5    1    3    3  502    0  0.18585007572E+03  0.11321274229E+02  0.69459376579E+02  0.19877248122E+03  0.41800000000E+01 0.  1.
         -5    1    3    3    0  502 -0.20230458716E+02 -0.54840595963E+01  0.71614438654E+01  0.22541185589E+02  0.41800000000E+01 0.  1.
        -11    1    1    2    0    0 -0.16379714356E+03 -0.26401783186E+02  0.41016222845E+02  0.17090608219E+03  0.00000000000E+00 0.  1.
         11    1    1    2    0    0 -0.18224734440E+01  0.20564568553E+02  0.48185206066E+00  0.20650788620E+02  0.00000000000E+00 0. -1.
</event>
<event>
 7    1  0.2749315E-009  0.9737492E+02  0.7561462E-02  0.1285915E+00
         -1   -1    0    0    0  501 -0.00000000000E+00  0.00000000000E+00  0.19891454538E+03  0.19891454538E+03  0.00000000000E+00 0.  1.
          1   -1    0    0  501    0  0.00000000000E+00 -0.00000000000E+00 -0.83866903675E+02  0.83866903675E+02  0.00000000000E+00 0. -1.
         25    2    1    2    0    0  0.27894914776E+02  0.61935733342E+02  0.39554146556E+02  0.14772609421E+03  0.12507720442E+03 0.  0.
          5    1    3    3  502    0 -0.16164651489E+02  0.18592091964E+02 -0.39837658480E+02  0.47026304070E+02  0.41800000000E+01 0. -1.
         -5    1    3    3    0  502  0.44059566265E+02  0.43343641378E+02  0.79391805036E+02  0.10069979014E+03  0.41800000000E+01 0. -1.
        -11    1    1    2    0    0 -0.70510337463E+01 -0.79952759996E+02  0.70960858124E+02  0.10713358154E+03  0.00000000000E+00 0. -1.
         11    1    1    2    0    0 -0.20843881030E+02  0.18017026654E+02  0.45326370210E+01  0.27921773300E+02  0.00000000000E+00 0.  1.
</event>
<event>
 7    1  0.2749315E-009  0.5827514E+02  0.7561462E-02  0.1405216E+00
         -2   -1    0    0    0  501 -0.00000000000E+00  0.00000000000E+00  0.16833301809E+03  0.16833301809E+03  0.00000000000E+00 0. -1.
          2   -1    0    0  501    0  0.00000000000E+00 -0.00000000000E+00 -0.10843957607E+03  0.10843957607E+03  0.00000000000E+00 0.  1.
         25    2    1    2    0    0 -0.28521252080E+02 -0.13026132731E+02 -0.40526324816E+02  0.13517498454E+03  0.12508697569E+03 0.  0.
          5    1    3    3  502    0 -0.54590634795E+01 -0.25846112169E+02  0.41241084980E+02  0.49154067773E+02  0.41800000000E+01 0.  1.
         -5    1    3    3    0  502 -0.23062188600E+02  0.12819979438E+02 -0.81767409796E+02  0.86020916762E+02  0.41800000000E+01 0.  1.
        -11    1    1    2    0    0  0.23270947023E+02 -0.19366243737E+02  0.10425240060E+03  0.10855943719E+03  0.00000000000E+00 0. -1.
         11    1    1    2    0    0  0.52503050565E+01  0.32392376468E+02 -0.38326337697E+01  0.33038172438E+02  0.00000000000E+00 0.  1.
</event>
<event>
 7    1  0.2749315E-009  0.1827318E+03  0.7561462E-02  0.1165185E+00
          1   -1    0    0  501    0  0.00000000000E+00  0.00000000000E+00  0.10024139949E+04  0.10024139949E+04  0.00000000000E+00 0. -1.
         -1   -1    0    0    0  501 -0.00000000000E+00 -0.00000000000E+00 -0.37561006241E+02  0.37561006241E+02  0.00000000000E+00 0.  1.
         25    2    1    2    0    0 -0.14762285597E+03 -0.62549408953E+02  0.51935097469E+03  0.55774386886E+03  0.12509137529E+03 0.  0.
          5    1    3    3  502    0 -0.10234033876E+03 -0.88266857382E+02  0.25864570664E+03  0.29185554134E+03  0.41800000000E+01 0. -1.
         -5    1    3    3    0  502 -0.45282517213E+02  0.25717448430E+02  0.26070526805E+03  0.26588832752E+03  0.41800000000E+01 0. -1.
        -11    1    1    2    0    0 -0.65782031819E+01  0.15423282615E+02  0.14903952577E+02  0.22433862934E+02  0.00000000000E+00 0.  1.
         11    1    1    2    0    0  0.15420105916E+03  0.47126126338E+02  0.43059806142E+03  0.45979726938E+03  0.00000000000E+00 0. -1.
</event>
<event>
 7    1  0.2749315E-009  0.8841159E+02  0.7561462E-02  0.1306744E+00
         -2   -1    0    0    0  501 -0.00000000000E+00  0.00000000000E+00  0.24000987038E+03  0.24000987038E+03  0.00000000000E+00 0.  1.
          2   -1    0    0  501    0  0.00000000000E+00 -0.00000000000E+00 -0.62439823808E+02  0.62439823808E+02  0.00000000000E+00 0. -1.
         25    2    1    2    0    0  0.19747566692E+02 -0.34724417327E+02  0.14364069488E+03  0.19461931018E+03  0.12509306584E+03 0.  0.
          5    1    3    3  502    0 -0.45028295184E+02 -0.19586541649E+02  0.18133607746E+02  0.52511714035E+02  0.41800000000E+01 0. -1.
         -5    1    3    3    0  502  0.64775861876E+02 -0.15137875678E+02  0.12550708714E+03  0.14210759615E+03  0.41800000000E+01 0. -1.
        -11    1    1    2    0    0 -0.25990586893E+02  0.43168090278E+02 -0.19013350775E+02  0.53856310057E+02  0.00000000000E+00 0. -1.
         11    1    1    2    0    0  0.62430202013E+01 -0.84436729512E+01  0.52942702463E+02  0.53974073945E+02  0.00000000000E+00 0.  1.
</event>
<event>
 7    1  0.2749315E-009  0.1198350E+03  0.7561462E-02  0.1243369E+00
         -1   -1    0    0    0  501 -0.00000000000E+00  0.00000000000E+00  0.92570567597E+02  0.92570567597E+02  0.00000000000E+00 0.  1.
          1   -1    0    0  501    0  0.00000000000E+00 -0.00000000000E+00 -0.19646475413E+03  0.19646475413E+03  0.00000000000E+00 0. -1.
         25    2    1    2    0    0  0.50131505603E+02  0.60149591461E+02 -0.52456712698E+02  0.15662553391E+03  0.12509480388E+03 0.  0.
          5    1    3    3  502    0  0.76865693135E+02  0.10705075266E+02 -0.62048733407E+02  0.99450747282E+02  0.41800000000E+01 0. -1.
         -5    1    3    3    0  502 -0.26734187532E+02  0.49444516195E+02  0.95920207093E+01  0.57174786629E+02  0.41800000000E+01 0. -1.
        -11    1    1    2    0    0 -0.49423535263E+02 -0.41674159110E+01  0.85771277583E+01  0.50335080350E+02  0.00000000000E+00 0.  1.
         11    1    1    2    0    0 -0.70797033963E+00 -0.55982175550E+02 -0.60014601595E+02  0.82074707468E+02  0.00000000000E+00 0. -1.
</event>
<event>
 7    1  0.2749315E-009  0.7705257E+02  0.7561462E-02  0.1337630E+00
         -2   -1    0    0    0  501 -0.00000000000E+00  0.00000000000E+00  0.15070083197E+03  0.15070083197E+03  0.00000000000E+00 0.  1.
          2   -1    0    0  501    0  0.00000000000E+00 -0.00000000000E+00 -0.89345524170E+02  0.89345524170E+02  0.00000000000E+00 0. -1.
         25    2    1    2    0    0  0.32793860625E+02 -0.16162636271E+02  0.33643726670E+02  0.13459391327E+03  0.12508778133E+03 0.  0.
          5    1    3    3  502    0  0.43376450780E+02 -0.23282997499E+02 -0.37605908562E+02  0.62090991404E+02  0.41800000000E+01 0.  1.
         -5    1    3    3    0  502 -0.10582590155E+02  0.71203612281E+01  0.71249635232E+02  0.72502921866E+02  0.41800000000E+01 0.  1.
        -11    1    1    2    0    0 -0.18364517747E+02  0.50657793989E+02 -0.71184779696E+01  0.54352003942E+02  0.00000000000E+00 0. -1.
         11    1    1    2    0    0 -0.14429342878E+02 -0.34495157718E+02  0.34830059102E+02  0.51100438931E+02  0.00000000000E+00 0.  1.
</event>
<event>
 7    1  0.2749315E-009  0.2119158E+03  0.7561462E-02  0.1140058E+00
         -1   -1    0    0    0  501 -0.00000000000E+00  0.00000000000E+00  0.35132300806E+03  0.35132300806E+03  0.00000000000E+00 0.  1.
          1   -1    0    0  501    0  0.00000000000E+00 -0.00000000000E+00 -0.14086466096E+03  0.14086466096E+03  0.00000000000E+00 0. -1.
         25    2    1    2    0    0 -0.55940628858E+02 -0.17823581555E+03  0.55116718257E+02  0.23147973946E+03  0.12509059617E+03 0.  0.
          5    1    3    3  502    0 -0.87675271219E+02 -0.10816351581E+03  0.65172026171E+02  0.15378935182E+03  0.41800000000E+01 0. -1.
         -5    1    3    3    0  502  0.31734642361E+02 -0.70072299732E+02 -0.10055307914E+02  0.77690387647E+02  0.41800000000E+01 0. -1.
        -11    1    1    2    0    0  0.49628627974E+02  0.27712591724E+02  0.58750552290E+02  0.81747268144E+02  0.00000000000E+00 0.  1.
         11    1    1    2    0    0  0.63120008844E+01  0.15052322382E+03  0.96591076554E+02  0.17896066142E+03  0.00000000000E+00 0. -1.
</event>
<event>
 7    1  0.2749315E-009  0.3263380E+03  0.7561462E-02  0.1072769E+00
          2   -1    0    0  501    0  0.00000000000E+00  0.00000000000E+00  0.34863282150E+04  0.34863282150E+04  0.00000000000E+00 0. -1.
         -2   -1    0    0    0  501 -0.00000000000E+00 -0.00000000000E+00 -0.40899564357E+02  0.40899564357E+02  0.00000000000E+00 0.  1.
         25    2    1    2    0    0  0.12794333169E+03 -0.29760897601E+03  0.24810636854E+04  0.25052474202E+04  0.12508807661E+03 0.  0.
          5    1    3    3  502    0  0.76783836034E+02 -0.11533618206E+03  0.66222466541E+03  0.67657754341E+03  0.41800000000E+01 0.  1.
         -5    1    3    3    0  502  0.51159495659E+02 -0.18227279395E+03  0.18188390199E+04  0.18286698768E+04  0.41800000000E+01 0.  1.
        -11    1    1    2    0    0 -0.25940814432E+02  0.85200662191E+02  0.41095756948E+03  0.42049756551E+03  0.00000000000E+00 0. -1.
         11    1    1    2    0    0 -0.10200251726E+03  0.21240831382E+03  0.55340739577E+03  0.60148279360E+03  0.00000000000E+00 0.  1.
</event>
<event>
 7    1  0.2749315E-009  0.1269409E+03  0.7561462E-02  0.1232067E+00
          2   -1    0    0  501    0  0.00000000000E+00  0.00000000000E+00  0.69620204283E+03  0.69620204283E+03  0.00000000000E+00 0. -1.
         -2   -1    0    0    0  501 -0.00000000000E+00 -0.00000000000E+00 -0.30073302730E+02  0.30073302730E+02  0.00000000000E+00 0.  1.
         25    2    1    2    0    0  0.84644367669E+02  0.13864733582E+02  0.46042189802E+03  0.48476087141E+03  0.12509148037E+03 0.  0.
          5    1    3    3  502    0  0.81409693615E+02 -0.38346184548E+02  0.20371266745E+03  0.22274265726E+03  0.41800000000E+01 0.  1.
         -5    1    3    3    0  502  0.32346740540E+01  0.52210918130E+02  0.25670923056E+03  0.26201821415E+03  0.41800000000E+01 0.  1.
        -11    1    1    2    0    0 -0.95073757409E+02 -0.22589705865E+02  0.20590312835E+03  0.22791536241E+03  0.00000000000E+00 0. -1.
         11    1    1    2    0    0  0.10429389740E+02  0.87249722831E+01 -0.19628626909E+00  0.13599111736E+02  0.00000000000E+00 0.  1.
</event>
<event>
 7    1  0.2749315E-009  0.1525508E+03  0.7561462E-02  0.1197373E+00
          2   -1    0    0  501    0  0.00000000000E+00  0.00000000000E+00  0.13546311356E+04  0.13546311356E+04  0.00000000000E+00 0. -1.
         -2   -1    0    0    0  501 -0.00000000000E+00 -0.00000000000E+00 -0.26526276772E+02  0.26526276772E+02  0.00000000000E+00 0.  1.
         25    2    1    2    0    0  0.52286239854E+02 -0.12946418879E+03  0.94029728536E+03  0.95880234474E+03  0.12509246331E+03 0.  0.
          5    1    3    3  502    0  0.10475662171E+02  0.12837265592E+02  0.34038370392E+03  0.34081237240E+03  0.41800000000E+01 0.  1.
         -5    1    3    3    0  502  0.41810577682E+02 -0.14230145438E+03  0.59991358144E+03  0.61798997234E+03  0.41800000000E+01 0.  1.
        -11    1    1    2    0    0 -0.97672192091E+01  0.22181793431E+02  0.81881544055E+01  0.25582736434E+02  0.00000000000E+00 0.  1.
         11    1    1    2    0    0 -0.42519020645E+02  0.10728239536E+03  0.37961941908E+03  0.39677233121E+03  0.00000000000E+00 0. -1.
</event>
<event>
 7    1  0.2749315E-009  0.1398654E+03  0.7561462E-02  0.1213510E+00
          2   -1    0    0  501    0  0.00000000000E+00  0.00000000000E+00  0.66371272038E+03  0.66371272038E+03  0.00000000000E+00 0.  1.
         -2   -1    0    0    0  501 -0.00000000000E+00 -0.00000000000E+00 -0.31559037950E+02  0.31559037950E+02  0.00000000000E+00 0. -1.
         25    2    1    2    0    0 -0.11358733031E+02  0.91611578582E+02  0.28504734134E+03  0.32468752653E+03  0.12509316899E+03 0.  0.
          5    1    3    3  502    0 -0.56657256084E+02  0.53862050831E+01  0.88734082218E+02  0.10550007402E+03  0.41800000000E+01 0.  1.
         -5    1    3    3    0  502  0.45298523053E+02  0.86225373498E+02  0.19631325913E+03  0.21918745250E+03  0.41800000000E+01 0.  1.
        -11    1    1    2    0    0 -0.34570985748E+02 -0.60562955111E+02  0.14322660922E+03  0.15930124348E+03  0.00000000000E+00 0.  1.
         11    1    1    2    0    0  0.45929718778E+02 -0.31048623471E+02  0.20387973187E+03  0.21128298832E+03  0.00000000000E+00 0. -1.
</event>
<event>
 7    1  0.2749315E-009  0.8429381E+02  0.7561462E-02  0.1317290E+00
         -2   -1    0    0    0  501 -0.00000000000E+00  0.00000000000E+00  0.62678124361E+02  0.62678124361E+02  0.00000000000E+00 0. -1.
          2   -1    0    0  501    0  0.00000000000E+00 -0.00000000000E+00 -0.27875998767E+03  0.27875998767E+03  0.00000000000E+00 0.  1.
         25    2    1    2    0    0  0.40325052733E+02 -0.81714119193E+00 -0.20375468684E+03  0.24246338541E+03  0.12508294551E+03 0.  0.
          5    1    3    3  502    0  0.37450873396E+02 -0.25603515278E+02 -0.94624669338E+01  0.46530834864E+02  0.41800000000E+01 0. -1.
         -5    1    3    3    0  502  0.28741793378E+01  0.24786374086E+02 -0.19429221991E+03  0.19593255054E+03  0.41800000000E+01 0. -1.
        -11    1    1    2    0    0  0.28163109850E+02 -0.63396985068E+01  0.77502127625E+00  0.28878247723E+02  0.00000000000E+00 0.  1.
         11    1    1    2    0    0 -0.68488162584E+02  0.71568396987E+01 -0.13102197748E+02  0.70096478901E+02  0.00000000000E+00 0. -1.
</event>
<event>
 7    1  0.2749315E-009  0.1176787E+03  0.7561462E-02  0.1246976E+00
          2   -1    0    0  501    0  0.00000000000E+00  0.00000000000E+00  0.29728179365E+03  0.29728179365E+03  0.00000000000E+00 0. -1.
         -2   -1    0    0    0  501 -0.00000000000E+00 -0.00000000000E+00 -0.56263055946E+02  0.56263055946E+02  0.00000000000E+00 0.  1.
         25    2    1    2    0    0 -0.53569257101E+02  0.41931588274E+02  0.16213884709E+03  0.21578854936E+03  0.12509104244E+03 0.  0.
          5    1    3    3  502    0 -0.29355101820E+02  0.86440317065E+02  0.99116036449E+02  0.13481510115E+03  0.41800000000E+01 0. -1.
         -5    1    3    3    0  502 -0.24214155281E+02 -0.44508728790E+02  0.63022810636E+02  0.80973448210E+02  0.41800000000E+01 0. -1.
        -11    1    1    2    0    0  0.66710941895E+02 -0.23992679842E+02  0.18291572291E+02  0.73215982350E+02  0.00000000000E+00 0.  1.
         11    1    1    2    0    0 -0.13141684794E+02 -0.17938908433E+02  0.60588318329E+02  0.64540317887E+02  0.00000000000E+00 0. -1.
</event>
<event>
 7    1  0.2749315E-009  0.2668088E+03  0.7561462E-02  0.1103120E+00
          3   -1    0    0  501    0  0.00000000000E+00  0.00000000000E+00  0.15341886875E+03  0.15341886875E+03  0.00000000000E+00 0. -1.
         -3   -1    0    0    0  501 -0.00000000000E+00 -0.00000000000E+00 -0.64646590141E+03  0.64646590141E+03  0.00000000000E+00 0.  1.
         25    2    1    2    0    0 -0.81530052440E+02  0.24417842144E+03 -0.67428580275E+02  0.29405523469E+03  0.12510642135E+03 0.  0.
          5    1    3    3  502    0 -0.51916373234E+02  0.20179916122E+03  0.71873933197E+00  0.20841353186E+03  0.41800000000E+01 0.  1.
         -5    1    3    3    0  502 -0.29613679206E+02  0.42379260226E+02 -0.68147319607E+02  0.85641702827E+02  0.41800000000E+01 0.  1.
        -11    1    1    2    0    0 -0.13210912770E+02 -0.20978564536E+01 -0.20869353342E+02  0.24788286081E+02  0.00000000000E+00 0. -1.
         11    1    1    2    0    0  0.94740965211E+02 -0.24208056499E+03 -0.40474909904E+03  0.48104124939E+03  0.00000000000E+00 0.  1.
</event>
<event>
 7    1  0.2749315E-009  0.1112669E+03  0.7561462E-02  0.1258242E+00
         -1   -1    0    0    0  501 -0.00000000000E+00  0.00000000000E+00  0.49579844672E+02  0.49579844672E+02  0.00000000000E+00 0.  1.
          1   -1    0    0  501    0  0.00000000000E+00 -0.00000000000E+00 -0.26631274011E+03  0.26631274011E+03  0.00000000000E+00 0. -1.
         25    2    1    2    0    0 -0.13445946840E+02  0.34371052309E+02 -0.11914150936E+03  0.17664834879E+03  0.12509107544E+03 0.  0.
          5    1    3    3  502    0 -0.62131031292E+02  0.44326608198E+02 -0.49767111608E+02  0.91210476600E+02  0.41800000000E+01 0. -1.
         -5    1    3    3    0  502  0.48685084452E+02 -0.99555558888E+01 -0.69374397753E+02  0.85437872193E+02  0.41800000000E+01 0. -1.
        -11    1    1    2    0    0  0.43878835063E+02  0.74502029149E+01 -0.28167081142E+02  0.52671075080E+02  0.00000000000E+00 0. -1.
         11    1    1    2    0    0 -0.30432888224E+02 -0.41821255224E+02 -0.69424304938E+02  0.86573160912E+02  0.00000000000E+00 0.  1.
</event>
<event>
 7    1  0.2749315E-009  0.9410320E+02  0.7561462E-02  0.1293209E+00
          2   -1    0    0  501    0  0.00000000000E+00  0.00000000000E+00  0.67592528352E+02  0.67592528352E+02  0.00000000000E+00 0. -1.
         -2   -1    0    0    0  501 -0.00000000000E+00 -0.00000000000E+00 -0.20119367633E+03  0.20119367633E+03  0.00000000000E+00 0.  1.
         25    2    1    2    0    0  0.37170235911E+02  0.23538449359E+01 -0.49005755129E+02  0.13942473752E+03  0.12510206383E+03 0.  0.
          5    1    3    3  502    0  0.25153948390E+02  0.50327299611E+02 -0.66125746981E+02  0.86923213353E+02  0.41800000000E+01 0.  1.
         -5    1    3    3    0  502  0.12016287521E+02 -0.47973454675E+02  0.17119991853E+02  0.52501524171E+02  0.41800000000E+01 0.  1.
        -11    1    1    2    0    0 -0.41242895946E+02 -0.32018920272E+02 -0.84603647924E+02  0.99418131965E+02  0.00000000000E+00 0.  1.
         11    1    1    2    0    0  0.40726600352E+01  0.29665075336E+02  0.82550723063E-02  0.29943335195E+02  0.00000000000E+00 0. -1.
</event>
<event>
 7    1  0.2749315E-009  0.2563348E+03  0.7561462E-02  0.1109366E+00
          2   -1    0    0  501    0  0.00000000000E+00  0.00000000000E+00  0.13242137593E+04  0.13242137593E+04  0.00000000000E+00 0. -1.
         -2   -1    0    0    0  501 -0.00000000000E+00 -0.00000000000E+00 -0.73704800977E+02  0.73704800977E+02  0.00000000000E+00 0.  1.
         25    2    1    2    0    0  0.24470785261E+03 -0.68073107377E+01  0.27883572811E+03  0.39156721442E+03  0.12508895845E+03 0.  0.
          5    1    3    3  502    0  0.24067936593E+03 -0.15542259334E+02  0.28935552006E+03  0.37671236826E+03  0.41800000000E+01 0. -1.
         -5    1    3    3    0  502  0.40284866793E+01  0.87349485963E+01 -0.10519791945E+02  0.14854846161E+02  0.41800000000E+01 0. -1.
        -11    1    1    2    0    0 -0.16895036448E+03  0.46781386881E+02  0.69156956965E+03  0.71344319569E+03  0.00000000000E+00 0.  1.
         11    1    1    2    0    0 -0.75757488138E+02 -0.39974076143E+02  0.28010366055E+03  0.29290815015E+03  0.00000000000E+00 0. -1.
</event>
<event>
 7    1  0.2749315E-009  0.1737219E+03  0.7561462E-02  0.1174021E+00
          2   -1    0    0  501    0  0.00000000000E+00  0.00000000000E+00  0.12552634810E+03  0.12552634810E+03  0.00000000000E+00 0. -1.
         -2   -1    0    0    0  501 -0.00000000000E+00 -0.00000000000E+00 -0.26054517239E+03  0.26054517239E+03  0.00000000000E+00 0.  1.
         25    2    1    2    0    0 -0.11165219118E+03 -0.90700364789E+02 -0.78426024137E+02  0.20613183286E+03  0.12508766241E+03 0.  0.
          5    1    3    3  502    0  0.10091173924E+02  0.21883211746E+02 -0.14036128095E+02  0.28199149622E+02  0.41800000000E+01 0. -1.
         -5    1    3    3    0  502 -0.12174336510E+03 -0.11258357654E+03 -0.64389896042E+02  0.17793268324E+03  0.41800000000E+01 0. -1.
        -11    1    1    2    0    0 -0.69336356989E+01  0.14726870378E+02 -0.33470852236E+02  0.37219000047E+02  0.00000000000E+00 0.  1.
         11    1    1    2    0    0  0.11858582688E+03  0.75973494412E+02 -0.23121947910E+02  0.14272068758E+03  0.00000000000E+00 0. -1.
</event>
<event>
 7    1  0.2749315E-009  0.9643211E+02  0.7561462E-02  0.1287983E+00
          1   -1    0    0  501    0  0.00000000000E+00  0.00000000000E+00  0.10562404319E+04  0.10562404319E+04  0.00000000000E+00 0. -1.
         -1   -1    0    0    0  501 -0.00000000000E+00 -0.00000000000E+00 -0.11691532914E+02  0.11691532914E+02  0.00000000000E+00 0.  1.
         25    2    1    2    0    0  0.13339974727E+02 -0.15066430633E+02  0.67720360673E+03  0.68895548784E+03  0.12509990811E+03 0.  0.
          5    1    3    3  502    0  0.55657895049E+02  0.81992398973E+01  0.16327665458E+03  0.17274769795E+03  0.41800000000E+01 0.  1.
         -5    1    3    3    0  502 -0.42317920322E+02 -0.23265670531E+02  0.51392695214E+03  0.51620778989E+03  0.41800000000E+01 0.  1.
        -11    1    1    2    0    0  0.35582571660E+02 -0.32693848105E+01  0.21431493763E+03  0.21727333194E+03  0.00000000000E+00 0. -1.
         11    1    1    2    0    0 -0.48922546386E+02  0.18335815444E+02  0.15303035464E+03  0.16170314503E+03  0.00000000000E+00 0.  1.
</event>
<event>
 7    1  0.2749315E-009  0.1032884E+03  0.7561462E-02  0.1273529E+00
         -2   -1    0    0    0  501 -0.00000000000E+00  0.00000000000E+00  0.14192055549E+02  0.14192055549E+02  0.00000000000E+00 0. -1.
          2   -1    0    0  501    0  0.00000000000E+00 -0.00000000000E+00 -0.80734532857E+03  0.80734532857E+03  0.00000000000E+00 0.  1.
         25    2    1    2    0    0 -0.53497113410E-01  0.97179354862E+01 -0.56985935862E+03  0.58350786502E+03  0.12508916338E+03 0.  0.
          5    1    3    3  502    0 -0.40544572735E+02 -0.42433785855E+02 -0.29356438827E+03  0.29940275721E+03  0.41800000000E+01 0.  1.
         -5    1    3    3    0  502  0.40491075621E+02  0.52151721341E+02 -0.27629497035E+03  0.28410510781E+03  0.41800000000E+01 0.  1.
        -11    1    1    2    0    0 -0.40398451717E+02 -0.23768276252E+01 -0.12800981858E+03  0.13425422848E+03  0.00000000000E+00 0. -1.
         11    1    1    2    0    0  0.40451948831E+02 -0.73411078610E+01 -0.95284095816E+02  0.10377529063E+03  0.00000000000E+00 0.  1.
</event>
<event>
 7    1  0.2749315E-009  0.1115337E+03  0.7561462E-02  0.1257756E+00
         -4   -1    0    0    0  501 -0.00000000000E+00  0.00000000000E+00  0.36365880345E+03  0.36365880345E+03  0.00000000000E+00 0.  1.
          4   -1    0    0  501    0  0.00000000000E+00 -0.00000000000E+00 -0.66318863893E+02  0.66318863893E+02  0.00000000000E+00 0. -1.
         25    2    1    2    0    0 -0.46000000893E+02 -0.18333083660E+02  0.30112192834E+03  0.32980566931E+03  0.12508102072E+03 0.  0.
          5    1    3    3  502    0  0.18946139198E+01  0.44042759991E+02  0.17973777804E+03  0.18511211609E+03  0.41800000000E+01 0.  1.
         -5    1    3    3    0  502 -0.47894614813E+02 -0.62375843651E+02  0.12138415030E+03  0.14469355322E+03  0.41800000000E+01 0.  1.
        -11    1    1    2    0    0  0.40734262128E+02  0.51944465014E+02 -0.42413495356E+01  0.66147536633E+02  0.00000000000E+00 0. -1.
         11    1    1    2    0    0  0.52657387646E+01 -0.33611381354E+02  0.45936075459E+00  0.34024461400E+02  0.00000000000E+00 0.  1.
</event>
<event>
 7    1  0.2749315E-009  0.2320953E+03  0.7561462E-02  0.1125174E+00
          2   -1    0    0  501    0  0.00000000000E+00  0.00000000000E+00  0.85590081899E+03  0.85590081899E+03  0.00000000000E+00 0.  1.
         -2   -1    0    0    0  501 -0.00000000000E+00 -0.00000000000E+00 -0.69286100635E+02  0.69286100635E+02  0.00000000000E+00 0. -1.
         25    2    1    2    0    0  0.26437186809E+02  0.21376482942E+03  0.43922312826E+03  0.50493414611E+03  0.12508880190E+03 0.  0.
          5    1    3    3  502    0 -0.25368792261E+02  0.42842325511E+02  0.29664938842E+02  0.58107843468E+02  0.41800000000E+01 0.  1.
         -5    1    3    3    0  502  0.51805979070E+02  0.17092250391E+03  0.40955818942E+03  0.44682630264E+03  0.41800000000E+01 0.  1.
        -11    1    1    2    0    0  0.18767473906E+02 -0.17506447861E+03  0.24283150962E+03  0.29994488129E+03  0.00000000000E+00 0.  1.
         11    1    1    2    0    0 -0.45204660715E+02 -0.38700350811E+02  0.10456008048E+03  0.12030789223E+03  0.00000000000E+00 0. -1.
</event>
<event>
 7    1  0.2749315E-009  0.1334835E+03  0.7561462E-02  0.1222377E+00
          1   -1    0    0  501    0  0.00000000000E+00  0.00000000000E+00  0.11985491780E+03  0.11985491780E+03  0.00000000000E+00 0. -1.
         -1   -1    0    0    0  501 -0.00000000000E+00 -0.00000000000E+00 -0.18747865229E+03  0.18747865229E+03  0.00000000000E+00 0.  1.
         25    2    1    2    0    0  0.75803523562E+02  0.65406812698E+02 -0.12750070875E+02  0.16072929305E+03  0.12508843274E+03 0.  0.
          5    1    3    3  502    0  0.10386411265E+03  0.53448266781E+02 -0.35828342800E+02  0.12225225424E+03  0.41800000000E+01 0.  1.
         -5    1    3    3    0  502 -0.28060589088E+02  0.11958545917E+02  0.23078271925E+02  0.38477038808E+02  0.41800000000E+01 0.  1.
        -11    1    1    2    0    0 -0.31880905800E+02  0.87916238095E+01 -0.50378021580E+02  0.60263005751E+02  0.00000000000E+00 0.  1.
         11    1    1    2    0    0 -0.43922617763E+02 -0.74198436507E+02 -0.44956420378E+01  0.86341271294E+02  0.00000000000E+00 0. -1.
</event>
<event>
 7    1  0.2749315E-009  0.1073486E+03  0.7561462E-02  0.1265560E+00
         -1   -1    0    0    0  501 -0.00000000000E+00  0.00000000000E+00  0.52969947922E+02  0.52969947922E+02  0.00000000000E+00 0.  1.
          1   -1    0    0  501    0  0.00000000000E+00 -0.00000000000E+00 -0.36715703007E+03  0.36715703007E+03  0.00000000000E+00 0. -1.
         25    2    1    2    0    0  0.75610011009E+02  0.36000750822E+02 -0.18169974319E+03  0.23595525562E+03  0.12508860122E+03 0.  0.
          5    1    3    3  502    0  0.70299819778E+02  0.51774517226E+02 -0.45241467024E+02  0.98422192788E+02  0.41800000000E+01 0.  1.
         -5    1    3    3    0  502  0.53101912315E+01 -0.15773766404E+02 -0.13645827617E+03  0.13753306283E+03  0.41800000000E+01 0.  1.
        -11    1    1    2    0    0  0.13496805757E+02 -0.11456205630E+02 -0.70971665374E+02  0.73146330728E+02  0.00000000000E+00 0. -1.
         11    1    1    2    0    0 -0.89106816766E+02 -0.24544545192E+02 -0.61515673582E+02  0.11102539164E+03  0.00000000000E+00 0.  1.
</event>
<event>
 7    1  0.2749315E-009  0.8794105E+02  0.7561462E-02  0.1307916E+00
          1   -1    0    0  501    0  0.00000000000E+00  0.00000000000E+00  0.24025129167E+03  0.24025129167E+03  0.00000000000E+00 0. -1.
         -1   -1    0    0    0  501 -0.00000000000E+00 -0.00000000000E+00 -0.60752789729E+02  0.60752789729E+02  0.00000000000E+00 0.  1.
         25    2    1    2    0    0  0.60304185049E+01  0.48889907054E+02  0.12608376839E+03  0.18431249384E+03  0.12508952704E+03 0.  0.
          5    1    3    3  502    0 -0.37435465379E+02  0.50483650483E+02  0.14722817578E+02  0.64685754164E+02  0.41800000000E+01 0.  1.
         -5    1    3    3    0  502  0.43465883884E+02 -0.15937434291E+01  0.11136095081E+03  0.11962673968E+03  0.41800000000E+01 0.  1.
        -11    1    1    2    0    0  0.19277152836E+02 -0.35908862615E+02 -0.14343051020E+02  0.43206228120E+02  0.00000000000E+00 0.  1.
         11    1    1    2    0    0 -0.25307571341E+02 -0.12981044439E+02  0.67757784575E+02  0.73485359443E+02  0.00000000000E+00 0. -1.
</event>
<event>
 7    1  0.2749315E-009  0.1319240E+03  0.7561462E-02  0.1224628E+00
          1   -1    0    0  501    0  0.00000000000E+00  0.00000000000E+00  0.41786279741E+02  0.41786279741E+02  0.00000000000E+00 0. -1.
         -1   -1    0    0    0  501 -0.00000000000E+00 -0.00000000000E+00 -0.44066631821E+03  0.44066631821E+03  0.00000000000E+00 0.  1.
         25    2    1    2    0    0 -0.30396448135E+02 -0.71412716622E+02 -0.18059335307E+03  0.23299144831E+03  0.12508931073E+03 0.  0.
          5    1    3    3  502    0 -0.53206919052E+02 -0.98033854523E+02 -0.13081818789E+03  0.17196651869E+03  0.41800000000E+01 0. -1.
         -5    1    3    3    0  502  0.22810470917E+02  0.26621137901E+02 -0.49775165183E+02  0.61024929624E+02  0.41800000000E+01 0. -1.
        -11    1    1    2    0    0  0.60251691594E+02  0.34438769870E+02 -0.15894905107E+03  0.17343902688E+03  0.00000000000E+00 0.  1.
         11    1    1    2    0    0 -0.29855243459E+02  0.36973946752E+02 -0.59337634330E+02  0.76022122756E+02  0.00000000000E+00 0. -1.
</event>
<event>
 7    1  0.2749315E-009  0.1024634E+03  0.7561462E-02  0.1275199E+00
         -2   -1    0    0    0  501 -0.00000000000E+00  0.00000000000E+00  0.20599547630E+02  0.20599547630E+02  0.00000000000E+00 0.  1.
          2   -1    0    0  501    0  0.00000000000E+00 -0.00000000000E+00 -0.10234356420E+04  0.10234356420E+04  0.00000000000E+00 0. -1.
         25    2    1    2    0    0  0.44038720787E+02  0.43013513860E+02 -0.80793996249E+03  0.81987970716E+03  0.12508469099E+03 0.  0.
          5    1    3    3  502    0 -0.19023770052E+02 -0.27980386370E+02 -0.37922915195E+03  0.38075849030E+03  0.41800000000E+01 0.  1.
         -5    1    3    3    0  502  0.63062490839E+02  0.70993900230E+02 -0.42871081054E+03  0.43912121686E+03  0.41800000000E+01 0.  1.
        -11    1    1    2    0    0 -0.15917228286E+02  0.77870298928E+01  0.29508632873E+01  0.17963952377E+02  0.00000000000E+00 0.  1.
         11    1    1    2    0    0 -0.28121492501E+02 -0.50800543752E+02 -0.19784699520E+03  0.20619153012E+03  0.00000000000E+00 0. -1.
</event>
<event>
 7    1  0.2749315E-009  0.1121976E+03  0.7561462E-02  0.1256554E+00
         -2   -1    0    0    0  501 -0.00000000000E+00  0.00000000000E+00  0.29752444523E+02  0.29752444523E+02  0.00000000000E+00 0.  1.
          2   -1    0    0  501    0  0.00000000000E+00 -0.00000000000E+00 -0.54231341438E+03  0.54231341438E+03  0.00000000000E+00 0. -1.
         25    2    1    2    0    0 -0.67136065938E+02  0.43426637002E+01 -0.28825784227E+03  0.32135310360E+03  0.12509645672E+03 0.  0.
          5    1    3    3  502    0 -0.18553735712E+02 -0.58344643779E+02 -0.14710380090E+03  0.15939052420E+03  0.41800000000E+01 0. -1.
         -5    1    3    3    0  502 -0.48582330226E+02  0.62687307479E+02 -0.14115404137E+03  0.16196257940E+03  0.41800000000E+01 0. -1.
        -11    1    1    2    0    0  0.16838007109E+01 -0.16883141195E+02 -0.26088734136E+00  0.16968904020E+02  0.00000000000E+00 0.  1.
         11    1    1    2    0    0  0.65452265227E+02  0.12540477495E+02 -0.22404224024E+03  0.23374385128E+03  0.00000000000E+00 0. -1.
</event>
<event>
 7    1  0.2749315E-009  0.1054592E+03  0.7561462E-02  0.1269218E+00
         -1   -1    0    0    0  501 -0.00000000000E+00  0.00000000000E+00  0.39416695713E+02  0.39416695713E+02  0.00000000000E+00 0.  1.
          1   -1    0    0  501    0  0.00000000000E+00 -0.00000000000E+00 -0.40016396816E+03  0.40016396816E+03  0.00000000000E+00 0. -1.
         25    2    1    2    0    0  0.56311761909E+02 -0.72963063950E+01 -0.15292081282E+03  0.20556927212E+03  0.12509876111E+03 0.  0.
          5    1    3    3  502    0 -0.23486563171E+02 -0.60478190010E+01 -0.11409619477E+03  0.11672021600E+03  0.41800000000E+01 0. -1.
         -5    1    3    3    0  502  0.79798325080E+02 -0.12484873940E+01 -0.38824618053E+02  0.88849056119E+02  0.41800000000E+01 0. -1.
        -11    1    1    2    0    0  0.20958214848E+01  0.39592983378E+02 -0.61360636824E+02  0.73055626422E+02  0.00000000000E+00 0. -1.
         11    1    1    2    0    0 -0.58407583394E+02 -0.32296676983E+02 -0.14646582280E+03  0.16095576533E+03  0.00000000000E+00 0.  1.
</event>
<event>
 7    1  0.2749315E-009  0.9482850E+02  0.7561462E-02  0.1291563E+00
         -1   -1    0    0    0  501 -0.00000000000E+00  0.00000000000E+00  0.27827964781E+04  0.27827964781E+04  0.00000000000E+00 0.  1.
          1   -1    0    0  501    0  0.00000000000E+00 -0.00000000000E+00 -0.89910588564E+01  0.89910588564E+01  0.00000000000E+00 0. -1.
         25    2    1    2    0    0  0.10873682439E+02  0.12639216326E+02  0.24947945368E+04  0.24979841200E+04  0.12508755466E+03 0.  0.
          5    1    3    3  502    0 -0.41992920037E+02 -0.31895192649E+01  0.19345122065E+04  0.19349750716E+04  0.41800000000E+01 0. -1.
         -5    1    3    3    0  502  0.52866602476E+02  0.15828735591E+02  0.56028233036E+03  0.56300904845E+03  0.41800000000E+01 0. -1.
        -11    1    1    2    0    0  0.14388379815E+02 -0.47108851643E+02  0.14417258863E+03  0.15235486434E+03  0.00000000000E+00 0.  1.
         11    1    1    2    0    0 -0.25262062254E+02  0.34469635317E+02  0.13483829381E+03  0.14144855257E+03  0.00000000000E+00 0. -1.
</event>
<event>
 7    1  0.2749315E-009  0.1197895E+03  0.7561462E-02  0.1243445E+00
          2   -1    0    0  501    0  0.00000000000E+00  0.00000000000E+00  0.37205814507E+03  0.37205814507E+03  0.00000000000E+00 0. -1.
         -2   -1    0    0    0  501 -0.00000000000E+00 -0.00000000000E+00 -0.49093272592E+02  0.49093272592E+02  0.00000000000E+00 0.  1.
         25    2    1    2    0    0 -0.70457039647E+02 -0.24305994015E+02  0.13247847361E+03  0.19685885592E+03  0.12509151610E+03 0.  0.
          5    1    3    3  502    0 -0.14261289818E+02 -0.56745173036E+02  0.11881403407E+02  0.59850139491E+02  0.41800000000E+01 0.  1.
         -5    1    3    3    0  502 -0.56195749829E+02  0.32439179021E+02  0.12059707021E+03  0.13700871643E+03  0.41800000000E+01 0.  1.
        -11    1    1    2    0    0  0.61588644266E+02 -0.24508208496E+02  0.13113330579E+03  0.14693453397E+03  0.00000000000E+00 0.  1.
         11    1    1    2    0    0  0.88683953808E+01  0.48814202510E+02  0.59353093077E+02  0.77358027775E+02  0.00000000000E+00 0. -1.
</event>
<event>
 7    1  0.2749315E-009  0.7938417E+02  0.7561462E-02  0.1330808E+00
          1   -1    0    0  501    0  0.00000000000E+00  0.00000000000E+00  0.53616872880E+02  0.53616872880E+02  0.00000000000E+00 0. -1.
         -1   -1    0    0    0  501 -0.00000000000E+00 -0.00000000000E+00 -0.22955102418E+03  0.22955102418E+03  0.00000000000E+00 0.  1.
         25    2    1    2    0    0 -0.11182524679E+01 -0.34189986930E+01 -0.11894875966E+03  0.17265267992E+03  0.12508877015E+03 0.  0.
          5    1    3    3  502    0  0.27077265905E+02  0.35996913823E+02 -0.12011496614E+01  0.45253411962E+02  0.41800000000E+01 0.  1.
         -5    1    3    3    0  502 -0.28195518373E+02 -0.39415912516E+02 -0.11774761000E+03  0.12739926796E+03  0.41800000000E+01 0.  1.
        -11    1    1    2    0    0 -0.19828583428E+01  0.34046634566E+02 -0.69396045453E+02  0.77323451662E+02  0.00000000000E+00 0.  1.
         11    1    1    2    0    0  0.31011108107E+01 -0.30627635873E+02  0.12410653813E+02  0.33191765477E+02  0.00000000000E+00 0. -1.
</event>
<event>
 7    1  0.2749315E-009  0.2196699E+03  0.7561462E-02  0.1134129E+00
          2   -1    0    0  501    0  0.00000000000E+00  0.00000000000E+00  0.12654998080E+03  0.12654998080E+03  0.00000000000E+00 0. -1.
         -2   -1    0    0    0  501 -0.00000000000E+00 -0.00000000000E+00 -0.41532902987E+03  0.41532902987E+03  0.00000000000E+00 0.  1.
         25    2    1    2    0    0  0.10280803265E+03  0.17279278498E+03 -0.13652788488E+03  0.27333584982E+03  0.12508311369E+03 0.  0.
          5    1    3    3  502    0  0.12579232655E+03  0.10401082759E+03 -0.10516130163E+03  0.19421208365E+03  0.41800000000E+01 0.  1.
         -5    1    3    3    0  502 -0.22984293905E+02  0.68781957390E+02 -0.31366583251E+02  0.79123766174E+02  0.41800000000E+01 0.  1.
        -11    1    1    2    0    0 -0.37624568298E+02 -0.93430620094E+02 -0.22744540306E+02  0.10325794412E+03  0.00000000000E+00 0. -1.
         11    1    1    2    0    0 -0.65183464352E+02 -0.79362164883E+02 -0.12950662388E+03  0.16528521673E+03  0.00000000000E+00 0.  1.
</event>
<event>
 7    1  0.2749315E-009  0.1464994E+03  0.7561462E-02  0.1204842E+00
         -1   -1    0    0    0  501 -0.00000000000E+00  0.00000000000E+00  0.60575993055E+02  0.60575993055E+02  0.00000000000E+00 0.  1.
          1   -1    0    0  501    0  0.00000000000E+00 -0.00000000000E+00 -0.37797025226E+03  0.37797025226E+03  0.00000000000E+00 0. -1.
         25    2    1    2    0    0 -0.10418688072E+03  0.14523648547E+02 -0.18892423764E+03  0.24981645371E+03  0.12510016186E+03 0.  0.
          5    1    3    3  502    0 -0.12726760278E+03  0.24436221199E+02 -0.12128878315E+03  0.17754608681E+03  0.41800000000E+01 0. -1.
         -5    1    3    3    0  502  0.23080722064E+02 -0.99125726527E+01 -0.67635454490E+02  0.72270366899E+02  0.41800000000E+01 0. -1.
        -11    1    1    2    0    0  0.60044190384E+02  0.36608257757E+02 -0.72514221315E+02  0.10101376950E+03  0.00000000000E+00 0.  1.
         11    1    1    2    0    0  0.44142690336E+02 -0.51131906303E+02 -0.55955800251E+02  0.87716022106E+02  0.00000000000E+00 0. -1.
</event>
<event>
 7    1  0.2749315E-009  0.1094301E+03  0.7561462E-02  0.1261629E+00
         -3   -1    0    0    0  501 -0.00000000000E+00  0.00000000000E+00  0.17599612448E+02  0.17599612448E+02  0.00000000000E+00 0.  1.
          3   -1    0    0  501    0  0.00000000000E+00 -0.00000000000E+00 -0.77574408661E+03  0.77574408661E+03  0.00000000000E+00 0. -1.
         25    2    1    2    0    0 -0.13287679178E+01  0.40670236208E+02 -0.47702828339E+03  0.49483173624E+03  0.12508649125E+03 0.  0.
          5    1    3    3  502    0  0.11504164963E+02 -0.37330527241E+02 -0.27595551218E+03  0.27873792561E+03  0.41800000000E+01 0. -1.
         -5    1    3    3    0  502 -0.12832932881E+02  0.78000763449E+02 -0.20107277122E+03  0.21609381062E+03  0.41800000000E+01 0. -1.
        -11    1    1    2    0    0 -0.43361721379E+02 -0.58379572068E+01 -0.12231396319E+03  0.12990391148E+03  0.00000000000E+00 0.  1.
         11    1    1    2    0    0  0.44690489297E+02 -0.34832279001E+02 -0.15880222758E+03  0.16860805134E+03  0.00000000000E+00 0. -1.
</event>
<event>
 7    1  0.2749315E-009  0.1040680E+03  0.7561462E-02  0.1271967E+00
         -2   -1    0    0    0  501 -0.00000000000E+00  0.00000000000E+00  0.56635619475E+02  0.56635619475E+02  0.00000000000E+00 0. -1.
          2   -1    0    0  501    0  0.00000000000E+00 -0.00000000000E+00 -0.22060926865E+03  0.22060926865E+03  0.00000000000E+00 0.  1.
         25    2    1    2    0    0  0.96223454645E+01 -0.82317525103E+01 -0.10898129195E+03  0.16639042587E+03  0.12509396685E+03 0.  0.
          5    1    3    3  502    0 -0.56463932935E+02  0.82090173492E+01 -0.55390931089E+02  0.79631597593E+02  0.41800000000E+01 0. -1.
         -5    1    3    3    0  502  0.66086278399E+02 -0.16440769860E+02 -0.53590360864E+02  0.86758828276E+02  0.41800000000E+01 0. -1.
        -11    1    1    2    0    0 -0.41032803955E+02  0.24015070041E+02 -0.24112364808E+01  0.47604922549E+02  0.00000000000E+00 0. -1.
         11    1    1    2    0    0  0.31410458491E+02 -0.15783317531E+02 -0.52581120737E+02  0.63249539704E+02  0.00000000000E+00 0.  1.
</event>
<event>
 7    1  0.2749315E-009  0.9662284E+02  0.7561462E-02  0.1287562E+00
          2   -1    0    0  501    0  0.00000000000E+00  0.00000000000E+00  0.69383792230E+03  0.69383792230E+03  0.00000000000E+00 0. -1.
         -2   -1    0    0    0  501 -0.00000000000E+00 -0.00000000000E+00 -0.22847652726E+02  0.22847652726E+02  0.00000000000E+00 0.  1.
         25    2    1    2    0    0 -0.32300845977E+02  0.46087032123E+02  0.28994828067E+03  0.32075683547E+03  0.12509029881E+03 0.  0.
          5    1    3    3  502    0 -0.24382902018E+02 -0.17681215925E+02  0.78529907588E+01  0.31405304827E+02  0.41800000000E+01 0.  1.
         -5    1    3    3    0  502 -0.79179439588E+01  0.63768248048E+02  0.28209528991E+03  0.28935153064E+03  0.41800000000E+01 0.  1.
        -11    1    1    2    0    0 -0.37827783136E+01 -0.59743305437E+02  0.30316491656E+03  0.30901867029E+03  0.00000000000E+00 0. -1.
         11    1    1    2    0    0  0.36083624290E+02  0.13656273314E+02  0.77877072348E+02  0.86910069269E+02  0.00000000000E+00 0.  1.
</event>
<event>
 7    1  0.2749315E-009  0.1590964E+03  0.7561462E-02  0.1189721E+00
         -1   -1    0    0    0  501 -0.00000000000E+00  0.00000000000E+00  0.30477014083E+02  0.30477014083E+02  0.00000000000E+00 0.  1.
          1   -1    0    0  501    0  0.00000000000E+00 -0.00000000000E+00 -0.12785240786E+04  0.12785240786E+04  0.00000000000E+00 0. -1.
         25    2    1    2    0    0  0.11545681749E+03  0.81729222759E+02 -0.93180476988E+03  0.95074579466E+03  0.12508994497E+03 0.  0.
          5    1    3    3  502    0  0.43266214657E+02  0.35531351143E+01 -0.61454155086E+03  0.61608715311E+03  0.41800000000E+01 0.  1.
         -5    1    3    3    0  502  0.72190602835E+02  0.78176087644E+02 -0.31726321903E+03  0.33465864155E+03  0.41800000000E+01 0.  1.
        -11    1    1    2    0    0  0.30093123388E+01  0.14906606361E+02 -0.34601919930E+02  0.37796239718E+02  0.00000000000E+00 0. -1.
         11    1    1    2    0    0 -0.11846612983E+03 -0.96635829119E+02 -0.28164037471E+03  0.32045905831E+03  0.00000000000E+00 0.  1.
</event>
<event>
 7    1  0.2749315E-009  0.1216469E+03  0.7561462E-02  0.1240405E+00
          1   -1    0    0  501    0  0.00000000000E+00  0.00000000000E+00  0.26185695998E+04  0.26185695998E+04  0.00000000000E+00 0. -1.
         -1   -1    0    0    0  501 -0.00000000000E+00 -0.00000000000E+00 -0.90981795395E+01  0.90981795395E+01  0.00000000000E+00 0.  1.
         25    2    1    2    0    0 -0.34741035760E+02  0.67306818011E+02  0.21008820410E+04  0.21059652686E+04  0.12508882965E+03 0.  0.
          5    1    3    3  502    0  0.14443658057E+02  0.76385851471E+02  0.72496777732E+03  0.72913590510E+03  0.41800000000E+01 0. -1.
         -5    1    3    3    0  502 -0.49184693817E+02 -0.90790334600E+01  0.13759142636E+04  0.13768293635E+04  0.41800000000E+01 0. -1.
        -11    1    1    2    0    0  0.27131483354E+01 -0.80549010030E+02  0.32286706123E+03  0.33277416279E+03  0.00000000000E+00 0.  1.
         11    1    1    2    0    0  0.32027887425E+02  0.13242192019E+02  0.18572231811E+03  0.18892834797E+03  0.00000000000E+00 0. -1.
</event>
<event>
 7    1  0.2749315E-009  0.1088092E+03  0.7561462E-02  0.1262791E+00
         -2   -1    0    0    0  501 -0.00000000000E+00  0.00000000000E+00  0.15556297427E+02  0.15556297427E+02  0.00000000000E+00 0.  1.
          2   -1    0    0  501    0  0.00000000000E+00 -0.00000000000E+00 -0.13707110092E+04  0.13707110092E+04  0.00000000000E+00 0. -1.
         25    2    1    2    0    0 -0.12818682651E+02  0.50787757630E+01 -0.11948803406E+04  0.12014893014E+04  0.12508957037E+03 0.  0.
          5    1    3    3  502    0 -0.52106645274E+02  0.45515114988E+02 -0.65617038436E+03  0.65982101655E+03  0.41800000000E+01 0.  1.
         -5    1    3    3    0  502  0.39287962623E+02 -0.40436339225E+02 -0.53870995621E+03  0.54166828489E+03  0.41800000000E+01 0.  1.
        -11    1    1    2    0    0 -0.26530764189E+02  0.29295021949E+02 -0.74779853927E+02  0.84581950278E+02  0.00000000000E+00 0.  1.
         11    1    1    2    0    0  0.39349446840E+02 -0.34373797712E+02 -0.85494517319E+02  0.10019605495E+03  0.00000000000E+00 0. -1.
</event>
<event>
 7    1  0.2749315E-009  0.8808650E+02  0.7561462E-02  0.1307553E+00
          1   -1    0    0  501    0  0.00000000000E+00  0.00000000000E+00  0.68233630194E+02  0.68233630194E+02  0.00000000000E+00 0. -1.
         -1   -1    0    0    0  501 -0.00000000000E+00 -0.00000000000E+00 -0.22877968507E+03  0.22877968507E+03  0.00000000000E+00 0.  1.
         25    2    1    2    0    0 -0.55568003590E+00  0.48443246880E+02 -0.39496614763E+02  0.13983850037E+03  0.12509103349E+03 0.  0.
          5    1    3    3  502    0 -0.44112560061E+02  0.52304215545E+02 -0.60242072818E+02  0.91259129167E+02  0.41800000000E+01 0.  1.
         -5    1    3    3    0  502  0.43556880025E+02 -0.38609686655E+01  0.20745458055E+02  0.48579371203E+02  0.41800000000E+01 0.  1.
        -11    1    1    2    0    0 -0.19810720554E+02 -0.16352622720E+02  0.44283888230E+01  0.26066905191E+02  0.00000000000E+00 0. -1.
         11    1    1    2    0    0  0.20366400590E+02 -0.32090624160E+02 -0.12547782894E+03  0.13110790970E+03  0.00000000000E+00 0.  1.
</event>
<event>
 7    1  0.2749315E-009  0.9579827E+02  0.7561462E-02  0.1289388E+00
          1   -1    0    0  501    0  0.00000000000E+00  0.00000000000E+00  0.39959052031E+02  0.39959052031E+02  0.00000000000E+00 0. -1.
         -1   -1    0    0    0  501 -0.00000000000E+00 -0.00000000000E+00 -0.46593812473E+03  0.46593812473E+03  0.00000000000E+00 0.  1.
         25    2    1    2    0    0  0.69435856407E+02 -0.27930963296E+02 -0.16503762401E+03  0.22019525124E+03  0.12508818676E+03 0.  0.
          5    1    3    3  502    0 -0.44574549138E+01 -0.15839497212E+02  0.16563716800E+02  0.23718931057E+02  0.41800000000E+01 0. -1.
         -5    1    3    3    0  502  0.73893311321E+02 -0.12091466084E+02 -0.18160134081E+03  0.19647632019E+03  0.41800000000E+01 0. -1.
        -11    1    1    2    0    0 -0.47490580111E+02 -0.16333323169E+02 -0.57484043769E+02  0.76331827785E+02  0.00000000000E+00 0. -1.
         11    1    1    2    0    0 -0.21945276297E+02  0.44264286465E+02 -0.20345740492E+03  0.20937009774E+03  0.00000000000E+00 0.  1.
</event>
<event>
 7    1  0.2749315E-009  0.9170868E+02  0.7561462E-02  0.1298766E+00
         -1   -1    0    0    0  501 -0.00000000000E+00  0.00000000000E+00  0.53542880435E+02  0.53542880435E+02  0.00000000000E+00 0.  1.
          1   -1    0    0  501    0  0.00000000000E+00 -0.00000000000E+00 -0.21392091384E+03  0.21392091384E+03  0.00000000000E+00 0. -1.
         25    2    1    2    0    0 -0.13682401476E+02  0.27818881069E+01 -0.11793250970E+03  0.17248304082E+03  0.12508947004E+03 0.  0.
          5    1    3    3  502    0  0.28285862134E+02 -0.50200039340E+02 -0.60951949487E+02  0.83980631652E+02  0.41800000000E+01 0.  1.
         -5    1    3    3    0  502 -0.41968263610E+02  0.52981927447E+02 -0.56980560211E+02  0.88502409167E+02  0.41800000000E+01 0.  1.
        -11    1    1    2    0    0  0.16345939197E+02  0.25080372913E+02  0.13180495153E+02  0.32709941702E+02  0.00000000000E+00 0.  1.
         11    1    1    2    0    0 -0.26635377212E+01 -0.27862261020E+02 -0.55626018864E+02  0.62270811758E+02  0.00000000000E+00 0. -1.
</event>
<event>
 7    1  0.2749315E-009  0.1671514E+03  0.7561462E-02  0.1180851E+00
          1   -1    0    0  501    0  0.00000000000E+00  0.00000000000E+00  0.33056265146E+03  0.33056265146E+03  0.00000000000E+00 0. -1.
         -1   -1    0    0    0  501 -0.00000000000E+00 -0.00000000000E+00 -0.86818075436E+02  0.86818075436E+02  0.00000000000E+00 0.  1.
         25    2    1    2    0    0  0.88472617200E+02  0.91982633355E+02  0.11626945942E+03  0.21319938296E+03  0.12508869201E+03 0.  0.
          5    1    3    3  502    0  0.79021448720E+02 -0.32552432096E+01  0.74359392463E+02  0.10863598673E+03  0.41800000000E+01 0. -1.
         -5    1    3    3    0  502  0.94511684807E+01  0.95237876564E+02  0.41910066952E+02  0.10456339622E+03  0.41800000000E+01 0. -1.
        -11    1    1    2    0    0  0.20784926357E+02 -0.15894389836E+02  0.17321750172E+02  0.31379735833E+02  0.00000000000E+00 0.  1.
         11    1    1    2    0    0 -0.10925754356E+03 -0.76088243518E+02  0.11015336644E+03  0.17280160810E+03  0.00000000000E+00 0. -1.
</event>
<event>
 7    1  0.2749315E-009  0.8624091E+02  0.7561462E-02  0.1312219E+00
         -1   -1    0    0    0  501 -0.00000000000E+00  0.00000000000E+00  0.74686279651E+02  0.74686279651E+02  0.00000000000E+00 0. -1.
          1   -1    0    0  501    0  0.00000000000E+00 -0.00000000000E+00 -0.20616811049E+03  0.20616811049E+03  0.00000000000E+00 0.  1.
         25    2    1    2    0    0  0.49708647777E+02 -0.21531782758E+02 -0.11507315678E+03  0.17838325087E+03  0.12507671824E+03 0.  0.
          5    1    3    3  502    0  0.65596426192E+02  0.16765864474E+01 -0.13043085547E+03  0.14606636344E+03  0.41800000000E+01 0.  1.
         -5    1    3    3    0  502 -0.15887778415E+02 -0.23208369206E+02  0.15357698684E+02  0.32316887428E+02  0.41800000000E+01 0.  1.
        -11    1    1    2    0    0 -0.14846736179E+01  0.29397695710E+02 -0.38817952634E+02  0.48716139168E+02  0.00000000000E+00 0.  1.
         11    1    1    2    0    0 -0.48223974159E+02 -0.78659129515E+01  0.22409278574E+02  0.53755000107E+02  0.00000000000E+00 0. -1.
</event>
<event>
 7    1  0.2749315E-009  0.8617237E+02  0.7561462E-02  0.1312395E+00
          2   -1    0    0  501    0  0.00000000000E+00  0.00000000000E+00  0.54842536616E+02  0.54842536616E+02  0.00000000000E+00 0. -1.
         -2   -1    0    0    0  501 -0.00000000000E+00 -0.00000000000E+00 -0.34604208716E+03  0.34604208716E+03  0.00000000000E+00 0.  1.
         25    2    1    2    0    0  0.11199161883E+02 -0.68885051107E+02 -0.88491692664E+02  0.16837239119E+03  0.12509161023E+03 0.  0.
          5    1    3    3  502    0 -0.83570121588E+00 -0.48007444327E+02  0.23585351191E+02  0.53657751520E+02  0.41800000000E+01 0. -1.
         -5    1    3    3    0  502  0.12034863099E+02 -0.20877606780E+02 -0.11207704386E+03  0.11471463967E+03  0.41800000000E+01 0. -1.
        -11    1    1    2    0    0 -0.41468605441E+02  0.35100651487E+02 -0.16438327965E+03  0.17312874863E+03  0.00000000000E+00 0.  1.
         11    1    1    2    0    0  0.30269443558E+02  0.33784399620E+02 -0.38324578227E+02  0.59383483961E+02  0.00000000000E+00 0. -1.
</event>
<event>
 7    1  0.2749315E-009  0.3175706E+03  0.7561462E-02  0.1076773E+00
          2   -1    0    0  501    0  0.00000000000E+00  0.00000000000E+00  0.15540515849E+03  0.15540515849E+03  0.00000000000E+00 0. -1.
         -2   -1    0    0    0  501 -0.00000000000E+00 -0.00000000000E+00 -0.71591218760E+03  0.71591218760E+03  0.00000000000E+00 0.  1.
         25    2    1    2    0    0 -0.25599232545E+03  0.17899726132E+03 -0.22991435750E+03  0.40752935708E+03  0.12508986711E+03 0.  0.
          5    1    3    3  502    0 -0.12514011501E+03  0.50734234810E+02 -0.34124300675E+02  0.13934113270E+03  0.41800000000E+01 0. -1.
         -5    1    3    3    0  502 -0.13085221044E+03  0.12826302651E+03 -0.19579005682E+03  0.26818822438E+03  0.41800000000E+01 0. -1.
        -11    1    1    2    0    0  0.17457246054E+03 -0.90959398976E+02 -0.25458887469E+03  0.32181462266E+03  0.00000000000E+00 0.  1.
         11    1    1    2    0    0  0.81419864904E+02 -0.88037862339E+02 -0.76003796924E+02  0.14197336635E+03  0.00000000000E+00 0. -1.
</event>
<event>
 7    1  0.4049749E-009  0.1426736E+03  0.7561462E-02  0.1209776E+00
          2   -1    0    0  501    0  0.00000000000E+00  0.00000000000E+00  0.91554830798E+03  0.91554830798E+03  0.00000000000E+00 0. -1.
         -2   -1    0    0    0  501 -0.00000000000E+00 -0.00000000000E+00 -0.23589717264E+02  0.23589717264E+02  0.00000000000E+00 0.  1.
         25    2    1    2    0    0 -0.44281851215E+02  0.87350597641E+02  0.50131139023E+03  0.52588122503E+03  0.12508774366E+03 0.  0.
          5    1    3    3  502    0  0.14997299686E+02 -0.26227147430E+02  0.10655741260E+03  0.11083653207E+03  0.41800000000E+01 0. -1.
         -5    1    3    3    0  502 -0.59279150901E+02  0.11357774507E+03  0.39475397762E+03  0.41504469296E+03  0.41800000000E+01 0. -1.
        -11    1    1    2    0    0  0.50937636595E+02 -0.13749439330E+02  0.23645062298E+03  0.24226552997E+03  0.00000000000E+00 0. -1.
         11    1    1    2    0    0 -0.66557853797E+01 -0.73601158311E+02  0.15419657751E+03  0.17099127024E+03  0.00000000000E+00 0.  1.
</event>
<event>
 7    1  0.2749315E-009  0.3193252E+03  0.7561462E-02  0.1075960E+00
          2   -1    0    0  501    0  0.00000000000E+00  0.00000000000E+00  0.36314089525E+03  0.36314089525E+03  0.00000000000E+00 0. -1.
         -2   -1    0    0    0  501 -0.00000000000E+00 -0.00000000000E+00 -0.30025214109E+03  0.30025214109E+03  0.00000000000E+00 0.  1.
         25    2    1    2    0    0 -0.28342322782E+03 -0.12037878406E+03 -0.14929587792E+02  0.33270289007E+03  0.12509413556E+03 0.  0.
          5    1    3    3  502    0 -0.15860589233E+03 -0.12938826622E+03 -0.28714576398E+02  0.20673449595E+03  0.41800000000E+01 0.  1.
         -5    1    3    3    0  502 -0.12481733549E+03  0.90094821561E+01  0.13784988606E+02  0.12596839413E+03  0.41800000000E+01 0.  1.
        -11    1    1    2    0    0  0.12840734518E+03  0.66426710462E+02  0.82561404570E+02  0.16648525365E+03  0.00000000000E+00 0. -1.
         11    1    1    2    0    0  0.15501588264E+03  0.53952073598E+02 -0.47430626220E+01  0.16420489262E+03  0.00000000000E+00 0.  1.
</event>
<event>
 7    1  0.2749315E-009  0.1006549E+03  0.7561462E-02  0.1278925E+00
         -2   -1    0    0    0  501 -0.00000000000E+00  0.00000000000E+00  0.58289202623E+02  0.58289202623E+02  0.00000000000E+00 0.  1.
          2   -1    0    0  501    0  0.00000000000E+00 -0.00000000000E+00 -0.23651533091E+03  0.23651533091E+03  0.00000000000E+00 0. -1.
         25    2    1    2    0    0 -0.11457059381E+01  0.24506121063E+02 -0.14677438764E+03  0.19440108927E+03  0.12508876861E+03 0.  0.
          5    1    3    3  502    0 -0.41980562438E+01 -0.49765397415E+02 -0.79944322380E+02  0.94354573481E+02  0.41800000000E+01 0.  1.
         -5    1    3    3    0  502  0.30523503057E+01  0.74271518477E+02 -0.66830065262E+02  0.10004651579E+03  0.41800000000E+01 0.  1.
        -11    1    1    2    0    0 -0.29734223289E+02  0.91064549329E+01 -0.43240583195E+02  0.53261614612E+02  0.00000000000E+00 0. -1.
         11    1    1    2    0    0  0.30879929227E+02 -0.33612575996E+02  0.11788842547E+02  0.47141829650E+02  0.00000000000E+00 0.  1.
</event>
<event>
 7    1  0.2749315E-009  0.1163430E+03  0.7561462E-02  0.1249255E+00
         -2   -1    0    0    0  501 -0.00000000000E+00  0.00000000000E+00  0.16686162474E+02  0.16686162474E+02  0.00000000000E+00 0.  1.
          2   -1    0    0  501    0  0.00000000000E+00 -0.00000000000E+00 -0.10065566801E+04  0.10065566801E+04  0.00000000000E+00 0. -1.
         25    2    1    2    0    0  0.65331763328E+02 -0.23611184173E+02 -0.47161064376E+03  0.49283892514E+03  0.12509148453E+03 0.  0.
          5    1    3    3  502    0 -0.11122329211E+02  0.26491083229E+02 -0.26853445975E+03  0.27009944866E+03  0.41800000000E+01 0. -1.
         -5    1    3    3    0  502  0.76454092539E+02 -0.50102267401E+02 -0.20307618402E+03  0.22273947648E+03  0.41800000000E+01 0. -1.
        -11    1    1    2    0    0 -0.79874696266E+02 -0.50233544251E+01 -0.39519745165E+03  0.40321982464E+03  0.00000000000E+00 0.  1.
         11    1    1    2    0    0  0.14542932938E+02  0.28634538598E+02 -0.12306242220E+03  0.12718409278E+03  0.00000000000E+00 0. -1.
</event>
<event>
 7    1  0.2749315E-009  0.1520516E+03  0.7561462E-02  0.1197974E+00
         -1   -1    0    0    0  501 -0.00000000000E+00  0.00000000000E+00  0.53440416555E+03  0.53440416555E+03  0.00000000000E+00 0.  1.
          1   -1    0    0  501    0  0.00000000000E+00 -0.00000000000E+00 -0.67568298520E+02  0.67568298520E+02  0.00000000000E+00 0. -1.
         25    2    1    2    0    0 -0.10382378080E+03 -0.55461297583E+02  0.87673710051E+02  0.19285299333E+03  0.12510101764E+03 0.  0.
          5    1    3    3  502    0  0.15794258247E+02 -0.27011911828E+02  0.58409584398E+02  0.66394682948E+02  0.41800000000E+01 0.  1.
         -5    1    3    3    0  502 -0.11961803905E+03 -0.28449385755E+02  0.29264125654E+02  0.12645831039E+03  0.41800000000E+01 0.  1.
        -11    1    1    2    0    0  0.25109939821E+02 -0.26059509637E+02  0.13790097425E+03  0.14257028379E+03  0.00000000000E+00 0.  1.
         11    1    1    2    0    0  0.78713840980E+02  0.81520807220E+02  0.24126118273E+03  0.26654918695E+03  0.00000000000E+00 0. -1.
</event>
<event>
 7    1  0.2749315E-009  0.1330287E+03  0.7561462E-02  0.1223030E+00
          2   -1    0    0  501    0  0.00000000000E+00  0.00000000000E+00  0.72551470050E+03  0.72551470050E+03  0.00000000000E+00 0. -1.
         -2   -1    0    0    0  501 -0.00000000000E+00 -0.00000000000E+00 -0.38119485221E+02  0.38119485221E+02  0.00000000000E+00 0.  1.
         25    2    1    2    0    0 -0.14150916029E+02  0.11295839274E+03  0.48870534776E+03  0.51714630861E+03  0.12509013017E+03 0.  0.
          5    1    3    3  502    0  0.28663240294E+02  0.84158227467E+02  0.42894380070E+03  0.43808040946E+03  0.41800000000E+01 0. -1.
         -5    1    3    3    0  502 -0.42814156323E+02  0.28800165276E+02  0.59761547068E+02  0.79065899157E+02  0.41800000000E+01 0. -1.
        -11    1    1    2    0    0  0.29331898602E+02 -0.10308286777E+03  0.10144880134E+03  0.14757471734E+03  0.00000000000E+00 0.  1.
         11    1    1    2    0    0 -0.15180982574E+02 -0.98755249730E+01  0.97241066167E+02  0.98913159765E+02  0.00000000000E+00 0. -1.
</event>
<event>
 7    1  0.2749315E-009  0.7723521E+02  0.7561462E-02  0.1337086E+00
         -2   -1    0    0    0  501 -0.00000000000E+00  0.00000000000E+00  0.56414104928E+02  0.56414104928E+02  0.00000000000E+00 0.  1.
          2   -1    0    0  501    0  0.00000000000E+00 -0.00000000000E+00 -0.25041771276E+03  0.25041771276E+03  0.00000000000E+00 0. -1.
         25    2    1    2    0    0 -0.34677062459E+02  0.26971215869E+02 -0.13726899367E+03  0.19084256669E+03  0.12509261966E+03 0.  0.
          5    1    3    3  502    0 -0.33722080870E+02  0.62969615130E+02 -0.29954356858E+02  0.77569885024E+02  0.41800000000E+01 0. -1.
         -5    1    3    3    0  502 -0.95498158918E+00 -0.35998399261E+02 -0.10731463681E+03  0.11327268167E+03  0.41800000000E+01 0. -1.
        -11    1    1    2    0    0  0.19110330419E+02 -0.24228472035E+02 -0.81197830472E+02  0.86863751124E+02  0.00000000000E+00 0. -1.
         11    1    1    2    0    0  0.15566732040E+02 -0.27427438343E+01  0.24463216312E+02  0.29125499867E+02  0.00000000000E+00 0.  1.
</event>
<event>
 7    1  0.2749315E-009  0.9310893E+02  0.7561462E-02  0.1295493E+00
          3   -1    0    0  501    0  0.00000000000E+00  0.00000000000E+00  0.28485457631E+03  0.28485457631E+03  0.00000000000E+00 0. -1.
         -3   -1    0    0    0  501 -0.00000000000E+00 -0.00000000000E+00 -0.68059122840E+02  0.68059122840E+02  0.00000000000E+00 0.  1.
         25    2    1    2    0    0 -0.57836248324E+01 -0.68191030275E+02  0.64690235086E+02  0.15658128297E+03  0.12509758086E+03 0.  0.
          5    1    3    3  502    0 -0.87230334960E+01  0.13219626114E+02 -0.28414530921E+02  0.32797984624E+02  0.41800000000E+01 0.  1.
         -5    1    3    3    0  502  0.29394086637E+01 -0.81410656388E+02  0.93104766007E+02  0.12378329835E+03  0.41800000000E+01 0.  1.
        -11    1    1    2    0    0 -0.18575184903E+02  0.31847528274E+01 -0.90163924438E+01  0.20891995536E+02  0.00000000000E+00 0.  1.
         11    1    1    2    0    0  0.24358809736E+02  0.65006277447E+02  0.16112161083E+03  0.17544042064E+03  0.00000000000E+00 0. -1.
</event>
<event>
 7    1  0.2749315E-009  0.5759812E+02  0.7561462E-02  0.1408197E+00
         -1   -1    0    0    0  501 -0.00000000000E+00  0.00000000000E+00  0.99022231227E+02  0.99022231227E+02  0.00000000000E+00 0.  1.
          1   -1    0    0  501    0  0.00000000000E+00 -0.00000000000E+00 -0.13340175598E+03  0.13340175598E+03  0.00000000000E+00 0. -1.
         25    2    1    2    0    0 -0.30855416466E+02  0.16231760590E+02  0.21101796458E+00  0.12985890063E+03  0.12509101793E+03 0.  0.
          5    1    3    3  502    0  0.72923936211E+01  0.23532454026E+02 -0.56048630851E+02  0.61366740320E+02  0.41800000000E+01 0. -1.
         -5    1    3    3    0  502 -0.38147810087E+02 -0.73006934363E+01  0.56259648816E+02  0.68492160310E+02  0.41800000000E+01 0. -1.
        -11    1    1    2    0    0  0.27857652582E+02 -0.27702608197E+02  0.21807819610E+02  0.44933999426E+02  0.00000000000E+00 0.  1.
         11    1    1    2    0    0  0.29977638845E+01  0.11470847607E+02 -0.56398362329E+02  0.57631087154E+02  0.00000000000E+00 0. -1.
</event>
<event>
 7    1  0.2749315E-009  0.1451187E+03  0.7561462E-02  0.1206603E+00
         -2   -1    0    0    0  501 -0.00000000000E+00  0.00000000000E+00  0.74369100825E+02  0.74369100825E+02  0.00000000000E+00 0.  1.
          2   -1    0    0  501    0  0.00000000000E+00 -0.00000000000E+00 -0.31336735839E+03  0.31336735839E+03  0.00000000000E+00 0. -1.
         25    2    1    2    0    0 -0.29996464260E+02  0.99121419313E+02 -0.16067130437E+03  0.22844481913E+03  0.12508766408E+03 0.  0.
          5    1    3    3  502    0  0.48551203382E+02  0.37471402884E+02 -0.49233712638E+02  0.78757578963E+02  0.41800000000E+01 0.  1.
         -5    1    3    3    0  502 -0.78547667642E+02  0.61650016429E+02 -0.11143759173E+03  0.14968724017E+03  0.41800000000E+01 0.  1.
        -11    1    1    2    0    0  0.42967116063E+02 -0.10583235036E+03 -0.85827551286E+02  0.14287416844E+03  0.00000000000E+00 0. -1.
         11    1    1    2    0    0 -0.12970651803E+02  0.67109310521E+01  0.75005980878E+01  0.16417471653E+02  0.00000000000E+00 0.  1.
</event>
<event>
 7    1  0.2749315E-009  0.8484387E+02  0.7561462E-02  0.1315841E+00
         -2   -1    0    0    0  501 -0.00000000000E+00  0.00000000000E+00  0.39473859705E+03  0.39473859705E+03  0.00000000000E+00 0.  1.
          2   -1    0    0  501    0  0.00000000000E+00 -0.00000000000E+00 -0.50974123995E+02  0.50974123995E+02  0.00000000000E+00 0. -1.
         25    2    1    2    0    0 -0.74605663144E+00 -0.27419100284E+02  0.50794604588E+02  0.13778032311E+03  0.12510380458E+03 0.  0.
          5    1    3    3  502    0 -0.31656911458E+02  0.74951960417E+01  0.77306339050E+02  0.83976666188E+02  0.41800000000E+01 0.  1.
         -5    1    3    3    0  502  0.30910854827E+02 -0.34914296325E+02 -0.26511734461E+02  0.53803656922E+02  0.41800000000E+01 0.  1.
        -11    1    1    2    0    0  0.13602363761E+01 -0.31308978665E+02  0.60213448415E+02  0.67880496154E+02  0.00000000000E+00 0. -1.
         11    1    1    2    0    0 -0.61417974467E+00  0.58728078949E+02  0.23275642005E+03  0.24005190178E+03  0.00000000000E+00 0.  1.
</event>
<event>
 7    1  0.2749315E-009  0.8408497E+02  0.7561462E-02  0.1317843E+00
          3   -1    0    0  501    0  0.00000000000E+00  0.00000000000E+00  0.15258534907E+03  0.15258534907E+03  0.00000000000E+00 0. -1.
         -3   -1    0    0    0  501 -0.00000000000E+00 -0.00000000000E+00 -0.19712717182E+03  0.19712717182E+03  0.00000000000E+00 0.  1.
         25    2    1    2    0    0 -0.25585433977E+02 -0.41349442044E+02 -0.15106574217E+03  0.20207035513E+03  0.12508868524E+03 0.  0.
          5    1    3    3  502    0 -0.54874475061E+01  0.31484225006E+02 -0.11272077670E+03  0.11723828045E+03  0.41800000000E+01 0.  1.
         -5    1    3    3    0  502 -0.20097986471E+02 -0.72833667050E+02 -0.38344965474E+02  0.84832074673E+02  0.41800000000E+01 0.  1.
        -11    1    1    2    0    0 -0.30387604393E+01  0.28889867428E+02  0.11221088047E+03  0.11591005220E+03  0.00000000000E+00 0. -1.
         11    1    1    2    0    0  0.28624194416E+02  0.12459574617E+02 -0.56869610506E+01  0.31732113570E+02  0.00000000000E+00 0.  1.
</event>
<event>
 7    1  0.2749315E-009  0.8768679E+02  0.7561462E-02  0.1308552E+00
          2   -1    0    0  501    0  0.00000000000E+00  0.00000000000E+00  0.30494125861E+03  0.30494125861E+03  0.00000000000E+00 0. -1.
         -2   -1    0    0    0  501 -0.00000000000E+00 -0.00000000000E+00 -0.40489313334E+02  0.40489313334E+02  0.00000000000E+00 0.  1.
         25    2    1    2    0    0 -0.17021620388E+02 -0.15513122463E+02  0.12975823952E+03  0.18169771933E+03  0.12508584235E+03 0.  0.
          5    1    3    3  502    0  0.95142113662E+01  0.50968408679E+02  0.34295598096E+02  0.62305371759E+02  0.41800000000E+01 0.  1.
         -5    1    3    3    0  502 -0.26535831755E+02 -0.66481531143E+02  0.95462641426E+02  0.11939234757E+03  0.41800000000E+01 0.  1.
        -11    1    1    2    0    0  0.35336165251E+00  0.29737884192E+02  0.26216782243E+01  0.29855314726E+02  0.00000000000E+00 0.  1.
         11    1    1    2    0    0  0.16668258736E+02 -0.14224761729E+02  0.13207202753E+03  0.13387753789E+03  0.00000000000E+00 0. -1.
</event>
<event>
 7    1  0.2749315E-009  0.1019740E+03  0.7561462E-02  0.1276199E+00
          2   -1    0    0  501    0  0.00000000000E+00  0.00000000000E+00  0.10601862843E+03  0.10601862843E+03  0.00000000000E+00 0. -1.
         -2   -1    0    0    0  501 -0.00000000000E+00 -0.00000000000E+00 -0.12290965260E+03  0.12290965260E+03  0.00000000000E+00 0.  1.
         25    2    1    2    0    0  0.23404090547E+02  0.24083901979E+02  0.64743488546E+01  0.12968121401E+03  0.12509002472E+03 0.  0.
          5    1    3    3  502    0  0.36554609441E+02  0.65082876376E+02 -0.21951265212E+02  0.77918872638E+02  0.41800000000E+01 0. -1.
         -5    1    3    3    0  502 -0.13150518894E+02 -0.40998974397E+02  0.28425614066E+02  0.51762341368E+02  0.41800000000E+01 0. -1.
        -11    1    1    2    0    0 -0.13143407565E+02  0.29010733488E+02 -0.31224414253E+02  0.44601971541E+02  0.00000000000E+00 0.  1.
         11    1    1    2    0    0 -0.10260682981E+02 -0.53094635466E+02  0.78590412266E+01  0.54645095476E+02  0.00000000000E+00 0. -1.
</event>
<event>
 7    1  0.2749315E-009  0.7108430E+02  0.7561462E-02  0.1356444E+00
         -1   -1    0    0    0  501 -0.00000000000E+00  0.00000000000E+00  0.42409610134E+02  0.42409610134E+02  0.00000000000E+00 0.  1.
          1   -1    0    0  501    0  0.00000000000E+00 -0.00000000000E+00 -0.32545888325E+03  0.32545888325E+03  0.00000000000E+00 0. -1.
         25    2    1    2    0    0  0.12778329537E+02  0.14666691382E+02 -0.22598222494E+03  0.25902488339E+03  0.12509007427E+03 0.  0.
          5    1    3    3  502    0  0.72173536015E+01 -0.19490937866E+02 -0.22303644593E+03  0.22404177170E+03  0.41800000000E+01 0. -1.
         -5    1    3    3    0  502  0.55609759356E+01  0.34157629248E+02 -0.29457790077E+01  0.34983111685E+02  0.41800000000E+01 0. -1.
        -11    1    1    2    0    0  0.29797699430E+02  0.15826495004E+02 -0.34844781029E+01  0.33919351749E+02  0.00000000000E+00 0.  1.
         11    1    1    2    0    0 -0.42576028967E+02 -0.30493186387E+02 -0.53582570067E+02  0.74924258245E+02  0.00000000000E+00 0. -1.
</event>
<event>
 7    1  0.2749315E-009  0.2062355E+03  0.7561462E-02  0.1144582E+00
          2   -1    0    0  501    0  0.00000000000E+00  0.00000000000E+00  0.89162301974E+03  0.89162301974E+03  0.00000000000E+00 0. -1.
         -2   -1    0    0    0  501 -0.00000000000E+00 -0.00000000000E+00 -0.68232364310E+02  0.68232364310E+02  0.00000000000E+00 0.  1.
         25    2    1    2    0    0  0.10658719124E+03  0.14460942427E+03  0.17351158102E+03  0.27933405306E+03  0.12509408270E+03 0.  0.
          5    1    3    3  502    0 -0.27709107502E+02  0.27900113455E+02  0.20054554664E+02  0.44338116019E+02  0.41800000000E+01 0. -1.
         -5    1    3    3    0  502  0.13429629874E+03  0.11670931082E+03  0.15345702636E+03  0.23499593704E+03  0.41800000000E+01 0. -1.
        -11    1    1    2    0    0 -0.53893816701E+02 -0.12930154651E+03  0.37710714646E+03  0.40228501503E+03  0.00000000000E+00 0.  1.
         11    1    1    2    0    0 -0.52693374538E+02 -0.15307877761E+02  0.27277192795E+03  0.27823631596E+03  0.00000000000E+00 0. -1.
</event>
<event>
 7    1  0.2749315E-009  0.1106314E+03  0.7561462E-02  0.1259405E+00
          2   -1    0    0  501    0  0.00000000000E+00  0.00000000000E+00  0.12233958403E+04  0.12233958403E+04  0.00000000000E+00 0. -1.
         -2   -1    0    0    0  501 -0.00000000000E+00 -0.00000000000E+00 -0.15533071148E+02  0.15533071148E+02  0.00000000000E+00 0.  1.
         25    2    1    2    0    0 -0.75644081869E+02  0.70260721775E+01  0.80713684176E+03  0.82029797403E+03  0.12508993587E+03 0.  0.
          5    1    3    3  502    0  0.31850640494E+01 -0.16976894506E+02  0.54917131226E+03  0.54945879026E+03  0.41800000000E+01 0.  1.
         -5    1    3    3    0  502 -0.78829145918E+02  0.24002966684E+02  0.25796552950E+03  0.27083918377E+03  0.41800000000E+01 0.  1.
        -11    1    1    2    0    0  0.87285562565E+02 -0.32368769786E+02  0.31656666403E+03  0.32997114944E+03  0.00000000000E+00 0.  1.
         11    1    1    2    0    0 -0.11641480696E+02  0.25342697609E+02  0.84159263389E+02  0.88659788004E+02  0.00000000000E+00 0. -1.
</event>
<event>
 7    1  0.3636189E-009  0.1108142E+03  0.7561462E-02  0.1259070E+00
         -1   -1    0    0    0  501 -0.00000000000E+00  0.00000000000E+00  0.57617679804E+02  0.57617679804E+02  0.00000000000E+00 0.  1.
          1   -1    0    0  501    0  0.00000000000E+00 -0.00000000000E+00 -0.32667644819E+03  0.32667644819E+03  0.00000000000E+00 0. -1.
         25    2    1    2    0    0 -0.68825369984E+02 -0.42963908098E+02 -0.17628419118E+03  0.23087936766E+03  0.12508532048E+03 0.  0.
          5    1    3    3  502    0 -0.59924234582E+02  0.17776705412E+01 -0.17502249896E+03  0.18505248321E+03  0.41800000000E+01 0.  1.
         -5    1    3    3    0  502 -0.89011354014E+01 -0.44741578639E+02 -0.12616922207E+01  0.45826884444E+02  0.41800000000E+01 0.  1.
        -11    1    1    2    0    0  0.27018357028E+00  0.47045312203E+02 -0.14383764437E+02  0.49195803468E+02  0.00000000000E+00 0.  1.
         11    1    1    2    0    0  0.68555186413E+02 -0.40814041053E+01 -0.78390812771E+02  0.10421895687E+03  0.00000000000E+00 0. -1.
</event>
<event>
 7    1  0.2749315E-009  0.1142651E+03  0.7561462E-02  0.1252869E+00
         -1   -1    0    0    0  501 -0.00000000000E+00  0.00000000000E+00  0.14791348523E+03  0.14791348523E+03  0.00000000000E+00 0.  1.
          1   -1    0    0  501    0  0.00000000000E+00 -0.00000000000E+00 -0.99497553116E+02  0.99497553116E+02  0.00000000000E+00 0. -1.
         25    2    1    2    0    0  0.51501712151E+02 -0.45150732581E+01  0.42651350785E+02  0.14191571890E+03  0.12509245103E+03 0.  0.
          5    1    3    3  502    0  0.27509020574E+01  0.56254741915E+02  0.25829199209E+02  0.62103006222E+02  0.41800000000E+01 0.  1.
         -5    1    3    3    0  502  0.48750810093E+02 -0.60769815173E+02  0.16822151576E+02  0.79812712675E+02  0.41800000000E+01 0.  1.
        -11    1    1    2    0    0  0.20031334417E+02 -0.77089043823E+01 -0.19153023799E+02  0.28766645372E+02  0.00000000000E+00 0. -1.
         11    1    1    2    0    0 -0.71533046568E+02  0.12223977640E+02  0.24917605131E+02  0.76728674080E+02  0.00000000000E+00 0.  1.
</event>
<event>
 7    1  0.2749315E-009  0.9734335E+02  0.7561462E-02  0.1285984E+00
          1   -1    0    0  501    0  0.00000000000E+00  0.00000000000E+00  0.80610557592E+02  0.80610557592E+02  0.00000000000E+00 0. -1.
         -1   -1    0    0    0  501 -0.00000000000E+00 -0.00000000000E+00 -0.18193916498E+03  0.18193916498E+03  0.00000000000E+00 0.  1.
         25    2    1    2    0    0 -0.25581426992E+02  0.33730360660E+02 -0.17872348780E+02  0.13326632926E+03  0.12509335325E+03 0.  0.
          5    1    3    3  502    0 -0.73394969323E+02  0.24971390714E+02 -0.29595834855E+02  0.83088974701E+02  0.41800000000E+01 0. -1.
         -5    1    3    3    0  502  0.47813542331E+02  0.87589699451E+01  0.11723486075E+02  0.50177354558E+02  0.41800000000E+01 0. -1.
        -11    1    1    2    0    0 -0.16670681066E+02 -0.59905056428E+01 -0.76186537563E+02  0.78218835781E+02  0.00000000000E+00 0.  1.
         11    1    1    2    0    0  0.42252108058E+02 -0.27739855017E+02 -0.72697210417E+01  0.51064557530E+02  0.00000000000E+00 0. -1.
</event>
<event>
 7    1  0.2749315E-009  0.1513449E+03  0.7561462E-02  0.1198830E+00
          2   -1    0    0  501    0  0.00000000000E+00  0.00000000000E+00  0.17893789212E+04  0.17893789212E+04  0.00000000000E+00 0.  1.
         -2   -1    0    0    0  501 -0.00000000000E+00 -0.00000000000E+00 -0.17291066456E+02  0.17291066456E+02  0.00000000000E+00 0. -1.
         25    2    1    2    0    0 -0.18934882167E+02  0.10737434062E+03  0.13958162803E+04  0.14056465755E+04  0.12510566744E+03 0.  0.
          5    1    3    3  502    0 -0.98070171862E+01  0.13557409733E+03  0.11348280773E+04  0.11429473964E+04  0.41800000000E+01 0. -1.
         -5    1    3    3    0  502 -0.91278649804E+01 -0.28199756713E+02  0.26098820301E+03  0.26269917912E+03  0.41800000000E+01 0. -1.
        -11    1    1    2    0    0 -0.88971028913E+01 -0.10854310616E+03  0.26939095773E+03  0.29057228436E+03  0.00000000000E+00 0. -1.
         11    1    1    2    0    0  0.27831985058E+02  0.11687655470E+01  0.10688061676E+03  0.11045112786E+03  0.00000000000E+00 0.  1.
</event>
<event>
 7    1  0.2749315E-009  0.2201575E+03  0.7561462E-02  0.1133766E+00
          1   -1    0    0  501    0  0.00000000000E+00  0.00000000000E+00  0.10489153126E+03  0.10489153126E+03  0.00000000000E+00 0. -1.
         -1   -1    0    0    0  501 -0.00000000000E+00 -0.00000000000E+00 -0.80949217664E+03  0.80949217664E+03  0.00000000000E+00 0.  1.
         25    2    1    2    0    0  0.13246468315E+03 -0.16724159479E+03 -0.61986036949E+03  0.66737718863E+03  0.12509512751E+03 0.  0.
          5    1    3    3  502    0  0.28474398411E+00  0.70357193971E+01 -0.13726907153E+03  0.13751310056E+03  0.41800000000E+01 0. -1.
         -5    1    3    3    0  502  0.13217993917E+03 -0.17427731419E+03 -0.48259129796E+03  0.52986408807E+03  0.41800000000E+01 0. -1.
        -11    1    1    2    0    0 -0.10666182447E+03  0.13355051772E+03 -0.23536131218E+02  0.17252951937E+03  0.00000000000E+00 0. -1.
         11    1    1    2    0    0 -0.25802858685E+02  0.33691077073E+02 -0.61204144662E+02  0.74476999903E+02  0.00000000000E+00 0.  1.
</event>
<event>
 7    1  0.3189965E-009  0.1511052E+03  0.7561462E-02  0.1199121E+00
          3   -1    0    0  501    0  0.00000000000E+00  0.00000000000E+00  0.77788835017E+03  0.77788835017E+03  0.00000000000E+00 0. -1.
         -3   -1    0    0    0  501 -0.00000000000E+00 -0.00000000000E+00 -0.34994820980E+02  0.34994820980E+02  0.00000000000E+00 0.  1.
         25    2    1    2    0    0 -0.12248125608E+03  0.18260480894E+01  0.34650693761E+03  0.38822659063E+03  0.12509130794E+03 0.  0.
          5    1    3    3  502    0 -0.14767591908E+03  0.63391206532E+01  0.27626832159E+03  0.31335286729E+03  0.41800000000E+01 0.  1.
         -5    1    3    3    0  502  0.25194662992E+02 -0.45130725639E+01  0.70238616014E+02  0.74873723340E+02  0.41800000000E+01 0.  1.
        -11    1    1    2    0    0  0.55306618853E+02 -0.20005347477E+02  0.72388806914E+02  0.93269370015E+02  0.00000000000E+00 0.  1.
         11    1    1    2    0    0  0.67174637232E+02  0.18179299388E+02  0.32399778467E+03  0.33138721051E+03  0.00000000000E+00 0. -1.
</event>
<event>
 7    1  0.2749315E-009  0.1301149E+03  0.7561462E-02  0.1227285E+00
         -2   -1    0    0    0  501 -0.00000000000E+00  0.00000000000E+00  0.58021784666E+03  0.58021784666E+03  0.00000000000E+00 0.  1.
          2   -1    0    0  501    0  0.00000000000E+00 -0.00000000000E+00 -0.41289971480E+02  0.41289971480E+02  0.00000000000E+00 0. -1.
         25    2    1    2    0    0 -0.69698629488E+02  0.82086355124E+02  0.24811738774E+03  0.29800106618E+03  0.12508528569E+03 0.  0.
          5    1    3    3  502    0  0.13097391376E+02  0.41716187473E+02  0.13557798372E+02  0.45968122159E+02  0.41800000000E+01 0.  1.
         -5    1    3    3    0  502 -0.82796020864E+02  0.40370167650E+02  0.23455958936E+03  0.25203294402E+03  0.41800000000E+01 0.  1.
        -11    1    1    2    0    0  0.81283653015E+02 -0.74420869420E+02  0.28924308122E+03  0.30952715242E+03  0.00000000000E+00 0.  1.
         11    1    1    2    0    0 -0.11585023527E+02 -0.76654857037E+01  0.15674062287E+01  0.13979599547E+02  0.00000000000E+00 0. -1.
</event>
<event>
 7    1  0.2749315E-009  0.7303307E+02  0.7561462E-02  0.1350072E+00
          2   -1    0    0  501    0  0.00000000000E+00  0.00000000000E+00  0.58286433375E+02  0.58286433375E+02  0.00000000000E+00 0. -1.
         -2   -1    0    0    0  501 -0.00000000000E+00 -0.00000000000E+00 -0.22526525860E+03  0.22526525860E+03  0.00000000000E+00 0.  1.
         25    2    1    2    0    0  0.95322152959E+00 -0.27120552133E+02 -0.65220373293E+02  0.14365760803E+03  0.12508948106E+03 0.  0.
          5    1    3    3  502    0 -0.35308412691E+02 -0.20914661232E+02 -0.90069736551E+02  0.99066325780E+02  0.41800000000E+01 0.  1.
         -5    1    3    3    0  502  0.36261634220E+02 -0.62058909007E+01  0.24849363258E+02  0.44591282248E+02  0.41800000000E+01 0.  1.
        -11    1    1    2    0    0 -0.15786837313E+02  0.43151981752E+02 -0.10784068015E+03  0.11722171325E+03  0.00000000000E+00 0.  1.
         11    1    1    2    0    0  0.14833615783E+02 -0.16031429619E+02  0.60822282220E+01  0.22672370696E+02  0.00000000000E+00 0. -1.
</event>
<event>
 7    1  0.2749315E-009  0.1124916E+03  0.7561462E-02  0.1256024E+00
          1   -1    0    0  501    0  0.00000000000E+00  0.00000000000E+00  0.60231850121E+03  0.60231850121E+03  0.00000000000E+00 0. -1.
         -1   -1    0    0    0  501 -0.00000000000E+00 -0.00000000000E+00 -0.26905090827E+02  0.26905090827E+02  0.00000000000E+00 0.  1.
         25    2    1    2    0    0  0.56487761930E+02 -0.28466966319E+02  0.31244539011E+03  0.34244735443E+03  0.12508730285E+03 0.  0.
          5    1    3    3  502    0  0.54245832013E+02  0.42415824681E+02  0.16167770355E+03  0.17578072903E+03  0.41800000000E+01 0.  1.
         -5    1    3    3    0  502  0.22419299165E+01 -0.70882791000E+02  0.15076768656E+03  0.16666662540E+03  0.41800000000E+01 0.  1.
        -11    1    1    2    0    0  0.12383495061E+01 -0.13518600087E+02 -0.72344727963E+00  0.13594463350E+02  0.00000000000E+00 0.  1.
         11    1    1    2    0    0 -0.57726111436E+02  0.41985566405E+02  0.26369146756E+03  0.27318177426E+03  0.00000000000E+00 0. -1.
</event>
<event>
 7    1  0.2749315E-009  0.8978765E+02  0.7561462E-02  0.1303367E+00
          1   -1    0    0  501    0  0.00000000000E+00  0.00000000000E+00  0.16288443907E+03  0.16288443907E+03  0.00000000000E+00 0. -1.
         -1   -1    0    0    0  501 -0.00000000000E+00 -0.00000000000E+00 -0.76827575587E+02  0.76827575587E+02  0.00000000000E+00 0.  1.
         25    2    1    2    0    0  0.88160831271E+01  0.63930378406E+01  0.21828494429E+02  0.12744925386E+03  0.12509290502E+03 0.  0.
          5    1    3    3  502    0  0.34711801265E+02  0.35601193168E+02 -0.33140560658E+02  0.59900945425E+02  0.41800000000E+01 0.  1.
         -5    1    3    3    0  502 -0.25895718138E+02 -0.29208155327E+02  0.54969055088E+02  0.67548308437E+02  0.41800000000E+01 0.  1.
        -11    1    1    2    0    0 -0.39643757106E+02 -0.31521124866E+02  0.25319606040E+02  0.56624122424E+02  0.00000000000E+00 0.  1.
         11    1    1    2    0    0  0.30827673979E+02  0.25128087025E+02  0.38908763014E+02  0.55638638371E+02  0.00000000000E+00 0. -1.
</event>
<event>
 7    1  0.3583410E-009  0.1192054E+03  0.7561462E-02  0.1244414E+00
          2   -1    0    0  501    0  0.00000000000E+00  0.00000000000E+00  0.59030310609E+03  0.59030310609E+03  0.00000000000E+00 0. -1.
         -2   -1    0    0    0  501 -0.00000000000E+00 -0.00000000000E+00 -0.28790295491E+02  0.28790295491E+02  0.00000000000E+00 0.  1.
         25    2    1    2    0    0  0.28311658865E+02 -0.66350849692E+02  0.31878637257E+03  0.34996611409E+03  0.12509014508E+03 0.  0.
          5    1    3    3  502    0  0.74697012538E+02 -0.24421599074E+02  0.14125295198E+03  0.16169702232E+03  0.41800000000E+01 0. -1.
         -5    1    3    3    0  502 -0.46385353674E+02 -0.41929250618E+02  0.17753342059E+03  0.18826909178E+03  0.41800000000E+01 0. -1.
        -11    1    1    2    0    0  0.17586818540E+02  0.40995486064E+02  0.18845399047E+03  0.19366164459E+03  0.00000000000E+00 0. -1.
         11    1    1    2    0    0 -0.45898477404E+02  0.25355363628E+02  0.54272447570E+02  0.75465642898E+02  0.00000000000E+00 0.  1.
</event>
<event>
 7    1  0.2749315E-009  0.8558506E+02  0.7561462E-02  0.1313910E+00
         -3   -1    0    0    0  501 -0.00000000000E+00  0.00000000000E+00  0.73399420167E+02  0.73399420167E+02  0.00000000000E+00 0.  1.
          3   -1    0    0  501    0  0.00000000000E+00 -0.00000000000E+00 -0.43891882020E+03  0.43891882020E+03  0.00000000000E+00 0. -1.
         25    2    1    2    0    0 -0.94146035826E+01 -0.19470534130E+02  0.68038080424E+01  0.12712289374E+03  0.12508477864E+03 0.  0.
          5    1    3    3  502    0  0.28360744956E+02 -0.20452246153E+02 -0.48546162366E+02  0.59973565074E+02  0.41800000000E+01 0. -1.
         -5    1    3    3    0  502 -0.37775348538E+02  0.98171202314E+00  0.55349970409E+02  0.67149328663E+02  0.41800000000E+01 0. -1.
        -11    1    1    2    0    0  0.25684696275E+02  0.53982651389E+02 -0.20257705234E+03  0.21121385468E+03  0.00000000000E+00 0. -1.
         11    1    1    2    0    0 -0.16270092693E+02 -0.34512117260E+02 -0.16974615573E+03  0.17398149195E+03  0.00000000000E+00 0.  1.
</event>
<event>
 7    1  0.2749315E-009  0.8107667E+02  0.7561462E-02  0.1326023E+00
          2   -1    0    0  501    0  0.00000000000E+00  0.00000000000E+00  0.36082214502E+03  0.36082214502E+03  0.00000000000E+00 0. -1.
         -2   -1    0    0    0  501 -0.00000000000E+00 -0.00000000000E+00 -0.42585184155E+02  0.42585184155E+02  0.00000000000E+00 0.  1.
         25    2    1    2    0    0  0.25961370867E+02  0.45092288733E+02  0.12493536075E+03  0.18428413861E+03  0.12507794408E+03 0.  0.
          5    1    3    3  502    0 -0.19174758844E+02  0.20691512518E+02  0.12949975190E+03  0.13260267044E+03  0.41800000000E+01 0. -1.
         -5    1    3    3    0  502  0.45136129711E+02  0.24400776215E+02 -0.45643911479E+01  0.51681468165E+02  0.41800000000E+01 0. -1.
        -11    1    1    2    0    0  0.20041805654E+02 -0.24772862686E+02  0.17676311183E+02  0.36439273821E+02  0.00000000000E+00 0.  1.
         11    1    1    2    0    0 -0.46003176521E+02 -0.20319426047E+02  0.17562528893E+03  0.18268391674E+03  0.00000000000E+00 0. -1.
</event>
<event>
 7    1  0.2749315E-009  0.1005500E+03  0.7561462E-02  0.1279144E+00
          1   -1    0    0  501    0  0.00000000000E+00  0.00000000000E+00  0.43266759443E+03  0.43266759443E+03  0.00000000000E+00 0. -1.
         -1   -1    0    0    0  501 -0.00000000000E+00 -0.00000000000E+00 -0.35797408347E+02  0.35797408347E+02  0.00000000000E+00 0.  1.
         25    2    1    2    0    0 -0.40091558024E+02 -0.20591503069E+02  0.29953466023E+03  0.32771643787E+03  0.12508280437E+03 0.  0.
          5    1    3    3  502    0  0.41126304817E+02 -0.14057227324E+02  0.56836771412E+02  0.71671958062E+02  0.41800000000E+01 0.  1.
         -5    1    3    3    0  502 -0.81217862841E+02 -0.65342757445E+01  0.24269788882E+03  0.25604447981E+03  0.41800000000E+01 0.  1.
        -11    1    1    2    0    0  0.50716254836E+02 -0.21360653961E+01  0.10317816615E+03  0.11498884837E+03  0.00000000000E+00 0. -1.
         11    1    1    2    0    0 -0.10624696811E+02  0.22727568465E+02 -0.58426402903E+01  0.25759716540E+02  0.00000000000E+00 0.  1.
</event>
<event>
 7    1  0.2749315E-009  0.7836332E+02  0.7561462E-02  0.1333761E+00
          1   -1    0    0  501    0  0.00000000000E+00  0.00000000000E+00  0.66999897112E+03  0.66999897112E+03  0.00000000000E+00 0. -1.
         -1   -1    0    0    0  501 -0.00000000000E+00 -0.00000000000E+00 -0.19134298889E+02  0.19134298889E+02  0.00000000000E+00 0.  1.
         25    2    1    2    0    0  0.37926907013E+01  0.15132481148E+02  0.46097894833E+03  0.47790438585E+03  0.12509050610E+03 0.  0.
          5    1    3    3  502    0 -0.17614820437E+02  0.31930392306E+02  0.44409432333E+03  0.44560865372E+03  0.41800000000E+01 0.  1.
         -5    1    3    3    0  502  0.21407511139E+02 -0.16797911158E+02  0.16884625003E+02  0.32295732131E+02  0.41800000000E+01 0.  1.
        -11    1    1    2    0    0  0.43481770771E+02 -0.24808751905E+01  0.92333779507E+02  0.10208989161E+03  0.00000000000E+00 0.  1.
         11    1    1    2    0    0 -0.47274461472E+02 -0.12651605958E+02  0.97551944389E+02  0.10913899255E+03  0.00000000000E+00 0. -1.
</event>
<event>
 7    1  0.2749315E-009  0.1117786E+03  0.7561462E-02  0.1257311E+00
          1   -1    0    0  501    0  0.00000000000E+00  0.00000000000E+00  0.45995258005E+02  0.45995258005E+02  0.00000000000E+00 0. -1.
         -1   -1    0    0    0  501 -0.00000000000E+00 -0.00000000000E+00 -0.45258230138E+03  0.45258230138E+03  0.00000000000E+00 0.  1.
         25    2    1    2    0    0  0.68315656674E+02  0.22627467316E+02 -0.32590218419E+03  0.35642500219E+03  0.12509003678E+03 0.  0.
          5    1    3    3  502    0  0.26772121114E+02 -0.36684294970E+02 -0.23861218521E+03  0.24293153623E+03  0.41800000000E+01 0.  1.
         -5    1    3    3    0  502  0.41543535560E+02  0.59311762286E+02 -0.87289998980E+02  0.11349346595E+03  0.41800000000E+01 0.  1.
        -11    1    1    2    0    0 -0.21139026977E+02  0.28736963749E+02 -0.59303336541E+02  0.69206627370E+02  0.00000000000E+00 0.  1.
         11    1    1    2    0    0 -0.47176629697E+02 -0.51364431065E+02 -0.21381522649E+02  0.72945929831E+02  0.00000000000E+00 0. -1.
</event>
<event>
 7    1  0.3555916E-009  0.1328874E+03  0.7561462E-02  0.1223233E+00
          2   -1    0    0  501    0  0.00000000000E+00  0.00000000000E+00  0.26326188497E+03  0.26326188497E+03  0.00000000000E+00 0. -1.
         -2   -1    0    0    0  501 -0.00000000000E+00 -0.00000000000E+00 -0.86964333921E+02  0.86964333921E+02  0.00000000000E+00 0.  1.
         25    2    1    2    0    0 -0.10083887006E+03  0.13057531311E+02  0.12929914175E+03  0.20665383838E+03  0.12509422057E+03 0.  0.
          5    1    3    3  502    0 -0.12251562351E+03 -0.12143566475E+02  0.11979022293E+03  0.17182757090E+03  0.41800000000E+01 0.  1.
         -5    1    3    3    0  502  0.21676753446E+02  0.25201097787E+02  0.95089188225E+01  0.34826267483E+02  0.41800000000E+01 0.  1.
        -11    1    1    2    0    0  0.43226146157E+02 -0.25439842823E+02  0.64865232976E+02  0.81995022797E+02  0.00000000000E+00 0. -1.
         11    1    1    2    0    0  0.57612723907E+02  0.12382311512E+02 -0.17866823681E+02  0.61577357712E+02  0.00000000000E+00 0.  1.
</event>
<event>
 7    1  0.2749315E-009  0.1031384E+03  0.7561462E-02  0.1273831E+00
         -2   -1    0    0    0  501 -0.00000000000E+00  0.00000000000E+00  0.11492393181E+02  0.11492393181E+02  0.00000000000E+00 0.  1.
          2   -1    0    0  501    0  0.00000000000E+00 -0.00000000000E+00 -0.14901337849E+04  0.14901337849E+04  0.00000000000E+00 0. -1.
         25    2    1    2    0    0  0.28682096845E+02 -0.16890285390E+02 -0.12062548126E+04  0.12131802630E+04  0.12509089973E+03 0.  0.
          5    1    3    3  502    0  0.47011199741E+02 -0.63202900883E+02 -0.68124028148E+03  0.68579184386E+03  0.41800000000E+01 0.  1.
         -5    1    3    3    0  502 -0.18329102895E+02  0.46312615492E+02 -0.52501453108E+03  0.52738841911E+03  0.41800000000E+01 0.  1.
        -11    1    1    2    0    0  0.23345131348E+02  0.28039298209E+01 -0.21586323124E+02  0.31919062112E+02  0.00000000000E+00 0.  1.
         11    1    1    2    0    0 -0.52027228193E+02  0.14086355569E+02 -0.25080025602E+03  0.25652685299E+03  0.00000000000E+00 0. -1.
</event>
<event>
 7    1  0.2749315E-009  0.9502543E+02  0.7561462E-02  0.1291119E+00
          3   -1    0    0  501    0  0.00000000000E+00  0.00000000000E+00  0.50459483935E+03  0.50459483935E+03  0.00000000000E+00 0. -1.
         -3   -1    0    0    0  501 -0.00000000000E+00 -0.00000000000E+00 -0.31024689986E+02  0.31024689986E+02  0.00000000000E+00 0.  1.
         25    2    1    2    0    0 -0.50363758610E+02 -0.27986886150E+02  0.31705676884E+03  0.34567907777E+03  0.12509698702E+03 0.  0.
          5    1    3    3  502    0  0.13366632049E+02 -0.15565927474E+02  0.25469822387E+03  0.25555747415E+03  0.41800000000E+01 0.  1.
         -5    1    3    3    0  502 -0.63730390659E+02 -0.12420958676E+02  0.62358544971E+02  0.90121603619E+02  0.41800000000E+01 0.  1.
        -11    1    1    2    0    0 -0.38854227451E+01 -0.26721622933E+02  0.64538699251E+02  0.69959883813E+02  0.00000000000E+00 0. -1.
         11    1    1    2    0    0  0.54249181355E+02  0.54708509083E+02  0.91974681266E+02  0.11998056775E+03  0.00000000000E+00 0.  1.
</event>
<event>
 7    1  0.2749315E-009  0.1069299E+03  0.7561462E-02  0.1266363E+00
          1   -1    0    0  501    0  0.00000000000E+00  0.00000000000E+00  0.11576097876E+03  0.11576097876E+03  0.00000000000E+00 0. -1.
         -1   -1    0    0    0  501 -0.00000000000E+00 -0.00000000000E+00 -0.12073526941E+03  0.12073526941E+03  0.00000000000E+00 0.  1.
         25    2    1    2    0    0  0.10789733207E+01  0.15757871548E+02 -0.46593162777E+02  0.13441450012E+03  0.12508741074E+03 0.  0.
          5    1    3    3  502    0 -0.29280124408E+01 -0.53807882021E+02 -0.32908216067E+02  0.63279416157E+02  0.41800000000E+01 0.  1.
         -5    1    3    3    0  502  0.40069857614E+01  0.69565753569E+02 -0.13684946711E+02  0.71135083967E+02  0.41800000000E+01 0.  1.
        -11    1    1    2    0    0 -0.29114299557E+02 -0.42330714987E+02  0.10406283034E+02  0.52419677570E+02  0.00000000000E+00 0.  1.
         11    1    1    2    0    0  0.28035326236E+02  0.26572843439E+02  0.31212589098E+02  0.49662070475E+02  0.00000000000E+00 0. -1.
</event>
<event>
 7    1  0.2749315E-009  0.1283540E+03  0.7561462E-02  0.1229919E+00
          1   -1    0    0  501    0  0.00000000000E+00  0.00000000000E+00  0.60363139179E+03  0.60363139179E+03  0.00000000000E+00 0. -1.
         -1   -1    0    0    0  501 -0.00000000000E+00 -0.00000000000E+00 -0.36982783322E+02  0.36982783322E+02  0.00000000000E+00 0.  1.
         25    2    1    2    0    0  0.14379670008E+02 -0.81645113745E+02  0.43353450240E+03  0.45877268175E+03  0.12509000455E+03 0.  0.
          5    1    3    3  502    0 -0.51189528325E+02 -0.12660241616E+02  0.12140412474E+03  0.13242765357E+03  0.41800000000E+01 0. -1.
         -5    1    3    3    0  502  0.65569198333E+02 -0.68984872129E+02  0.31213037767E+03  0.32634502818E+03  0.41800000000E+01 0. -1.
        -11    1    1    2    0    0  0.28284454465E+02  0.25941229831E+02  0.93948686940E+02  0.10148553368E+03  0.00000000000E+00 0. -1.
         11    1    1    2    0    0 -0.42664124473E+02  0.55703883914E+02  0.39165419121E+02  0.80355959674E+02  0.00000000000E+00 0.  1.
</event>
<event>
 7    1  0.2749315E-009  0.7477434E+02  0.7561462E-02  0.1344571E+00
          2   -1    0    0  501    0  0.00000000000E+00  0.00000000000E+00  0.18618592094E+02  0.18618592094E+02  0.00000000000E+00 0. -1.
         -2   -1    0    0    0  501 -0.00000000000E+00 -0.00000000000E+00 -0.64150552508E+03  0.64150552508E+03  0.00000000000E+00 0.  1.
         25    2    1    2    0    0 -0.89069684942E+01  0.75978761624E+01 -0.31798251648E+03  0.34190278596E+03  0.12509025721E+03 0.  0.
          5    1    3    3  502    0 -0.32179979757E+02  0.11672606893E+02 -0.14396734531E+02  0.37370298554E+02  0.41800000000E+01 0.  1.
         -5    1    3    3    0  502  0.23273011263E+02 -0.40747307301E+01 -0.30358578195E+03  0.30453248741E+03  0.41800000000E+01 0.  1.
        -11    1    1    2    0    0 -0.40535101917E+02  0.24773196362E+01 -0.13226604661E+03  0.13836017738E+03  0.00000000000E+00 0.  1.
         11    1    1    2    0    0  0.49442070411E+02 -0.10075195799E+02 -0.17263836989E+03  0.17986115383E+03  0.00000000000E+00 0. -1.
</event>
<event>
 7    1  0.2749315E-009  0.1094504E+03  0.7561462E-02  0.1261591E+00
         -2   -1    0    0    0  501 -0.00000000000E+00  0.00000000000E+00  0.17978909780E+02  0.17978909780E+02  0.00000000000E+00 0. -1.
          2   -1    0    0  501    0  0.00000000000E+00 -0.00000000000E+00 -0.78179637282E+03  0.78179637282E+03  0.00000000000E+00 0.  1.
         25    2    1    2    0    0  0.41547694074E+02  0.12129731100E+02 -0.51512161719E+03  0.53185530357E+03  0.12508573930E+03 0.  0.
          5    1    3    3  502    0  0.60775783756E+02 -0.42423860988E+02 -0.30094808559E+03  0.30996887342E+03  0.41800000000E+01 0. -1.
         -5    1    3    3    0  502 -0.19228089682E+02  0.54553592088E+02 -0.21417353161E+03  0.22188643015E+03  0.41800000000E+01 0. -1.
        -11    1    1    2    0    0 -0.57001323649E+02  0.11776391740E+02 -0.93511599090E+02  0.11014650909E+03  0.00000000000E+00 0.  1.
         11    1    1    2    0    0  0.15453629575E+02 -0.23906122840E+02 -0.15518424675E+03  0.15777346994E+03  0.00000000000E+00 0. -1.
</event>
<event>
 7    1  0.2749315E-009  0.9323050E+02  0.7561462E-02  0.1295212E+00
         -1   -1    0    0    0  501 -0.00000000000E+00  0.00000000000E+00  0.10734597492E+02  0.10734597492E+02  0.00000000000E+00 0.  1.
          1   -1    0    0  501    0  0.00000000000E+00 -0.00000000000E+00 -0.16532451823E+04  0.16532451823E+04  0.00000000000E+00 0. -1.
         25    2    1    2    0    0  0.10863518444E+02  0.29831647377E+01 -0.13935763387E+04  0.13992247403E+04  0.12509175350E+03 0.  0.
          5    1    3    3  502    0 -0.38699685338E+02  0.32761384586E+02 -0.31417566443E+03  0.31826843150E+03  0.41800000000E+01 0.  1.
         -5    1    3    3    0  502  0.49563203782E+02 -0.29778219848E+02 -0.10794006742E+04  0.10809563088E+04  0.41800000000E+01 0.  1.
        -11    1    1    2    0    0  0.32225228448E+02  0.78815791108E+01 -0.17789632359E+03  0.18096321887E+03  0.00000000000E+00 0. -1.
         11    1    1    2    0    0 -0.43088746892E+02 -0.10864743848E+02 -0.71037922581E+02  0.83791820676E+02  0.00000000000E+00 0.  1.
</event>
<event>
 7    1  0.2749315E-009  0.1150056E+03  0.7561462E-02  0.1251571E+00
          1   -1    0    0  501    0  0.00000000000E+00  0.00000000000E+00  0.82076908695E+03  0.82076908695E+03  0.00000000000E+00 0. -1.
         -1   -1    0    0    0  501 -0.00000000000E+00 -0.00000000000E+00 -0.22874011393E+02  0.22874011393E+02  0.00000000000E+00 0.  1.
         25    2    1    2    0    0 -0.49648407309E+02  0.46678271125E+01  0.64059309837E+03  0.65459491333E+03  0.12509288519E+03 0.  0.
          5    1    3    3  502    0 -0.46169984066E+02 -0.51494532769E+02  0.23204499892E+03  0.24216875987E+03  0.41800000000E+01 0. -1.
         -5    1    3    3    0  502 -0.34784232433E+01  0.56162359882E+02  0.40854809944E+03  0.41242615346E+03  0.41800000000E+01 0. -1.
        -11    1    1    2    0    0  0.32234947833E+02  0.42889769724E+02  0.90649368654E+02  0.10533723105E+03  0.00000000000E+00 0. -1.
         11    1    1    2    0    0  0.17413459477E+02 -0.47557596836E+02  0.66652608533E+02  0.83710953955E+02  0.00000000000E+00 0.  1.
</event>
<event>
 7    1  0.2749315E-009  0.8580780E+02  0.7561462E-02  0.1313333E+00
          1   -1    0    0  501    0  0.00000000000E+00  0.00000000000E+00  0.16842102359E+03  0.16842102359E+03  0.00000000000E+00 0. -1.
         -1   -1    0    0    0  501 -0.00000000000E+00 -0.00000000000E+00 -0.72706417574E+02  0.72706417574E+02  0.00000000000E+00 0.  1.
         25    2    1    2    0    0 -0.20641959848E+02 -0.67862552681E-01  0.62948525396E+02  0.14154643129E+03  0.12508709066E+03 0.  0.
          5    1    3    3  502    0  0.14524612196E+02 -0.43389093842E+02 -0.12497620413E+02  0.47615551450E+02  0.41800000000E+01 0. -1.
         -5    1    3    3    0  502 -0.35166572044E+02  0.43321231290E+02  0.75446145809E+02  0.93930879838E+02  0.41800000000E+01 0. -1.
        -11    1    1    2    0    0  0.27798313558E+02  0.28846038318E+02 -0.15482155640E+02  0.42948076867E+02  0.00000000000E+00 0.  1.
         11    1    1    2    0    0 -0.71563537104E+01 -0.28778175765E+02  0.48248236256E+02  0.56632933004E+02  0.00000000000E+00 0. -1.
</event>
<event>
 7    1  0.2749315E-009  0.2237595E+03  0.7561462E-02  0.1131111E+00
         -1   -1    0    0    0  501 -0.00000000000E+00  0.00000000000E+00  0.27208367894E+03  0.27208367894E+03  0.00000000000E+00 0.  1.
          1   -1    0    0  501    0  0.00000000000E+00 -0.00000000000E+00 -0.21409833264E+03  0.21409833264E+03  0.00000000000E+00 0. -1.
         25    2    1    2    0    0  0.17402767755E+03  0.12161993164E+03 -0.74273407930E+01  0.24653637305E+03  0.12509187631E+03 0.  0.
          5    1    3    3  502    0  0.88624372792E+02  0.10386807487E+03  0.46024492710E+02  0.14414778097E+03  0.41800000000E+01 0.  1.
         -5    1    3    3    0  502  0.85403304761E+02  0.17751856770E+02 -0.53451833503E+02  0.10238859208E+03  0.41800000000E+01 0.  1.
        -11    1    1    2    0    0 -0.13523031254E+02 -0.42581607996E+02  0.37991190599E+02  0.58646366273E+02  0.00000000000E+00 0.  1.
         11    1    1    2    0    0 -0.16050464630E+03 -0.79038323646E+02  0.27421496498E+02  0.18099927226E+03  0.00000000000E+00 0. -1.
</event>
<event>
 7    1  0.2749315E-009  0.1684347E+03  0.7561462E-02  0.1179490E+00
         -1   -1    0    0    0  501 -0.00000000000E+00  0.00000000000E+00  0.17745607873E+03  0.17745607873E+03  0.00000000000E+00 0.  1.
          1   -1    0    0  501    0  0.00000000000E+00 -0.00000000000E+00 -0.22352684868E+03  0.22352684868E+03  0.00000000000E+00 0. -1.
         25    2    1    2    0    0  0.87191629897E+00  0.15449851389E+03  0.39771025808E+02  0.20273530440E+03  0.12509723467E+03 0.  0.
          5    1    3    3  502    0  0.42615513541E+02  0.34119923407E+02 -0.24485389260E+02  0.59977144438E+02  0.41800000000E+01 0. -1.
         -5    1    3    3    0  502 -0.41743597242E+02  0.12037859048E+03  0.64256415068E+02  0.14275815996E+03  0.41800000000E+01 0. -1.
        -11    1    1    2    0    0 -0.34049235729E+01 -0.53525233826E+02  0.14824244885E+02  0.55644428266E+02  0.00000000000E+00 0.  1.
         11    1    1    2    0    0  0.25330072740E+01 -0.10097328006E+03 -0.10066604065E+03  0.14260319475E+03  0.00000000000E+00 0. -1.
</event>
<event>
 7    1  0.2749315E-009  0.1986444E+03  0.7561462E-02  0.1150888E+00
          2   -1    0    0  501    0  0.00000000000E+00  0.00000000000E+00  0.94907582471E+02  0.94907582471E+02  0.00000000000E+00 0.  1.
         -2   -1    0    0    0  501 -0.00000000000E+00 -0.00000000000E+00 -0.49498883436E+03  0.49498883436E+03  0.00000000000E+00 0. -1.
         25    2    1    2    0    0  0.12376488032E+03  0.13665262421E+03 -0.16358000486E+03  0.27640147576E+03  0.12509065715E+03 0.  0.
          5    1    3    3  502    0  0.13901790646E+03  0.12332166124E+03 -0.17276415805E+03  0.25376985076E+03  0.41800000000E+01 0.  1.
         -5    1    3    3    0  502 -0.15253026136E+02  0.13330962971E+02  0.91841531982E+01  0.22631624997E+02  0.41800000000E+01 0.  1.
        -11    1    1    2    0    0 -0.13446351104E+02 -0.46036318762E+02 -0.15519041095E+02  0.50408210043E+02  0.00000000000E+00 0. -1.
         11    1    1    2    0    0 -0.11031852922E+03 -0.90616305451E+02 -0.22098220594E+03  0.26308673103E+03  0.00000000000E+00 0.  1.
</event>
<event>
 7    1  0.2749315E-009  0.1400780E+03  0.7561462E-02  0.1213224E+00
          2   -1    0    0  501    0  0.00000000000E+00  0.00000000000E+00  0.28180277241E+02  0.28180277241E+02  0.00000000000E+00 0. -1.
         -2   -1    0    0    0  501 -0.00000000000E+00 -0.00000000000E+00 -0.10275072700E+04  0.10275072700E+04  0.00000000000E+00 0.  1.
         25    2    1    2    0    0  0.85136466641E+02  0.90112672115E+02 -0.40468871625E+03  0.44134812470E+03  0.12508676383E+03 0.  0.
          5    1    3    3  502    0  0.78588920108E+02  0.71873074456E+02 -0.14017333355E+03  0.17609086584E+03  0.41800000000E+01 0. -1.
         -5    1    3    3    0  502  0.65475465328E+01  0.18239597659E+02 -0.26451538270E+03  0.26525725885E+03  0.41800000000E+01 0. -1.
        -11    1    1    2    0    0 -0.81295171896E+02 -0.20246033911E+02 -0.35034119438E+03  0.36021904356E+03  0.00000000000E+00 0.  1.
         11    1    1    2    0    0 -0.38412947451E+01 -0.69866638204E+02 -0.24429708215E+03  0.25412037900E+03  0.00000000000E+00 0. -1.
</event>
<event>
 7    1  0.2749315E-009  0.8305755E+02  0.7561462E-02  0.1320592E+00
          1   -1    0    0  501    0  0.00000000000E+00  0.00000000000E+00  0.15253599195E+02  0.15253599195E+02  0.00000000000E+00 0. -1.
         -1   -1    0    0    0  501 -0.00000000000E+00 -0.00000000000E+00 -0.91313257054E+03  0.91313257054E+03  0.00000000000E+00 0.  1.
         25    2    1    2    0    0 -0.31078721921E+02 -0.18934896691E+00 -0.61758266746E+03  0.63088986617E+03  0.12509096401E+03 0.  0.
          5    1    3    3  502    0  0.20294985847E+02  0.19986486955E+02 -0.33418240529E+02  0.44108925529E+02  0.41800000000E+01 0.  1.
         -5    1    3    3    0  502 -0.51373707768E+02 -0.20175835922E+02 -0.58416442694E+03  0.58678094064E+03  0.41800000000E+01 0.  1.
        -11    1    1    2    0    0  0.84884592842E+01  0.37450323073E+02 -0.21869985567E+03  0.22204550774E+03  0.00000000000E+00 0.  1.
         11    1    1    2    0    0  0.22590262636E+02 -0.37260974106E+02 -0.61596448208E+02  0.75450795815E+02  0.00000000000E+00 0. -1.
</event>
<event>
 7    1  0.2749315E-009  0.1396790E+03  0.7561462E-02  0.1213762E+00
         -1   -1    0    0    0  501 -0.00000000000E+00  0.00000000000E+00  0.28739083452E+02  0.28739083452E+02  0.00000000000E+00 0.  1.
          1   -1    0    0  501    0  0.00000000000E+00 -0.00000000000E+00 -0.75475035397E+03  0.75475035397E+03  0.00000000000E+00 0. -1.
         25    2    1    2    0    0 -0.70808673903E+02  0.75022237592E+02 -0.45719940064E+03  0.48509870087E+03  0.12508898114E+03 0.  0.
          5    1    3    3  502    0  0.34588238237E+02  0.29699412832E+02 -0.10189606331E+03  0.11170801880E+03  0.41800000000E+01 0.  1.
         -5    1    3    3    0  502 -0.10539691214E+03  0.45322824760E+02 -0.35530333734E+03  0.37339068207E+03  0.41800000000E+01 0.  1.
        -11    1    1    2    0    0 -0.10408459513E+02 -0.50440716341E+01 -0.32626550077E+01  0.12017637280E+02  0.00000000000E+00 0.  1.
         11    1    1    2    0    0  0.81217133416E+02 -0.69978165958E+02 -0.26554921486E+03  0.28637309927E+03  0.00000000000E+00 0. -1.
</event>
<event>
 7    1  0.2749315E-009  0.1233257E+03  0.7561462E-02  0.1237709E+00
          1   -1    0    0  501    0  0.00000000000E+00  0.00000000000E+00  0.14331914304E+03  0.14331914304E+03  0.00000000000E+00 0. -1.
         -1   -1    0    0    0  501 -0.00000000000E+00 -0.00000000000E+00 -0.12076149548E+03  0.12076149548E+03  0.00000000000E+00 0.  1.
         25    2    1    2    0    0 -0.62758782446E+02  0.33172035855E+02  0.33618072577E+02  0.14771124812E+03  0.12509751908E+03 0.  0.
          5    1    3    3  502    0  0.29837774372E+02 -0.61143834994E+01  0.35576275182E+02  0.47019381332E+02  0.41800000000E+01 0. -1.
         -5    1    3    3    0  502 -0.92596556818E+02  0.39286419355E+02 -0.19582026048E+01  0.10069186679E+03  0.41800000000E+01 0. -1.
        -11    1    1    2    0    0  0.50989750801E+02  0.24361402502E+02 -0.11373887470E+02  0.57643715484E+02  0.00000000000E+00 0. -1.
         11    1    1    2    0    0  0.11769031645E+02 -0.57533438357E+02  0.31346244915E+00  0.58725674911E+02  0.00000000000E+00 0.  1.
</event>
<event>
 7    1  0.2749315E-009  0.1998474E+03  0.7561462E-02  0.1149868E+00
         -1   -1    0    0    0  501 -0.00000000000E+00  0.00000000000E+00  0.59343815653E+03  0.59343815653E+03  0.00000000000E+00 0.  1.
          1   -1    0    0  501    0  0.00000000000E+00 -0.00000000000E+00 -0.81930921784E+02  0.81930921784E+02  0.00000000000E+00 0. -1.
         25    2    1    2    0    0  0.16930052677E+03 -0.57598674969E+02  0.16011056591E+03  0.27067288906E+03  0.12509254109E+03 0.  0.
          5    1    3    3  502    0  0.83545537219E+02  0.35871421163E+02  0.59850497276E+02  0.10893195156E+03  0.41800000000E+01 0.  1.
         -5    1    3    3    0  502  0.85754989555E+02 -0.93470096132E+02  0.10026006863E+03  0.16174093751E+03  0.41800000000E+01 0.  1.
        -11    1    1    2    0    0 -0.94525557256E+02  0.15017108157E+02  0.26915551633E+03  0.28566639019E+03  0.00000000000E+00 0.  1.
         11    1    1    2    0    0 -0.74774969518E+02  0.42581566812E+02  0.82241152514E+02  0.11902979906E+03  0.00000000000E+00 0. -1.
</event>
<event>
 7    1  0.2749315E-009  0.1426342E+03  0.7561462E-02  0.1209828E+00
         -1   -1    0    0    0  501 -0.00000000000E+00  0.00000000000E+00  0.70008870502E+02  0.70008870502E+02  0.00000000000E+00 0.  1.
          1   -1    0    0  501    0  0.00000000000E+00 -0.00000000000E+00 -0.41171064152E+03  0.41171064152E+03  0.00000000000E+00 0. -1.
         25    2    1    2    0    0  0.10806546427E+03  0.63092912656E+02 -0.13233549866E+03  0.22095061462E+03  0.12509048605E+03 0.  0.
          5    1    3    3  502    0  0.11773932729E+03  0.76995351293E+02 -0.14288778412E+03  0.20056227103E+03  0.41800000000E+01 0. -1.
         -5    1    3    3    0  502 -0.96738630203E+01 -0.13902438637E+02  0.10552285462E+02  0.20388343588E+02  0.41800000000E+01 0. -1.
        -11    1    1    2    0    0 -0.22086692952E+02 -0.24049520858E+02 -0.13958788268E+03  0.14335612457E+03  0.00000000000E+00 0. -1.
         11    1    1    2    0    0 -0.85978771313E+02 -0.39043391799E+02 -0.69778389681E+02  0.11741277284E+03  0.00000000000E+00 0.  1.
</event>
<event>
 7    1  0.2749315E-009  0.1672217E+03  0.7561462E-02  0.1180776E+00
          4   -1    0    0  501    0  0.00000000000E+00  0.00000000000E+00  0.42741818539E+02  0.42741818539E+02  0.00000000000E+00 0. -1.
         -4   -1    0    0    0  501 -0.00000000000E+00 -0.00000000000E+00 -0.71461337684E+03  0.71461337684E+03  0.00000000000E+00 0.  1.
         25    2    1    2    0    0  0.41088584703E+02  0.13028762512E+03 -0.37511072775E+03  0.41835291272E+03  0.12509182411E+03 0.  0.
          5    1    3    3  502    0  0.58157725729E+02  0.24103976471E+02 -0.22477412955E+03  0.23346135539E+03  0.41800000000E+01 0. -1.
         -5    1    3    3    0  502 -0.17069141026E+02  0.10618364865E+03 -0.15033659819E+03  0.18489155733E+03  0.41800000000E+01 0. -1.
        -11    1    1    2    0    0 -0.34116877634E+02 -0.14418899353E+03 -0.27267177846E+03  0.31032938302E+03  0.00000000000E+00 0.  1.
         11    1    1    2    0    0 -0.69717070689E+01  0.13901368411E+02 -0.24089052092E+02  0.28672899641E+02  0.00000000000E+00 0. -1.
</event>
<event>
 7    1  0.2749315E-009  0.6287887E+02  0.7561462E-02  0.1386133E+00
          2   -1    0    0  501    0  0.00000000000E+00  0.00000000000E+00  0.22821416365E+04  0.22821416365E+04  0.00000000000E+00 0. -1.
         -2   -1    0    0    0  501 -0.00000000000E+00 -0.00000000000E+00 -0.91547811051E+01  0.91547811051E+01  0.00000000000E+00 0.  1.
         25    2    1    2    0    0 -0.33915346691E+02 -0.11055604131E+02  0.20483567344E+04  0.20524827975E+04  0.12509134896E+03 0.  0.
          5    1    3    3  502    0 -0.22827338738E+02  0.60331224073E+01  0.69560851426E+02  0.73577648854E+02  0.41800000000E+01 0. -1.
         -5    1    3    3    0  502 -0.11088007953E+02 -0.17088726538E+02  0.19787958830E+04  0.19789051486E+04  0.41800000000E+01 0. -1.
        -11    1    1    2    0    0  0.46013786452E+02 -0.18078577883E+02  0.14260011145E+03  0.15092678791E+03  0.00000000000E+00 0. -1.
         11    1    1    2    0    0 -0.12098439761E+02  0.29134182014E+02  0.82030009520E+02  0.87886832166E+02  0.00000000000E+00 0.  1.
</event>
<event>
 7    1  0.2749315E-009  0.1835885E+03  0.7561462E-02  0.1164375E+00
          1   -1    0    0  501    0  0.00000000000E+00  0.00000000000E+00  0.30137732375E+03  0.30137732375E+03  0.00000000000E+00 0. -1.
         -1   -1    0    0    0  501 -0.00000000000E+00 -0.00000000000E+00 -0.30874786174E+03  0.30874786174E+03  0.00000000000E+00 0.  1.
         25    2    1    2    0    0 -0.31867100080E+01  0.16764865584E+03 -0.23346123031E+03  0.31347710880E+03  0.12509006657E+03 0.  0.
          5    1    3    3  502    0 -0.74468179392E+01 -0.14052470071E+02  0.13667292603E+01  0.16500526094E+02  0.41800000000E+01 0.  1.
         -5    1    3    3    0  502  0.42601079313E+01  0.18170112591E+03 -0.23482795958E+03  0.29697658270E+03  0.41800000000E+01 0.  1.
        -11    1    1    2    0    0 -0.80388856518E+01 -0.10339784433E+03  0.63853728070E+02  0.12179095403E+03  0.00000000000E+00 0.  1.
         11    1    1    2    0    0  0.11225595660E+02 -0.64250811507E+02  0.16223696425E+03  0.17485712267E+03  0.00000000000E+00 0. -1.
</event>
<event>
 7    1  0.2749315E-009  0.1205159E+03  0.7561462E-02  0.1242248E+00
         -1   -1    0    0    0  501 -0.00000000000E+00  0.00000000000E+00  0.25471594837E+02  0.25471594837E+02  0.00000000000E+00 0.  1.
          1   -1    0    0  501    0  0.00000000000E+00 -0.00000000000E+00 -0.88385089047E+03  0.88385089047E+03  0.00000000000E+00 0. -1.
         25    2    1    2    0    0  0.67247545149E+02 -0.50671815340E+02 -0.64144627757E+03  0.65893177485E+03  0.12509153328E+03 0.  0.
          5    1    3    3  502    0  0.81129517505E+02  0.91133967494E+01 -0.25974588203E+03  0.27230579913E+03  0.41800000000E+01 0. -1.
         -5    1    3    3    0  502 -0.13881972356E+02 -0.59785212089E+02 -0.38170039555E+03  0.38662597572E+03  0.41800000000E+01 0. -1.
        -11    1    1    2    0    0 -0.16419838969E+02  0.43424712247E+02 -0.27140889486E+02  0.53776803806E+02  0.00000000000E+00 0.  1.
         11    1    1    2    0    0 -0.50827706179E+02  0.72471030922E+01 -0.18979212857E+03  0.19661390665E+03  0.00000000000E+00 0. -1.
</event>
<event>
 7    1  0.2749315E-009  0.9882496E+02  0.7561462E-02  0.1282786E+00
          1   -1    0    0  501    0  0.00000000000E+00  0.00000000000E+00  0.27635379190E+03  0.27635379190E+03  0.00000000000E+00 0. -1.
         -1   -1    0    0    0  501 -0.00000000000E+00 -0.00000000000E+00 -0.58650428020E+02  0.58650428020E+02  0.00000000000E+00 0.  1.
         25    2    1    2    0    0 -0.99021872080E+01 -0.17465256556E+02  0.55815526227E+02  0.13844104117E+03  0.12508980939E+03 0.  0.
          5    1    3    3  502    0 -0.10131187762E+01  0.51515460200E+02  0.44664797418E+01  0.51887290260E+02  0.41800000000E+01 0. -1.
         -5    1    3    3    0  502 -0.88890684318E+01 -0.68980716756E+02  0.51349046485E+02  0.86553750910E+02  0.41800000000E+01 0. -1.
        -11    1    1    2    0    0  0.38767118701E+02  0.25394971781E+02  0.18199243752E+02  0.49789622988E+02  0.00000000000E+00 0.  1.
         11    1    1    2    0    0 -0.28864931493E+02 -0.79297152254E+01  0.14368859390E+03  0.14677355577E+03  0.00000000000E+00 0. -1.
</event>
<event>
 7    1  0.2749315E-009  0.1190402E+03  0.7561462E-02  0.1244689E+00
         -4   -1    0    0    0  501 -0.00000000000E+00  0.00000000000E+00  0.26434543756E+03  0.26434543756E+03  0.00000000000E+00 0.  1.
          4   -1    0    0  501    0  0.00000000000E+00 -0.00000000000E+00 -0.11894891500E+03  0.11894891500E+03  0.00000000000E+00 0. -1.
         25    2    1    2    0    0 -0.38091346772E+02  0.43352841866E+02 -0.60436762885E+02  0.15043964854E+03  0.12509622675E+03 0.  0.
          5    1    3    3  502    0 -0.53037719336E+02 -0.30624633298E+02 -0.19113578904E+02  0.64293616600E+02  0.41800000000E+01 0. -1.
         -5    1    3    3    0  502  0.14946372564E+02  0.73977475164E+02 -0.41323183981E+02  0.86146031939E+02  0.41800000000E+01 0. -1.
        -11    1    1    2    0    0 -0.26138567241E+02 -0.19414430624E+02  0.11209522574E+03  0.11672825042E+03  0.00000000000E+00 0.  1.
         11    1    1    2    0    0  0.64229914013E+02 -0.23938411242E+02  0.93738059714E+02  0.11612645360E+03  0.00000000000E+00 0. -1.
</event>
<event>
 7    1  0.2749315E-009  0.9987462E+02  0.7561462E-02  0.1280560E+00
         -1   -1    0    0    0  501 -0.00000000000E+00  0.00000000000E+00  0.91446243472E+02  0.91446243472E+02  0.00000000000E+00 0.  1.
          1   -1    0    0  501    0  0.00000000000E+00 -0.00000000000E+00 -0.13859091445E+03  0.13859091445E+03  0.00000000000E+00 0. -1.
         25    2    1    2    0    0  0.10749888636E+02  0.27687775130E+02 -0.10399723190E+02  0.12898955298E+03  0.12509187639E+03 0.  0.
          5    1    3    3  502    0  0.59130362292E+02 -0.94319397061E+00 -0.33467707493E+02  0.68079726825E+02  0.41800000000E+01 0. -1.
         -5    1    3    3    0  502 -0.48380473656E+02  0.28630969100E+02  0.23067984303E+02  0.60909826158E+02  0.41800000000E+01 0. -1.
        -11    1    1    2    0    0 -0.30458846097E+01  0.27852795881E+02  0.81905601086E+01  0.29191452967E+02  0.00000000000E+00 0.  1.
         11    1    1    2    0    0 -0.77040040262E+01 -0.55540571011E+02 -0.44935507896E+02  0.71856151971E+02  0.00000000000E+00 0. -1.
</event>
<event>
 7    1  0.2749315E-009  0.9084948E+02  0.7561462E-02  0.1300808E+00
          4   -1    0    0  501    0  0.00000000000E+00  0.00000000000E+00  0.36818494471E+03  0.36818494471E+03  0.00000000000E+00 0. -1.
         -4   -1    0    0    0  501 -0.00000000000E+00 -0.00000000000E+00 -0.43925915908E+02  0.43925915908E+02  0.00000000000E+00 0.  1.
         25    2    1    2    0    0 -0.31463721261E+02 -0.28955562202E+02  0.98110411991E+02  0.16462394839E+03  0.12508797347E+03 0.  0.
          5    1    3    3  502    0 -0.48633430910E+02  0.21757645825E+02  0.97187638846E+02  0.11091219635E+03  0.41800000000E+01 0. -1.
         -5    1    3    3    0  502  0.17169709649E+02 -0.50713208027E+02  0.92277314523E+00  0.53711752048E+02  0.41800000000E+01 0. -1.
        -11    1    1    2    0    0 -0.15768140776E+02  0.21613065475E+02  0.14345302082E+02  0.30356985268E+02  0.00000000000E+00 0.  1.
         11    1    1    2    0    0  0.47231862037E+02  0.73424967275E+01  0.21180331473E+03  0.21712992696E+03  0.00000000000E+00 0. -1.
</event>
<event>
 7    1  0.2749315E-009  0.9868720E+02  0.7561462E-02  0.1283081E+00
         -2   -1    0    0    0  501 -0.00000000000E+00  0.00000000000E+00  0.81651733133E+01  0.81651733133E+01  0.00000000000E+00 0.  1.
          2   -1    0    0  501    0  0.00000000000E+00 -0.00000000000E+00 -0.23804279404E+04  0.23804279404E+04  0.00000000000E+00 0. -1.
         25    2    1    2    0    0 -0.64410780297E+01 -0.29847228943E+02 -0.19494270788E+04  0.19536748539E+04  0.12508858814E+03 0.  0.
          5    1    3    3  502    0 -0.42375189784E+02 -0.40173639748E+02 -0.17339657618E+04  0.17349536920E+04  0.41800000000E+01 0. -1.
         -5    1    3    3    0  502  0.35934111754E+02  0.10326410805E+02 -0.21546131699E+03  0.21872116191E+03  0.41800000000E+01 0. -1.
        -11    1    1    2    0    0 -0.22290741218E+02 -0.28495449825E+02 -0.12940052040E+03  0.13436280171E+03  0.00000000000E+00 0.  1.
         11    1    1    2    0    0  0.28731819248E+02  0.58342678768E+02 -0.29343516790E+03  0.30055545805E+03  0.00000000000E+00 0. -1.
</event>
<event>
 7    1  0.2749315E-009  0.7716485E+02  0.7561462E-02  0.1337295E+00
         -1   -1    0    0    0  501 -0.00000000000E+00  0.00000000000E+00  0.18312075069E+03  0.18312075069E+03  0.00000000000E+00 0.  1.
          1   -1    0    0  501    0  0.00000000000E+00 -0.00000000000E+00 -0.87474031759E+02  0.87474031759E+02  0.00000000000E+00 0. -1.
         25    2    1    2    0    0 -0.23368492274E+02 -0.46880971719E+02  0.12579964024E+02  0.13619537572E+03  0.12508802074E+03 0.  0.
          5    1    3    3  502    0 -0.32208618728E+02 -0.88294275292E+01 -0.51208220533E+02  0.61278937336E+02  0.41800000000E+01 0.  1.
         -5    1    3    3    0  502  0.88401264543E+01 -0.38051544190E+02  0.63788184556E+02  0.74916438383E+02  0.41800000000E+01 0.  1.
        -11    1    1    2    0    0  0.36981497217E+02  0.54440339653E+02  0.94445062013E+02  0.11511408018E+03  0.00000000000E+00 0.  1.
         11    1    1    2    0    0 -0.13613004944E+02 -0.75593679335E+01 -0.11378307110E+02  0.19285326542E+02  0.00000000000E+00 0. -1.
</event>
<event>
 7    1  0.2749315E-009  0.1472213E+03  0.7561462E-02  0.1203930E+00
          1   -1    0    0  501    0  0.00000000000E+00  0.00000000000E+00  0.10423403945E+04  0.10423403945E+04  0.00000000000E+00 0. -1.
         -1   -1    0    0    0  501 -0.00000000000E+00 -0.00000000000E+00 -0.30904536323E+02  0.30904536323E+02  0.00000000000E+00 0.  1.
         25    2    1    2    0    0 -0.10748075595E+03 -0.63833501851E+02  0.32868578444E+03  0.37324128448E+03  0.12509149725E+03 0.  0.
          5    1    3    3  502    0 -0.72156515093E+02 -0.73981225783E+02  0.31850327658E+03  0.33487549034E+03  0.41800000000E+01 0.  1.
         -5    1    3    3    0  502 -0.35324240856E+02  0.10147723932E+02  0.10182507857E+02  0.38365794131E+02  0.41800000000E+01 0.  1.
        -11    1    1    2    0    0  0.10998652047E+03  0.22060468077E+02  0.47305010614E+03  0.48616879976E+03  0.00000000000E+00 0.  1.
         11    1    1    2    0    0 -0.25057645254E+01  0.41773033774E+02  0.20969996760E+03  0.21383484660E+03  0.00000000000E+00 0. -1.
</event>
<event>
 7    1  0.2749315E-009  0.8753163E+02  0.7561462E-02  0.1308942E+00
          3   -1    0    0  501    0  0.00000000000E+00  0.00000000000E+00  0.13897439976E+03  0.13897439976E+03  0.00000000000E+00 0. -1.
         -3   -1    0    0    0  501 -0.00000000000E+00 -0.00000000000E+00 -0.11133999944E+03  0.11133999944E+03  0.00000000000E+00 0.  1.
         25    2    1    2    0    0 -0.20663450721E+02 -0.44653100422E+02  0.51887911898E+02  0.14408236556E+03  0.12508595082E+03 0.  0.
          5    1    3    3  502    0 -0.12615855340E+02 -0.71681834005E+02 -0.12220456059E+02  0.73920613354E+02  0.41800000000E+01 0. -1.
         -5    1    3    3    0  502 -0.80475953809E+01  0.27028733583E+02  0.64108367957E+02  0.70161752206E+02  0.41800000000E+01 0. -1.
        -11    1    1    2    0    0  0.34921979123E+02  0.10227662255E+02 -0.49343944691E+02  0.61310476908E+02  0.00000000000E+00 0.  1.
         11    1    1    2    0    0 -0.14258528403E+02  0.34425438167E+02  0.25090433116E+02  0.44921556731E+02  0.00000000000E+00 0. -1.
</event>
<event>
 7    1  0.2749315E-009  0.7798045E+02  0.7561462E-02  0.1334882E+00
          2   -1    0    0  501    0  0.00000000000E+00  0.00000000000E+00  0.59900770890E+03  0.59900770890E+03  0.00000000000E+00 0. -1.
         -2   -1    0    0    0  501 -0.00000000000E+00 -0.00000000000E+00 -0.25210088821E+02  0.25210088821E+02  0.00000000000E+00 0.  1.
         25    2    1    2    0    0  0.19437499453E+02  0.51050792225E+02  0.35502165838E+03  0.38035505975E+03  0.12508234804E+03 0.  0.
          5    1    3    3  502    0  0.13760601497E+02  0.27045660215E+02  0.35399214299E+03  0.35531497519E+03  0.41800000000E+01 0.  1.
         -5    1    3    3    0  502  0.56768979564E+01  0.24005132010E+02  0.10295153837E+01  0.25040084568E+02  0.41800000000E+01 0.  1.
        -11    1    1    2    0    0 -0.12303317144E+02  0.22910911716E+02  0.10347627882E+03  0.10669405685E+03  0.00000000000E+00 0.  1.
         11    1    1    2    0    0 -0.71341823090E+01 -0.73961703941E+02  0.11529968288E+03  0.13716868111E+03  0.00000000000E+00 0. -1.
</event>
<event>
 7    1  0.2749315E-009  0.1202052E+03  0.7561462E-02  0.1242759E+00
          1   -1    0    0  501    0  0.00000000000E+00  0.00000000000E+00  0.42750467309E+03  0.42750467309E+03  0.00000000000E+00 0. -1.
         -1   -1    0    0    0  501 -0.00000000000E+00 -0.00000000000E+00 -0.58673423595E+02  0.58673423595E+02  0.00000000000E+00 0.  1.
         25    2    1    2    0    0  0.73736161892E+02  0.78037158327E+02  0.25848315730E+03  0.30657622063E+03  0.12509443152E+03 0.  0.
          5    1    3    3  502    0  0.80278963444E+01  0.47717709314E+02  0.21842023390E+03  0.22375499520E+03  0.41800000000E+01 0.  1.
         -5    1    3    3    0  502  0.65708265547E+02  0.30319449013E+02  0.40062923405E+02  0.82821225429E+02  0.41800000000E+01 0.  1.
        -11    1    1    2    0    0 -0.53355036317E+02 -0.18573067118E+02  0.47297272474E+01  0.56692936442E+02  0.00000000000E+00 0.  1.
         11    1    1    2    0    0 -0.20381125574E+02 -0.59464091209E+02  0.10561836494E+03  0.12290893961E+03  0.00000000000E+00 0. -1.
</event>
<event>
 7    1  0.2840107E-009  0.1108568E+03  0.7561462E-02  0.1258991E+00
         -3   -1    0    0    0  501 -0.00000000000E+00  0.00000000000E+00  0.14715909847E+03  0.14715909847E+03  0.00000000000E+00 0.  1.
          3   -1    0    0  501    0  0.00000000000E+00 -0.00000000000E+00 -0.14943671562E+03  0.14943671562E+03  0.00000000000E+00 0. -1.
         25    2    1    2    0    0  0.85133325124E+02 -0.40281006091E+02  0.34605989228E+02  0.16036383872E+03  0.12509493906E+03 0.  0.
          5    1    3    3  502    0  0.78537667160E+02  0.36406240324E+01 -0.27935815573E+02  0.83542213869E+02  0.41800000000E+01 0. -1.
         -5    1    3    3    0  502  0.65956579635E+01 -0.43921630123E+02  0.62541804801E+02  0.76821624849E+02  0.41800000000E+01 0. -1.
        -11    1    1    2    0    0 -0.33397164253E+02  0.31471729126E+02 -0.62736904210E+02  0.77728755710E+02  0.00000000000E+00 0. -1.
         11    1    1    2    0    0 -0.51736160871E+02  0.88092769643E+01  0.25853297828E+02  0.58503219662E+02  0.00000000000E+00 0.  1.
</event>
<event>
 7    1  0.2749315E-009  0.1529347E+03  0.7561462E-02  0.1196913E+00
          3   -1    0    0  501    0  0.00000000000E+00  0.00000000000E+00  0.15015784656E+03  0.15015784656E+03  0.00000000000E+00 0. -1.
         -3   -1    0    0    0  501 -0.00000000000E+00 -0.00000000000E+00 -0.20557227543E+03  0.20557227543E+03  0.00000000000E+00 0.  1.
         25    2    1    2    0    0 -0.10238334087E+03  0.65922627653E+02  0.36735267106E+02  0.17839538330E+03  0.12508913466E+03 0.  0.
          5    1    3    3  502    0 -0.65948192660E+02 -0.28014288491E+02  0.28474346936E+02  0.77215447342E+02  0.41800000000E+01 0.  1.
         -5    1    3    3    0  502 -0.36435148208E+02  0.93936916143E+02  0.82609201704E+01  0.10117993596E+03  0.41800000000E+01 0.  1.
        -11    1    1    2    0    0  0.78010394436E+02 -0.18865398524E+02 -0.94876380414E+02  0.12427007871E+03  0.00000000000E+00 0.  1.
         11    1    1    2    0    0  0.24372946431E+02 -0.47057229129E+02  0.27266844370E+01  0.53064659982E+02  0.00000000000E+00 0. -1.
</event>
<event>
 7    1  0.2749315E-009  0.2099713E+03  0.7561462E-02  0.1141589E+00
         -2   -1    0    0    0  501 -0.00000000000E+00  0.00000000000E+00  0.11396925115E+03  0.11396925115E+03  0.00000000000E+00 0. -1.
          2   -1    0    0  501    0  0.00000000000E+00 -0.00000000000E+00 -0.49255893908E+03  0.49255893908E+03  0.00000000000E+00 0.  1.
         25    2    1    2    0    0  0.15143777117E+03 -0.11048891499E+03 -0.31771770798E+03  0.38953185731E+03  0.12509727024E+03 0.  0.
          5    1    3    3  502    0 -0.79899879724E+01 -0.36022204425E+02 -0.16445876328E+02  0.40612539537E+02  0.41800000000E+01 0. -1.
         -5    1    3    3    0  502  0.15942775914E+03 -0.74466710561E+02 -0.30127183165E+03  0.34891931777E+03  0.41800000000E+01 0. -1.
        -11    1    1    2    0    0 -0.15934210114E+03  0.86008635953E+02 -0.61592011095E+02  0.19126151334E+03  0.00000000000E+00 0.  1.
         11    1    1    2    0    0  0.79043299759E+01  0.24480279033E+02  0.72003114728E+00  0.25734819579E+02  0.00000000000E+00 0. -1.
</event>
<event>
 7    1  0.2749315E-009  0.9342826E+02  0.7561462E-02  0.1294756E+00
         -2   -1    0    0    0  501 -0.00000000000E+00  0.00000000000E+00  0.11862919411E+03  0.11862919411E+03  0.00000000000E+00 0.  1.
          2   -1    0    0  501    0  0.00000000000E+00 -0.00000000000E+00 -0.12199320150E+03  0.12199320150E+03  0.00000000000E+00 0. -1.
         25    2    1    2    0    0 -0.13357512670E+02  0.39145062143E+02 -0.32655147520E+02  0.13573688746E+03  0.12508950764E+03 0.  0.
          5    1    3    3  502    0  0.17108596655E+02 -0.32000278524E+02  0.20374598484E+02  0.41824855870E+02  0.41800000000E+01 0.  1.
         -5    1    3    3    0  502 -0.30466109325E+02  0.71145340667E+02 -0.53029746004E+02  0.93912031590E+02  0.41800000000E+01 0.  1.
        -11    1    1    2    0    0  0.25735733781E+02  0.56504584041E+01  0.48024370745E+02  0.54777694903E+02  0.00000000000E+00 0.  1.
         11    1    1    2    0    0 -0.12378221111E+02 -0.44795520547E+02 -0.18733230615E+02  0.50107813245E+02  0.00000000000E+00 0. -1.
</event>
<event>
 7    1  0.2749315E-009  0.1228056E+03  0.7561462E-02  0.1238539E+00
         -2   -1    0    0    0  501 -0.00000000000E+00  0.00000000000E+00  0.18446058960E+03  0.18446058960E+03  0.00000000000E+00 0.  1.
          2   -1    0    0  501    0  0.00000000000E+00 -0.00000000000E+00 -0.25410586868E+03  0.25410586868E+03  0.00000000000E+00 0. -1.
         25    2    1    2    0    0  0.88581377495E+02  0.56447547222E+02  0.12100231899E+03  0.20327882258E+03  0.12509089687E+03 0.  0.
          5    1    3    3  502    0  0.78963353937E+02  0.72711214174E+02  0.13979650847E+03  0.17630277398E+03  0.41800000000E+01 0. -1.
         -5    1    3    3    0  502  0.96180235583E+01 -0.16263666952E+02 -0.18794189479E+02  0.26976048600E+02  0.41800000000E+01 0. -1.
        -11    1    1    2    0    0 -0.69089390570E+01 -0.33212807537E+02 -0.12038625456E+03  0.12507467493E+03  0.00000000000E+00 0. -1.
         11    1    1    2    0    0 -0.81672438438E+02 -0.23234739685E+02 -0.70261343517E+02  0.11021296077E+03  0.00000000000E+00 0.  1.
</event>
<event>
 7    1  0.2749315E-009  0.1848741E+03  0.7561462E-02  0.1163167E+00
          2   -1    0    0  501    0  0.00000000000E+00  0.00000000000E+00  0.30458277205E+02  0.30458277205E+02  0.00000000000E+00 0. -1.
         -2   -1    0    0    0  501 -0.00000000000E+00 -0.00000000000E+00 -0.19448844345E+04  0.19448844345E+04  0.00000000000E+00 0.  1.
         25    2    1    2    0    0 -0.15676761607E+03  0.68992901588E+01 -0.15964115783E+04  0.16089750489E+04  0.12508834849E+03 0.  0.
          5    1    3    3  502    0 -0.98579467965E+02  0.64302266806E+02 -0.85910564310E+03  0.86714051424E+03  0.41800000000E+01 0.  1.
         -5    1    3    3    0  502 -0.58188148102E+02 -0.57402976648E+02 -0.73730593521E+03  0.74183453465E+03  0.41800000000E+01 0.  1.
        -11    1    1    2    0    0  0.12320452482E+03 -0.33077599147E+02 -0.17116421716E+03  0.21347288290E+03  0.00000000000E+00 0.  1.
         11    1    1    2    0    0  0.33563091250E+02  0.26178308988E+02 -0.14685036183E+03  0.15289477991E+03  0.00000000000E+00 0. -1.
</event>
<event>
 7    1  0.2749315E-009  0.1250499E+03  0.7561462E-02  0.1234991E+00
          1   -1    0    0  501    0  0.00000000000E+00  0.00000000000E+00  0.61118269134E+03  0.61118269134E+03  0.00000000000E+00 0.  1.
         -1   -1    0    0    0  501 -0.00000000000E+00 -0.00000000000E+00 -0.40692938136E+02  0.40692938136E+02  0.00000000000E+00 0. -1.
         25    2    1    2    0    0 -0.22009200276E+02  0.77442922174E+02  0.46977648079E+03  0.49276728172E+03  0.12509133038E+03 0.  0.
          5    1    3    3  502    0 -0.59977933958E+02  0.88976369481E+02  0.37121776833E+03  0.38643790033E+03  0.41800000000E+01 0. -1.
         -5    1    3    3    0  502  0.37968733683E+02 -0.11533447307E+02  0.98558712462E+02  0.10632938139E+03  0.41800000000E+01 0. -1.
        -11    1    1    2    0    0  0.30975472536E+02 -0.69414718555E+01 -0.45824480513E+01  0.32072772885E+02  0.00000000000E+00 0. -1.
         11    1    1    2    0    0 -0.89662722605E+01 -0.70501450318E+02  0.10529572047E+03  0.12703557487E+03  0.00000000000E+00 0.  1.
</event>
<event>
 7    1  0.2749315E-009  0.1022845E+03  0.7561462E-02  0.1275564E+00
          2   -1    0    0  501    0  0.00000000000E+00  0.00000000000E+00  0.18958469127E+03  0.18958469127E+03  0.00000000000E+00 0.  1.
         -2   -1    0    0    0  501 -0.00000000000E+00 -0.00000000000E+00 -0.66914648476E+02  0.66914648476E+02  0.00000000000E+00 0. -1.
         25    2    1    2    0    0 -0.25430716248E+02 -0.98462562990E+01  0.70219926666E+02  0.14601980575E+03  0.12508907017E+03 0.  0.
          5    1    3    3  502    0 -0.36527871144E+02 -0.52049522115E+02  0.57636187724E+00  0.63727880208E+02  0.41800000000E+01 0.  1.
         -5    1    3    3    0  502  0.11097154896E+02  0.42203265816E+02  0.69643564789E+02  0.82291925539E+02  0.41800000000E+01 0.  1.
        -11    1    1    2    0    0  0.86163673120E+01  0.51432560637E+02  0.24407949021E+02  0.57578624982E+02  0.00000000000E+00 0.  1.
         11    1    1    2    0    0  0.16814348937E+02 -0.41586304338E+02  0.28042167104E+02  0.52900909015E+02  0.00000000000E+00 0. -1.
</event>
<event>
 7    1  0.2749315E-009  0.3271154E+03  0.7561462E-02  0.1072420E+00
          1   -1    0    0  501    0  0.00000000000E+00  0.00000000000E+00  0.14691078826E+04  0.14691078826E+04  0.00000000000E+00 0. -1.
         -1   -1    0    0    0  501 -0.00000000000E+00 -0.00000000000E+00 -0.86828363968E+02  0.86828363968E+02  0.00000000000E+00 0.  1.
         25    2    1    2    0    0 -0.31021289065E+03 -0.94171402803E+02  0.94302235126E+03  0.10050069578E+04  0.12509012567E+03 0.  0.
          5    1    3    3  502    0 -0.29014698060E+03 -0.70313550310E+02  0.91635510516E+03  0.96377041709E+03  0.41800000000E+01 0. -1.
         -5    1    3    3    0  502 -0.20065910054E+02 -0.23857852492E+02  0.26667246098E+02  0.41236540668E+02  0.41800000000E+01 0. -1.
        -11    1    1    2    0    0  0.22941771135E+03  0.70879496666E+02  0.26600632944E+03  0.35835144291E+03  0.00000000000E+00 0.  1.
         11    1    1    2    0    0  0.80795179298E+02  0.23291906137E+02  0.17325083797E+03  0.19257784594E+03  0.00000000000E+00 0. -1.
</event>
<event>
 7    1  0.2749315E-009  0.1007274E+03  0.7561462E-02  0.1278774E+00
          2   -1    0    0  501    0  0.00000000000E+00  0.00000000000E+00  0.27922988063E+03  0.27922988063E+03  0.00000000000E+00 0. -1.
         -2   -1    0    0    0  501 -0.00000000000E+00 -0.00000000000E+00 -0.54926108986E+02  0.54926108986E+02  0.00000000000E+00 0.  1.
         25    2    1    2    0    0  0.37022432476E+02  0.45893020883E+02  0.12201293670E+03  0.18441839975E+03  0.12508460966E+03 0.  0.
          5    1    3    3  502    0  0.45998770260E+02  0.68979805961E+02  0.13317429324E+03  0.15692981003E+03  0.41800000000E+01 0.  1.
         -5    1    3    3    0  502 -0.89763377838E+01 -0.23086785078E+02 -0.11161356539E+02  0.27488589725E+02  0.41800000000E+01 0.  1.
        -11    1    1    2    0    0 -0.17472280490E+02  0.18841718098E+02 -0.16350982671E+01  0.25748096488E+02  0.00000000000E+00 0.  1.
         11    1    1    2    0    0 -0.19550151986E+02 -0.64734738981E+02  0.10392593321E+03  0.12398949338E+03  0.00000000000E+00 0. -1.
</event>
<event>
 7    1  0.2749315E-009  0.7139308E+02  0.7561462E-02  0.1355419E+00
          1   -1    0    0  501    0  0.00000000000E+00  0.00000000000E+00  0.23942340263E+03  0.23942340263E+03  0.00000000000E+00 0. -1.
         -1   -1    0    0    0  501 -0.00000000000E+00 -0.00000000000E+00 -0.69252543548E+02  0.69252543548E+02  0.00000000000E+00 0.  1.
         25    2    1    2    0    0 -0.40156154518E+02 -0.37132816322E+02  0.44314629553E+02  0.14353274057E+03  0.12508596416E+03 0.  0.
          5    1    3    3  502    0  0.65606802138E+00 -0.37928112285E+02 -0.36556474571E+02  0.52847141454E+02  0.41800000000E+01 0. -1.
         -5    1    3    3    0  502 -0.40812222540E+02  0.79529596303E+00  0.80871104125E+02  0.90685599114E+02  0.41800000000E+01 0. -1.
        -11    1    1    2    0    0  0.39960762324E+02  0.16952272661E+02  0.13585452649E+03  0.14262080648E+03  0.00000000000E+00 0. -1.
         11    1    1    2    0    0  0.19539219444E+00  0.20180543660E+02 -0.99982969581E+01  0.22522399131E+02  0.00000000000E+00 0.  1.
</event>
<event>
 7    1  0.2749315E-009  0.1186124E+03  0.7561462E-02  0.1245404E+00
         -2   -1    0    0    0  501 -0.00000000000E+00  0.00000000000E+00  0.30530144845E+02  0.30530144845E+02  0.00000000000E+00 0.  1.
          2   -1    0    0  501    0  0.00000000000E+00 -0.00000000000E+00 -0.61947772723E+03  0.61947772723E+03  0.00000000000E+00 0. -1.
         25    2    1    2    0    0  0.49736771543E+02 -0.63221651589E+02 -0.37003077591E+03  0.39880012097E+03  0.12509211680E+03 0.  0.
          5    1    3    3  502    0  0.71170973623E+01 -0.71216345438E+02 -0.88389212110E+02  0.11380925336E+03  0.41800000000E+01 0.  1.
         -5    1    3    3    0  502  0.42619674181E+02  0.79946938492E+01 -0.28164156381E+03  0.28499086761E+03  0.41800000000E+01 0.  1.
        -11    1    1    2    0    0 -0.28759862877E+02 -0.20718962354E+02 -0.48348916103E+02  0.59950169325E+02  0.00000000000E+00 0.  1.
         11    1    1    2    0    0 -0.20976908666E+02  0.83940613943E+02 -0.17056789037E+03  0.19125758178E+03  0.00000000000E+00 0. -1.
</event>
<event>
 7    1  0.2749315E-009  0.1288030E+03  0.7561462E-02  0.1229243E+00
          2   -1    0    0  501    0  0.00000000000E+00  0.00000000000E+00  0.71789325698E+03  0.71789325698E+03  0.00000000000E+00 0. -1.
         -2   -1    0    0    0  501 -0.00000000000E+00 -0.00000000000E+00 -0.39414154873E+02  0.39414154873E+02  0.00000000000E+00 0.  1.
         25    2    1    2    0    0 -0.11764739717E+03 -0.43606936340E+02  0.39138556635E+03  0.42962027522E+03  0.12509374237E+03 0.  0.
          5    1    3    3  502    0 -0.51790260972E+02 -0.16525914174E+02  0.33302132192E+03  0.33745519736E+03  0.41800000000E+01 0.  1.
         -5    1    3    3    0  502 -0.65857136201E+02 -0.27081022166E+02  0.58364244423E+02  0.92165077862E+02  0.41800000000E+01 0.  1.
        -11    1    1    2    0    0  0.53012024093E+02  0.41082634133E+02  0.23574398238E+03  0.24509851642E+03  0.00000000000E+00 0. -1.
         11    1    1    2    0    0  0.64635373081E+02  0.25243022069E+01  0.51349553383E+02  0.82588620206E+02  0.00000000000E+00 0.  1.
</event>
<event>
 7    1  0.2749315E-009  0.1772807E+03  0.7561462E-02  0.1170461E+00
         -2   -1    0    0    0  501 -0.00000000000E+00  0.00000000000E+00  0.15805134452E+03  0.15805134452E+03  0.00000000000E+00 0.  1.
          2   -1    0    0  501    0  0.00000000000E+00 -0.00000000000E+00 -0.21404854360E+03  0.21404854360E+03  0.00000000000E+00 0. -1.
         25    2    1    2    0    0 -0.96071689008E+02  0.88696617284E+02 -0.63818363718E+01  0.18106169381E+03  0.12508297160E+03 0.  0.
          5    1    3    3  502    0 -0.93372360254E+02  0.23994739387E+01  0.62395437023E+01  0.93704639374E+02  0.41800000000E+01 0.  1.
         -5    1    3    3    0  502 -0.26993287542E+01  0.86297143345E+02 -0.12621380074E+02  0.87357054439E+02  0.41800000000E+01 0.  1.
        -11    1    1    2    0    0  0.11750866923E+03 -0.96249596048E+02 -0.19252719026E+02  0.15311087248E+03  0.00000000000E+00 0.  1.
         11    1    1    2    0    0 -0.21436980218E+02  0.75529787645E+01 -0.30362643685E+02  0.37927321822E+02  0.00000000000E+00 0. -1.
</event>
<event>
 7    1  0.2749315E-009  0.1338472E+03  0.7561462E-02  0.1221856E+00
         -1   -1    0    0    0  501 -0.00000000000E+00  0.00000000000E+00  0.18923348356E+03  0.18923348356E+03  0.00000000000E+00 0.  1.
          1   -1    0    0  501    0  0.00000000000E+00 -0.00000000000E+00 -0.10777895861E+03  0.10777895861E+03  0.00000000000E+00 0. -1.
         25    2    1    2    0    0  0.30102837553E+02 -0.87032346496E+02  0.40531220737E+02  0.16053278440E+03  0.12508870791E+03 0.  0.
          5    1    3    3  502    0  0.67014167341E+02 -0.11999033023E+02  0.34900305332E+02  0.76618399423E+02  0.41800000000E+01 0.  1.
         -5    1    3    3    0  502 -0.36911329788E+02 -0.75033313473E+02  0.56309154056E+01  0.83914384975E+02  0.41800000000E+01 0.  1.
        -11    1    1    2    0    0 -0.54341408194E+00  0.86187837901E+02  0.56498840211E+02  0.10305706015E+03  0.00000000000E+00 0.  1.
         11    1    1    2    0    0 -0.29559423471E+02  0.84450859512E+00 -0.15575535990E+02  0.33422597626E+02  0.00000000000E+00 0. -1.
</event>
<event>
 7    1  0.2749315E-009  0.6818301E+02  0.7561462E-02  0.1366383E+00
          3   -1    0    0  501    0  0.00000000000E+00  0.00000000000E+00  0.30187033783E+03  0.30187033783E+03  0.00000000000E+00 0. -1.
         -3   -1    0    0    0  501 -0.00000000000E+00 -0.00000000000E+00 -0.54661969035E+02  0.54661969035E+02  0.00000000000E+00 0.  1.
         25    2    1    2    0    0 -0.27850883880E+02  0.61163070825E+02  0.13034397389E+03  0.19275309051E+03  0.12509040493E+03 0.  0.
          5    1    3    3  502    0 -0.27015000922E+02  0.53994921180E+02  0.15517478744E+03  0.16655914519E+03  0.41800000000E+01 0. -1.
         -5    1    3    3    0  502 -0.83588295746E+00  0.71681496451E+01 -0.24830813554E+02  0.26193945320E+02  0.41800000000E+01 0. -1.
        -11    1    1    2    0    0  0.24401285276E+02 -0.47342049530E+02  0.13239417037E+03  0.14270567166E+03  0.00000000000E+00 0. -1.
         11    1    1    2    0    0  0.34495986037E+01 -0.13821021295E+02 -0.15529775461E+02  0.21073544696E+02  0.00000000000E+00 0.  1.
</event>
<event>
 7    1  0.2749315E-009  0.1517317E+03  0.7561462E-02  0.1198361E+00
         -1   -1    0    0    0  501 -0.00000000000E+00  0.00000000000E+00  0.35143573809E+02  0.35143573809E+02  0.00000000000E+00 0.  1.
          1   -1    0    0  501    0  0.00000000000E+00 -0.00000000000E+00 -0.78879917302E+03  0.78879917302E+03  0.00000000000E+00 0. -1.
         25    2    1    2    0    0 -0.98981921851E+02  0.73862312552E+02 -0.33552133283E+03  0.37878211606E+03  0.12509302374E+03 0.  0.
          5    1    3    3  502    0  0.26791771524E+02 -0.11752004454E+00 -0.31730934907E+02  0.41738920235E+02  0.41800000000E+01 0. -1.
         -5    1    3    3    0  502 -0.12577369337E+03  0.73979832597E+02 -0.30379039793E+03  0.33704319582E+03  0.41800000000E+01 0. -1.
        -11    1    1    2    0    0  0.68509069424E+02 -0.72671840841E+02 -0.39344510894E+03  0.40592332132E+03  0.00000000000E+00 0. -1.
         11    1    1    2    0    0  0.30472852426E+02 -0.11904717107E+01 -0.24689157432E+02  0.39237309446E+02  0.00000000000E+00 0.  1.
</event>
<event>
 7    1  0.2749315E-009  0.1950601E+03  0.7561462E-02  0.1153975E+00
          2   -1    0    0  501    0  0.00000000000E+00  0.00000000000E+00  0.35786683695E+03  0.35786683695E+03  0.00000000000E+00 0. -1.
         -2   -1    0    0    0  501 -0.00000000000E+00 -0.00000000000E+00 -0.11856626644E+03  0.11856626644E+03  0.00000000000E+00 0.  1.
         25    2    1    2    0    0 -0.16407436177E+03  0.42311632310E+02  0.17558055015E+03  0.27420429121E+03  0.12509513703E+03 0.  0.
          5    1    3    3  502    0 -0.17001599524E+03  0.67176479327E+02  0.16475232583E+03  0.24612785149E+03  0.41800000000E+01 0.  1.
         -5    1    3    3    0  502  0.59416334711E+01 -0.24864847016E+02  0.10828224322E+02  0.28076439721E+02  0.41800000000E+01 0.  1.
        -11    1    1    2    0    0  0.14683185470E+03 -0.13066477173E+02  0.76343701145E+02  0.16600809344E+03  0.00000000000E+00 0. -1.
         11    1    1    2    0    0  0.17242507069E+02 -0.29245155137E+02 -0.12623680784E+02  0.36220718733E+02  0.00000000000E+00 0.  1.
</event>
<event>
 7    1  0.3009119E-009  0.1382410E+03  0.7561462E-02  0.1215716E+00
          2   -1    0    0  501    0  0.00000000000E+00  0.00000000000E+00  0.47631054086E+03  0.47631054086E+03  0.00000000000E+00 0. -1.
         -2   -1    0    0    0  501 -0.00000000000E+00 -0.00000000000E+00 -0.45756057159E+02  0.45756057159E+02  0.00000000000E+00 0.  1.
         25    2    1    2    0    0 -0.56882791774E+02  0.75749682853E+02  0.28976878624E+03  0.32952630545E+03  0.12509184647E+03 0.  0.
          5    1    3    3  502    0  0.34880492621E+02  0.29162727150E+02  0.14382816049E+03  0.15090104562E+03  0.41800000000E+01 0.  1.
         -5    1    3    3    0  502 -0.91763284395E+02  0.46586955703E+02  0.14594062575E+03  0.17862525983E+03  0.41800000000E+01 0.  1.
        -11    1    1    2    0    0  0.45976950503E+02  0.50883280616E+01  0.30663692285E+02  0.55498045772E+02  0.00000000000E+00 0.  1.
         11    1    1    2    0    0  0.10905841271E+02 -0.80838010915E+02  0.11012200517E+03  0.13704224679E+03  0.00000000000E+00 0. -1.
</event>
<event>
 7    1  0.2749315E-009  0.1179426E+03  0.7561462E-02  0.1246530E+00
         -1   -1    0    0    0  501 -0.00000000000E+00  0.00000000000E+00  0.58995773189E+02  0.58995773189E+02  0.00000000000E+00 0.  1.
          1   -1    0    0  501    0  0.00000000000E+00 -0.00000000000E+00 -0.33633862829E+03  0.33633862829E+03  0.00000000000E+00 0. -1.
         25    2    1    2    0    0  0.34377729334E+02 -0.60556652300E+02 -0.22724514793E+03  0.26858259011E+03  0.12508922431E+03 0.  0.
          5    1    3    3  502    0 -0.45414719525E+02 -0.86047179205E+01 -0.57307287076E+02  0.73743714797E+02  0.41800000000E+01 0. -1.
         -5    1    3    3    0  502  0.79792448859E+02 -0.51951934380E+02 -0.16993786085E+03  0.19483887531E+03  0.41800000000E+01 0. -1.
        -11    1    1    2    0    0 -0.16971837757E+02 -0.11197126523E+02 -0.48843313501E+02  0.52906409753E+02  0.00000000000E+00 0. -1.
         11    1    1    2    0    0 -0.17405891577E+02  0.71753778823E+02 -0.12543936721E+01  0.73845401620E+02  0.00000000000E+00 0.  1.
</event>
<event>
 7    1  0.2749315E-009  0.2479437E+03  0.7561462E-02  0.1114611E+00
          2   -1    0    0  501    0  0.00000000000E+00  0.00000000000E+00  0.18661963730E+04  0.18661963730E+04  0.00000000000E+00 0. -1.
         -2   -1    0    0    0  501 -0.00000000000E+00 -0.00000000000E+00 -0.36189752487E+02  0.36189752487E+02  0.00000000000E+00 0.  1.
         25    2    1    2    0    0 -0.22999214178E+03 -0.52343234865E+02  0.94869198662E+03  0.98554552558E+03  0.12508916019E+03 0.  0.
          5    1    3    3  502    0 -0.16588146804E+03 -0.65855900897E+02  0.47712725069E+03  0.50943257343E+03  0.41800000000E+01 0.  1.
         -5    1    3    3    0  502 -0.64110673741E+02  0.13512666031E+02  0.47156473593E+03  0.47611295215E+03  0.41800000000E+01 0.  1.
        -11    1    1    2    0    0  0.17322101177E+03  0.77311810407E+02  0.62653097198E+03  0.65461721166E+03  0.00000000000E+00 0. -1.
         11    1    1    2    0    0  0.56771130013E+02 -0.24968575542E+02  0.25478366186E+03  0.26222338820E+03  0.00000000000E+00 0.  1.
</event>
<event>
 7    1  0.2749315E-009  0.9356155E+02  0.7561462E-02  0.1294449E+00
         -2   -1    0    0    0  501 -0.00000000000E+00  0.00000000000E+00  0.91190322114E+02  0.91190322114E+02  0.00000000000E+00 0.  1.
          2   -1    0    0  501    0  0.00000000000E+00 -0.00000000000E+00 -0.20052313683E+03  0.20052313683E+03  0.00000000000E+00 0. -1.
         25    2    1    2    0    0 -0.36538031052E+01 -0.50321363576E+02  0.53865287006E+01  0.13498717944E+03  0.12508770529E+03 0.  0.
          5    1    3    3  502    0  0.19291593431E+02  0.12797037528E+02 -0.45097938044E+02  0.50864783125E+02  0.41800000000E+01 0.  1.
         -5    1    3    3    0  502 -0.22945396536E+02 -0.63118401104E+02  0.50484466744E+02  0.84122396319E+02  0.41800000000E+01 0.  1.
        -11    1    1    2    0    0 -0.39226095368E+02  0.23259222048E+02 -0.21080164067E+02  0.50239937153E+02  0.00000000000E+00 0.  1.
         11    1    1    2    0    0  0.42879898473E+02  0.27062141528E+02 -0.93639179354E+02  0.10648634235E+03  0.00000000000E+00 0. -1.
</event>
<event>
 7    1  0.2749315E-009  0.1132794E+03  0.7561462E-02  0.1254615E+00
         -1   -1    0    0    0  501 -0.00000000000E+00  0.00000000000E+00  0.66985253748E+02  0.66985253748E+02  0.00000000000E+00 0.  1.
          1   -1    0    0  501    0  0.00000000000E+00 -0.00000000000E+00 -0.28311272117E+03  0.28311272117E+03  0.00000000000E+00 0. -1.
         25    2    1    2    0    0  0.19648463548E+01  0.69776130140E+02 -0.58398280102E+02  0.15469497656E+03  0.12509039810E+03 0.  0.
          5    1    3    3  502    0 -0.12978903780E+02  0.87352205500E+02 -0.82604798223E+02  0.12099539181E+03  0.41800000000E+01 0.  1.
         -5    1    3    3    0  502  0.14943750135E+02 -0.17576075360E+02  0.24206518121E+02  0.33699584755E+02  0.41800000000E+01 0.  1.
        -11    1    1    2    0    0  0.27870667495E+02 -0.78758620885E+02 -0.12363683083E+03  0.14921715856E+03  0.00000000000E+00 0.  1.
         11    1    1    2    0    0 -0.29835513850E+02  0.89824907443E+01 -0.34092356487E+02  0.46185839794E+02  0.00000000000E+00 0. -1.
</event>
<event>
 7    1  0.2749315E-009  0.1585316E+03  0.7561462E-02  0.1190365E+00
          2   -1    0    0  501    0  0.00000000000E+00  0.00000000000E+00  0.36815999146E+02  0.36815999146E+02  0.00000000000E+00 0. -1.
         -2   -1    0    0    0  501 -0.00000000000E+00 -0.00000000000E+00 -0.77144216259E+03  0.77144216259E+03  0.00000000000E+00 0.  1.
         25    2    1    2    0    0 -0.97053447370E+02  0.83933491716E+02 -0.41063550099E+03  0.44803220567E+03  0.12508852852E+03 0.  0.
          5    1    3    3  502    0 -0.10447420112E+03  0.10433285861E+03 -0.29067155151E+03  0.32604850458E+03  0.41800000000E+01 0.  1.
         -5    1    3    3    0  502  0.74207537463E+01 -0.20399366891E+02 -0.11996394949E+03  0.12198370109E+03  0.41800000000E+01 0.  1.
        -11    1    1    2    0    0 -0.99524629255E+01 -0.20669130359E+02 -0.15649231630E+02  0.27769820286E+02  0.00000000000E+00 0. -1.
         11    1    1    2    0    0  0.10700591030E+03 -0.63264361357E+02 -0.30834143082E+03  0.33245613578E+03  0.00000000000E+00 0.  1.
</event>
<event>
 7    1  0.2749315E-009  0.9488771E+02  0.7561462E-02  0.1291429E+00
         -2   -1    0    0    0  501 -0.00000000000E+00  0.00000000000E+00  0.21343698333E+03  0.21343698333E+03  0.00000000000E+00 0.  1.
          2   -1    0    0  501    0  0.00000000000E+00 -0.00000000000E+00 -0.77356650970E+02  0.77356650970E+02  0.00000000000E+00 0. -1.
         25    2    1    2    0    0  0.28167860187E+02  0.17050003970E+02  0.14773146436E+03  0.19635660801E+03  0.12508877233E+03 0.  0.
          5    1    3    3  502    0 -0.31633735826E+02 -0.48603964319E+01  0.12420869100E+03  0.12833389270E+03  0.41800000000E+01 0.  1.
         -5    1    3    3    0  502  0.59801596013E+02  0.21910400402E+02  0.23522773362E+02  0.68022715310E+02  0.41800000000E+01 0.  1.
        -11    1    1    2    0    0 -0.48279988668E+02  0.19408137705E+02 -0.50506438952E+01  0.52279461730E+02  0.00000000000E+00 0.  1.
         11    1    1    2    0    0  0.20112128481E+02 -0.36458141675E+02 -0.66004881059E+01  0.42157564561E+02  0.00000000000E+00 0. -1.
</event>
<event>
 7    1  0.2749315E-009  0.9869339E+02  0.7561462E-02  0.1283068E+00
         -2   -1    0    0    0  501 -0.00000000000E+00  0.00000000000E+00  0.14276277552E+03  0.14276277552E+03  0.00000000000E+00 0. -1.
          2   -1    0    0  501    0  0.00000000000E+00 -0.00000000000E+00 -0.99502375407E+02  0.99502375407E+02  0.00000000000E+00 0.  1.
         25    2    1    2    0    0 -0.42296031716E+02 -0.23637014866E+02  0.19146936000E+02  0.13550434670E+03  0.12508860878E+03 0.  0.
          5    1    3    3  502    0 -0.14457208948E+02  0.51292417010E+02  0.14200062474E+02  0.55308562696E+02  0.41800000000E+01 0.  1.
         -5    1    3    3    0  502 -0.27838822768E+02 -0.74929431875E+02  0.49468735255E+01  0.80195784004E+02  0.41800000000E+01 0.  1.
        -11    1    1    2    0    0  0.42377989666E+01  0.25437722081E+02  0.53004409816E+02  0.58944924333E+02  0.00000000000E+00 0. -1.
         11    1    1    2    0    0  0.38058232750E+02 -0.18007072151E+01 -0.28890945702E+02  0.47815879894E+02  0.00000000000E+00 0.  1.
</event>
<event>
 7    1  0.2749315E-009  0.1208668E+03  0.7561462E-02  0.1241674E+00
          4   -1    0    0  501    0  0.00000000000E+00  0.00000000000E+00  0.73229572283E+02  0.73229572283E+02  0.00000000000E+00 0.  1.
         -4   -1    0    0    0  501 -0.00000000000E+00 -0.00000000000E+00 -0.23069317376E+03  0.23069317376E+03  0.00000000000E+00 0. -1.
         25    2    1    2    0    0 -0.19651300362E+02 -0.68550616604E+02 -0.80234023392E+02  0.16483433393E+03  0.12508996159E+03 0.  0.
          5    1    3    3  502    0 -0.72137770419E+02 -0.43697292714E+02 -0.58309471380E+02  0.10261957983E+03  0.41800000000E+01 0.  1.
         -5    1    3    3    0  502  0.52486470056E+02 -0.24853323890E+02 -0.21924552012E+02  0.62214754105E+02  0.41800000000E+01 0.  1.
        -11    1    1    2    0    0  0.45503331566E+02  0.40456705377E+02 -0.98992418278E+01  0.61687058467E+02  0.00000000000E+00 0.  1.
         11    1    1    2    0    0 -0.25852031204E+02  0.28093911227E+02 -0.67330336260E+02  0.77401353647E+02  0.00000000000E+00 0. -1.
</event>
<event>
 7    1  0.4846166E-009  0.1557568E+03  0.7561462E-02  0.1193572E+00
         -2   -1    0    0    0  501 -0.00000000000E+00  0.00000000000E+00  0.90213853236E+02  0.90213853236E+02  0.00000000000E+00 0.  1.
          2   -1    0    0  501    0  0.00000000000E+00 -0.00000000000E+00 -0.35116141480E+03  0.35116141480E+03  0.00000000000E+00 0. -1.
         25    2    1    2    0    0  0.38613779442E+02  0.12213970723E+03 -0.65705804164E+02  0.19072018279E+03  0.12509118025E+03 0.  0.
          5    1    3    3  502    0 -0.45517407428E+02  0.35468922877E+02 -0.26708230898E+02  0.63723471867E+02  0.41800000000E+01 0. -1.
         -5    1    3    3    0  502  0.84131186870E+02  0.86670784356E+02 -0.38997573266E+02  0.12699671092E+03  0.41800000000E+01 0. -1.
        -11    1    1    2    0    0  0.32156901356E+01 -0.44410032170E+02 -0.10261588053E+02  0.45693454780E+02  0.00000000000E+00 0.  1.
         11    1    1    2    0    0 -0.41829469578E+02 -0.77729675064E+02 -0.18498016935E+03  0.20496163047E+03  0.00000000000E+00 0. -1.
</event>
<event>
 7    1  0.2749315E-009  0.7929428E+02  0.7561462E-02  0.1331066E+00
          2   -1    0    0  501    0  0.00000000000E+00  0.00000000000E+00  0.31198732002E+02  0.31198732002E+02  0.00000000000E+00 0. -1.
         -2   -1    0    0    0  501 -0.00000000000E+00 -0.00000000000E+00 -0.29209546741E+03  0.29209546741E+03  0.00000000000E+00 0.  1.
         25    2    1    2    0    0  0.10336896004E+02 -0.17724560719E+02 -0.15884457818E+03  0.20322176892E+03  0.12508587400E+03 0.  0.
          5    1    3    3  502    0  0.23793075059E+02 -0.52964431057E+02 -0.23706475445E+02  0.62855475147E+02  0.41800000000E+01 0.  1.
         -5    1    3    3    0  502 -0.13456179055E+02  0.35239870338E+02 -0.13513810274E+03  0.14036629377E+03  0.41800000000E+01 0.  1.
        -11    1    1    2    0    0  0.18789849903E+02 -0.10785139757E+02 -0.45155070657E+02  0.50083511309E+02  0.00000000000E+00 0.  1.
         11    1    1    2    0    0 -0.29126745907E+02  0.28509700476E+02 -0.56897086566E+02  0.69988919181E+02  0.00000000000E+00 0. -1.
</event>
<event>
 7    1  0.2749315E-009  0.2918523E+03  0.7561462E-02  0.1089386E+00
          1   -1    0    0  501    0  0.00000000000E+00  0.00000000000E+00  0.52045202939E+03  0.52045202939E+03  0.00000000000E+00 0. -1.
         -1   -1    0    0    0  501 -0.00000000000E+00 -0.00000000000E+00 -0.17486782776E+03  0.17486782776E+03  0.00000000000E+00 0.  1.
         25    2    1    2    0    0  0.24300651175E+03  0.13268816714E+03  0.23284059216E+03  0.38278054367E+03  0.12509152173E+03 0.  0.
          5    1    3    3  502    0  0.13448967347E+03  0.28984026130E+01  0.10407455643E+03  0.17013188621E+03  0.41800000000E+01 0.  1.
         -5    1    3    3    0  502  0.10851683827E+03  0.12978976452E+03  0.12876603573E+03  0.21264865747E+03  0.41800000000E+01 0.  1.
        -11    1    1    2    0    0 -0.69437438850E+02 -0.59793144662E+02 -0.27593323086E+01  0.91675470969E+02  0.00000000000E+00 0.  1.
         11    1    1    2    0    0 -0.17356907290E+03 -0.72895022474E+02  0.11550294177E+03  0.22086384251E+03  0.00000000000E+00 0. -1.
</event>
<event>
 7    1  0.4344936E-009  0.9928287E+02  0.7561462E-02  0.1281811E+00
         -3   -1    0    0    0  501 -0.00000000000E+00  0.00000000000E+00  0.31397469648E+02  0.31397469648E+02  0.00000000000E+00 0.  1.
          3   -1    0    0  501    0  0.00000000000E+00 -0.00000000000E+00 -0.68314186625E+03  0.68314186625E+03  0.00000000000E+00 0. -1.
         25    2    1    2    0    0 -0.71544701176E+02 -0.52758423741E+02 -0.45990027135E+03  0.48482757671E+03  0.12508966387E+03 0.  0.
          5    1    3    3  502    0 -0.16271175269E+02 -0.46345458016E+02 -0.46792386845E+02  0.67968025497E+02  0.41800000000E+01 0. -1.
         -5    1    3    3    0  502 -0.55273525908E+02 -0.64129657246E+01 -0.41310788451E+03  0.41685955121E+03  0.41800000000E+01 0. -1.
        -11    1    1    2    0    0  0.44302777613E+02  0.14726144848E+02 -0.18587557003E+02  0.50250300713E+02  0.00000000000E+00 0.  1.
         11    1    1    2    0    0  0.27241923563E+02  0.38032278892E+02 -0.17325656824E+03  0.17946145847E+03  0.00000000000E+00 0. -1.
</event>
<event>
 7    1  0.2749315E-009  0.9658335E+02  0.7561462E-02  0.1287649E+00
         -2   -1    0    0    0  501 -0.00000000000E+00  0.00000000000E+00  0.73326488707E+02  0.73326488707E+02  0.00000000000E+00 0. -1.
          2   -1    0    0  501    0  0.00000000000E+00 -0.00000000000E+00 -0.18937392748E+03  0.18937392748E+03  0.00000000000E+00 0.  1.
         25    2    1    2    0    0 -0.31241201429E+02  0.10213037733E+02 -0.53295703255E+02  0.13988910641E+03  0.12509281074E+03 0.  0.
          5    1    3    3  502    0 -0.56521545217E+02 -0.13491431779E+02  0.17604977166E+02  0.60861411634E+02  0.41800000000E+01 0.  1.
         -5    1    3    3    0  502  0.25280343787E+02  0.23704469512E+02 -0.70900680421E+02  0.79027694772E+02  0.41800000000E+01 0.  1.
        -11    1    1    2    0    0 -0.38842517112E+01 -0.48145933678E+02 -0.10750135884E+02  0.49484176892E+02  0.00000000000E+00 0. -1.
         11    1    1    2    0    0  0.35125453141E+02  0.37932895945E+02 -0.52001599635E+02  0.73327132889E+02  0.00000000000E+00 0.  1.
</event>
<event>
 7    1  0.2749315E-009  0.2536483E+03  0.7561462E-02  0.1111021E+00
         -1   -1    0    0    0  501 -0.00000000000E+00  0.00000000000E+00  0.35296374024E+02  0.35296374024E+02  0.00000000000E+00 0. -1.
          1   -1    0    0  501    0  0.00000000000E+00 -0.00000000000E+00 -0.19068842955E+04  0.19068842955E+04  0.00000000000E+00 0.  1.
         25    2    1    2    0    0 -0.23516432402E+03  0.13736105446E+02 -0.10110431090E+04  0.10456320219E+04  0.12508883669E+03 0.  0.
          5    1    3    3  502    0 -0.11058808407E+03 -0.44809102003E+02 -0.33329455290E+03  0.35403433640E+03  0.41800000000E+01 0. -1.
         -5    1    3    3    0  502 -0.12457623995E+03  0.58545207449E+02 -0.67774855612E+03  0.69159768550E+03  0.41800000000E+01 0. -1.
        -11    1    1    2    0    0  0.62273341897E+02  0.33839838329E+02 -0.28725087787E+03  0.29586512232E+03  0.00000000000E+00 0.  1.
         11    1    1    2    0    0  0.17289098212E+03 -0.47575943775E+02 -0.57329393459E+03  0.60068352530E+03  0.00000000000E+00 0. -1.
</event>
<event>
 7    1  0.2749315E-009  0.1458146E+03  0.7561462E-02  0.1205712E+00
         -2   -1    0    0    0  501 -0.00000000000E+00  0.00000000000E+00  0.17499659684E+03  0.17499659684E+03  0.00000000000E+00 0.  1.
          2   -1    0    0  501    0  0.00000000000E+00 -0.00000000000E+00 -0.16085284162E+03  0.16085284162E+03  0.00000000000E+00 0. -1.
         25    2    1    2    0    0 -0.61004186093E+02  0.88742615554E+02 -0.59241008056E+02  0.17536175710E+03  0.12508191828E+03 0.  0.
          5    1    3    3  502    0 -0.53254140269E+01  0.96212696454E+02 -0.68463088444E+02  0.11827894941E+03  0.41800000000E+01 0.  1.
         -5    1    3    3    0  502 -0.55678772066E+02 -0.74700809000E+01  0.92220803886E+01  0.57082807694E+02  0.41800000000E+01 0.  1.
        -11    1    1    2    0    0  0.57875987024E+02 -0.10628786086E+03  0.75340886690E+02  0.14255871929E+03  0.00000000000E+00 0.  1.
         11    1    1    2    0    0  0.31281990694E+01  0.17545245302E+02 -0.19561234168E+01  0.17928962071E+02  0.00000000000E+00 0. -1.
</event>
<event>
 7    1  0.2749315E-009  0.1318560E+03  0.7561462E-02  0.1224727E+00
          1   -1    0    0  501    0  0.00000000000E+00  0.00000000000E+00  0.40179171258E+02  0.40179171258E+02  0.00000000000E+00 0. -1.
         -1   -1    0    0    0  501 -0.00000000000E+00 -0.00000000000E+00 -0.46850651357E+03  0.46850651357E+03  0.00000000000E+00 0.  1.
         25    2    1    2    0    0 -0.83037288538E+02  0.12001812872E+02 -0.21850458407E+03  0.26539041652E+03  0.12509430490E+03 0.  0.
          5    1    3    3  502    0 -0.10519379640E+03 -0.18416694089E+02 -0.19000090783E+03  0.21799707979E+03  0.41800000000E+01 0.  1.
         -5    1    3    3    0  502  0.22156507862E+02  0.30418506961E+02 -0.28503676243E+02  0.47393336723E+02  0.41800000000E+01 0.  1.
        -11    1    1    2    0    0  0.46693636363E+02 -0.48598944227E+02 -0.14909889134E+03  0.16362344715E+03  0.00000000000E+00 0. -1.
         11    1    1    2    0    0  0.36343652175E+02  0.36597131354E+02 -0.60723866900E+02  0.79671821167E+02  0.00000000000E+00 0.  1.
</event>
<event>
 7    1  0.2749315E-009  0.1025969E+03  0.7561462E-02  0.1274928E+00
         -2   -1    0    0    0  501 -0.00000000000E+00  0.00000000000E+00  0.26083075742E+02  0.26083075742E+02  0.00000000000E+00 0.  1.
          2   -1    0    0  501    0  0.00000000000E+00 -0.00000000000E+00 -0.55146016001E+03  0.55146016001E+03  0.00000000000E+00 0. -1.
         25    2    1    2    0    0  0.14068960786E+00  0.58499682936E+01 -0.17040150191E+03  0.21147768123E+03  0.12510753728E+03 0.  0.
          5    1    3    3  502    0  0.31278660017E+02 -0.48738972270E+02 -0.54841808884E+02  0.79868256474E+02  0.41800000000E+01 0.  1.
         -5    1    3    3    0  502 -0.31137970409E+02  0.54588940564E+02 -0.11555969303E+03  0.13160942476E+03  0.41800000000E+01 0.  1.
        -11    1    1    2    0    0  0.11943950449E+02 -0.43236314971E+02 -0.12606416921E+03  0.13380662033E+03  0.00000000000E+00 0.  1.
         11    1    1    2    0    0 -0.12084640056E+02  0.37386346677E+02 -0.22891141314E+03  0.23225893419E+03  0.00000000000E+00 0. -1.
</event>
<event>
 7    1  0.2749315E-009  0.1434193E+03  0.7561462E-02  0.1208801E+00
         -3   -1    0    0    0  501 -0.00000000000E+00  0.00000000000E+00  0.21316273465E+03  0.21316273465E+03  0.00000000000E+00 0.  1.
          3   -1    0    0  501    0  0.00000000000E+00 -0.00000000000E+00 -0.11739927363E+03  0.11739927363E+03  0.00000000000E+00 0. -1.
         25    2    1    2    0    0  0.51653740717E+02  0.10084972022E+03  0.37581880578E+02  0.17291606128E+03  0.12509512982E+03 0.  0.
          5    1    3    3  502    0  0.46937104537E+02  0.12975779894E+03  0.38490799818E+02  0.14331501051E+03  0.41800000000E+01 0. -1.
         -5    1    3    3    0  502  0.47166361795E+01 -0.28908078725E+02 -0.90891924043E+00  0.29601050768E+02  0.41800000000E+01 0. -1.
        -11    1    1    2    0    0 -0.13014730704E+02 -0.65669651358E+02  0.77065559535E+02  0.10208323462E+03  0.00000000000E+00 0.  1.
         11    1    1    2    0    0 -0.38639010012E+02 -0.35180068857E+02 -0.18883979098E+02  0.55562712372E+02  0.00000000000E+00 0. -1.
</event>
<event>
 7    1  0.2749315E-009  0.9084611E+02  0.7561462E-02  0.1300816E+00
         -1   -1    0    0    0  501 -0.00000000000E+00  0.00000000000E+00  0.15512993392E+03  0.15512993392E+03  0.00000000000E+00 0.  1.
          1   -1    0    0  501    0  0.00000000000E+00 -0.00000000000E+00 -0.87873559388E+02  0.87873559388E+02  0.00000000000E+00 0. -1.
         25    2    1    2    0    0  0.17213062212E+02  0.28160078235E+02  0.81432359069E+01  0.12962740066E+03  0.12509065190E+03 0.  0.
          5    1    3    3  502    0 -0.44105726677E+01  0.60477915574E+02 -0.36006595759E+02  0.70646859531E+02  0.41800000000E+01 0. -1.
         -5    1    3    3    0  502  0.21623634880E+02 -0.32317837339E+02  0.44149831666E+02  0.58980541128E+02  0.41800000000E+01 0. -1.
        -11    1    1    2    0    0 -0.20794669205E+02  0.22717348202E+02  0.53937547223E+02  0.62110829790E+02  0.00000000000E+00 0.  1.
         11    1    1    2    0    0  0.35816069930E+01 -0.50877426438E+02  0.51755914009E+01  0.51265262858E+02  0.00000000000E+00 0. -1.
</event>
<event>
 7    1  0.2749315E-009  0.8227464E+02  0.7561462E-02  0.1322718E+00
          2   -1    0    0  501    0  0.00000000000E+00  0.00000000000E+00  0.18990305184E+03  0.18990305184E+03  0.00000000000E+00 0.  1.
         -2   -1    0    0    0  501 -0.00000000000E+00 -0.00000000000E+00 -0.17108131412E+03  0.17108131412E+03  0.00000000000E+00 0. -1.
         25    2    1    2    0    0  0.89235891122E+01 -0.19502846714E+02 -0.13184259311E+03  0.18300291334E+03  0.12509038917E+03 0.  0.
          5    1    3    3  502    0 -0.17830020877E+02  0.19599188304E+02  0.13533270832E+02  0.30044294734E+02  0.41800000000E+01 0.  1.
         -5    1    3    3    0  502  0.26753609989E+02 -0.39102035018E+02 -0.14537586394E+03  0.15295861861E+03  0.41800000000E+01 0.  1.
        -11    1    1    2    0    0  0.34737925946E+02 -0.11524584003E+02  0.89410932711E+02  0.96611875170E+02  0.00000000000E+00 0.  1.
         11    1    1    2    0    0 -0.43661515058E+02  0.31027430716E+02  0.61253398109E+02  0.81369577447E+02  0.00000000000E+00 0. -1.
</event>
<event>
 7    1  0.2749315E-009  0.1870564E+03  0.7561462E-02  0.1161143E+00
         -1   -1    0    0    0  501 -0.00000000000E+00  0.00000000000E+00  0.91194735279E+03  0.91194735279E+03  0.00000000000E+00 0. -1.
          1   -1    0    0  501    0  0.00000000000E+00 -0.00000000000E+00 -0.51334600001E+02  0.51334600001E+02  0.00000000000E+00 0.  1.
         25    2    1    2    0    0  0.12344979879E+02 -0.18457797578E+03  0.50512706993E+03  0.55229016171E+03  0.12509851429E+03 0.  0.
          5    1    3    3  502    0  0.23564403364E+02 -0.14930768989E+03  0.48873977425E+03  0.51159760232E+03  0.41800000000E+01 0.  1.
         -5    1    3    3    0  502 -0.11219423486E+02 -0.35270285889E+02  0.16387295678E+02  0.40692559390E+02  0.41800000000E+01 0.  1.
        -11    1    1    2    0    0 -0.36055996733E+01  0.14802875593E+03  0.33905339296E+03  0.36997664279E+03  0.00000000000E+00 0. -1.
         11    1    1    2    0    0 -0.87393802054E+01  0.36549219846E+02  0.16432289897E+02  0.41015148287E+02  0.00000000000E+00 0.  1.
</event>
<event>
 7    1  0.2749315E-009  0.1842882E+03  0.7561462E-02  0.1163716E+00
         -1   -1    0    0    0  501 -0.00000000000E+00  0.00000000000E+00  0.86719770287E+02  0.86719770287E+02  0.00000000000E+00 0.  1.
          1   -1    0    0  501    0  0.00000000000E+00 -0.00000000000E+00 -0.57022236582E+03  0.57022236582E+03  0.00000000000E+00 0. -1.
         25    2    1    2    0    0 -0.11140876343E+03 -0.11553071046E+03 -0.90277904616E+02  0.22261646259E+03  0.12509489089E+03 0.  0.
          5    1    3    3  502    0 -0.77333409062E+02 -0.13470020061E+03 -0.43185746884E+02  0.16126711176E+03  0.41800000000E+01 0.  1.
         -5    1    3    3    0  502 -0.34075354368E+02  0.19169490148E+02 -0.47092157732E+02  0.61349350833E+02  0.41800000000E+01 0.  1.
        -11    1    1    2    0    0  0.47393012401E+02  0.70445297440E+01 -0.52577119714E+02  0.71134214982E+02  0.00000000000E+00 0.  1.
         11    1    1    2    0    0  0.64015751029E+02  0.10848618071E+03 -0.34064757121E+03  0.36319145854E+03  0.00000000000E+00 0. -1.
</event>
<event>
 7    1  0.2749315E-009  0.9724203E+02  0.7561462E-02  0.1286205E+00
          4   -1    0    0  501    0  0.00000000000E+00  0.00000000000E+00  0.35346098917E+03  0.35346098917E+03  0.00000000000E+00 0. -1.
         -4   -1    0    0    0  501 -0.00000000000E+00 -0.00000000000E+00 -0.37644751295E+02  0.37644751295E+02  0.00000000000E+00 0.  1.
         25    2    1    2    0    0  0.12984674284E+02  0.31714508414E+02  0.23799392439E+03  0.27104103244E+03  0.12509085263E+03 0.  0.
          5    1    3    3  502    0  0.62210752376E+02  0.29052202177E+02  0.19017856164E+03  0.20223641084E+03  0.41800000000E+01 0.  1.
         -5    1    3    3    0  502 -0.49226078092E+02  0.26623062369E+01  0.47815362751E+02  0.68804621602E+02  0.41800000000E+01 0.  1.
        -11    1    1    2    0    0  0.19527512084E+02 -0.38353782228E+02  0.75367925119E+02  0.86790900883E+02  0.00000000000E+00 0. -1.
         11    1    1    2    0    0 -0.32512186369E+02  0.66392738145E+01  0.24543883656E+01  0.33273807139E+02  0.00000000000E+00 0.  1.
</event>
<event>
 7    1  0.2749315E-009  0.1009715E+03  0.7561462E-02  0.1278266E+00
         -4   -1    0    0    0  501 -0.00000000000E+00  0.00000000000E+00  0.20361121617E+03  0.20361121617E+03  0.00000000000E+00 0.  1.
          4   -1    0    0  501    0  0.00000000000E+00 -0.00000000000E+00 -0.88914212507E+02  0.88914212507E+02  0.00000000000E+00 0. -1.
         25    2    1    2    0    0  0.20203144226E+02  0.84524400428E+01  0.14122899224E+03  0.18992995591E+03  0.12509256223E+03 0.  0.
          5    1    3    3  502    0  0.58909884260E+02 -0.15147633378E+02  0.26465057756E+02  0.66465757669E+02  0.41800000000E+01 0. -1.
         -5    1    3    3    0  502 -0.38706740034E+02  0.23600073420E+02  0.11476393448E+03  0.12346419824E+03  0.41800000000E+01 0. -1.
        -11    1    1    2    0    0 -0.50648277935E+02  0.19348795394E+02 -0.12507578956E+01  0.54232723851E+02  0.00000000000E+00 0.  1.
         11    1    1    2    0    0  0.30445133709E+02 -0.27801235437E+02 -0.25281230677E+02  0.48362748918E+02  0.00000000000E+00 0. -1.
</event>
<event>
 7    1  0.2749315E-009  0.2381671E+03  0.7561462E-02  0.1121020E+00
          2   -1    0    0  501    0  0.00000000000E+00  0.00000000000E+00  0.16822715658E+03  0.16822715658E+03  0.00000000000E+00 0. -1.
         -2   -1    0    0    0  501 -0.00000000000E+00 -0.00000000000E+00 -0.38769319113E+03  0.38769319113E+03  0.00000000000E+00 0.  1.
         25    2    1    2    0    0  0.11779487270E+03 -0.19128153077E+03 -0.40985538955E+02  0.26036728237E+03  0.12508817401E+03 0.  0.
          5    1    3    3  502    0  0.61349600358E+02 -0.10833864382E+02 -0.34059677072E+02  0.71124398653E+02  0.41800000000E+01 0.  1.
         -5    1    3    3    0  502  0.56445272343E+02 -0.18044766639E+03 -0.69258618838E+01  0.18924288372E+03  0.41800000000E+01 0.  1.
        -11    1    1    2    0    0 -0.55152840328E+02  0.97032854785E+02 -0.13290330667E+03  0.17355258462E+03  0.00000000000E+00 0.  1.
         11    1    1    2    0    0 -0.62642032373E+02  0.94248675988E+02 -0.45577188930E+02  0.12200048072E+03  0.00000000000E+00 0. -1.
</event>
<event>
 7    1  0.2749315E-009  0.1213940E+03  0.7561462E-02  0.1240815E+00
         -2   -1    0    0    0  501 -0.00000000000E+00  0.00000000000E+00  0.31984713718E+03  0.31984713718E+03  0.00000000000E+00 0.  1.
          2   -1    0    0  501    0  0.00000000000E+00 -0.00000000000E+00 -0.72232983451E+02  0.72232983451E+02  0.00000000000E+00 0. -1.
         25    2    1    2    0    0 -0.80528045932E+02  0.31371966417E+02  0.21366001258E+03  0.26223264750E+03  0.12508554666E+03 0.  0.
          5    1    3    3  502    0  0.68510176312E+01 -0.24434809621E+02  0.11523300074E+01  0.25744836924E+02  0.41800000000E+01 0.  1.
         -5    1    3    3    0  502 -0.87379063564E+02  0.55806776038E+02  0.21250768257E+03  0.23648781058E+03  0.41800000000E+01 0.  1.
        -11    1    1    2    0    0  0.38639578462E+02  0.22770699371E+02 -0.13166352604E+02  0.46742642356E+02  0.00000000000E+00 0. -1.
         11    1    1    2    0    0  0.41888467471E+02 -0.54142665788E+02  0.47120493753E+02  0.83104830769E+02  0.00000000000E+00 0.  1.
</event>
<event>
 7    1  0.2749315E-009  0.9906845E+02  0.7561462E-02  0.1282267E+00
          4   -1    0    0  501    0  0.00000000000E+00  0.00000000000E+00  0.15153194662E+02  0.15153194662E+02  0.00000000000E+00 0. -1.
         -4   -1    0    0    0  501 -0.00000000000E+00 -0.00000000000E+00 -0.98644509596E+03  0.98644509596E+03  0.00000000000E+00 0.  1.
         25    2    1    2    0    0  0.23505700484E+02  0.48026994666E+02 -0.60134232875E+03  0.61653805176E+03  0.12508981874E+03 0.  0.
          5    1    3    3  502    0  0.28415701343E+02 -0.11905488255E+02 -0.48041428726E+03  0.48141931051E+03  0.41800000000E+01 0. -1.
         -5    1    3    3    0  502 -0.49100008587E+01  0.59932482922E+02 -0.12092804149E+03  0.13511874125E+03  0.41800000000E+01 0. -1.
        -11    1    1    2    0    0 -0.56590800622E+02 -0.11991870601E+02 -0.19490815353E+03  0.20331136709E+03  0.00000000000E+00 0.  1.
         11    1    1    2    0    0  0.33085100138E+02 -0.36035124065E+02 -0.17504141902E+03  0.18174887177E+03  0.00000000000E+00 0. -1.
</event>
<event>
 7    1  0.2749315E-009  0.1565855E+03  0.7561462E-02  0.1192607E+00
         -1   -1    0    0    0  501 -0.00000000000E+00  0.00000000000E+00  0.44888878613E+03  0.44888878613E+03  0.00000000000E+00 0.  1.
          1   -1    0    0  501    0  0.00000000000E+00 -0.00000000000E+00 -0.70728923432E+02  0.70728923432E+02  0.00000000000E+00 0. -1.
         25    2    1    2    0    0 -0.12718468244E+03  0.60768285335E+02  0.19940548527E+03  0.27436737420E+03  0.12508469338E+03 0.  0.
          5    1    3    3  502    0  0.11289172616E+02  0.18416831436E+02  0.90486721266E+02  0.93123274341E+02  0.41800000000E+01 0. -1.
         -5    1    3    3    0  502 -0.13847385505E+03  0.42351453899E+02  0.10891876400E+03  0.18124409986E+03  0.41800000000E+01 0. -1.
        -11    1    1    2    0    0  0.14590303460E+02 -0.23574547567E+02 -0.33668438683E+01  0.27927976756E+02  0.00000000000E+00 0. -1.
         11    1    1    2    0    0  0.11259437898E+03 -0.37193737767E+02  0.18212122130E+03  0.21732235861E+03  0.00000000000E+00 0.  1.
</event>
<event>
 7    1  0.2749315E-009  0.1016034E+03  0.7561462E-02  0.1276960E+00
          1   -1    0    0  501    0  0.00000000000E+00  0.00000000000E+00  0.15910567484E+03  0.15910567484E+03  0.00000000000E+00 0. -1.
         -1   -1    0    0    0  501 -0.00000000000E+00 -0.00000000000E+00 -0.74768851317E+02  0.74768851317E+02  0.00000000000E+00 0.  1.
         25    2    1    2    0    0 -0.80198760740E+01 -0.18958298442E+02  0.33318147743E+02  0.13107749553E+03  0.12508986919E+03 0.  0.
          5    1    3    3  502    0 -0.52091594383E+02  0.30064262836E+02  0.10520096009E+02  0.61200808208E+02  0.41800000000E+01 0. -1.
         -5    1    3    3    0  502  0.44071718309E+02 -0.49022561278E+02  0.22798051734E+02  0.69876687327E+02  0.41800000000E+01 0. -1.
        -11    1    1    2    0    0 -0.44429777999E+01 -0.27964017381E+02 -0.49085075790E+01  0.28737079992E+02  0.00000000000E+00 0.  1.
         11    1    1    2    0    0  0.12462853874E+02  0.46922315823E+02  0.55927183362E+02  0.74059950633E+02  0.00000000000E+00 0. -1.
</event>
<event>
 7    1  0.2749315E-009  0.1209887E+03  0.7561462E-02  0.1241475E+00
          2   -1    0    0  501    0  0.00000000000E+00  0.00000000000E+00  0.40694350541E+03  0.40694350541E+03  0.00000000000E+00 0. -1.
         -2   -1    0    0    0  501 -0.00000000000E+00 -0.00000000000E+00 -0.10337346122E+03  0.10337346122E+03  0.00000000000E+00 0.  1.
         25    2    1    2    0    0 -0.28209973354E+02 -0.60475515424E+02  0.35727274177E+03  0.38437599297E+03  0.12509197176E+03 0.  0.
          5    1    3    3  502    0  0.13682861695E+02  0.30459402244E+02  0.43544581264E+02  0.55032707063E+02  0.41800000000E+01 0. -1.
         -5    1    3    3    0  502 -0.41892835048E+02 -0.90934917668E+02  0.31372816050E+03  0.32934328591E+03  0.41800000000E+01 0. -1.
        -11    1    1    2    0    0 -0.24568936207E+02 -0.38948555494E+01 -0.30829765913E+02  0.39614100928E+02  0.00000000000E+00 0.  1.
         11    1    1    2    0    0  0.52778909561E+02  0.64370370974E+02 -0.22872931664E+02  0.86326872737E+02  0.00000000000E+00 0. -1.
</event>
<event>
 7    1  0.2749315E-009  0.1546449E+03  0.7561462E-02  0.1194879E+00
         -1   -1    0    0    0  501 -0.00000000000E+00  0.00000000000E+00  0.38056962998E+02  0.38056962998E+02  0.00000000000E+00 0.  1.
          1   -1    0    0  501    0  0.00000000000E+00 -0.00000000000E+00 -0.85730229864E+03  0.85730229864E+03  0.00000000000E+00 0. -1.
         25    2    1    2    0    0  0.14327665756E+03  0.70768496914E+01 -0.41257620963E+03  0.45436158675E+03  0.12508813039E+03 0.  0.
          5    1    3    3  502    0  0.15384359710E+03  0.63789463596E+01 -0.26626909335E+03  0.30761216783E+03  0.41800000000E+01 0. -1.
         -5    1    3    3    0  502 -0.10566939541E+02  0.69790333185E+00 -0.14630711628E+03  0.14674941893E+03  0.41800000000E+01 0. -1.
        -11    1    1    2    0    0 -0.10029748339E+03 -0.99938057926E+01 -0.37284017202E+03  0.38622435863E+03  0.00000000000E+00 0. -1.
         11    1    1    2    0    0 -0.42979174167E+02  0.29169561011E+01 -0.33828953990E+02  0.54773316250E+02  0.00000000000E+00 0.  1.
</event>
<event>
 7    1  0.2749315E-009  0.8190813E+02  0.7561462E-02  0.1323722E+00
          2   -1    0    0  501    0  0.00000000000E+00  0.00000000000E+00  0.14694634381E+03  0.14694634381E+03  0.00000000000E+00 0.  1.
         -2   -1    0    0    0  501 -0.00000000000E+00 -0.00000000000E+00 -0.95822045115E+02  0.95822045115E+02  0.00000000000E+00 0. -1.
         25    2    1    2    0    0  0.32483309034E+02  0.31975046103E+02  0.43365057488E+02  0.14002099432E+03  0.12509109361E+03 0.  0.
          5    1    3    3  502    0 -0.69585514426E+01  0.17990414030E+02  0.81130818936E+02  0.83497057532E+02  0.41800000000E+01 0.  1.
         -5    1    3    3    0  502  0.39441860476E+02  0.13984632072E+02 -0.37765761449E+02  0.56523936786E+02  0.41800000000E+01 0.  1.
        -11    1    1    2    0    0 -0.58815253356E-01  0.31101120240E+02 -0.19575146760E+01  0.31162718160E+02  0.00000000000E+00 0. -1.
         11    1    1    2    0    0 -0.32424493781E+02 -0.63076166342E+02  0.97167558857E+01  0.71584676449E+02  0.00000000000E+00 0.  1.
</event>
<event>
 7    1  0.2749315E-009  0.1676884E+03  0.7561462E-02  0.1180280E+00
         -3   -1    0    0    0  501 -0.00000000000E+00  0.00000000000E+00  0.51873582338E+02  0.51873582338E+02  0.00000000000E+00 0.  1.
          3   -1    0    0  501    0  0.00000000000E+00 -0.00000000000E+00 -0.67238752239E+03  0.67238752239E+03  0.00000000000E+00 0. -1.
         25    2    1    2    0    0  0.18477379795E+02 -0.14260772703E+03 -0.23360194843E+03  0.30148902035E+03  0.12508949480E+03 0.  0.
          5    1    3    3  502    0  0.36715823559E+02 -0.15673733133E+03 -0.17220974884E+03  0.23577173861E+03  0.41800000000E+01 0.  1.
         -5    1    3    3    0  502 -0.18238443764E+02  0.14129604304E+02 -0.61392199591E+02  0.65717281740E+02  0.41800000000E+01 0.  1.
        -11    1    1    2    0    0  0.84299116261E+01  0.10096276316E+03 -0.15190357260E+03  0.18259035660E+03  0.00000000000E+00 0.  1.
         11    1    1    2    0    0 -0.26907291421E+02  0.41644963868E+02 -0.23500841902E+03  0.24018172777E+03  0.00000000000E+00 0. -1.
</event>
<event>
 7    1  0.2749315E-009  0.1078673E+03  0.7561462E-02  0.1264571E+00
         -3   -1    0    0    0  501 -0.00000000000E+00  0.00000000000E+00  0.34894514151E+03  0.34894514151E+03  0.00000000000E+00 0.  1.
          3   -1    0    0  501    0  0.00000000000E+00 -0.00000000000E+00 -0.49687647988E+02  0.49687647988E+02  0.00000000000E+00 0. -1.
         25    2    1    2    0    0 -0.48244013810E+02  0.43177562393E+02  0.11226677220E+03  0.18012038784E+03  0.12509092379E+03 0.  0.
          5    1    3    3  502    0  0.23637804533E+02 -0.41009348757E+01  0.87013630000E+02  0.90357111927E+02  0.41800000000E+01 0. -1.
         -5    1    3    3    0  502 -0.71881818343E+02  0.47278497269E+02  0.25253142200E+02  0.89763275916E+02  0.41800000000E+01 0. -1.
        -11    1    1    2    0    0 -0.22292175976E+02 -0.22654540290E+02  0.98512118538E+02  0.10351235097E+03  0.00000000000E+00 0.  1.
         11    1    1    2    0    0  0.70536189786E+02 -0.20523022103E+02  0.88478602782E+02  0.11500005068E+03  0.00000000000E+00 0. -1.
</event>
<event>
 7    1  0.2749315E-009  0.1147570E+03  0.7561462E-02  0.1252006E+00
          1   -1    0    0  501    0  0.00000000000E+00  0.00000000000E+00  0.38159540669E+03  0.38159540669E+03  0.00000000000E+00 0. -1.
         -1   -1    0    0    0  501 -0.00000000000E+00 -0.00000000000E+00 -0.43394124862E+02  0.43394124862E+02  0.00000000000E+00 0.  1.
         25    2    1    2    0    0  0.13233851650E+01 -0.82220499781E+02  0.19041829402E+03  0.24221371190E+03  0.12508554515E+03 0.  0.
          5    1    3    3  502    0 -0.43126473319E+02 -0.18195714559E+02  0.14383123672E+03  0.15131382549E+03  0.41800000000E+01 0.  1.
         -5    1    3    3    0  502  0.44449858484E+02 -0.64024785222E+02  0.46587057304E+02  0.90899886414E+02  0.41800000000E+01 0.  1.
        -11    1    1    2    0    0  0.12179697792E+02  0.88669241614E+02  0.10796668722E+03  0.14024045421E+03  0.00000000000E+00 0.  1.
         11    1    1    2    0    0 -0.13503082957E+02 -0.64487418335E+01  0.39816300590E+02  0.42535365441E+02  0.00000000000E+00 0. -1.
</event>
<event>
 7    1  0.2749315E-009  0.1130066E+03  0.7561462E-02  0.1255101E+00
          2   -1    0    0  501    0  0.00000000000E+00  0.00000000000E+00  0.59817167037E+02  0.59817167037E+02  0.00000000000E+00 0. -1.
         -2   -1    0    0    0  501 -0.00000000000E+00 -0.00000000000E+00 -0.24071807801E+03  0.24071807801E+03  0.00000000000E+00 0.  1.
         25    2    1    2    0    0  0.17050094575E+02 -0.25412921408E+02 -0.14850945117E+03  0.19656749348E+03  0.12508876890E+03 0.  0.
          5    1    3    3  502    0 -0.37211985013E+02  0.31163338271E+02 -0.42460348915E+02  0.64623827732E+02  0.41800000000E+01 0. -1.
         -5    1    3    3    0  502  0.54262079588E+02 -0.56576259679E+02 -0.10604910226E+03  0.13194366574E+03  0.41800000000E+01 0. -1.
        -11    1    1    2    0    0  0.37528974321E+02 -0.22649114376E+01 -0.12337400123E+02  0.39569750811E+02  0.00000000000E+00 0.  1.
         11    1    1    2    0    0 -0.54579068897E+02  0.27677832846E+02 -0.20054059681E+02  0.64398000764E+02  0.00000000000E+00 0. -1.
</event>
<event>
 7    1  0.2749315E-009  0.9420615E+02  0.7561462E-02  0.1292974E+00
          2   -1    0    0  501    0  0.00000000000E+00  0.00000000000E+00  0.40670445977E+03  0.40670445977E+03  0.00000000000E+00 0. -1.
         -2   -1    0    0    0  501 -0.00000000000E+00 -0.00000000000E+00 -0.51698004818E+02  0.51698004818E+02  0.00000000000E+00 0.  1.
         25    2    1    2    0    0  0.43900532426E+02 -0.70267201492E+02  0.11431765350E+03  0.18862805635E+03  0.12508909379E+03 0.  0.
          5    1    3    3  502    0  0.24161451094E+02 -0.55604449060E+02  0.14012636053E+03  0.15273670086E+03  0.41800000000E+01 0. -1.
         -5    1    3    3    0  502  0.19739081332E+02 -0.14662752431E+02 -0.25808707022E+02  0.35891355489E+02  0.41800000000E+01 0. -1.
        -11    1    1    2    0    0 -0.45623394916E+02  0.80388434775E+02  0.24234574765E+03  0.25937474051E+03  0.00000000000E+00 0. -1.
         11    1    1    2    0    0  0.17228624902E+01 -0.10121233283E+02 -0.16569462009E+01  0.10399667737E+02  0.00000000000E+00 0.  1.
</event>
<event>
 7    1  0.2749315E-009  0.9321835E+02  0.7561462E-02  0.1295240E+00
         -4   -1    0    0    0  501 -0.00000000000E+00  0.00000000000E+00  0.42956934096E+03  0.42956934096E+03  0.00000000000E+00 0.  1.
          4   -1    0    0  501    0  0.00000000000E+00 -0.00000000000E+00 -0.30637287125E+02  0.30637287125E+02  0.00000000000E+00 0. -1.
         25    2    1    2    0    0  0.15890914626E+02 -0.27464831758E+02  0.25850207285E+03  0.28892520773E+03  0.12509043067E+03 0.  0.
          5    1    3    3  502    0  0.43371962907E+02  0.23785159033E+02  0.20098970577E+03  0.20702945487E+03  0.41800000000E+01 0. -1.
         -5    1    3    3    0  502 -0.27481048282E+02 -0.51249990791E+02  0.57512367078E+02  0.81895752867E+02  0.41800000000E+01 0. -1.
        -11    1    1    2    0    0  0.11314487404E+01  0.50131836472E+02  0.13276098295E+03  0.14191532616E+03  0.00000000000E+00 0.  1.
         11    1    1    2    0    0 -0.17022363366E+02 -0.22667004714E+02  0.76689980335E+01  0.29366094192E+02  0.00000000000E+00 0. -1.
</event>
<event>
 7    1  0.2788182E-009  0.1276503E+03  0.7561462E-02  0.1230984E+00
         -1   -1    0    0    0  501 -0.00000000000E+00  0.00000000000E+00  0.23765864197E+03  0.23765864197E+03  0.00000000000E+00 0.  1.
          1   -1    0    0  501    0  0.00000000000E+00 -0.00000000000E+00 -0.10145317003E+03  0.10145317003E+03  0.00000000000E+00 0. -1.
         25    2    1    2    0    0  0.58403773543E+02 -0.86827056792E+02  0.11287311164E+03  0.19834044334E+03  0.12509457853E+03 0.  0.
          5    1    3    3  502    0 -0.14914733438E+02  0.10035585540E+02  0.65216569823E+02  0.67777840259E+02  0.41800000000E+01 0.  1.
         -5    1    3    3    0  502  0.73318506981E+02 -0.96862642333E+02  0.47656541820E+02  0.13056260308E+03  0.41800000000E+01 0.  1.
        -11    1    1    2    0    0 -0.65697114831E+02  0.65583682284E+02 -0.17221111781E+02  0.94413436385E+02  0.00000000000E+00 0. -1.
         11    1    1    2    0    0  0.72933412888E+01  0.21243374508E+02  0.40553472070E+02  0.46357932273E+02  0.00000000000E+00 0.  1.
</event>
<event>
 7    1  0.2749315E-009  0.1156800E+03  0.7561462E-02  0.1250399E+00
          3   -1    0    0  501    0  0.00000000000E+00  0.00000000000E+00  0.30562303799E+03  0.30562303799E+03  0.00000000000E+00 0. -1.
         -3   -1    0    0    0  501 -0.00000000000E+00 -0.00000000000E+00 -0.51903485068E+02  0.51903485068E+02  0.00000000000E+00 0.  1.
         25    2    1    2    0    0 -0.33351574628E+02 -0.49992230829E+02  0.11561287214E+03  0.18062451346E+03  0.12508928006E+03 0.  0.
          5    1    3    3  502    0  0.21331310972E+02 -0.69763239702E+02  0.34685300506E+02  0.80885579139E+02  0.41800000000E+01 0.  1.
         -5    1    3    3    0  502 -0.54682885600E+02  0.19771008874E+02  0.80927571632E+02  0.99738934322E+02  0.41800000000E+01 0.  1.
        -11    1    1    2    0    0  0.27190449133E+02  0.72091815117E+02  0.13251737911E+03  0.15328863655E+03  0.00000000000E+00 0. -1.
         11    1    1    2    0    0  0.61611254949E+01 -0.22099584289E+02  0.55893016740E+01  0.23613373040E+02  0.00000000000E+00 0.  1.
</event>
<event>
 7    1  0.2749315E-009  0.1145819E+03  0.7561462E-02  0.1252313E+00
         -2   -1    0    0    0  501 -0.00000000000E+00  0.00000000000E+00  0.20517763162E+03  0.20517763162E+03  0.00000000000E+00 0.  1.
          2   -1    0    0  501    0  0.00000000000E+00 -0.00000000000E+00 -0.89885133490E+02  0.89885133490E+02  0.00000000000E+00 0. -1.
         25    2    1    2    0    0  0.38150588611E+02 -0.63948459270E+02  0.28462485976E+02  0.14833251125E+03  0.12509015921E+03 0.  0.
          5    1    3    3  502    0  0.55838835866E+02 -0.94833778905E+01  0.60171862575E+02  0.82740772856E+02  0.41800000000E+01 0.  1.
         -5    1    3    3    0  502 -0.17688247255E+02 -0.54465081379E+02 -0.31709376599E+02  0.65591738389E+02  0.41800000000E+01 0.  1.
        -11    1    1    2    0    0  0.84744461090E+01  0.67652962724E+02  0.68045280695E+02  0.96327046187E+02  0.00000000000E+00 0.  1.
         11    1    1    2    0    0 -0.46625034720E+02 -0.37045034547E+01  0.18784731463E+02  0.50403207682E+02  0.00000000000E+00 0. -1.
</event>
<event>
 7    1  0.2749315E-009  0.6760922E+02  0.7561462E-02  0.1368417E+00
         -2   -1    0    0    0  501 -0.00000000000E+00  0.00000000000E+00  0.10475206606E+03  0.10475206606E+03  0.00000000000E+00 0.  1.
          2   -1    0    0  501    0  0.00000000000E+00 -0.00000000000E+00 -0.14422639774E+03  0.14422639774E+03  0.00000000000E+00 0. -1.
         25    2    1    2    0    0 -0.28431776394E+02  0.69992038601E+01 -0.76970769776E+02  0.14976206301E+03  0.12508725496E+03 0.  0.
          5    1    3    3  502    0  0.70875127378E+01 -0.28849121273E+02  0.22930800138E+02  0.37759748807E+02  0.41800000000E+01 0.  1.
         -5    1    3    3    0  502 -0.35519289132E+02  0.35848325133E+02 -0.99901569914E+02  0.11200231420E+03  0.41800000000E+01 0.  1.
        -11    1    1    2    0    0  0.14294782157E+02 -0.26727683216E+02 -0.20334203320E+02  0.36499173575E+02  0.00000000000E+00 0. -1.
         11    1    1    2    0    0  0.14136994237E+02  0.19728479356E+02  0.57830641411E+02  0.62717227217E+02  0.00000000000E+00 0.  1.
</event>
<event>
 7    1  0.2749315E-009  0.1723433E+03  0.7561462E-02  0.1175426E+00
          1   -1    0    0  501    0  0.00000000000E+00  0.00000000000E+00  0.40528635066E+03  0.40528635066E+03  0.00000000000E+00 0. -1.
         -1   -1    0    0    0  501 -0.00000000000E+00 -0.00000000000E+00 -0.86187687089E+02  0.86187687089E+02  0.00000000000E+00 0.  1.
         25    2    1    2    0    0 -0.50043710245E+02  0.14302779708E+03  0.12784344394E+03  0.23441844545E+03  0.12508692073E+03 0.  0.
          5    1    3    3  502    0 -0.86492911558E+02  0.95370734882E+02  0.55300599681E+02  0.14018640999E+03  0.41800000000E+01 0. -1.
         -5    1    3    3    0  502  0.36449201313E+02  0.47657062194E+02  0.72542844258E+02  0.94232035457E+02  0.41800000000E+01 0. -1.
        -11    1    1    2    0    0  0.38506519556E+02 -0.56151237256E+02  0.31894656677E+02  0.75186319356E+02  0.00000000000E+00 0.  1.
         11    1    1    2    0    0  0.11537190689E+02 -0.86876559820E+02  0.15936056295E+03  0.18186927294E+03  0.00000000000E+00 0. -1.
</event>
<event>
 7    1  0.2749315E-009  0.1189000E+03  0.7561462E-02  0.1244923E+00
         -2   -1    0    0    0  501 -0.00000000000E+00  0.00000000000E+00  0.17772623118E+02  0.17772623118E+02  0.00000000000E+00 0.  1.
          2   -1    0    0  501    0  0.00000000000E+00 -0.00000000000E+00 -0.14356509013E+04  0.14356509013E+04  0.00000000000E+00 0. -1.
         25    2    1    2    0    0  0.74833008022E+02  0.46006790271E+02 -0.11005872033E+04  0.11111522180E+04  0.12510178093E+03 0.  0.
          5    1    3    3  502    0  0.37622202225E+02 -0.21270372014E+02 -0.12119854007E+03  0.12874166902E+03  0.41800000000E+01 0. -1.
         -5    1    3    3    0  502  0.37210805797E+02  0.67277162285E+02 -0.97938866326E+03  0.98241054898E+03  0.41800000000E+01 0. -1.
        -11    1    1    2    0    0  0.16461601712E+02 -0.98951359828E+01 -0.14801957047E+02  0.24248628404E+02  0.00000000000E+00 0.  1.
         11    1    1    2    0    0 -0.91294609734E+02 -0.36111654288E+02 -0.30248911785E+03  0.31802267806E+03  0.00000000000E+00 0. -1.
</event>
<event>
 7    1  0.2749315E-009  0.7897125E+02  0.7561462E-02  0.1331996E+00
         -2   -1    0    0    0  501 -0.00000000000E+00  0.00000000000E+00  0.26419990711E+03  0.26419990711E+03  0.00000000000E+00 0.  1.
          2   -1    0    0  501    0  0.00000000000E+00 -0.00000000000E+00 -0.58531968519E+02  0.58531968519E+02  0.00000000000E+00 0. -1.
         25    2    1    2    0    0 -0.48593031624E+02 -0.13725365052E+02  0.17938639160E+03  0.22444537897E+03  0.12508629933E+03 0.  0.
          5    1    3    3  502    0 -0.53427856630E+02  0.43234262293E+01  0.19338951539E+03  0.20072420118E+03  0.41800000000E+01 0. -1.
         -5    1    3    3    0  502  0.48348250069E+01 -0.18048791281E+02 -0.14003123790E+02  0.23721177783E+02  0.41800000000E+01 0. -1.
        -11    1    1    2    0    0  0.56341167407E+02  0.32272706543E+02  0.37788263077E+02  0.75125279093E+02  0.00000000000E+00 0.  1.
         11    1    1    2    0    0 -0.77481357831E+01 -0.18547341491E+02 -0.11506716081E+02  0.23161217573E+02  0.00000000000E+00 0. -1.
</event>
<event>
 7    1  0.2749315E-009  0.2050942E+03  0.7561462E-02  0.1145511E+00
          2   -1    0    0  501    0  0.00000000000E+00  0.00000000000E+00  0.17424620543E+04  0.17424620543E+04  0.00000000000E+00 0. -1.
         -2   -1    0    0    0  501 -0.00000000000E+00 -0.00000000000E+00 -0.32440199067E+02  0.32440199067E+02  0.00000000000E+00 0.  1.
         25    2    1    2    0    0 -0.11515166921E+03 -0.16714847212E+03  0.66203865998E+03  0.70366152835E+03  0.12508333433E+03 0.  0.
          5    1    3    3  502    0 -0.11332214885E+03 -0.14625260453E+03  0.39983936861E+03  0.44059133769E+03  0.41800000000E+01 0. -1.
         -5    1    3    3    0  502 -0.18295203676E+01 -0.20895867598E+02  0.26219929136E+03  0.26307019067E+03  0.41800000000E+01 0. -1.
        -11    1    1    2    0    0  0.10354521011E+03  0.13933482895E+03  0.99712339396E+03  0.10121219629E+04  0.00000000000E+00 0. -1.
         11    1    1    2    0    0  0.11606459103E+02  0.27813643175E+02  0.50859801250E+02  0.59118762020E+02  0.00000000000E+00 0.  1.
</event>
<event>
 7    1  0.2749315E-009  0.1155925E+03  0.7561462E-02  0.1250550E+00
         -3   -1    0    0    0  501 -0.00000000000E+00  0.00000000000E+00  0.86672254562E+02  0.86672254562E+02  0.00000000000E+00 0.  1.
          3   -1    0    0  501    0  0.00000000000E+00 -0.00000000000E+00 -0.23196689376E+03  0.23196689376E+03  0.00000000000E+00 0. -1.
         25    2    1    2    0    0  0.81980123915E+02  0.35034404282E+01 -0.12419374738E+03  0.19443150228E+03  0.12508599993E+03 0.  0.
          5    1    3    3  502    0 -0.24656723191E+02  0.29412969311E+02 -0.22091328544E+02  0.44481186575E+02  0.41800000000E+01 0. -1.
         -5    1    3    3    0  502  0.10663684711E+03 -0.25909528883E+02 -0.10210241883E+03  0.14995031570E+03  0.41800000000E+01 0. -1.
        -11    1    1    2    0    0 -0.65818577258E+02 -0.71032346162E+01 -0.55268893139E+02  0.86239153539E+02  0.00000000000E+00 0. -1.
         11    1    1    2    0    0 -0.16161546657E+02  0.35997941879E+01  0.34168001322E+02  0.37968492502E+02  0.00000000000E+00 0.  1.
</event>
<event>
 7    1  0.2749315E-009  0.8413282E+02  0.7561462E-02  0.1317716E+00
         -1   -1    0    0    0  501 -0.00000000000E+00  0.00000000000E+00  0.25969557785E+03  0.25969557785E+03  0.00000000000E+00 0. -1.
          1   -1    0    0  501    0  0.00000000000E+00 -0.00000000000E+00 -0.87246859915E+02  0.87246859915E+02  0.00000000000E+00 0.  1.
         25    2    1    2    0    0  0.34601016927E+02 -0.10212449067E+02  0.22057640126E+03  0.25612934559E+03  0.12508704326E+03 0.  0.
          5    1    3    3  502    0 -0.11054910652E+02 -0.54194666321E+02  0.15587665965E+03  0.16545174019E+03  0.41800000000E+01 0.  1.
         -5    1    3    3    0  502  0.45655927580E+02  0.43982217254E+02  0.64699741608E+02  0.90677605404E+02  0.41800000000E+01 0.  1.
        -11    1    1    2    0    0 -0.14781794381E+02  0.21775773682E+02  0.10128702453E+02  0.28200644992E+02  0.00000000000E+00 0. -1.
         11    1    1    2    0    0 -0.19819222546E+02 -0.11563324615E+02 -0.58256385776E+02  0.62612447183E+02  0.00000000000E+00 0.  1.
</event>
<event>
 7    1  0.2749315E-009  0.1048913E+03  0.7561462E-02  0.1270334E+00
         -1   -1    0    0    0  501 -0.00000000000E+00  0.00000000000E+00  0.40802555979E+02  0.40802555979E+02  0.00000000000E+00 0.  1.
          1   -1    0    0  501    0  0.00000000000E+00 -0.00000000000E+00 -0.38571759495E+03  0.38571759495E+03  0.00000000000E+00 0. -1.
         25    2    1    2    0    0  0.21294896578E+02 -0.52803005635E+02 -0.20008422670E+03  0.24273897111E+03  0.12508749056E+03 0.  0.
          5    1    3    3  502    0  0.57422938357E+02 -0.39537765949E+02 -0.45442875248E+02  0.83325602888E+02  0.41800000000E+01 0. -1.
         -5    1    3    3    0  502 -0.36128041779E+02 -0.13265239686E+02 -0.15464135145E+03  0.15941336822E+03  0.41800000000E+01 0. -1.
        -11    1    1    2    0    0 -0.39790548541E+02 -0.54001197707E+01 -0.20106995426E+02  0.44908131911E+02  0.00000000000E+00 0. -1.
         11    1    1    2    0    0  0.18495651962E+02  0.58203125406E+02 -0.12472381684E+03  0.13887304791E+03  0.00000000000E+00 0.  1.
</event>
<event>
 7    1  0.2749315E-009  0.1058141E+03  0.7561462E-02  0.1268524E+00
         -1   -1    0    0    0  501 -0.00000000000E+00  0.00000000000E+00  0.31461347910E+02  0.31461347910E+02  0.00000000000E+00 0.  1.
          1   -1    0    0  501    0  0.00000000000E+00 -0.00000000000E+00 -0.43945648177E+03  0.43945648177E+03  0.00000000000E+00 0. -1.
         25    2    1    2    0    0 -0.64898486955E+01 -0.45262242124E+02 -0.22888079968E+03  0.26481083463E+03  0.12509024334E+03 0.  0.
          5    1    3    3  502    0 -0.12730427239E+02  0.33595762294E+02 -0.14497764691E+03  0.14942131550E+03  0.41800000000E+01 0.  1.
         -5    1    3    3    0  502  0.62405785434E+01 -0.78858004418E+02 -0.83903152767E+02  0.11538951913E+03  0.41800000000E+01 0.  1.
        -11    1    1    2    0    0 -0.33856361151E+02  0.44468495935E+02 -0.68782356645E+02  0.88626818214E+02  0.00000000000E+00 0.  1.
         11    1    1    2    0    0  0.40346209847E+02  0.79374618945E+00 -0.11033197754E+03  0.11748017684E+03  0.00000000000E+00 0. -1.
</event>
<event>
 7    1  0.2749315E-009  0.1609232E+03  0.7561462E-02  0.1187658E+00
         -1   -1    0    0    0  501 -0.00000000000E+00  0.00000000000E+00  0.16072757875E+03  0.16072757875E+03  0.00000000000E+00 0.  1.
          1   -1    0    0  501    0  0.00000000000E+00 -0.00000000000E+00 -0.18093111178E+03  0.18093111178E+03  0.00000000000E+00 0. -1.
         25    2    1    2    0    0  0.11946280731E+03 -0.52900061728E+02  0.44132972496E+02  0.18618487735E+03  0.12508920988E+03 0.  0.
          5    1    3    3  502    0  0.33555418598E+02 -0.82737750621E+02  0.15230035345E+02  0.90669332586E+02  0.41800000000E+01 0. -1.
         -5    1    3    3    0  502  0.85907388717E+02  0.29837688893E+02  0.28902937151E+02  0.95515544759E+02  0.41800000000E+01 0. -1.
        -11    1    1    2    0    0 -0.15909234709E+02  0.32070827737E+02 -0.13644664571E+02  0.38312120954E+02  0.00000000000E+00 0.  1.
         11    1    1    2    0    0 -0.10355357261E+03  0.20829233991E+02 -0.50691840951E+02  0.11716169223E+03  0.00000000000E+00 0. -1.
</event>
<event>
 7    1  0.2749315E-009  0.8740869E+02  0.7561462E-02  0.1309251E+00
          2   -1    0    0  501    0  0.00000000000E+00  0.00000000000E+00  0.14408928832E+03  0.14408928832E+03  0.00000000000E+00 0. -1.
         -2   -1    0    0    0  501 -0.00000000000E+00 -0.00000000000E+00 -0.83712132064E+02  0.83712132064E+02  0.00000000000E+00 0.  1.
         25    2    1    2    0    0 -0.15539644280E+02  0.88611506148E+01  0.47087976709E+02  0.13484903003E+03  0.12508790035E+03 0.  0.
          5    1    3    3  502    0 -0.41618517266E+00  0.44501849327E+02  0.74740990951E+02  0.87087748461E+02  0.41800000000E+01 0. -1.
         -5    1    3    3    0  502 -0.15123459107E+02 -0.35640698713E+02 -0.27653014241E+02  0.47761281565E+02  0.41800000000E+01 0. -1.
        -11    1    1    2    0    0  0.77252822146E+01  0.40484772093E+02 -0.15028083139E+00  0.41215523059E+02  0.00000000000E+00 0. -1.
         11    1    1    2    0    0  0.78143620650E+01 -0.49345922707E+02  0.13439460374E+02  0.51736867295E+02  0.00000000000E+00 0.  1.
</event>
<event>
 7    1  0.3073245E-009  0.1116866E+03  0.7561462E-02  0.1257478E+00
         -2   -1    0    0    0  501 -0.00000000000E+00  0.00000000000E+00  0.29537539807E+02  0.29537539807E+02  0.00000000000E+00 0. -1.
          2   -1    0    0  501    0  0.00000000000E+00 -0.00000000000E+00 -0.73251965717E+03  0.73251965717E+03  0.00000000000E+00 0.  1.
         25    2    1    2    0    0 -0.76395704171E+02  0.52016906139E+02 -0.47510495906E+03  0.49991459079E+03  0.12509122201E+03 0.  0.
          5    1    3    3  502    0 -0.76687686468E+02  0.12724950340E+01 -0.41066217259E+03  0.41778405055E+03  0.41800000000E+01 0.  1.
         -5    1    3    3    0  502  0.29198229744E+00  0.50744411105E+02 -0.64442786468E+02  0.82130540238E+02  0.41800000000E+01 0.  1.
        -11    1    1    2    0    0  0.33154041105E+02 -0.37444739503E+02 -0.20516282850E+03  0.21117074881E+03  0.00000000000E+00 0.  1.
         11    1    1    2    0    0  0.43241663065E+02 -0.14572166636E+02 -0.22714329805E+02  0.50971857369E+02  0.00000000000E+00 0. -1.
</event>
<event>
 7    1  0.2749315E-009  0.1322400E+03  0.7561462E-02  0.1224169E+00
         -2   -1    0    0    0  501 -0.00000000000E+00  0.00000000000E+00  0.41976322690E+02  0.41976322690E+02  0.00000000000E+00 0.  1.
          2   -1    0    0  501    0  0.00000000000E+00 -0.00000000000E+00 -0.85850954890E+03  0.85850954890E+03  0.00000000000E+00 0. -1.
         25    2    1    2    0    0 -0.27230362249E+02 -0.85725903817E+02 -0.71985786862E+03  0.73616151079E+03  0.12509194913E+03 0.  0.
          5    1    3    3  502    0  0.29715022957E+02 -0.66653816188E+02 -0.20204910542E+03  0.21486513724E+03  0.41800000000E+01 0.  1.
         -5    1    3    3    0  502 -0.56945385206E+02 -0.19072087629E+02 -0.51780876320E+03  0.52129637354E+03  0.41800000000E+01 0.  1.
        -11    1    1    2    0    0 -0.33694601917E+02  0.50796076842E+02 -0.58053463147E+02  0.84177028958E+02  0.00000000000E+00 0. -1.
         11    1    1    2    0    0  0.60924964166E+02  0.34929826974E+02 -0.38621894439E+02  0.80147331840E+02  0.00000000000E+00 0.  1.
</event>
<event>
 7    1  0.2749315E-009  0.1754015E+03  0.7561462E-02  0.1172329E+00
         -2   -1    0    0    0  501 -0.00000000000E+00  0.00000000000E+00  0.29511231424E+03  0.29511231424E+03  0.00000000000E+00 0.  1.
          2   -1    0    0  501    0  0.00000000000E+00 -0.00000000000E+00 -0.12647495793E+03  0.12647495793E+03  0.00000000000E+00 0. -1.
         25    2    1    2    0    0  0.81783126878E+02  0.13552977541E+03  0.64529224810E+02  0.21182158426E+03  0.12509021879E+03 0.  0.
          5    1    3    3  502    0  0.66379178892E+02  0.42551881207E+02  0.84226950920E+02  0.11544916477E+03  0.41800000000E+01 0. -1.
         -5    1    3    3    0  502  0.15403947986E+02  0.92977894204E+02 -0.19697726109E+02  0.96372419488E+02  0.41800000000E+01 0. -1.
        -11    1    1    2    0    0 -0.80493799167E+02 -0.56211156965E+02  0.34006242441E+02  0.10390077188E+03  0.00000000000E+00 0.  1.
         11    1    1    2    0    0 -0.12893277111E+01 -0.79318618446E+02  0.70101889056E+02  0.10586491604E+03  0.00000000000E+00 0. -1.
</event>
<event>
 7    1  0.2749315E-009  0.9091974E+02  0.7561462E-02  0.1300640E+00
         -2   -1    0    0    0  501 -0.00000000000E+00  0.00000000000E+00  0.67248352488E+02  0.67248352488E+02  0.00000000000E+00 0.  1.
          2   -1    0    0  501    0  0.00000000000E+00 -0.00000000000E+00 -0.43844955713E+03  0.43844955713E+03  0.00000000000E+00 0. -1.
         25    2    1    2    0    0  0.80470280981E+02 -0.12728811666E+02 -0.35202588634E+03  0.38237164009E+03  0.12509339600E+03 0.  0.
          5    1    3    3  502    0 -0.28182510236E+01  0.87739634915E+01  0.75505748687E+01  0.12625710080E+02  0.41800000000E+01 0. -1.
         -5    1    3    3    0  502  0.83288532004E+02 -0.21502775157E+02 -0.35957646121E+03  0.36974593001E+03  0.41800000000E+01 0. -1.
        -11    1    1    2    0    0 -0.71689379625E+02  0.19745938498E+02  0.24450423537E+02  0.78275746239E+02  0.00000000000E+00 0.  1.
         11    1    1    2    0    0 -0.87809013556E+01 -0.70171268328E+01 -0.43625741844E+02  0.45050523294E+02  0.00000000000E+00 0. -1.
</event>
<event>
 7    1  0.2749315E-009  0.1180381E+03  0.7561462E-02  0.1246369E+00
          1   -1    0    0  501    0  0.00000000000E+00  0.00000000000E+00  0.17802848875E+03  0.17802848875E+03  0.00000000000E+00 0. -1.
         -1   -1    0    0    0  501 -0.00000000000E+00 -0.00000000000E+00 -0.91413768690E+02  0.91413768690E+02  0.00000000000E+00 0.  1.
         25    2    1    2    0    0 -0.41292581456E+02 -0.30253277868E+02  0.31852305520E+01  0.13519456665E+03  0.12508831701E+03 0.  0.
          5    1    3    3  502    0 -0.16801632026E+02 -0.77956950754E+02  0.11798694485E+02  0.80723370849E+02  0.41800000000E+01 0.  1.
         -5    1    3    3    0  502 -0.24490949430E+02  0.47703672887E+02 -0.86134639333E+01  0.54471195799E+02  0.41800000000E+01 0.  1.
        -11    1    1    2    0    0  0.60600018190E+01  0.57547577278E+02  0.31746364025E+02  0.66002112855E+02  0.00000000000E+00 0.  1.
         11    1    1    2    0    0  0.35232579637E+02 -0.27294299410E+02  0.51683125481E+02  0.68245577934E+02  0.00000000000E+00 0. -1.
</event>
<event>
 7    1  0.2749315E-009  0.1405002E+03  0.7561462E-02  0.1212658E+00
          2   -1    0    0  501    0  0.00000000000E+00  0.00000000000E+00  0.16647868363E+03  0.16647868363E+03  0.00000000000E+00 0. -1.
         -2   -1    0    0    0  501 -0.00000000000E+00 -0.00000000000E+00 -0.12121511613E+03  0.12121511613E+03  0.00000000000E+00 0.  1.
         25    2    1    2    0    0  0.92130543107E+02  0.73053137829E+01  0.25809817128E+02  0.15766067966E+03  0.12509731679E+03 0.  0.
          5    1    3    3  502    0  0.84918974483E+00 -0.46323235748E+02  0.22456421795E+02  0.51655847425E+02  0.41800000000E+01 0. -1.
         -5    1    3    3    0  502  0.91281353362E+02  0.53628549531E+02  0.33533953326E+01  0.10600483223E+03  0.41800000000E+01 0. -1.
        -11    1    1    2    0    0 -0.10872055161E+03 -0.15847294214E+02  0.17772163901E+02  0.11129755112E+03  0.00000000000E+00 0. -1.
         11    1    1    2    0    0  0.16590008502E+02  0.85419804312E+01  0.16815864746E+01  0.18735568976E+02  0.00000000000E+00 0.  1.
</event>
<event>
 7    1  0.2749315E-009  0.9615201E+02  0.7561462E-02  0.1288602E+00
         -2   -1    0    0    0  501 -0.00000000000E+00  0.00000000000E+00  0.38655220799E+02  0.38655220799E+02  0.00000000000E+00 0.  1.
          2   -1    0    0  501    0  0.00000000000E+00 -0.00000000000E+00 -0.32630770903E+03  0.32630770903E+03  0.00000000000E+00 0. -1.
         25    2    1    2    0    0 -0.51705531166E+01  0.13003832164E+02 -0.12633492084E+03  0.17833533095E+03  0.12508854371E+03 0.  0.
          5    1    3    3  502    0  0.58548106750E+02 -0.24121595790E+01 -0.46330452092E+02  0.74817661745E+02  0.41800000000E+01 0.  1.
         -5    1    3    3    0  502 -0.63718659867E+02  0.15415991743E+02 -0.80004468752E+02  0.10351766920E+03  0.41800000000E+01 0.  1.
        -11    1    1    2    0    0  0.31409969643E+02  0.10008827690E+02 -0.15023535348E+02  0.36228020081E+02  0.00000000000E+00 0.  1.
         11    1    1    2    0    0 -0.26239416526E+02 -0.23012659853E+02 -0.14629403204E+03  0.15039957880E+03  0.00000000000E+00 0. -1.
</event>
<event>
 7    1  0.2749315E-009  0.1489287E+03  0.7561462E-02  0.1201796E+00
         -1   -1    0    0    0  501 -0.00000000000E+00  0.00000000000E+00  0.10289150298E+03  0.10289150298E+03  0.00000000000E+00 0.  1.
          1   -1    0    0  501    0  0.00000000000E+00 -0.00000000000E+00 -0.30385408854E+03  0.30385408854E+03  0.00000000000E+00 0. -1.
         25    2    1    2    0    0  0.59652455531E+02  0.12144162855E+03 -0.14684880499E+03  0.23562305613E+03  0.12508864239E+03 0.  0.
          5    1    3    3  502    0  0.10796599187E+01  0.27326635094E+02 -0.11772473357E+03  0.12093178220E+03  0.41800000000E+01 0. -1.
         -5    1    3    3    0  502  0.58572795612E+02  0.94114993461E+02 -0.29124071421E+02  0.11469127393E+03  0.41800000000E+01 0. -1.
        -11    1    1    2    0    0 -0.70533853022E+02 -0.48709673146E+02 -0.12503927269E+02  0.86625659462E+02  0.00000000000E+00 0. -1.
         11    1    1    2    0    0  0.10881397491E+02 -0.72731955408E+02 -0.41609853299E+02  0.84496875921E+02  0.00000000000E+00 0.  1.
</event>
<event>
 7    1  0.2749315E-009  0.9847536E+02  0.7561462E-02  0.1283535E+00
          1   -1    0    0  501    0  0.00000000000E+00  0.00000000000E+00  0.86499928231E+03  0.86499928231E+03  0.00000000000E+00 0. -1.
         -1   -1    0    0    0  501 -0.00000000000E+00 -0.00000000000E+00 -0.25352538959E+02  0.25352538959E+02  0.00000000000E+00 0.  1.
         25    2    1    2    0    0 -0.10846347609E+02  0.36798379977E+02  0.72903768257E+03  0.74068530429E+03  0.12508802245E+03 0.  0.
          5    1    3    3  502    0  0.35915034565E+01 -0.30119130225E+02  0.53244414745E+02  0.61420688730E+02  0.41800000000E+01 0. -1.
         -5    1    3    3    0  502 -0.14437851066E+02  0.66917510202E+02  0.67579326783E+03  0.67926461556E+03  0.41800000000E+01 0. -1.
        -11    1    1    2    0    0 -0.20587448160E+02 -0.56849375121E+02  0.49770972476E+02  0.78312477771E+02  0.00000000000E+00 0.  1.
         11    1    1    2    0    0  0.31433795769E+02  0.20050995144E+02  0.60838088307E+02  0.71354039210E+02  0.00000000000E+00 0. -1.
</event>
<event>
 7    1  0.2749315E-009  0.1194473E+03  0.7561462E-02  0.1244012E+00
          2   -1    0    0  501    0  0.00000000000E+00  0.00000000000E+00  0.12725697343E+03  0.12725697343E+03  0.00000000000E+00 0. -1.
         -2   -1    0    0    0  501 -0.00000000000E+00 -0.00000000000E+00 -0.15777047730E+03  0.15777047730E+03  0.00000000000E+00 0.  1.
         25    2    1    2    0    0 -0.83661844989E+02  0.14321228812E+02  0.18079422184E+02  0.15224213908E+03  0.12508557672E+03 0.  0.
          5    1    3    3  502    0  0.22499005469E+02  0.33467947570E+02 -0.76614661761E+01  0.41261110329E+02  0.41800000000E+01 0.  1.
         -5    1    3    3    0  502 -0.10616085046E+03 -0.19146718758E+02  0.25740888360E+02  0.11098102875E+03  0.41800000000E+01 0.  1.
        -11    1    1    2    0    0  0.58281719250E+02 -0.24273852944E+02  0.13863081122E+02  0.64638717141E+02  0.00000000000E+00 0. -1.
         11    1    1    2    0    0  0.25380125739E+02  0.99526241316E+01 -0.62456007183E+02  0.68146594506E+02  0.00000000000E+00 0.  1.
</event>
<event>
 7    1  0.2749315E-009  0.1378420E+03  0.7561462E-02  0.1216263E+00
         -1   -1    0    0    0  501 -0.00000000000E+00  0.00000000000E+00  0.36307420581E+02  0.36307420581E+02  0.00000000000E+00 0.  1.
          1   -1    0    0  501    0  0.00000000000E+00 -0.00000000000E+00 -0.83399962589E+03  0.83399962589E+03  0.00000000000E+00 0. -1.
         25    2    1    2    0    0  0.21283346155E+02  0.11932538670E+03 -0.57905493864E+03  0.60468592178E+03  0.12509561664E+03 0.  0.
          5    1    3    3  502    0  0.27969434897E+02  0.79303410341E+02 -0.54523668915E+03  0.55169904819E+03  0.41800000000E+01 0.  1.
         -5    1    3    3    0  502 -0.66860887411E+01  0.40021976358E+02 -0.33818249491E+02  0.52986873591E+02  0.41800000000E+01 0.  1.
        -11    1    1    2    0    0  0.28260823349E+02 -0.87161591356E+02 -0.13850284962E+03  0.16606883060E+03  0.00000000000E+00 0.  1.
         11    1    1    2    0    0 -0.49544169505E+02 -0.32163795344E+02 -0.80134417042E+02  0.99552294085E+02  0.00000000000E+00 0. -1.
</event>
<event>
 7    1  0.2749315E-009  0.8195246E+02  0.7561462E-02  0.1323600E+00
          2   -1    0    0  501    0  0.00000000000E+00  0.00000000000E+00  0.48463361873E+02  0.48463361873E+02  0.00000000000E+00 0. -1.
         -2   -1    0    0    0  501 -0.00000000000E+00 -0.00000000000E+00 -0.53776828123E+03  0.53776828123E+03  0.00000000000E+00 0.  1.
         25    2    1    2    0    0  0.69401186744E+02 -0.65928233994E+01 -0.86086712228E+02  0.16708625668E+03  0.12508758974E+03 0.  0.
          5    1    3    3  502    0  0.41030218371E+02  0.11053863721E+01  0.27565836824E+02  0.49619033228E+02  0.41800000000E+01 0. -1.
         -5    1    3    3    0  502  0.28370968373E+02 -0.76982097715E+01 -0.11365254905E+03  0.11746722345E+03  0.41800000000E+01 0. -1.
        -11    1    1    2    0    0 -0.54322060479E+02 -0.23583779309E+02 -0.35726073852E+03  0.36213577038E+03  0.00000000000E+00 0.  1.
         11    1    1    2    0    0 -0.15079126265E+02  0.30176602709E+02 -0.45957468601E+02  0.57009616032E+02  0.00000000000E+00 0. -1.
</event>
<event>
 7    1  0.2749315E-009  0.1271684E+03  0.7561462E-02  0.1231719E+00
         -3   -1    0    0    0  501 -0.00000000000E+00  0.00000000000E+00  0.11807406416E+03  0.11807406416E+03  0.00000000000E+00 0.  1.
          3   -1    0    0  501    0  0.00000000000E+00 -0.00000000000E+00 -0.16227373695E+03  0.16227373695E+03  0.00000000000E+00 0. -1.
         25    2    1    2    0    0  0.25687852791E+02  0.61870374879E+02 -0.60747355869E+02  0.15435385783E+03  0.12508822133E+03 0.  0.
          5    1    3    3  502    0 -0.25433399408E+02 -0.20418707656E+02  0.99466603254E+01  0.34353891765E+02  0.41800000000E+01 0. -1.
         -5    1    3    3    0  502  0.51121252199E+02  0.82289082535E+02 -0.70694016194E+02  0.11999996607E+03  0.41800000000E+01 0. -1.
        -11    1    1    2    0    0  0.20187468733E+02 -0.74271947162E+02  0.15197906829E+02  0.78452739920E+02  0.00000000000E+00 0.  1.
         11    1    1    2    0    0 -0.45875321524E+02  0.12401572283E+02  0.13497762465E+01  0.47541203349E+02  0.00000000000E+00 0. -1.
</event>
<event>
 7    1  0.2749315E-009  0.1909210E+03  0.7561462E-02  0.1157633E+00
          2   -1    0    0  501    0  0.00000000000E+00  0.00000000000E+00  0.80470830456E+03  0.80470830456E+03  0.00000000000E+00 0.  1.
         -2   -1    0    0    0  501 -0.00000000000E+00 -0.00000000000E+00 -0.54572430166E+02  0.54572430166E+02  0.00000000000E+00 0. -1.
         25    2    1    2    0    0  0.24980179817E+02  0.17756504727E+03  0.40805226576E+03  0.46293369676E+03  0.12509036978E+03 0.  0.
          5    1    3    3  502    0 -0.33588929465E+02  0.87869918281E+02  0.10282429435E+03  0.13942613324E+03  0.41800000000E+01 0. -1.
         -5    1    3    3    0  502  0.58569109281E+02  0.89695128988E+02  0.30522797141E+03  0.32350756352E+03  0.41800000000E+01 0. -1.
        -11    1    1    2    0    0  0.12247545714E+01 -0.60421762032E+02  0.20696918496E+03  0.21561199613E+03  0.00000000000E+00 0.  1.
         11    1    1    2    0    0 -0.26204934388E+02 -0.11714328524E+03  0.13511442367E+03  0.18073504183E+03  0.00000000000E+00 0. -1.
</event>
<event>
 7    1  0.2749315E-009  0.9288214E+02  0.7561462E-02  0.1296019E+00
          3   -1    0    0  501    0  0.00000000000E+00  0.00000000000E+00  0.24827830456E+03  0.24827830456E+03  0.00000000000E+00 0. -1.
         -3   -1    0    0    0  501 -0.00000000000E+00 -0.00000000000E+00 -0.50346161706E+02  0.50346161706E+02  0.00000000000E+00 0.  1.
         25    2    1    2    0    0  0.28875224281E+02  0.26670797996E+01  0.11736213896E+03  0.17396268026E+03  0.12509296770E+03 0.  0.
          5    1    3    3  502    0  0.62948857149E+02 -0.95515100915E+01  0.15334389010E+02  0.65623211196E+02  0.41800000000E+01 0.  1.
         -5    1    3    3    0  502 -0.34073632868E+02  0.12218589891E+02  0.10202774995E+03  0.10833946906E+03  0.41800000000E+01 0.  1.
        -11    1    1    2    0    0 -0.53310550669E+02 -0.18469486399E+02  0.76833162264E+02  0.95322985496E+02  0.00000000000E+00 0. -1.
         11    1    1    2    0    0  0.24435326388E+02  0.15802406600E+02  0.37368416241E+01  0.29338800510E+02  0.00000000000E+00 0.  1.
</event>
<event>
 7    1  0.2749315E-009  0.8661373E+02  0.7561462E-02  0.1311266E+00
         -3   -1    0    0    0  501 -0.00000000000E+00  0.00000000000E+00  0.53788695598E+02  0.53788695598E+02  0.00000000000E+00 0.  1.
          3   -1    0    0  501    0  0.00000000000E+00 -0.00000000000E+00 -0.27393039953E+03  0.27393039953E+03  0.00000000000E+00 0. -1.
         25    2    1    2    0    0 -0.42760960072E+02  0.31563516572E+02 -0.12415461021E+03  0.18408241845E+03  0.12508882548E+03 0.  0.
          5    1    3    3  502    0 -0.22158379813E+02 -0.11560499634E+02 -0.13291931018E+03  0.13531317145E+03  0.41800000000E+01 0. -1.
         -5    1    3    3    0  502 -0.20602580260E+02  0.43124016207E+02  0.87646999723E+01  0.48769246998E+02  0.41800000000E+01 0. -1.
        -11    1    1    2    0    0  0.39950130713E+02  0.22449871398E+02 -0.69913077066E+02  0.83593349105E+02  0.00000000000E+00 0.  1.
         11    1    1    2    0    0  0.28108293590E+01 -0.54013387970E+02 -0.26074016652E+02  0.60043327573E+02  0.00000000000E+00 0. -1.
</event>
<event>
 7    1  0.2749315E-009  0.1208597E+03  0.7561462E-02  0.1241686E+00
         -2   -1    0    0    0  501 -0.00000000000E+00  0.00000000000E+00  0.64357374074E+02  0.64357374074E+02  0.00000000000E+00 0.  1.
          2   -1    0    0  501    0  0.00000000000E+00 -0.00000000000E+00 -0.30295822559E+03  0.30295822559E+03  0.00000000000E+00 0. -1.
         25    2    1    2    0    0 -0.72381395783E+02 -0.43983784691E+02 -0.17561249085E+03  0.23164788939E+03  0.12508939981E+03 0.  0.
          5    1    3    3  502    0  0.41649203643E+01  0.20985516758E+02 -0.10883164642E+03  0.11099341484E+03  0.41800000000E+01 0. -1.
         -5    1    3    3    0  502 -0.76546316147E+02 -0.64969301449E+02 -0.66780844433E+02  0.12065447455E+03  0.41800000000E+01 0. -1.
        -11    1    1    2    0    0  0.66992656097E+02 -0.77310875297E+01 -0.28128911759E+02  0.73068607227E+02  0.00000000000E+00 0.  1.
         11    1    1    2    0    0  0.53887396856E+01  0.51714872220E+02 -0.34859448906E+02  0.62599103046E+02  0.00000000000E+00 0. -1.
</event>
<event>
 7    1  0.2749315E-009  0.1042169E+03  0.7561462E-02  0.1271670E+00
          2   -1    0    0  501    0  0.00000000000E+00  0.00000000000E+00  0.45857921119E+03  0.45857921119E+03  0.00000000000E+00 0. -1.
         -2   -1    0    0    0  501 -0.00000000000E+00 -0.00000000000E+00 -0.44583083868E+02  0.44583083868E+02  0.00000000000E+00 0.  1.
         25    2    1    2    0    0 -0.19628815586E+02  0.71073888214E+02  0.12612229436E+03  0.19233393960E+03  0.12509485680E+03 0.  0.
          5    1    3    3  502    0 -0.49699676748E+01  0.76107019371E+02  0.12278737766E+02  0.77364195706E+02  0.41800000000E+01 0.  1.
         -5    1    3    3    0  502 -0.14658847911E+02 -0.50331311570E+01  0.11384355660E+03  0.11496974389E+03  0.41800000000E+01 0.  1.
        -11    1    1    2    0    0  0.36741493464E+02  0.58402611892E+01  0.72391169612E+02  0.81391199957E+02  0.00000000000E+00 0.  1.
         11    1    1    2    0    0 -0.17112677878E+02 -0.76914149403E+02  0.21548266335E+03  0.22943715550E+03  0.00000000000E+00 0. -1.
</event>
<event>
 7    1  0.2749315E-009  0.1556065E+03  0.7561462E-02  0.1193748E+00
         -1   -1    0    0    0  501 -0.00000000000E+00  0.00000000000E+00  0.13989348901E+03  0.13989348901E+03  0.00000000000E+00 0.  1.
          1   -1    0    0  501    0  0.00000000000E+00 -0.00000000000E+00 -0.22657433943E+03  0.22657433943E+03  0.00000000000E+00 0. -1.
         25    2    1    2    0    0 -0.13055971131E+03 -0.23624140702E+02 -0.95517698676E+02  0.20585115421E+03  0.12508848343E+03 0.  0.
          5    1    3    3  502    0 -0.71199988090E+02  0.24774503493E+02 -0.10417650689E+03  0.12866013880E+03  0.41800000000E+01 0. -1.
         -5    1    3    3    0  502 -0.59359723222E+02 -0.48398644195E+02  0.86588082152E+01  0.77191015414E+02  0.41800000000E+01 0. -1.
        -11    1    1    2    0    0  0.84262514459E+02  0.57176189185E+02 -0.44114479943E+01  0.10192521193E+03  0.00000000000E+00 0.  1.
         11    1    1    2    0    0  0.46297196853E+02 -0.33552048484E+02  0.13248296255E+02  0.58691462306E+02  0.00000000000E+00 0. -1.
</event>
<event>
 7    1  0.2749315E-009  0.1488268E+03  0.7561462E-02  0.1201922E+00
          3   -1    0    0  501    0  0.00000000000E+00  0.00000000000E+00  0.87728941693E+02  0.87728941693E+02  0.00000000000E+00 0. -1.
         -3   -1    0    0    0  501 -0.00000000000E+00 -0.00000000000E+00 -0.36665945551E+03  0.36665945551E+03  0.00000000000E+00 0.  1.
         25    2    1    2    0    0 -0.35000269456E+02 -0.13037675916E+03 -0.88650405959E+02  0.20427922977E+03  0.12509193038E+03 0.  0.
          5    1    3    3  502    0 -0.18844690475E+02 -0.36730946794E+02 -0.10020742395E+03  0.10845867889E+03  0.41800000000E+01 0. -1.
         -5    1    3    3    0  502 -0.16155578982E+02 -0.93645812368E+02  0.11557017989E+02  0.95820550880E+02  0.41800000000E+01 0. -1.
        -11    1    1    2    0    0  0.35908729266E+02  0.56998166281E+01 -0.30618905845E+02  0.47533589621E+02  0.00000000000E+00 0. -1.
         11    1    1    2    0    0 -0.90845980958E+00  0.12467694253E+03 -0.15966120201E+03  0.20257557781E+03  0.00000000000E+00 0.  1.
</event>
<event>
 7    1  0.2749315E-009  0.1085889E+03  0.7561462E-02  0.1263206E+00
         -1   -1    0    0    0  501 -0.00000000000E+00  0.00000000000E+00  0.79072761580E+02  0.79072761580E+02  0.00000000000E+00 0.  1.
          1   -1    0    0  501    0  0.00000000000E+00 -0.00000000000E+00 -0.17416196571E+03  0.17416196571E+03  0.00000000000E+00 0. -1.
         25    2    1    2    0    0  0.19266386284E+02  0.42601593433E+02 -0.53056717040E+02  0.14369575830E+03  0.12508943332E+03 0.  0.
          5    1    3    3  502    0 -0.39947586123E+02 -0.15417708971E+02  0.36364227867E+01  0.43176513959E+02  0.41800000000E+01 0.  1.
         -5    1    3    3    0  502  0.59213972408E+02  0.58019302404E+02 -0.56693139827E+02  0.10051924434E+03  0.41800000000E+01 0.  1.
        -11    1    1    2    0    0 -0.23442652043E+02  0.18525510853E+02 -0.37716658593E+02  0.48117552126E+02  0.00000000000E+00 0. -1.
         11    1    1    2    0    0  0.41762657589E+01 -0.61127104286E+02 -0.43158285010E+01  0.61421416866E+02  0.00000000000E+00 0.  1.
</event>
<event>
 7    1  0.2749315E-009  0.1264303E+03  0.7561462E-02  0.1232851E+00
          2   -1    0    0  501    0  0.00000000000E+00  0.00000000000E+00  0.98161618309E+03  0.98161618309E+03  0.00000000000E+00 0. -1.
         -2   -1    0    0    0  501 -0.00000000000E+00 -0.00000000000E+00 -0.22570063419E+02  0.22570063419E+02  0.00000000000E+00 0.  1.
         25    2    1    2    0    0  0.82728512982E+02  0.53868945279E+02  0.43496556024E+03  0.46323617296E+03  0.12508734236E+03 0.  0.
          5    1    3    3  502    0 -0.28801340856E+01  0.43478835991E+02  0.29891087705E+03  0.30209913798E+03  0.41800000000E+01 0. -1.
         -5    1    3    3    0  502  0.85608647068E+02  0.10390109287E+02  0.13605468319E+03  0.16113703498E+03  0.41800000000E+01 0. -1.
        -11    1    1    2    0    0  0.12106621658E+02 -0.17281354311E+02  0.30989292361E+02  0.37490688655E+02  0.00000000000E+00 0.  1.
         11    1    1    2    0    0 -0.94835134640E+02 -0.36587590968E+02  0.49309126707E+03  0.50345938489E+03  0.00000000000E+00 0. -1.
</event>
<event>
 7    1  0.2749315E-009  0.1187913E+03  0.7561462E-02  0.1245104E+00
         -4   -1    0    0    0  501 -0.00000000000E+00  0.00000000000E+00  0.55884201959E+02  0.55884201959E+02  0.00000000000E+00 0.  1.
          4   -1    0    0  501    0  0.00000000000E+00 -0.00000000000E+00 -0.29079899038E+03  0.29079899038E+03  0.00000000000E+00 0. -1.
         25    2    1    2    0    0 -0.33687351868E+02 -0.35122652146E+02 -0.68324840877E+02  0.15061559813E+03  0.12509330978E+03 0.  0.
          5    1    3    3  502    0 -0.80581692363E+02 -0.11402190382E+02 -0.42644419123E+02  0.91975203027E+02  0.41800000000E+01 0. -1.
         -5    1    3    3    0  502  0.46894340495E+02 -0.23720461764E+02 -0.25680421754E+02  0.58640395107E+02  0.41800000000E+01 0. -1.
        -11    1    1    2    0    0  0.47869731078E+01 -0.30917419523E+02 -0.52253415345E+02  0.60903377219E+02  0.00000000000E+00 0. -1.
         11    1    1    2    0    0  0.28900378760E+02  0.66040071669E+02 -0.11433653220E+03  0.13516421699E+03  0.00000000000E+00 0.  1.
</event>
<event>
 7    1  0.2749315E-009  0.1183860E+03  0.7561462E-02  0.1245784E+00
         -2   -1    0    0    0  501 -0.00000000000E+00  0.00000000000E+00  0.46230637008E+02  0.46230637008E+02  0.00000000000E+00 0.  1.
          2   -1    0    0  501    0  0.00000000000E+00 -0.00000000000E+00 -0.36512333068E+03  0.36512333068E+03  0.00000000000E+00 0. -1.
         25    2    1    2    0    0  0.14207727721E+02  0.69649219694E+02 -0.18772733683E+03  0.23651976773E+03  0.12508866537E+03 0.  0.
          5    1    3    3  502    0 -0.52550447820E+02  0.25821736532E+02 -0.49313379388E+02  0.76665464391E+02  0.41800000000E+01 0. -1.
         -5    1    3    3    0  502  0.66758175541E+02  0.43827483162E+02 -0.13841395744E+03  0.15985430334E+03  0.41800000000E+01 0. -1.
        -11    1    1    2    0    0  0.27020616300E+02 -0.35207280714E+02 -0.14998393011E+02  0.46846751364E+02  0.00000000000E+00 0.  1.
         11    1    1    2    0    0 -0.41228344021E+02 -0.34441938980E+02 -0.11616696383E+03  0.12798744859E+03  0.00000000000E+00 0. -1.
</event>
<event>
 7    1  0.4133641E-009  0.1440928E+03  0.7561462E-02  0.1207925E+00
         -2   -1    0    0    0  501 -0.00000000000E+00  0.00000000000E+00  0.43117595851E+02  0.43117595851E+02  0.00000000000E+00 0.  1.
          2   -1    0    0  501    0  0.00000000000E+00 -0.00000000000E+00 -0.71703235744E+03  0.71703235744E+03  0.00000000000E+00 0. -1.
         25    2    1    2    0    0 -0.98492012430E+00 -0.10348385745E+03 -0.15949325778E+03  0.22758617954E+03  0.12508993173E+03 0.  0.
          5    1    3    3  502    0  0.37032295920E+02 -0.10644598231E+03 -0.15070269830E+03  0.18823101170E+03  0.41800000000E+01 0.  1.
         -5    1    3    3    0  502 -0.38017216045E+02  0.29621248593E+01 -0.87905594764E+01  0.39355167836E+02  0.41800000000E+01 0.  1.
        -11    1    1    2    0    0  0.42384179839E+02  0.27531125209E+02 -0.16320667148E+03  0.17085315089E+03  0.00000000000E+00 0.  1.
         11    1    1    2    0    0 -0.41399259715E+02  0.75952732238E+02 -0.35121483233E+03  0.36171062286E+03  0.00000000000E+00 0. -1.
</event>
<event>
 7    1  0.2749315E-009  0.2063939E+03  0.7561462E-02  0.1144454E+00
          1   -1    0    0  501    0  0.00000000000E+00  0.00000000000E+00  0.12896416259E+04  0.12896416259E+04  0.00000000000E+00 0. -1.
         -1   -1    0    0    0  501 -0.00000000000E+00 -0.00000000000E+00 -0.37997781428E+02  0.37997781428E+02  0.00000000000E+00 0.  1.
         25    2    1    2    0    0 -0.15711241165E+03  0.11213297616E+03  0.65344387032E+03  0.69274467872E+03  0.12509270159E+03 0.  0.
          5    1    3    3  502    0 -0.16824847107E+03  0.82801546029E+02  0.46069468419E+03  0.49741402120E+03  0.41800000000E+01 0. -1.
         -5    1    3    3    0  502  0.11136059417E+02  0.29331430135E+02  0.19274918613E+03  0.19533065752E+03  0.41800000000E+01 0. -1.
        -11    1    1    2    0    0  0.48407753669E+02 -0.42970717626E+02  0.34256551504E+03  0.34862720101E+03  0.00000000000E+00 0. -1.
         11    1    1    2    0    0  0.10870465799E+03 -0.69162258537E+02  0.25563445910E+03  0.28626752759E+03  0.00000000000E+00 0.  1.
</event>
<event>
 7    1  0.2749315E-009  0.8378058E+02  0.7561462E-02  0.1318653E+00
          1   -1    0    0  501    0  0.00000000000E+00  0.00000000000E+00  0.14537248814E+03  0.14537248814E+03  0.00000000000E+00 0. -1.
         -1   -1    0    0    0  501 -0.00000000000E+00 -0.00000000000E+00 -0.11538908361E+03  0.11538908361E+03  0.00000000000E+00 0.  1.
         25    2    1    2    0    0 -0.68964608364E+02  0.58059926719E+01  0.35423328024E+02  0.14728254950E+03  0.12509000944E+03 0.  0.
          5    1    3    3  502    0 -0.75004232532E+02 -0.53036125483E+01  0.74540698790E+02  0.10596014052E+03  0.41800000000E+01 0. -1.
         -5    1    3    3    0  502  0.60396241684E+01  0.11109605220E+02 -0.39117370766E+02  0.41322408980E+02  0.41800000000E+01 0. -1.
        -11    1    1    2    0    0  0.59710942170E+02 -0.19141282036E+02  0.33643247029E+02  0.71159351904E+02  0.00000000000E+00 0. -1.
         11    1    1    2    0    0  0.92536661943E+01  0.13335289364E+02 -0.39083170520E+02  0.42319670348E+02  0.00000000000E+00 0.  1.
</event>
<event>
 7    1  0.2749315E-009  0.4127980E+03  0.7561462E-02  0.1039436E+00
         -1   -1    0    0    0  501 -0.00000000000E+00  0.00000000000E+00  0.66585948157E+03  0.66585948157E+03  0.00000000000E+00 0.  1.
          1   -1    0    0  501    0  0.00000000000E+00 -0.00000000000E+00 -0.43428310418E+03  0.43428310418E+03  0.00000000000E+00 0. -1.
         25    2    1    2    0    0  0.35551585821E+03  0.19025203324E+03  0.46314854922E+03  0.62668926122E+03  0.12508193274E+03 0.  0.
          5    1    3    3  502    0  0.32845064858E+03  0.20664894991E+03  0.44301217349E+03  0.58894895816E+03  0.41800000000E+01 0. -1.
         -5    1    3    3    0  502  0.27065209626E+02 -0.16396916663E+02  0.20136375726E+02  0.37740303066E+02  0.41800000000E+01 0. -1.
        -11    1    1    2    0    0 -0.28089842607E+03 -0.12917779765E+03 -0.13625987070E+03  0.33787213785E+03  0.00000000000E+00 0. -1.
         11    1    1    2    0    0 -0.74617432132E+02 -0.61074235595E+02 -0.95312301131E+02  0.13558118667E+03  0.00000000000E+00 0.  1.
</event>
<event>
 7    1  0.2749315E-009  0.1177065E+03  0.7561462E-02  0.1246929E+00
          1   -1    0    0  501    0  0.00000000000E+00  0.00000000000E+00  0.41855782051E+03  0.41855782051E+03  0.00000000000E+00 0. -1.
         -1   -1    0    0    0  501 -0.00000000000E+00 -0.00000000000E+00 -0.64454777784E+02  0.64454777784E+02  0.00000000000E+00 0.  1.
         25    2    1    2    0    0  0.33857935432E+02 -0.49925386351E+02  0.31529999125E+02  0.14240918509E+03  0.12508929274E+03 0.  0.
          5    1    3    3  502    0  0.75708055837E+02 -0.30478936556E+01  0.16341657397E+02  0.77624232949E+02  0.41800000000E+01 0.  1.
         -5    1    3    3    0  502 -0.41850120405E+02 -0.46877492696E+02  0.15188341729E+02  0.64784952140E+02  0.41800000000E+01 0.  1.
        -11    1    1    2    0    0 -0.26234578230E+02  0.70171529772E+02  0.30049581812E+03  0.30969345068E+03  0.00000000000E+00 0. -1.
         11    1    1    2    0    0 -0.76233572024E+01 -0.20246143421E+02  0.22077225482E+02  0.30909962527E+02  0.00000000000E+00 0.  1.
</event>
<event>
 7    1  0.2749315E-009  0.9197123E+02  0.7561462E-02  0.1298147E+00
          1   -1    0    0  501    0  0.00000000000E+00  0.00000000000E+00  0.58012401404E+03  0.58012401404E+03  0.00000000000E+00 0. -1.
         -1   -1    0    0    0  501 -0.00000000000E+00 -0.00000000000E+00 -0.22901802849E+02  0.22901802849E+02  0.00000000000E+00 0.  1.
         25    2    1    2    0    0  0.16722853486E+02  0.18326783347E+02  0.39521977800E+03  0.41528273888E+03  0.12508219487E+03 0.  0.
          5    1    3    3  502    0 -0.34698268367E+02  0.23221696542E+02  0.46097031945E+02  0.62334787816E+02  0.41800000000E+01 0. -1.
         -5    1    3    3    0  502  0.51421121854E+02 -0.48949131946E+01  0.34912274606E+03  0.35294795107E+03  0.41800000000E+01 0. -1.
        -11    1    1    2    0    0  0.27864102373E+02  0.17550188581E+02  0.89562479466E+02  0.95424603999E+02  0.00000000000E+00 0.  1.
         11    1    1    2    0    0 -0.44586955859E+02 -0.35876971927E+02  0.72439953724E+02  0.92318474007E+02  0.00000000000E+00 0. -1.
</event>
<event>
 7    1  0.2749315E-009  0.2199630E+03  0.7561462E-02  0.1133911E+00
         -2   -1    0    0    0  501 -0.00000000000E+00  0.00000000000E+00  0.45794657668E+02  0.45794657668E+02  0.00000000000E+00 0.  1.
          2   -1    0    0  501    0  0.00000000000E+00 -0.00000000000E+00 -0.12170499646E+04  0.12170499646E+04  0.00000000000E+00 0. -1.
         25    2    1    2    0    0  0.57742181668E+02 -0.18240462737E+03 -0.38004349100E+03  0.44349523623E+03  0.12509740956E+03 0.  0.
          5    1    3    3  502    0 -0.23423303563E+02 -0.12866295177E+03 -0.22925928857E+03  0.26396988484E+03  0.41800000000E+01 0. -1.
         -5    1    3    3    0  502  0.81165485231E+02 -0.53741675606E+02 -0.15078420243E+03  0.17952535139E+03  0.41800000000E+01 0. -1.
        -11    1    1    2    0    0 -0.47862815835E+02  0.19199941623E+03 -0.75785020969E+03  0.78325702378E+03  0.00000000000E+00 0. -1.
         11    1    1    2    0    0 -0.98793658328E+01 -0.95947888545E+01 -0.33361606245E+02  0.36092362262E+02  0.00000000000E+00 0.  1.
</event>
<event>
 7    1  0.2749315E-009  0.1250061E+03  0.7561462E-02  0.1235060E+00
          2   -1    0    0  501    0  0.00000000000E+00  0.00000000000E+00  0.20099796071E+03  0.20099796071E+03  0.00000000000E+00 0. -1.
         -2   -1    0    0    0  501 -0.00000000000E+00 -0.00000000000E+00 -0.10733710497E+03  0.10733710497E+03  0.00000000000E+00 0.  1.
         25    2    1    2    0    0  0.71989654503E+02  0.14765354797E+02 -0.17289682049E+02  0.14610587492E+03  0.12508983781E+03 0.  0.
          5    1    3    3  502    0  0.96078792827E+02 -0.11841969742E+02  0.14503780023E+02  0.97975500577E+02  0.41800000000E+01 0.  1.
         -5    1    3    3    0  502 -0.24089138323E+02  0.26607324539E+02 -0.31793462071E+02  0.48130374347E+02  0.41800000000E+01 0.  1.
        -11    1    1    2    0    0 -0.14439364470E+02 -0.48273726092E+02  0.60178917846E+02  0.78487897349E+02  0.00000000000E+00 0.  1.
         11    1    1    2    0    0 -0.57550290033E+02  0.33508371296E+02  0.50771619939E+02  0.83741293404E+02  0.00000000000E+00 0. -1.
</event>
<event>
 7    1  0.2749315E-009  0.9186213E+02  0.7561462E-02  0.1298404E+00
         -2   -1    0    0    0  501 -0.00000000000E+00  0.00000000000E+00  0.21311810398E+02  0.21311810398E+02  0.00000000000E+00 0.  1.
          2   -1    0    0  501    0  0.00000000000E+00 -0.00000000000E+00 -0.64775886361E+03  0.64775886361E+03  0.00000000000E+00 0. -1.
         25    2    1    2    0    0 -0.40818591076E+02  0.55760982013E+01 -0.33467247595E+03  0.35965352440E+03  0.12509093174E+03 0.  0.
          5    1    3    3  502    0 -0.63051179745E+02 -0.15391261643E+02 -0.79912500804E+02  0.10303311306E+03  0.41800000000E+01 0.  1.
         -5    1    3    3    0  502  0.22232588668E+02  0.20967359844E+02 -0.25475997515E+03  0.25662041134E+03  0.41800000000E+01 0.  1.
        -11    1    1    2    0    0 -0.15020557914E+02 -0.24624293368E+02 -0.32233340514E+02  0.43254609287E+02  0.00000000000E+00 0.  1.
         11    1    1    2    0    0  0.55839148991E+02  0.19048195166E+02 -0.25954123675E+03  0.26616254032E+03  0.00000000000E+00 0. -1.
</event>
<event>
 7    1  0.2749315E-009  0.1954457E+03  0.7561462E-02  0.1153639E+00
         -1   -1    0    0    0  501 -0.00000000000E+00  0.00000000000E+00  0.86820620032E+03  0.86820620032E+03  0.00000000000E+00 0.  1.
          1   -1    0    0  501    0  0.00000000000E+00 -0.00000000000E+00 -0.51057607875E+02  0.51057607875E+02  0.00000000000E+00 0. -1.
         25    2    1    2    0    0 -0.16708610007E+03  0.65363516927E+02  0.46355588212E+03  0.51256315304E+03  0.12508707297E+03 0.  0.
          5    1    3    3  502    0 -0.17312963094E+03  0.40542530474E+02  0.44881773679E+03  0.48277572345E+03  0.41800000000E+01 0. -1.
         -5    1    3    3    0  502  0.60435308773E+01  0.24820986453E+02  0.14738145323E+02  0.29787429589E+02  0.41800000000E+01 0. -1.
        -11    1    1    2    0    0  0.15987994897E+03 -0.45824337237E+02  0.24493527828E+03  0.29606546322E+03  0.00000000000E+00 0. -1.
         11    1    1    2    0    0  0.72061511003E+01 -0.19539179691E+02  0.10865743204E+03  0.11063519194E+03  0.00000000000E+00 0.  1.
</event>
<event>
 7    1  0.2749315E-009  0.1167538E+03  0.7561462E-02  0.1248550E+00
          1   -1    0    0  501    0  0.00000000000E+00  0.00000000000E+00  0.75392023870E+02  0.75392023870E+02  0.00000000000E+00 0. -1.
         -1   -1    0    0    0  501 -0.00000000000E+00 -0.00000000000E+00 -0.35001833836E+03  0.35001833836E+03  0.00000000000E+00 0.  1.
         25    2    1    2    0    0 -0.53875150997E+02  0.44127188715E+02 -0.27534583732E+03  0.31034339664E+03  0.12509177844E+03 0.  0.
          5    1    3    3  502    0  0.27654968753E+02  0.22639401421E+02 -0.19494265406E+02  0.40924791718E+02  0.41800000000E+01 0. -1.
         -5    1    3    3    0  502 -0.81530119751E+02  0.21487787294E+02 -0.25585157191E+03  0.26941860492E+03  0.41800000000E+01 0. -1.
        -11    1    1    2    0    0 -0.14973346054E+02 -0.41598724959E+02  0.10607265675E+02  0.45466131299E+02  0.00000000000E+00 0. -1.
         11    1    1    2    0    0  0.68848497052E+02 -0.25284637564E+01 -0.98877428492E+01  0.69600834290E+02  0.00000000000E+00 0.  1.
</event>
<event>
 7    1  0.2749315E-009  0.1162126E+03  0.7561462E-02  0.1249479E+00
          1   -1    0    0  501    0  0.00000000000E+00  0.00000000000E+00  0.28703215076E+03  0.28703215076E+03  0.00000000000E+00 0. -1.
         -1   -1    0    0    0  501 -0.00000000000E+00 -0.00000000000E+00 -0.65724842369E+02  0.65724842369E+02  0.00000000000E+00 0.  1.
         25    2    1    2    0    0 -0.76644814549E+02 -0.19152623908E+02  0.16626699580E+03  0.22255942270E+03  0.12508689835E+03 0.  0.
          5    1    3    3  502    0 -0.10323315356E+02  0.50475267844E+02  0.59089019314E+02  0.78506739248E+02  0.41800000000E+01 0. -1.
         -5    1    3    3    0  502 -0.66321499193E+02 -0.69627891752E+02  0.10717797648E+03  0.14405268345E+03  0.41800000000E+01 0. -1.
        -11    1    1    2    0    0  0.66699473195E+02  0.45980248577E+01  0.77040694241E+02  0.10200602985E+03  0.00000000000E+00 0. -1.
         11    1    1    2    0    0  0.99453413540E+01  0.14554599051E+02 -0.22000381644E+02  0.28191540586E+02  0.00000000000E+00 0.  1.
</event>
<event>
 7    1  0.2749315E-009  0.1263323E+03  0.7561462E-02  0.1233002E+00
         -1   -1    0    0    0  501 -0.00000000000E+00  0.00000000000E+00  0.19472555430E+03  0.19472555430E+03  0.00000000000E+00 0.  1.
          1   -1    0    0  501    0  0.00000000000E+00 -0.00000000000E+00 -0.14453991527E+03  0.14453991527E+03  0.00000000000E+00 0. -1.
         25    2    1    2    0    0 -0.79429039373E+02  0.27900887564E+02  0.12473254140E+03  0.19568395659E+03  0.12508625888E+03 0.  0.
          5    1    3    3  502    0 -0.79873261386E+02  0.69391420680E+02  0.10645968733E+03  0.15015340347E+03  0.41800000000E+01 0.  1.
         -5    1    3    3    0  502  0.44422201289E+00 -0.41490533116E+02  0.18272854072E+02  0.45530553120E+02  0.41800000000E+01 0.  1.
        -11    1    1    2    0    0  0.20088332802E+02 -0.39771515041E+02  0.36462722185E+01  0.44705814214E+02  0.00000000000E+00 0.  1.
         11    1    1    2    0    0  0.59340706571E+02  0.11870627477E+02 -0.78193174588E+02  0.98875698759E+02  0.00000000000E+00 0. -1.
</event>
<event>
 7    1  0.2749315E-009  0.9808299E+02  0.7561462E-02  0.1284380E+00
          3   -1    0    0  501    0  0.00000000000E+00  0.00000000000E+00  0.31402334048E+03  0.31402334048E+03  0.00000000000E+00 0. -1.
         -3   -1    0    0    0  501 -0.00000000000E+00 -0.00000000000E+00 -0.40623444237E+02  0.40623444237E+02  0.00000000000E+00 0.  1.
         25    2    1    2    0    0  0.14100233310E+02 -0.21885290264E+02  0.17676635835E+03  0.21810983713E+03  0.12509105922E+03 0.  0.
          5    1    3    3  502    0 -0.40448873804E+02 -0.20704411217E+02  0.15077540985E+03  0.15752930093E+03  0.41800000000E+01 0.  1.
         -5    1    3    3    0  502  0.54549107114E+02 -0.11808790472E+01  0.25990948508E+02  0.60580536203E+02  0.41800000000E+01 0.  1.
        -11    1    1    2    0    0 -0.26084194818E+02 -0.31614945378E+02  0.33622845230E+02  0.53013071143E+02  0.00000000000E+00 0.  1.
         11    1    1    2    0    0  0.11983961509E+02  0.53500235642E+02  0.63010692660E+02  0.83523876447E+02  0.00000000000E+00 0. -1.
</event>
<event>
 7    1  0.2749315E-009  0.1011264E+03  0.7561462E-02  0.1277945E+00
          3   -1    0    0  501    0  0.00000000000E+00  0.00000000000E+00  0.27834124449E+03  0.27834124449E+03  0.00000000000E+00 0. -1.
         -3   -1    0    0    0  501 -0.00000000000E+00 -0.00000000000E+00 -0.61638964218E+02  0.61638964218E+02  0.00000000000E+00 0.  1.
         25    2    1    2    0    0  0.54907876429E+01  0.33566266982E+02  0.20400113291E+03  0.24170792566E+03  0.12509762616E+03 0.  0.
          5    1    3    3  502    0 -0.59328650025E+02  0.23304084730E+02  0.10007587792E+03  0.11872498819E+03  0.41800000000E+01 0.  1.
         -5    1    3    3    0  502  0.64819437668E+02  0.10262182252E+02  0.10392525499E+03  0.12298293747E+03  0.41800000000E+01 0.  1.
        -11    1    1    2    0    0  0.49874865835E+01  0.18676822139E+02  0.35416539907E+02  0.40348853845E+02  0.00000000000E+00 0. -1.
         11    1    1    2    0    0 -0.10478274226E+02 -0.52243089121E+02 -0.22715392548E+02  0.57923429200E+02  0.00000000000E+00 0.  1.
</event>
<event>
 7    1  0.2749315E-009  0.1208896E+03  0.7561462E-02  0.1241637E+00
          1   -1    0    0  501    0  0.00000000000E+00  0.00000000000E+00  0.33875476442E+03  0.33875476442E+03  0.00000000000E+00 0. -1.
         -1   -1    0    0    0  501 -0.00000000000E+00 -0.00000000000E+00 -0.47387689037E+02  0.47387689037E+02  0.00000000000E+00 0.  1.
         25    2    1    2    0    0  0.51372742221E+02 -0.19479642288E+02  0.10747121867E+03  0.17382901962E+03  0.12509136705E+03 0.  0.
          5    1    3    3  502    0  0.42098603231E+02 -0.71734325178E+02  0.62148793172E+02  0.10391366944E+03  0.41800000000E+01 0.  1.
         -5    1    3    3    0  502  0.92741389894E+01  0.52254682890E+02  0.45322425503E+02  0.69915350184E+02  0.41800000000E+01 0.  1.
        -11    1    1    2    0    0  0.12820765988E+01  0.46199366093E+02  0.67636569364E+02  0.81919049452E+02  0.00000000000E+00 0.  1.
         11    1    1    2    0    0 -0.52654818819E+02 -0.26719723805E+02  0.11625928735E+03  0.13039438439E+03  0.00000000000E+00 0. -1.
</event>
<event>
 7    1  0.2749315E-009  0.1888845E+03  0.7561462E-02  0.1159471E+00
          2   -1    0    0  501    0  0.00000000000E+00  0.00000000000E+00  0.77136506543E+02  0.77136506543E+02  0.00000000000E+00 0. -1.
         -2   -1    0    0    0  501 -0.00000000000E+00 -0.00000000000E+00 -0.56804694143E+03  0.56804694143E+03  0.00000000000E+00 0.  1.
         25    2    1    2    0    0  0.10688468842E+03 -0.13915095596E+03 -0.19520576705E+03  0.29074932907E+03  0.12507020310E+03 0.  0.
          5    1    3    3  502    0  0.21400604059E+02 -0.10960512794E+03 -0.56802276114E+02  0.12536044391E+03  0.41800000000E+01 0. -1.
         -5    1    3    3    0  502  0.85484084356E+02 -0.29545828016E+02 -0.13840349093E+03  0.16538888516E+03  0.41800000000E+01 0. -1.
        -11    1    1    2    0    0 -0.32596075183E+02  0.43880700255E+02 -0.29537953489E+02  0.62133007882E+02  0.00000000000E+00 0. -1.
         11    1    1    2    0    0 -0.74288613232E+02  0.95270255702E+02 -0.26616671435E+03  0.29230111103E+03  0.00000000000E+00 0.  1.
</event>
<event>
 7    1  0.2749315E-009  0.8533121E+02  0.7561462E-02  0.1314569E+00
         -2   -1    0    0    0  501 -0.00000000000E+00  0.00000000000E+00  0.73823283476E+02  0.73823283476E+02  0.00000000000E+00 0.  1.
          2   -1    0    0  501    0  0.00000000000E+00 -0.00000000000E+00 -0.18872345100E+03  0.18872345100E+03  0.00000000000E+00 0. -1.
         25    2    1    2    0    0  0.13025429615E+01  0.19371218984E+02 -0.11336897438E+03  0.16993080872E+03  0.12508802764E+03 0.  0.
          5    1    3    3  502    0  0.35550541669E+02  0.61048417769E+02 -0.77849300289E+02  0.10520806186E+03  0.41800000000E+01 0.  1.
         -5    1    3    3    0  502 -0.34247998707E+02 -0.41677198786E+02 -0.35519674090E+02  0.64722746863E+02  0.41800000000E+01 0.  1.
        -11    1    1    2    0    0 -0.18229617319E+02  0.22073318010E+01 -0.40786314054E+02  0.44729349150E+02  0.00000000000E+00 0. -1.
         11    1    1    2    0    0  0.16927074357E+02 -0.21578550785E+02  0.39255120914E+02  0.47886576597E+02  0.00000000000E+00 0.  1.
</event>
<event>
 7    1  0.2749315E-009  0.1406642E+03  0.7561462E-02  0.1212438E+00
          1   -1    0    0  501    0  0.00000000000E+00  0.00000000000E+00  0.77805806612E+02  0.77805806612E+02  0.00000000000E+00 0. -1.
         -1   -1    0    0    0  501 -0.00000000000E+00 -0.00000000000E+00 -0.25996116886E+03  0.25996116886E+03  0.00000000000E+00 0.  1.
         25    2    1    2    0    0  0.88409361111E+01  0.98963473463E+02 -0.79970445629E+02  0.17865106769E+03  0.12509596549E+03 0.  0.
          5    1    3    3  502    0 -0.58039756681E+02  0.45564861825E+02 -0.41035937016E+02  0.84535143671E+02  0.41800000000E+01 0.  1.
         -5    1    3    3    0  502  0.66880692792E+02  0.53398611638E+02 -0.38934508614E+02  0.94115924020E+02  0.41800000000E+01 0.  1.
        -11    1    1    2    0    0 -0.39864626363E+02 -0.54861645480E+02 -0.52038289105E+02  0.85480828920E+02  0.00000000000E+00 0.  1.
         11    1    1    2    0    0  0.31023690251E+02 -0.44101827983E+02 -0.50146627518E+02  0.73635078867E+02  0.00000000000E+00 0. -1.
</event>
<event>
 7    1  0.2749315E-009  0.7780355E+02  0.7561462E-02  0.1335403E+00
          3   -1    0    0  501    0  0.00000000000E+00  0.00000000000E+00  0.20236558526E+03  0.20236558526E+03  0.00000000000E+00 0. -1.
         -3   -1    0    0    0  501 -0.00000000000E+00 -0.00000000000E+00 -0.66070723389E+02  0.66070723389E+02  0.00000000000E+00 0.  1.
         25    2    1    2    0    0  0.23822283888E+02  0.16523966930E+01  0.12308857022E+03  0.17711315518E+03  0.12509213402E+03 0.  0.
          5    1    3    3  502    0 -0.19312326420E+02  0.86532869459E+01  0.13077901540E+03  0.13254609989E+03  0.41800000000E+01 0. -1.
         -5    1    3    3    0  502  0.43134610308E+02 -0.70008902530E+01 -0.76904451715E+01  0.44567055295E+02  0.41800000000E+01 0. -1.
        -11    1    1    2    0    0  0.11031698579E+02  0.36694929109E+02  0.24287075787E+01  0.38394202901E+02  0.00000000000E+00 0. -1.
         11    1    1    2    0    0 -0.34853982467E+02 -0.38347325802E+02  0.10777584070E+02  0.52928950569E+02  0.00000000000E+00 0.  1.
</event>
<event>
 7    1  0.2749315E-009  0.2364434E+03  0.7561462E-02  0.1122185E+00
          2   -1    0    0  501    0  0.00000000000E+00  0.00000000000E+00  0.89300027372E+03  0.89300027372E+03  0.00000000000E+00 0. -1.
         -2   -1    0    0    0  501 -0.00000000000E+00 -0.00000000000E+00 -0.67634149649E+02  0.67634149649E+02  0.00000000000E+00 0.  1.
         25    2    1    2    0    0  0.12776010699E+03  0.17461237261E+03  0.34608427900E+03  0.42689012085E+03  0.12509485001E+03 0.  0.
          5    1    3    3  502    0 -0.18045813886E+02  0.58077006408E+02  0.62011806284E+02  0.86957038765E+02  0.41800000000E+01 0.  1.
         -5    1    3    3    0  502  0.14580592088E+03  0.11653536620E+03  0.28407247271E+03  0.33993308208E+03  0.41800000000E+01 0.  1.
        -11    1    1    2    0    0 -0.59930201803E+02 -0.33499238850E+02  0.83394598394E+02  0.10802077177E+03  0.00000000000E+00 0.  1.
         11    1    1    2    0    0 -0.67829905189E+02 -0.14111313376E+03  0.39588724668E+03  0.42572353076E+03  0.00000000000E+00 0. -1.
</event>
<event>
 7    1  0.2749315E-009  0.2877743E+03  0.7561462E-02  0.1091517E+00
          2   -1    0    0  501    0  0.00000000000E+00  0.00000000000E+00  0.20711869049E+04  0.20711869049E+04  0.00000000000E+00 0. -1.
         -2   -1    0    0    0  501 -0.00000000000E+00 -0.00000000000E+00 -0.46488083811E+02  0.46488083811E+02  0.00000000000E+00 0.  1.
         25    2    1    2    0    0 -0.27934949645E+03  0.42362069485E+02  0.78573089211E+03  0.84430491174E+03  0.12508822120E+03 0.  0.
          5    1    3    3  502    0 -0.18021702302E+03  0.71157196543E+01  0.32518732570E+03  0.37187777299E+03  0.41800000000E+01 0. -1.
         -5    1    3    3    0  502 -0.99132473433E+02  0.35246349831E+02  0.46054356641E+03  0.47242713875E+03  0.41800000000E+01 0. -1.
        -11    1    1    2    0    0  0.21058818763E+03 -0.29844098428E+01  0.98767615571E+03  0.10098814188E+04  0.00000000000E+00 0.  1.
         11    1    1    2    0    0  0.68761308825E+02 -0.39377659642E+02  0.25129177324E+03  0.26348865814E+03  0.00000000000E+00 0. -1.
</event>
<event>
 7    1  0.2749315E-009  0.9239831E+02  0.7561462E-02  0.1297146E+00
          2   -1    0    0  501    0  0.00000000000E+00  0.00000000000E+00  0.42476080870E+03  0.42476080870E+03  0.00000000000E+00 0. -1.
         -2   -1    0    0    0  501 -0.00000000000E+00 -0.00000000000E+00 -0.40284131263E+02  0.40284131263E+02  0.00000000000E+00 0.  1.
         25    2    1    2    0    0  0.64227793292E+02 -0.24085802939E+02  0.15799745919E+03  0.21287462756E+03  0.12508826728E+03 0.  0.
          5    1    3    3  502    0  0.72329402282E+02 -0.42223316167E+00  0.17001759360E+03  0.18481118810E+03  0.41800000000E+01 0.  1.
         -5    1    3    3    0  502 -0.81016089896E+01 -0.23663569777E+02 -0.12020134405E+02  0.28063439453E+02  0.41800000000E+01 0.  1.
        -11    1    1    2    0    0  0.40383224595E+01  0.18002403967E+02  0.33487757271E+01  0.18751237179E+02  0.00000000000E+00 0.  1.
         11    1    1    2    0    0 -0.68266115752E+02  0.60833989723E+01  0.22313044252E+03  0.23341907523E+03  0.00000000000E+00 0. -1.
</event>
<event>
 7    1  0.2749315E-009  0.1640964E+03  0.7561462E-02  0.1184148E+00
         -1   -1    0    0    0  501 -0.00000000000E+00  0.00000000000E+00  0.99887708745E+02  0.99887708745E+02  0.00000000000E+00 0.  1.
          1   -1    0    0  501    0  0.00000000000E+00 -0.00000000000E+00 -0.28266626632E+03  0.28266626632E+03  0.00000000000E+00 0. -1.
         25    2    1    2    0    0 -0.10859870510E+03  0.60948441252E+02 -0.60847410123E+02  0.18670223976E+03  0.12508768034E+03 0.  0.
          5    1    3    3  502    0  0.18069242853E+02 -0.18118853301E+02 -0.17064736540E+02  0.31039781175E+02  0.41800000000E+01 0.  1.
         -5    1    3    3    0  502 -0.12666794795E+03  0.79067294553E+02 -0.43782673583E+02  0.15566245859E+03  0.41800000000E+01 0.  1.
        -11    1    1    2    0    0  0.79248014552E+02  0.63140517975E+01 -0.70278723469E+02  0.10610944366E+03  0.00000000000E+00 0.  1.
         11    1    1    2    0    0  0.29350690549E+02 -0.67262493049E+02 -0.51652423983E+02  0.89742291648E+02  0.00000000000E+00 0. -1.
</event>
<event>
 7    1  0.2749315E-009  0.1480310E+03  0.7561462E-02  0.1202914E+00
          1   -1    0    0  501    0  0.00000000000E+00  0.00000000000E+00  0.41097045892E+03  0.41097045892E+03  0.00000000000E+00 0. -1.
         -1   -1    0    0    0  501 -0.00000000000E+00 -0.00000000000E+00 -0.63907556670E+02  0.63907556670E+02  0.00000000000E+00 0.  1.
         25    2    1    2    0    0 -0.68858342208E+02  0.95664303044E+02  0.13380054734E+03  0.21781671096E+03  0.12509357671E+03 0.  0.
          5    1    3    3  502    0  0.29049129543E+02  0.25784960723E+02  0.73406077133E+02  0.83154318510E+02  0.41800000000E+01 0.  1.
         -5    1    3    3    0  502 -0.97907471751E+02  0.69879342321E+02  0.60394470211E+02  0.13466239245E+03  0.41800000000E+01 0.  1.
        -11    1    1    2    0    0  0.30513390870E+02 -0.93361929778E+02  0.11316506833E+03  0.14984608652E+03  0.00000000000E+00 0.  1.
         11    1    1    2    0    0  0.38344951338E+02 -0.23023732658E+01  0.10009728658E+03  0.10721521812E+03  0.00000000000E+00 0. -1.
</event>
<event>
 7    1  0.2749315E-009  0.1072722E+03  0.7561462E-02  0.1265706E+00
          1   -1    0    0  501    0  0.00000000000E+00  0.00000000000E+00  0.94061499006E+02  0.94061499006E+02  0.00000000000E+00 0. -1.
         -1   -1    0    0    0  501 -0.00000000000E+00 -0.00000000000E+00 -0.19891859828E+03  0.19891859828E+03  0.00000000000E+00 0.  1.
         25    2    1    2    0    0  0.15868469571E+02 -0.79769811293E+01 -0.14503584810E+03  0.19234659888E+03  0.12508547603E+03 0.  0.
          5    1    3    3  502    0  0.60406881913E+02  0.30073288284E+02 -0.78378973566E+02  0.10350908148E+03  0.41800000000E+01 0. -1.
         -5    1    3    3    0  502 -0.44538412342E+02 -0.38050269413E+02 -0.66656874529E+02  0.88837517403E+02  0.41800000000E+01 0. -1.
        -11    1    1    2    0    0 -0.40380770344E+02 -0.24717685426E+02  0.36157613833E+02  0.59573010873E+02  0.00000000000E+00 0.  1.
         11    1    1    2    0    0  0.24512300773E+02  0.32694666556E+02  0.40211349840E+01  0.41060487539E+02  0.00000000000E+00 0. -1.
</event>
<event>
 7    1  0.2749315E-009  0.9789211E+02  0.7561462E-02  0.1284792E+00
          4   -1    0    0  501    0  0.00000000000E+00  0.00000000000E+00  0.43615289271E+03  0.43615289271E+03  0.00000000000E+00 0. -1.
         -4   -1    0    0    0  501 -0.00000000000E+00 -0.00000000000E+00 -0.38961243650E+02  0.38961243650E+02  0.00000000000E+00 0.  1.
         25    2    1    2    0    0  0.17480038390E+02  0.50456880273E+02  0.30984460915E+03  0.33838350001E+03  0.12509301639E+03 0.  0.
          5    1    3    3  502    0  0.50675706256E+02 -0.22594445393E+02  0.12371847248E+03  0.13565496305E+03  0.41800000000E+01 0. -1.
         -5    1    3    3    0  502 -0.33195667866E+02  0.73051325666E+02  0.18612613667E+03  0.20272853696E+03  0.41800000000E+01 0. -1.
        -11    1    1    2    0    0 -0.24672578184E+02 -0.35955671888E+02  0.10444694919E+03  0.11318441435E+03  0.00000000000E+00 0. -1.
         11    1    1    2    0    0  0.71925397946E+01 -0.14501208385E+02 -0.17099909281E+02  0.23546222006E+02  0.00000000000E+00 0.  1.
</event>
<event>
 7    1  0.2749315E-009  0.1205546E+03  0.7561462E-02  0.1242185E+00
         -1   -1    0    0    0  501 -0.00000000000E+00  0.00000000000E+00  0.30269065589E+03  0.30269065589E+03  0.00000000000E+00 0.  1.
          1   -1    0    0  501    0  0.00000000000E+00 -0.00000000000E+00 -0.54789781547E+02  0.54789781547E+02  0.00000000000E+00 0. -1.
         25    2    1    2    0    0  0.96162716305E+01 -0.60111158038E+02  0.84314853356E+02  0.16267211039E+03  0.12508955592E+03 0.  0.
          5    1    3    3  502    0 -0.21238185034E+02 -0.91351054353E+02  0.66773664045E+02  0.11520533948E+03  0.41800000000E+01 0.  1.
         -5    1    3    3    0  502  0.30854456664E+02  0.31239896314E+02  0.17541189310E+02  0.47466770905E+02  0.41800000000E+01 0.  1.
        -11    1    1    2    0    0  0.36631375847E+02  0.19111014795E+02  0.87646177727E+02  0.96896548200E+02  0.00000000000E+00 0. -1.
         11    1    1    2    0    0 -0.46247647477E+02  0.41000143244E+02  0.75939843259E+02  0.97911778849E+02  0.00000000000E+00 0.  1.
</event>
<event>
 7    1  0.2749315E-009  0.1562629E+03  0.7561462E-02  0.1192982E+00
         -1   -1    0    0    0  501 -0.00000000000E+00  0.00000000000E+00  0.33605458353E+02  0.33605458353E+02  0.00000000000E+00 0.  1.
          1   -1    0    0  501    0  0.00000000000E+00 -0.00000000000E+00 -0.94110675941E+03  0.94110675941E+03  0.00000000000E+00 0. -1.
         25    2    1    2    0    0  0.11488063808E+03  0.25346391462E+02 -0.26989027041E+03  0.31988844472E+03  0.12509140032E+03 0.  0.
          5    1    3    3  502    0  0.90620927435E+01 -0.38538746736E+02 -0.11489259685E+03  0.12159415173E+03  0.41800000000E+01 0.  1.
         -5    1    3    3    0  502  0.10581854534E+03  0.63885138198E+02 -0.15499767356E+03  0.19829429298E+03  0.41800000000E+01 0.  1.
        -11    1    1    2    0    0 -0.76510535419E+02 -0.60080896952E+02 -0.40382041147E+03  0.41537272530E+03  0.00000000000E+00 0.  1.
         11    1    1    2    0    0 -0.38370102661E+02  0.34734505490E+02 -0.23379061918E+03  0.23945104775E+03  0.00000000000E+00 0. -1.
</event>
<event>
 7    1  0.3559732E-009  0.2000842E+03  0.7561462E-02  0.1149668E+00
         -2   -1    0    0    0  501 -0.00000000000E+00  0.00000000000E+00  0.72710501250E+02  0.72710501250E+02  0.00000000000E+00 0.  1.
          2   -1    0    0  501    0  0.00000000000E+00 -0.00000000000E+00 -0.62161787786E+03  0.62161787786E+03  0.00000000000E+00 0. -1.
         25    2    1    2    0    0 -0.14578903100E+03 -0.10705955851E+03 -0.32140523445E+03  0.38944188247E+03  0.12508982556E+03 0.  0.
          5    1    3    3  502    0 -0.16720551425E+03 -0.85916398974E+02 -0.29094625308E+03  0.34641955226E+03  0.41800000000E+01 0.  1.
         -5    1    3    3    0  502  0.21416483250E+02 -0.21143159537E+02 -0.30458981370E+02  0.43022330203E+02  0.41800000000E+01 0.  1.
        -11    1    1    2    0    0  0.46128220447E+02  0.23902575236E+02 -0.12010746663E+02  0.53323576961E+02  0.00000000000E+00 0.  1.
         11    1    1    2    0    0  0.99660810552E+02  0.83156983276E+02 -0.21549139550E+03  0.25156291969E+03  0.00000000000E+00 0. -1.
</event>
<event>
 7    1  0.2749315E-009  0.1011128E+03  0.7561462E-02  0.1277973E+00
         -1   -1    0    0    0  501 -0.00000000000E+00  0.00000000000E+00  0.99579398423E+01  0.99579398423E+01  0.00000000000E+00 0.  1.
          1   -1    0    0  501    0  0.00000000000E+00 -0.00000000000E+00 -0.19889212399E+04  0.19889212399E+04  0.00000000000E+00 0. -1.
         25    2    1    2    0    0  0.33440689551E+02 -0.12359323323E+02 -0.16618314862E+04  0.16669142388E+04  0.12509259891E+03 0.  0.
          5    1    3    3  502    0  0.69332321898E+02 -0.20397155998E+02 -0.14547601457E+04  0.14565601837E+04  0.41800000000E+01 0.  1.
         -5    1    3    3    0  502 -0.35891632347E+02  0.80378326746E+01 -0.20707134044E+03  0.21035405501E+03  0.41800000000E+01 0.  1.
        -11    1    1    2    0    0 -0.55661918318E+02  0.31088752416E+02 -0.26196369501E+03  0.26961034324E+03  0.00000000000E+00 0. -1.
         11    1    1    2    0    0  0.22221228767E+02 -0.18729429092E+02 -0.55168118899E+02  0.62354597785E+02  0.00000000000E+00 0.  1.
</event>
<event>
 7    1  0.2749315E-009  0.1044264E+03  0.7561462E-02  0.1271254E+00
          1   -1    0    0  501    0  0.00000000000E+00  0.00000000000E+00  0.10217475251E+04  0.10217475251E+04  0.00000000000E+00 0.  1.
         -1   -1    0    0    0  501 -0.00000000000E+00 -0.00000000000E+00 -0.17590383368E+02  0.17590383368E+02  0.00000000000E+00 0. -1.
         25    2    1    2    0    0  0.43005944846E+02  0.11073879295E+02  0.80478747608E+03  0.81566081940E+03  0.12509016171E+03 0.  0.
          5    1    3    3  502    0  0.44993614528E+02  0.52087284736E+02  0.69429997706E+03  0.69771587421E+03  0.41800000000E+01 0. -1.
         -5    1    3    3    0  502 -0.19876696819E+01 -0.41013405440E+02  0.11048749903E+03  0.11794494520E+03  0.41800000000E+01 0. -1.
        -11    1    1    2    0    0 -0.73102163628E+01 -0.47243085699E+02  0.12281701425E+03  0.13179289586E+03  0.00000000000E+00 0.  1.
         11    1    1    2    0    0 -0.35695728483E+02  0.36169206403E+02  0.76552651370E+02  0.91884193175E+02  0.00000000000E+00 0. -1.
</event>
<event>
 7    1  0.2749315E-009  0.1607027E+03  0.7561462E-02  0.1187906E+00
          1   -1    0    0  501    0  0.00000000000E+00  0.00000000000E+00  0.16168789336E+03  0.16168789336E+03  0.00000000000E+00 0. -1.
         -1   -1    0    0    0  501 -0.00000000000E+00 -0.00000000000E+00 -0.20936094435E+03  0.20936094435E+03  0.00000000000E+00 0.  1.
         25    2    1    2    0    0 -0.43363316154E+01 -0.14407055234E+03 -0.54069175201E+02  0.19835816923E+03  0.12508940710E+03 0.  0.
          5    1    3    3  502    0  0.14132131468E+02 -0.14836715663E+02 -0.64036586609E+02  0.67364694730E+02  0.41800000000E+01 0. -1.
         -5    1    3    3    0  502 -0.18468463083E+02 -0.12923383668E+03  0.99674114077E+01  0.13099347450E+03  0.41800000000E+01 0. -1.
        -11    1    1    2    0    0  0.37682396312E+02  0.12689169683E+03 -0.77635834150E+01  0.13259614981E+03  0.00000000000E+00 0. -1.
         11    1    1    2    0    0 -0.33346064696E+02  0.17178855508E+02  0.14159707622E+02  0.40094518668E+02  0.00000000000E+00 0.  1.
</event>
<event>
 7    1  0.2749315E-009  0.1034882E+03  0.7561462E-02  0.1273127E+00
          2   -1    0    0  501    0  0.00000000000E+00  0.00000000000E+00  0.20700743586E+03  0.20700743586E+03  0.00000000000E+00 0. -1.
         -2   -1    0    0    0  501 -0.00000000000E+00 -0.00000000000E+00 -0.59805338080E+02  0.59805338080E+02  0.00000000000E+00 0.  1.
         25    2    1    2    0    0  0.79521607052E+01 -0.18016927241E+02  0.87174887361E+02  0.15373203191E+03  0.12508489166E+03 0.  0.
          5    1    3    3  502    0 -0.29008471385E+02 -0.54777472991E+02  0.79469922841E+02  0.10087122482E+03  0.41800000000E+01 0.  1.
         -5    1    3    3    0  502  0.36960632090E+02  0.36760545750E+02  0.77049645203E+01  0.52860807094E+02  0.41800000000E+01 0.  1.
        -11    1    1    2    0    0 -0.13954332021E+02  0.54153925948E+02  0.50210139270E+02  0.75156032115E+02  0.00000000000E+00 0. -1.
         11    1    1    2    0    0  0.60021713162E+01 -0.36136998707E+02  0.98170711452E+01  0.37924709912E+02  0.00000000000E+00 0.  1.
</event>
<event>
 7    1  0.2749315E-009  0.1669588E+03  0.7561462E-02  0.1181057E+00
         -2   -1    0    0    0  501 -0.00000000000E+00  0.00000000000E+00  0.66580965642E+02  0.66580965642E+02  0.00000000000E+00 0.  1.
          2   -1    0    0  501    0  0.00000000000E+00 -0.00000000000E+00 -0.69387074546E+03  0.69387074546E+03  0.00000000000E+00 0. -1.
         25    2    1    2    0    0 -0.51566754876E+02 -0.12545149233E+03 -0.54876254154E+03  0.57895169820E+03  0.12509010641E+03 0.  0.
          5    1    3    3  502    0 -0.18679789129E+01 -0.12007367641E+03 -0.47346356700E+03  0.48847353950E+03  0.41800000000E+01 0. -1.
         -5    1    3    3    0  502 -0.49698775963E+02 -0.53778159131E+01 -0.75298974538E+02  0.90478158706E+02  0.41800000000E+01 0. -1.
        -11    1    1    2    0    0 -0.26680080093E+02  0.34573495967E+02 -0.19206108427E+02  0.47707734154E+02  0.00000000000E+00 0.  1.
         11    1    1    2    0    0  0.78246834969E+02  0.90877996360E+02 -0.59321129855E+02  0.13379227875E+03  0.00000000000E+00 0. -1.
</event>
<event>
 7    1  0.2749315E-009  0.1120322E+03  0.7561462E-02  0.1256852E+00
          1   -1    0    0  501    0  0.00000000000E+00  0.00000000000E+00  0.20068631824E+03  0.20068631824E+03  0.00000000000E+00 0. -1.
         -1   -1    0    0    0  501 -0.00000000000E+00 -0.00000000000E+00 -0.90890847466E+02  0.90890847466E+02  0.00000000000E+00 0.  1.
         25    2    1    2    0    0  0.70810599759E+02  0.24217892697E+02  0.28314187753E+02  0.14849131912E+03  0.12508929315E+03 0.  0.
          5    1    3    3  502    0  0.10638305896E+03  0.27016211376E+02  0.21090671580E+02  0.11184596434E+03  0.41800000000E+01 0. -1.
         -5    1    3    3    0  502 -0.35572459201E+02 -0.27983186790E+01  0.72235161733E+01  0.36645354780E+02  0.41800000000E+01 0. -1.
        -11    1    1    2    0    0 -0.33388980235E+02  0.60156102663E+00 -0.15044207033E+02  0.36626684836E+02  0.00000000000E+00 0.  1.
         11    1    1    2    0    0 -0.37421619524E+02 -0.24819453723E+02  0.96525490051E+02  0.10645916175E+03  0.00000000000E+00 0. -1.
</event>
<event>
 7    1  0.2749315E-009  0.7156734E+02  0.7561462E-02  0.1354843E+00
         -1   -1    0    0    0  501 -0.00000000000E+00  0.00000000000E+00  0.34389707384E+02  0.34389707384E+02  0.00000000000E+00 0.  1.
          1   -1    0    0  501    0  0.00000000000E+00 -0.00000000000E+00 -0.40667169656E+03  0.40667169656E+03  0.00000000000E+00 0. -1.
         25    2    1    2    0    0  0.40526062874E+02  0.77194955148E-01 -0.24643055507E+03  0.27931516817E+03  0.12508627810E+03 0.  0.
          5    1    3    3  502    0  0.31417561120E+02 -0.13994243591E+02 -0.24598945163E+01  0.34733636167E+02  0.41800000000E+01 0.  1.
         -5    1    3    3    0  502  0.91085017538E+01  0.14071438546E+02 -0.24397066055E+03  0.24458153201E+03  0.41800000000E+01 0.  1.
        -11    1    1    2    0    0 -0.34045816155E+02  0.38903449665E+02 -0.34327687049E+02  0.62056313874E+02  0.00000000000E+00 0.  1.
         11    1    1    2    0    0 -0.64802467185E+01 -0.38980644620E+02 -0.91523747059E+02  0.99689921900E+02  0.00000000000E+00 0. -1.
</event>
<event>
 7    1  0.2749315E-009  0.1080672E+03  0.7561462E-02  0.1264192E+00
         -2   -1    0    0    0  501 -0.00000000000E+00  0.00000000000E+00  0.68069063663E+02  0.68069063663E+02  0.00000000000E+00 0.  1.
          2   -1    0    0  501    0  0.00000000000E+00 -0.00000000000E+00 -0.22489030620E+03  0.22489030620E+03  0.00000000000E+00 0. -1.
         25    2    1    2    0    0 -0.99666017199E+01  0.56297359090E+02 -0.67120649586E+02  0.15302998868E+03  0.12507705643E+03 0.  0.
          5    1    3    3  502    0  0.47558791568E+02  0.57727134231E+02 -0.17491473529E+02  0.76926489119E+02  0.41800000000E+01 0.  1.
         -5    1    3    3    0  502 -0.57525393288E+02 -0.14297751406E+01 -0.49629176056E+02  0.76103499564E+02  0.41800000000E+01 0.  1.
        -11    1    1    2    0    0 -0.20469358116E+02 -0.11040203041E+01 -0.71418955799E+02  0.74302629361E+02  0.00000000000E+00 0. -1.
         11    1    1    2    0    0  0.30435959836E+02 -0.55193338786E+02 -0.18281637155E+02  0.65626751821E+02  0.00000000000E+00 0.  1.
</event>
<event>
 7    1  0.2749315E-009  0.1489958E+03  0.7561462E-02  0.1201712E+00
          1   -1    0    0  501    0  0.00000000000E+00  0.00000000000E+00  0.34797383438E+03  0.34797383438E+03  0.00000000000E+00 0. -1.
         -1   -1    0    0    0  501 -0.00000000000E+00 -0.00000000000E+00 -0.90460228479E+02  0.90460228479E+02  0.00000000000E+00 0.  1.
         25    2    1    2    0    0 -0.11244042022E+03  0.56675715445E+02  0.60753618970E+02  0.18759613958E+03  0.12508526911E+03 0.  0.
          5    1    3    3  502    0 -0.52646718509E+02  0.70469577672E+02 -0.15722154450E+02  0.89455558171E+02  0.41800000000E+01 0.  1.
         -5    1    3    3    0  502 -0.59793701712E+02 -0.13793862227E+02  0.76475773420E+02  0.98140581411E+02  0.41800000000E+01 0.  1.
        -11    1    1    2    0    0  0.82494569163E+02  0.20303287724E+01  0.14579375020E+03  0.16752699416E+03  0.00000000000E+00 0. -1.
         11    1    1    2    0    0  0.29945851059E+02 -0.58706044217E+02  0.50966236737E+02  0.83310929117E+02  0.00000000000E+00 0.  1.
</event>
<event>
 7    1  0.2749315E-009  0.2192876E+03  0.7561462E-02  0.1134415E+00
          1   -1    0    0  501    0  0.00000000000E+00  0.00000000000E+00  0.63730642603E+02  0.63730642603E+02  0.00000000000E+00 0. -1.
         -1   -1    0    0    0  501 -0.00000000000E+00 -0.00000000000E+00 -0.99650001268E+03  0.99650001268E+03  0.00000000000E+00 0.  1.
         25    2    1    2    0    0  0.27191562699E+02  0.20296643340E+03 -0.68765052953E+03  0.72831674847E+03  0.12508909295E+03 0.  0.
          5    1    3    3  502    0 -0.15166721627E+02  0.12514207989E+03 -0.55208878744E+03  0.56631269739E+03  0.41800000000E+01 0.  1.
         -5    1    3    3    0  502  0.42358284326E+02  0.77824353508E+02 -0.13556174208E+03  0.16200405108E+03  0.41800000000E+01 0.  1.
        -11    1    1    2    0    0 -0.34262753976E+01  0.94245484430E+01 -0.95940247419E+01  0.13878284736E+02  0.00000000000E+00 0.  1.
         11    1    1    2    0    0 -0.23765287301E+02 -0.21239098184E+03 -0.23552481581E+03  0.31803562208E+03  0.00000000000E+00 0. -1.
</event>
<event>
 7    1  0.2749315E-009  0.1428753E+03  0.7561462E-02  0.1209512E+00
         -3   -1    0    0    0  501 -0.00000000000E+00  0.00000000000E+00  0.50152205289E+02  0.50152205289E+02  0.00000000000E+00 0.  1.
          3   -1    0    0  501    0  0.00000000000E+00 -0.00000000000E+00 -0.52765139485E+03  0.52765139485E+03  0.00000000000E+00 0. -1.
         25    2    1    2    0    0 -0.56495322861E+02 -0.84495853594E+02 -0.37088135046E+03  0.40439049235E+03  0.12508966147E+03 0.  0.
          5    1    3    3  502    0 -0.54410259154E+02  0.95272381943E+01 -0.70842250295E+02  0.89929646923E+02  0.41800000000E+01 0. -1.
         -5    1    3    3    0  502 -0.20850637066E+01 -0.94023091789E+02 -0.30003910016E+03  0.31446084543E+03  0.41800000000E+01 0. -1.
        -11    1    1    2    0    0 -0.78502088693E+01 -0.15460359400E+02 -0.86876620081E+01  0.19393915624E+02  0.00000000000E+00 0. -1.
         11    1    1    2    0    0  0.64345531730E+02  0.99956212994E+02 -0.97930177099E+02  0.15401919217E+03  0.00000000000E+00 0.  1.
</event>
<event>
 7    1  0.2749315E-009  0.6847982E+02  0.7561462E-02  0.1365340E+00
         -2   -1    0    0    0  501 -0.00000000000E+00  0.00000000000E+00  0.46243880785E+02  0.46243880785E+02  0.00000000000E+00 0.  1.
          2   -1    0    0  501    0  0.00000000000E+00 -0.00000000000E+00 -0.32347403086E+03  0.32347403086E+03  0.00000000000E+00 0. -1.
         25    2    1    2    0    0 -0.44731709235E+02  0.13601811091E+02 -0.20173524841E+03  0.24193625632E+03  0.12510038608E+03 0.  0.
          5    1    3    3  502    0 -0.11371410676E+02  0.16423677479E+02  0.13241451329E+02  0.24328061903E+02  0.41800000000E+01 0. -1.
         -5    1    3    3    0  502 -0.33360298560E+02 -0.28218663879E+01 -0.21497669974E+03  0.21760819442E+03  0.41800000000E+01 0. -1.
        -11    1    1    2    0    0  0.61496910877E+02 -0.20295538947E+02 -0.85410582495E+02  0.10718557063E+03  0.00000000000E+00 0. -1.
         11    1    1    2    0    0 -0.16765201642E+02  0.66937278558E+01  0.99156808223E+01  0.20596084697E+02  0.00000000000E+00 0.  1.
</event>
<event>
 7    1  0.2749315E-009  0.9997489E+02  0.7561462E-02  0.1280349E+00
         -2   -1    0    0    0  501 -0.00000000000E+00  0.00000000000E+00  0.59528113841E+02  0.59528113841E+02  0.00000000000E+00 0. -1.
          2   -1    0    0  501    0  0.00000000000E+00 -0.00000000000E+00 -0.31014816116E+03  0.31014816116E+03  0.00000000000E+00 0.  1.
         25    2    1    2    0    0 -0.17306506779E+02 -0.65022418593E+02 -0.74254397034E+02  0.16027653953E+03  0.12508966204E+03 0.  0.
          5    1    3    3  502    0 -0.74111747790E-01 -0.76477999446E+02 -0.10064932862E+03  0.12647786227E+03  0.41800000000E+01 0. -1.
         -5    1    3    3    0  502 -0.17232395031E+02  0.11455580853E+02  0.26394931589E+02  0.33798677263E+02  0.41800000000E+01 0. -1.
        -11    1    1    2    0    0 -0.30060447450E+02  0.35132787339E+02 -0.12547617737E+03  0.13372439693E+03  0.00000000000E+00 0.  1.
         11    1    1    2    0    0  0.47366954229E+02  0.29889631254E+02 -0.50889472915E+02  0.75675338539E+02  0.00000000000E+00 0. -1.
</event>
<event>
 7    1  0.2749315E-009  0.1325271E+03  0.7561462E-02  0.1223753E+00
         -2   -1    0    0    0  501 -0.00000000000E+00  0.00000000000E+00  0.58444415175E+02  0.58444415175E+02  0.00000000000E+00 0.  1.
          2   -1    0    0  501    0  0.00000000000E+00 -0.00000000000E+00 -0.32613497625E+03  0.32613497625E+03  0.00000000000E+00 0. -1.
         25    2    1    2    0    0  0.16737779426E+02  0.83778533657E+02 -0.13434402666E+03  0.20247716841E+03  0.12509872208E+03 0.  0.
          5    1    3    3  502    0  0.32344470225E+02 -0.20148195464E+02 -0.10000832635E+02  0.39618222928E+02  0.41800000000E+01 0. -1.
         -5    1    3    3    0  502 -0.15606690798E+02  0.10392672912E+03 -0.12434319403E+03  0.16285894549E+03  0.41800000000E+01 0. -1.
        -11    1    1    2    0    0 -0.80889723582E+01  0.17824126748E+02 -0.36777466927E+02  0.41661889560E+02  0.00000000000E+00 0.  1.
         11    1    1    2    0    0 -0.86488070683E+01 -0.10160266041E+03 -0.96569067485E+02  0.14044033345E+03  0.00000000000E+00 0. -1.
</event>
<event>
 7    1  0.2749315E-009  0.1107765E+03  0.7561462E-02  0.1259139E+00
         -2   -1    0    0    0  501 -0.00000000000E+00  0.00000000000E+00  0.36872528629E+03  0.36872528629E+03  0.00000000000E+00 0.  1.
          2   -1    0    0  501    0  0.00000000000E+00 -0.00000000000E+00 -0.38371274241E+02  0.38371274241E+02  0.00000000000E+00 0. -1.
         25    2    1    2    0    0  0.34728093906E+02  0.31220527498E+01  0.13005683553E+03  0.18379008804E+03  0.12509287859E+03 0.  0.
          5    1    3    3  502    0  0.79191010902E+02  0.16127818198E+02  0.98974161816E+02  0.12784631334E+03  0.41800000000E+01 0. -1.
         -5    1    3    3    0  502 -0.44462916996E+02 -0.13005765448E+02  0.31082673711E+02  0.55943774700E+02  0.41800000000E+01 0. -1.
        -11    1    1    2    0    0 -0.57221840830E+02  0.21165212135E+02  0.94784247729E+02  0.11272248618E+03  0.00000000000E+00 0. -1.
         11    1    1    2    0    0  0.22493746924E+02 -0.24287264885E+02  0.10551292879E+03  0.11058398631E+03  0.00000000000E+00 0.  1.
</event>
<event>
 7    1  0.2749315E-009  0.1072849E+03  0.7561462E-02  0.1265682E+00
         -1   -1    0    0    0  501 -0.00000000000E+00  0.00000000000E+00  0.27180566225E+02  0.27180566225E+02  0.00000000000E+00 0.  1.
          1   -1    0    0  501    0  0.00000000000E+00 -0.00000000000E+00 -0.57221303960E+03  0.57221303960E+03  0.00000000000E+00 0. -1.
         25    2    1    2    0    0 -0.93627582848E+01 -0.69671670884E+02 -0.28547162334E+03  0.31950490087E+03  0.12509009146E+03 0.  0.
          5    1    3    3  502    0  0.76316414604E+01 -0.88673927842E+02 -0.10730218719E+03  0.13947236000E+03  0.41800000000E+01 0. -1.
         -5    1    3    3    0  502 -0.16994399745E+02  0.19002256958E+02 -0.17816943615E+03  0.18003254086E+03  0.41800000000E+01 0. -1.
        -11    1    1    2    0    0  0.13044048523E+02  0.83916226344E+02 -0.18062259033E+03  0.19959108292E+03  0.00000000000E+00 0.  1.
         11    1    1    2    0    0 -0.36812902379E+01 -0.14244555460E+02 -0.78938259714E+02  0.80297622037E+02  0.00000000000E+00 0. -1.
</event>
<event>
 7    1  0.2749315E-009  0.1137363E+03  0.7561462E-02  0.1253803E+00
         -1   -1    0    0    0  501 -0.00000000000E+00  0.00000000000E+00  0.37394841776E+02  0.37394841776E+02  0.00000000000E+00 0.  1.
          1   -1    0    0  501    0  0.00000000000E+00 -0.00000000000E+00 -0.50848154643E+03  0.50848154643E+03  0.00000000000E+00 0. -1.
         25    2    1    2    0    0 -0.70388103237E+01  0.59427959656E+02 -0.13965287964E+03  0.19680388602E+03  0.12509042937E+03 0.  0.
          5    1    3    3  502    0  0.43549980717E+02  0.35353422760E+01 -0.10484864156E+03  0.11366533994E+03  0.41800000000E+01 0. -1.
         -5    1    3    3    0  502 -0.50588791041E+02  0.55892617380E+02 -0.34804238078E+02  0.83138546082E+02  0.41800000000E+01 0. -1.
        -11    1    1    2    0    0  0.27035830378E+02 -0.76905061787E+02 -0.27247764552E+03  0.28441060452E+03  0.00000000000E+00 0. -1.
         11    1    1    2    0    0 -0.19997020054E+02  0.17477102131E+02 -0.58956179494E+02  0.64661897672E+02  0.00000000000E+00 0.  1.
</event>
<event>
 7    1  0.2749315E-009  0.8836210E+02  0.7561462E-02  0.1306867E+00
          1   -1    0    0  501    0  0.00000000000E+00  0.00000000000E+00  0.52330207390E+02  0.52330207390E+02  0.00000000000E+00 0. -1.
         -1   -1    0    0    0  501 -0.00000000000E+00 -0.00000000000E+00 -0.46671250191E+03  0.46671250191E+03  0.00000000000E+00 0.  1.
         25    2    1    2    0    0  0.33611748015E+02 -0.36934775484E+02 -0.38841593600E+03  0.41110649801E+03  0.12509071159E+03 0.  0.
          5    1    3    3  502    0  0.43133534801E+02 -0.12036657114E+02 -0.35866936344E+02  0.57526450104E+02  0.41800000000E+01 0. -1.
         -5    1    3    3    0  502 -0.95217867856E+01 -0.24898118369E+02 -0.35254899965E+03  0.35358004791E+03  0.41800000000E+01 0. -1.
        -11    1    1    2    0    0 -0.65824730936E+02  0.24544527550E+02 -0.17226627023E+02  0.72333157777E+02  0.00000000000E+00 0. -1.
         11    1    1    2    0    0  0.32212982921E+02  0.12390247934E+02 -0.87397314968E+01  0.35603053509E+02  0.00000000000E+00 0.  1.
</event>
<event>
 7    1  0.2749315E-009  0.1620174E+03  0.7561462E-02  0.1186438E+00
          1   -1    0    0  501    0  0.00000000000E+00  0.00000000000E+00  0.14731320160E+03  0.14731320160E+03  0.00000000000E+00 0. -1.
         -1   -1    0    0    0  501 -0.00000000000E+00 -0.00000000000E+00 -0.27146152496E+03  0.27146152496E+03  0.00000000000E+00 0.  1.
         25    2    1    2    0    0  0.34164561670E+02 -0.14710639554E+03 -0.14152719277E+03  0.24183948690E+03  0.12509549252E+03 0.  0.
          5    1    3    3  502    0 -0.65309544335E+01 -0.12719857212E+03 -0.45033168633E+02  0.13515764422E+03  0.41800000000E+01 0.  1.
         -5    1    3    3    0  502  0.40695516104E+02 -0.19907823425E+02 -0.96494024135E+02  0.10668184268E+03  0.41800000000E+01 0.  1.
        -11    1    1    2    0    0 -0.79024263769E+01  0.25611536170E+02 -0.33259686220E+02  0.42715405360E+02  0.00000000000E+00 0.  1.
         11    1    1    2    0    0 -0.26262135293E+02  0.12149485937E+03  0.50638555629E+02  0.13421983430E+03  0.00000000000E+00 0. -1.
</event>
<event>
 7    1  0.2749315E-009  0.2365121E+03  0.7561462E-02  0.1122138E+00
          2   -1    0    0  501    0  0.00000000000E+00  0.00000000000E+00  0.12718469212E+04  0.12718469212E+04  0.00000000000E+00 0.  1.
         -2   -1    0    0    0  501 -0.00000000000E+00 -0.00000000000E+00 -0.51831922477E+02  0.51831922477E+02  0.00000000000E+00 0. -1.
         25    2    1    2    0    0 -0.16107646213E+02  0.22540100643E+03  0.76236811091E+03  0.80493189085E+03  0.12508054371E+03 0.  0.
          5    1    3    3  502    0 -0.42703230592E+02  0.49296225856E+02  0.34495282581E+03  0.35108917417E+03  0.41800000000E+01 0.  1.
         -5    1    3    3    0  502  0.26595584379E+02  0.17610478057E+03  0.41741528510E+03  0.45384271668E+03  0.41800000000E+01 0.  1.
        -11    1    1    2    0    0  0.28212500911E+02 -0.19052116578E+03  0.29751732667E+03  0.35441616708E+03  0.00000000000E+00 0. -1.
         11    1    1    2    0    0 -0.12104854698E+02 -0.34879840646E+02  0.16012956113E+03  0.16433078573E+03  0.00000000000E+00 0.  1.
</event>
<event>
 7    1  0.2749315E-009  0.1769907E+03  0.7561462E-02  0.1170748E+00
          1   -1    0    0  501    0  0.00000000000E+00  0.00000000000E+00  0.13324566680E+04  0.13324566680E+04  0.00000000000E+00 0. -1.
         -1   -1    0    0    0  501 -0.00000000000E+00 -0.00000000000E+00 -0.26004314213E+02  0.26004314213E+02  0.00000000000E+00 0.  1.
         25    2    1    2    0    0  0.10867098992E+03  0.11054579799E+03  0.69294970167E+03  0.72101044843E+03  0.12508804981E+03 0.  0.
          5    1    3    3  502    0  0.43110816479E+02  0.11093879591E+03  0.30298318133E+03  0.32554913532E+03  0.41800000000E+01 0.  1.
         -5    1    3    3    0  502  0.65560173440E+02 -0.39299791987E+00  0.38996652034E+03  0.39546131312E+03  0.41800000000E+01 0.  1.
        -11    1    1    2    0    0 -0.11330074446E+03 -0.80976661223E+02  0.44407590925E+03  0.46540057105E+03  0.00000000000E+00 0.  1.
         11    1    1    2    0    0  0.46297545450E+01 -0.29569136766E+02  0.16942674290E+03  0.17204996276E+03  0.00000000000E+00 0. -1.
</event>
<event>
 7    1  0.2749315E-009  0.1416201E+03  0.7561462E-02  0.1211166E+00
          2   -1    0    0  501    0  0.00000000000E+00  0.00000000000E+00  0.10521056338E+04  0.10521056338E+04  0.00000000000E+00 0. -1.
         -2   -1    0    0    0  501 -0.00000000000E+00 -0.00000000000E+00 -0.28600375004E+02  0.28600375004E+02  0.00000000000E+00 0.  1.
         25    2    1    2    0    0 -0.95967605118E+02  0.53944527137E+02  0.78804780268E+03  0.80547280237E+03  0.12508917938E+03 0.  0.
          5    1    3    3  502    0  0.24793195953E+02  0.18553661441E+02  0.72732421506E+02  0.79160712835E+02  0.41800000000E+01 0.  1.
         -5    1    3    3    0  502 -0.12076080107E+03  0.35390865696E+02  0.71531538118E+03  0.72631208953E+03  0.41800000000E+01 0.  1.
        -11    1    1    2    0    0  0.61016841907E+02 -0.65264553253E+02  0.96535690561E+02  0.13153576114E+03  0.00000000000E+00 0.  1.
         11    1    1    2    0    0  0.34950763211E+02  0.11320026116E+02  0.13892176558E+03  0.14369744532E+03  0.00000000000E+00 0. -1.
</event>
<event>
 7    1  0.2749315E-009  0.1231958E+03  0.7561462E-02  0.1237916E+00
         -2   -1    0    0    0  501 -0.00000000000E+00  0.00000000000E+00  0.76936010142E+02  0.76936010142E+02  0.00000000000E+00 0.  1.
          2   -1    0    0  501    0  0.00000000000E+00 -0.00000000000E+00 -0.23328306423E+03  0.23328306423E+03  0.00000000000E+00 0. -1.
         25    2    1    2    0    0 -0.45970451221E+02  0.57200166508E+02 -0.11933643008E+03  0.18781438749E+03  0.12509164309E+03 0.  0.
          5    1    3    3  502    0 -0.64025057336E+02  0.86991563461E+02 -0.10223845924E+03  0.14878479435E+03  0.41800000000E+01 0. -1.
         -5    1    3    3    0  502  0.18054606115E+02 -0.29791396953E+02 -0.17097970838E+02  0.39029593146E+02  0.41800000000E+01 0. -1.
        -11    1    1    2    0    0 -0.88641240625E+01  0.12001178894E+02 -0.30400829418E+02  0.33864604228E+02  0.00000000000E+00 0. -1.
         11    1    1    2    0    0  0.54834575283E+02 -0.69201345402E+02 -0.66097945928E+01  0.88540082655E+02  0.00000000000E+00 0.  1.
</event>
<event>
 7    1  0.2749315E-009  0.1548342E+03  0.7561462E-02  0.1194656E+00
         -2   -1    0    0    0  501 -0.00000000000E+00  0.00000000000E+00  0.14526021380E+03  0.14526021380E+03  0.00000000000E+00 0.  1.
          2   -1    0    0  501    0  0.00000000000E+00 -0.00000000000E+00 -0.46888112047E+03  0.46888112047E+03  0.00000000000E+00 0. -1.
         25    2    1    2    0    0  0.53771374145E+01 -0.13827887765E+03 -0.39383533553E+03  0.43577901213E+03  0.12508842591E+03 0.  0.
          5    1    3    3  502    0 -0.16682261950E+02  0.86469453733E+01 -0.14242577671E+03  0.14372070762E+03  0.41800000000E+01 0.  1.
         -5    1    3    3    0  502  0.22059399364E+02 -0.14692582302E+03 -0.25140955882E+03  0.29205830451E+03  0.41800000000E+01 0.  1.
        -11    1    1    2    0    0  0.12549691764E+02  0.73957060670E+02 -0.80947512779E+01  0.75449761991E+02  0.00000000000E+00 0. -1.
         11    1    1    2    0    0 -0.17926829178E+02  0.64321816976E+02  0.78309180133E+02  0.10291256015E+03  0.00000000000E+00 0.  1.
</event>
<event>
 7    1  0.2749315E-009  0.1145676E+03  0.7561462E-02  0.1252338E+00
         -2   -1    0    0    0  501 -0.00000000000E+00  0.00000000000E+00  0.39239428568E+02  0.39239428568E+02  0.00000000000E+00 0.  1.
          2   -1    0    0  501    0  0.00000000000E+00 -0.00000000000E+00 -0.44389004734E+03  0.44389004734E+03  0.00000000000E+00 0. -1.
         25    2    1    2    0    0  0.29274638536E+02  0.55645605395E+02 -0.30521482080E+03  0.33579373333E+03  0.12509159302E+03 0.  0.
          5    1    3    3  502    0  0.73579325653E+02  0.25852471513E+02 -0.12153670490E+03  0.14446767973E+03  0.41800000000E+01 0. -1.
         -5    1    3    3    0  502 -0.44304687117E+02  0.29793133883E+02 -0.18367811590E+03  0.19132605361E+03  0.41800000000E+01 0. -1.
        -11    1    1    2    0    0 -0.93695915220E+01 -0.71451572842E+02 -0.39376687359E+02  0.82119668863E+02  0.00000000000E+00 0.  1.
         11    1    1    2    0    0 -0.19905047014E+02  0.15805967447E+02 -0.60059110607E+02  0.65216073713E+02  0.00000000000E+00 0. -1.
</event>
<event>
 7    1  0.2749315E-009  0.1464560E+03  0.7561462E-02  0.1204897E+00
         -1   -1    0    0    0  501 -0.00000000000E+00  0.00000000000E+00  0.11635910854E+04  0.11635910854E+04  0.00000000000E+00 0.  1.
          1   -1    0    0  501    0  0.00000000000E+00 -0.00000000000E+00 -0.25708861072E+02  0.25708861072E+02  0.00000000000E+00 0. -1.
         25    2    1    2    0    0  0.12950843433E+03 -0.14819916705E+01  0.72062660277E+03  0.74278206653E+03  0.12509143405E+03 0.  0.
          5    1    3    3  502    0  0.51528920702E+02 -0.21155636299E+02  0.56310277794E+03  0.56586659341E+03  0.41800000000E+01 0. -1.
         -5    1    3    3    0  502  0.77979513629E+02  0.19673644628E+02  0.15752382483E+03  0.17691547312E+03  0.41800000000E+01 0. -1.
        -11    1    1    2    0    0 -0.95742634368E+02  0.41337284805E+02  0.31286168310E+03  0.32978455983E+03  0.00000000000E+00 0.  1.
         11    1    1    2    0    0 -0.33765799963E+02 -0.39855293134E+02  0.10439393847E+03  0.11673332012E+03  0.00000000000E+00 0. -1.
</event>
<event>
 7    1  0.2749315E-009  0.1091813E+03  0.7561462E-02  0.1262094E+00
          2   -1    0    0  501    0  0.00000000000E+00  0.00000000000E+00  0.17197981011E+03  0.17197981011E+03  0.00000000000E+00 0. -1.
         -2   -1    0    0    0  501 -0.00000000000E+00 -0.00000000000E+00 -0.11320717465E+03  0.11320717465E+03  0.00000000000E+00 0.  1.
         25    2    1    2    0    0  0.45899098674E+02  0.61027998225E+02 -0.11466263607E+02  0.14700312718E+03  0.12508916969E+03 0.  0.
          5    1    3    3  502    0  0.76770277870E+02  0.46713604120E+01  0.13005410568E+02  0.78116005251E+02  0.41800000000E+01 0. -1.
         -5    1    3    3    0  502 -0.30871179196E+02  0.56356637813E+02 -0.24471674175E+02  0.68887121928E+02  0.41800000000E+01 0. -1.
        -11    1    1    2    0    0 -0.48672642042E+01 -0.12374194167E+02 -0.22244853246E+02  0.25916103836E+02  0.00000000000E+00 0.  1.
         11    1    1    2    0    0 -0.41031834470E+02 -0.48653804058E+02  0.92483752308E+02  0.11226775374E+03  0.00000000000E+00 0. -1.
</event>
<event>
 7    1  0.2749315E-009  0.1003218E+03  0.7561462E-02  0.1279621E+00
          1   -1    0    0  501    0  0.00000000000E+00  0.00000000000E+00  0.18690973065E+03  0.18690973065E+03  0.00000000000E+00 0. -1.
         -1   -1    0    0    0  501 -0.00000000000E+00 -0.00000000000E+00 -0.73471236717E+02  0.73471236717E+02  0.00000000000E+00 0.  1.
         25    2    1    2    0    0  0.15434478817E+02  0.15156138208E+02  0.18453647079E+02  0.12828406115E+03  0.12509329156E+03 0.  0.
          5    1    3    3  502    0  0.64139387909E+02 -0.12179269326E+01  0.36179541291E+02  0.73768394557E+02  0.41800000000E+01 0. -1.
         -5    1    3    3    0  502 -0.48704909092E+02  0.16374065141E+02 -0.17725894212E+02  0.54515666597E+02  0.41800000000E+01 0. -1.
        -11    1    1    2    0    0 -0.22077602304E+02 -0.47183980493E+02  0.81479069057E+02  0.96708775367E+02  0.00000000000E+00 0. -1.
         11    1    1    2    0    0  0.66431234865E+01  0.32027842285E+02  0.13505777800E+02  0.35388130850E+02  0.00000000000E+00 0.  1.
</event>
<event>
 7    1  0.2749315E-009  0.6841237E+02  0.7561462E-02  0.1365577E+00
         -1   -1    0    0    0  501 -0.00000000000E+00  0.00000000000E+00  0.44828768087E+02  0.44828768087E+02  0.00000000000E+00 0.  1.
          1   -1    0    0  501    0  0.00000000000E+00 -0.00000000000E+00 -0.26396565749E+03  0.26396565749E+03  0.00000000000E+00 0. -1.
         25    2    1    2    0    0 -0.76251639779E+01 -0.12160842254E+00 -0.10858292248E+03  0.16581313392E+03  0.12508231854E+03 0.  0.
          5    1    3    3  502    0  0.39300663468E+02 -0.16981899533E+02 -0.10747417969E+03  0.11576311486E+03  0.41800000000E+01 0. -1.
         -5    1    3    3    0  502 -0.46925827446E+02  0.16860291111E+02 -0.11087427897E+01  0.50050019065E+02  0.41800000000E+01 0. -1.
        -11    1    1    2    0    0 -0.70792324675E+01  0.18747809724E+02 -0.11674794525E+03  0.11845538663E+03  0.00000000000E+00 0. -1.
         11    1    1    2    0    0  0.14704396445E+02 -0.18626201301E+02  0.61939783292E+01  0.24525905025E+02  0.00000000000E+00 0.  1.
</event>
<event>
 7    1  0.2749315E-009  0.5347749E+02  0.7561462E-02  0.1427439E+00
          1   -1    0    0  501    0  0.00000000000E+00  0.00000000000E+00  0.15199901643E+03  0.15199901643E+03  0.00000000000E+00 0. -1.
         -1   -1    0    0    0  501 -0.00000000000E+00 -0.00000000000E+00 -0.96658509177E+02  0.96658509177E+02  0.00000000000E+00 0.  1.
         25    2    1    2    0    0 -0.24074769784E+02  0.19202579205E+02  0.75964400313E+02  0.14955261533E+03  0.12508821307E+03 0.  0.
          5    1    3    3  502    0 -0.28615698657E+01  0.69109502117E+01  0.10836715948E+03  0.10870539761E+03  0.41800000000E+01 0. -1.
         -5    1    3    3    0  502 -0.21213199918E+02  0.12291628994E+02 -0.32402759168E+02  0.40847217724E+02  0.41800000000E+01 0. -1.
        -11    1    1    2    0    0  0.17220627606E+02 -0.44283987436E+02 -0.43540001898E+02  0.64446515217E+02  0.00000000000E+00 0.  1.
         11    1    1    2    0    0  0.68541421781E+01  0.25081408230E+02  0.22916108839E+02  0.34658395060E+02  0.00000000000E+00 0. -1.
</event>
<event>
 7    1  0.2749315E-009  0.9980584E+02  0.7561462E-02  0.1280705E+00
         -2   -1    0    0    0  501 -0.00000000000E+00  0.00000000000E+00  0.11472752602E+03  0.11472752602E+03  0.00000000000E+00 0.  1.
          2   -1    0    0  501    0  0.00000000000E+00 -0.00000000000E+00 -0.13686565077E+03  0.13686565077E+03  0.00000000000E+00 0. -1.
         25    2    1    2    0    0  0.45203475060E+02  0.35861300966E+02 -0.35025046816E+02  0.14213611954E+03  0.12508611238E+03 0.  0.
          5    1    3    3  502    0  0.57544492187E+02  0.55858388405E+01  0.32889089614E+02  0.66646341177E+02  0.41800000000E+01 0.  1.
         -5    1    3    3    0  502 -0.12341017127E+02  0.30275462126E+02 -0.67914136430E+02  0.75489778365E+02  0.41800000000E+01 0.  1.
        -11    1    1    2    0    0  0.26442906829E+02 -0.24682105174E+02  0.35823050113E+01  0.36349230344E+02  0.00000000000E+00 0. -1.
         11    1    1    2    0    0 -0.71646381889E+02 -0.11179195793E+02  0.93046170553E+01  0.73107826906E+02  0.00000000000E+00 0.  1.
</event>
<event>
 7    1  0.2749315E-009  0.1171498E+03  0.7561462E-02  0.1247875E+00
          2   -1    0    0  501    0  0.00000000000E+00  0.00000000000E+00  0.21547116469E+03  0.21547116469E+03  0.00000000000E+00 0. -1.
         -2   -1    0    0    0  501 -0.00000000000E+00 -0.00000000000E+00 -0.87759632306E+02  0.87759632306E+02  0.00000000000E+00 0.  1.
         25    2    1    2    0    0 -0.17551355891E+02  0.82243708894E+02  0.58775443760E+02  0.16177937656E+03  0.12508371654E+03 0.  0.
          5    1    3    3  502    0  0.50870396901E+02  0.13134313527E+02  0.13392840112E+02  0.54379665675E+02  0.41800000000E+01 0. -1.
         -5    1    3    3    0  502 -0.68421752792E+02  0.69109395367E+02  0.45382603649E+02  0.10739971088E+03  0.41800000000E+01 0. -1.
        -11    1    1    2    0    0  0.10410504498E+02 -0.59889936551E+02  0.90871601828E+02  0.10932900403E+03  0.00000000000E+00 0. -1.
         11    1    1    2    0    0  0.71408513934E+01 -0.22353772343E+02 -0.21935513203E+02  0.32122416411E+02  0.00000000000E+00 0.  1.
</event>
<event>
 7    1  0.2749315E-009  0.1206348E+03  0.7561462E-02  0.1242053E+00
         -4   -1    0    0    0  501 -0.00000000000E+00  0.00000000000E+00  0.65950063200E+02  0.65950063200E+02  0.00000000000E+00 0.  1.
          4   -1    0    0  501    0  0.00000000000E+00 -0.00000000000E+00 -0.27295226461E+03  0.27295226461E+03  0.00000000000E+00 0. -1.
         25    2    1    2    0    0  0.77981851851E+02  0.39835995847E+01 -0.96891685896E+02  0.17644530565E+03  0.12509160166E+03 0.  0.
          5    1    3    3  502    0  0.68044459733E+01 -0.50492571214E+02 -0.61540914890E+02  0.80003480164E+02  0.41800000000E+01 0. -1.
         -5    1    3    3    0  502  0.71177405878E+02  0.54476170799E+02 -0.35350771006E+02  0.96441825486E+02  0.41800000000E+01 0. -1.
        -11    1    1    2    0    0 -0.84571962819E+02  0.98042471448E+01 -0.11780310769E+03  0.14534824505E+03  0.00000000000E+00 0. -1.
         11    1    1    2    0    0  0.65901109680E+01 -0.13787846729E+02  0.76925921731E+01  0.17108777114E+02  0.00000000000E+00 0.  1.
</event>
<event>
 7    1  0.2749315E-009  0.3459651E+03  0.7561462E-02  0.1064283E+00
         -2   -1    0    0    0  501 -0.00000000000E+00  0.00000000000E+00  0.52200341132E+02  0.52200341132E+02  0.00000000000E+00 0.  1.
          2   -1    0    0  501    0  0.00000000000E+00 -0.00000000000E+00 -0.26458807412E+04  0.26458807412E+04  0.00000000000E+00 0. -1.
         25    2    1    2    0    0  0.33315880306E+03 -0.82514397573E+02 -0.98523755601E+03  0.10507823560E+04  0.12508838454E+03 0.  0.
          5    1    3    3  502    0  0.24133049419E+02  0.66445393097E+01 -0.20906055716E+03  0.21059521110E+03  0.41800000000E+01 0.  1.
         -5    1    3    3    0  502  0.30902575364E+03 -0.89158936883E+02 -0.77617699885E+03  0.84018714486E+03  0.41800000000E+01 0.  1.
        -11    1    1    2    0    0 -0.14180972334E+03  0.52448969220E+02 -0.51123588031E+03  0.53312570499E+03  0.00000000000E+00 0. -1.
         11    1    1    2    0    0 -0.19134907972E+03  0.30065428353E+02 -0.10972069638E+04  0.11141730214E+04  0.00000000000E+00 0.  1.
</event>
<event>
 7    1  0.2749315E-009  0.1310624E+03  0.7561462E-02  0.1225888E+00
          2   -1    0    0  501    0  0.00000000000E+00  0.00000000000E+00  0.31151690630E+03  0.31151690630E+03  0.00000000000E+00 0. -1.
         -2   -1    0    0    0  501 -0.00000000000E+00 -0.00000000000E+00 -0.89301531792E+02  0.89301531792E+02  0.00000000000E+00 0.  1.
         25    2    1    2    0    0  0.83825897336E+02 -0.88145508765E+02  0.90250906317E+02  0.19644059069E+03  0.12508903949E+03 0.  0.
          5    1    3    3  502    0  0.16586957816E+02  0.14146309828E+01  0.82320570203E+02  0.84090885529E+02  0.41800000000E+01 0.  1.
         -5    1    3    3    0  502  0.67238939520E+02 -0.89560139747E+02  0.79303361140E+01  0.11234970516E+03  0.41800000000E+01 0.  1.
        -11    1    1    2    0    0 -0.87520153200E+02  0.63897371078E+02  0.14135653032E+03  0.17811322217E+03  0.00000000000E+00 0. -1.
         11    1    1    2    0    0  0.36942558635E+01  0.24248137686E+02 -0.93920621286E+01  0.26264625234E+02  0.00000000000E+00 0.  1.
</event>
<event>
 7    1  0.2749315E-009  0.1006431E+03  0.7561462E-02  0.1278949E+00
          3   -1    0    0  501    0  0.00000000000E+00  0.00000000000E+00  0.55059143493E+03  0.55059143493E+03  0.00000000000E+00 0. -1.
         -3   -1    0    0    0  501 -0.00000000000E+00 -0.00000000000E+00 -0.27500215345E+02  0.27500215345E+02  0.00000000000E+00 0.  1.
         25    2    1    2    0    0 -0.23843597338E+02  0.22565038870E+02  0.18544245698E+03  0.22607728733E+03  0.12507732361E+03 0.  0.
          5    1    3    3  502    0 -0.68851566459E+02  0.14171663179E+02  0.60133063988E+02  0.92600388906E+02  0.41800000000E+01 0.  1.
         -5    1    3    3    0  502  0.45007969121E+02  0.83933756908E+01  0.12530939299E+03  0.13347689842E+03  0.41800000000E+01 0.  1.
        -11    1    1    2    0    0  0.25456713128E+02  0.25949502583E+02  0.59988793877E+02  0.70143255687E+02  0.00000000000E+00 0.  1.
         11    1    1    2    0    0 -0.16131157899E+01 -0.48514541452E+02  0.27765996873E+03  0.28187110726E+03  0.00000000000E+00 0. -1.
</event>
<event>
 7    1  0.2749315E-009  0.9584866E+02  0.7561462E-02  0.1289276E+00
         -2   -1    0    0    0  501 -0.00000000000E+00  0.00000000000E+00  0.38654468027E+02  0.38654468027E+02  0.00000000000E+00 0.  1.
          2   -1    0    0  501    0  0.00000000000E+00 -0.00000000000E+00 -0.38881446529E+03  0.38881446529E+03  0.00000000000E+00 0. -1.
         25    2    1    2    0    0  0.39767788379E+02 -0.25502461410E+02 -0.13984943886E+03  0.19348958736E+03  0.12509397403E+03 0.  0.
          5    1    3    3  502    0 -0.23248412709E+02  0.10468615619E+02  0.93921110057E+01  0.27491175959E+02  0.41800000000E+01 0. -1.
         -5    1    3    3    0  502  0.63016201088E+02 -0.35971077029E+02 -0.14924154986E+03  0.16599841140E+03  0.41800000000E+01 0. -1.
        -11    1    1    2    0    0  0.22200542000E+02 -0.69043992986E+01 -0.10515191953E+03  0.10769150837E+03  0.00000000000E+00 0. -1.
         11    1    1    2    0    0 -0.61968330379E+02  0.32406860709E+02 -0.10515863887E+03  0.12628783758E+03  0.00000000000E+00 0.  1.
</event>
<event>
 7    1  0.2749315E-009  0.2890072E+03  0.7561462E-02  0.1090869E+00
          2   -1    0    0  501    0  0.00000000000E+00  0.00000000000E+00  0.25965783317E+03  0.25965783317E+03  0.00000000000E+00 0. -1.
         -2   -1    0    0    0  501 -0.00000000000E+00 -0.00000000000E+00 -0.33669337061E+03  0.33669337061E+03  0.00000000000E+00 0.  1.
         25    2    1    2    0    0 -0.27361106761E+03  0.19407352923E+02 -0.25561067853E+02  0.30256506561E+03  0.12511030763E+03 0.  0.
          5    1    3    3  502    0 -0.12474908619E+03  0.71203994406E+02 -0.16300547762E+02  0.14462200241E+03  0.41800000000E+01 0.  1.
         -5    1    3    3    0  502 -0.14886198142E+03 -0.51796641483E+02 -0.92605200909E+01  0.15794306320E+03  0.41800000000E+01 0.  1.
        -11    1    1    2    0    0  0.10761907730E+03  0.99365164052E+01 -0.62522813179E+02  0.12485872947E+03  0.00000000000E+00 0.  1.
         11    1    1    2    0    0  0.16599199031E+03 -0.29343869328E+02  0.11048343597E+02  0.16892740870E+03  0.00000000000E+00 0. -1.
</event>
<event>
 7    1  0.2749315E-009  0.8571418E+02  0.7561462E-02  0.1313575E+00
         -1   -1    0    0    0  501 -0.00000000000E+00  0.00000000000E+00  0.51885429329E+03  0.51885429329E+03  0.00000000000E+00 0.  1.
          1   -1    0    0  501    0  0.00000000000E+00 -0.00000000000E+00 -0.42832553794E+02  0.42832553794E+02  0.00000000000E+00 0. -1.
         25    2    1    2    0    0 -0.34275571934E+02  0.19869890025E+02  0.43540501319E+03  0.45474720797E+03  0.12509144765E+03 0.  0.
          5    1    3    3  502    0 -0.48752623107E+02  0.35334920619E+02  0.42752135550E+03  0.43176076325E+03  0.41800000000E+01 0. -1.
         -5    1    3    3    0  502  0.14477051173E+02 -0.15465030594E+02  0.78836576955E+01  0.22986444714E+02  0.41800000000E+01 0. -1.
        -11    1    1    2    0    0  0.49179958442E+02  0.15117015171E+02  0.45391493405E+02  0.68611807538E+02  0.00000000000E+00 0.  1.
         11    1    1    2    0    0 -0.14904386508E+02 -0.34986905196E+02 -0.47747671085E+01  0.38327831576E+02  0.00000000000E+00 0. -1.
</event>
<event>
 7    1  0.3237929E-009  0.1274310E+03  0.7561462E-02  0.1231318E+00
         -2   -1    0    0    0  501 -0.00000000000E+00  0.00000000000E+00  0.67590739679E+02  0.67590739679E+02  0.00000000000E+00 0.  1.
          2   -1    0    0  501    0  0.00000000000E+00 -0.00000000000E+00 -0.38913908727E+03  0.38913908727E+03  0.00000000000E+00 0. -1.
         25    2    1    2    0    0  0.79276397068E+02 -0.81897064002E+02 -0.11952248021E+03  0.20718497269E+03  0.12509241946E+03 0.  0.
          5    1    3    3  502    0  0.19917230261E+02  0.10612868373E+02 -0.90583487563E+02  0.93446078866E+02  0.41800000000E+01 0.  1.
         -5    1    3    3    0  502  0.59359166807E+02 -0.92509932374E+02 -0.28938992649E+02  0.11373889382E+03  0.41800000000E+01 0.  1.
        -11    1    1    2    0    0 -0.81089142201E+01  0.36750656650E+02 -0.13981563299E+03  0.14479218378E+03  0.00000000000E+00 0. -1.
         11    1    1    2    0    0 -0.71167482848E+02  0.45146407352E+02 -0.62210234390E+02  0.10475267049E+03  0.00000000000E+00 0.  1.
</event>
<event>
 7    1  0.2749315E-009  0.1717374E+03  0.7561462E-02  0.1176048E+00
         -1   -1    0    0    0  501 -0.00000000000E+00  0.00000000000E+00  0.79305763660E+03  0.79305763660E+03  0.00000000000E+00 0.  1.
          1   -1    0    0  501    0  0.00000000000E+00 -0.00000000000E+00 -0.88091642887E+02  0.88091642887E+02  0.00000000000E+00 0. -1.
         25    2    1    2    0    0 -0.11429928266E+03 -0.91530863400E+02  0.67888141061E+03  0.70567018670E+03  0.12509283650E+03 0.  0.
          5    1    3    3  502    0 -0.60311072406E+02 -0.99855022083E+02  0.58862272051E+03  0.60008551923E+03  0.41800000000E+01 0.  1.
         -5    1    3    3    0  502 -0.53988210257E+02  0.83241586837E+01  0.90258690104E+02  0.10558466747E+03  0.41800000000E+01 0.  1.
        -11    1    1    2    0    0  0.31965005865E+02 -0.16625150410E+02 -0.40289770884E+01  0.36254515339E+02  0.00000000000E+00 0. -1.
         11    1    1    2    0    0  0.82334276798E+02  0.10815601381E+03  0.30113560184E+02  0.13922457745E+03  0.00000000000E+00 0.  1.
</event>
<event>
 7    1  0.2749315E-009  0.9509513E+02  0.7561462E-02  0.1290962E+00
         -2   -1    0    0    0  501 -0.00000000000E+00  0.00000000000E+00  0.50000581631E+02  0.50000581631E+02  0.00000000000E+00 0.  1.
          2   -1    0    0  501    0  0.00000000000E+00 -0.00000000000E+00 -0.47012108817E+03  0.47012108817E+03  0.00000000000E+00 0. -1.
         25    2    1    2    0    0 -0.81861954315E+02 -0.25069532838E+02 -0.31328336980E+03  0.34802601908E+03  0.12508308889E+03 0.  0.
          5    1    3    3  502    0 -0.39125291774E+02  0.14157540186E+02 -0.27553267951E+03  0.27868791556E+03  0.41800000000E+01 0. -1.
         -5    1    3    3    0  502 -0.42736662541E+02 -0.39227073023E+02 -0.37750690287E+02  0.69338103524E+02  0.41800000000E+01 0. -1.
        -11    1    1    2    0    0  0.36412766970E+02 -0.34182194077E+01 -0.11236983238E+03  0.11817171003E+03  0.00000000000E+00 0. -1.
         11    1    1    2    0    0  0.45449187345E+02  0.28487752245E+02  0.55326956389E+01  0.53923940688E+02  0.00000000000E+00 0.  1.
</event>
<event>
 7    1  0.2749315E-009  0.1912259E+03  0.7561462E-02  0.1157360E+00
          2   -1    0    0  501    0  0.00000000000E+00  0.00000000000E+00  0.51937533155E+03  0.51937533155E+03  0.00000000000E+00 0. -1.
         -2   -1    0    0    0  501 -0.00000000000E+00 -0.00000000000E+00 -0.11019395058E+03  0.11019395058E+03  0.00000000000E+00 0.  1.
         25    2    1    2    0    0 -0.11698928966E+03  0.11728394897E+03  0.38547876821E+03  0.43781634304E+03  0.12508897199E+03 0.  0.
          5    1    3    3  502    0 -0.12367892759E+03  0.13503190253E+03  0.31176391294E+03  0.36158581504E+03  0.41800000000E+01 0.  1.
         -5    1    3    3    0  502  0.66896379288E+01 -0.17747953559E+02  0.73714855270E+02  0.76230527997E+02  0.41800000000E+01 0.  1.
        -11    1    1    2    0    0  0.20560741401E+02 -0.69058734870E+02 -0.20977830534E+02  0.75046134629E+02  0.00000000000E+00 0.  1.
         11    1    1    2    0    0  0.96428548259E+02 -0.48225214099E+02  0.44680443293E+02  0.11670680446E+03  0.00000000000E+00 0. -1.
</event>
<event>
 7    1  0.2749315E-009  0.1131947E+03  0.7561462E-02  0.1254766E+00
         -3   -1    0    0    0  501 -0.00000000000E+00  0.00000000000E+00  0.32180653768E+03  0.32180653768E+03  0.00000000000E+00 0. -1.
          3   -1    0    0  501    0  0.00000000000E+00 -0.00000000000E+00 -0.67340697385E+02  0.67340697385E+02  0.00000000000E+00 0.  1.
         25    2    1    2    0    0 -0.28610247142E+02  0.85524177885E+02  0.19196770577E+03  0.24623515439E+03  0.12508884825E+03 0.  0.
          5    1    3    3  502    0 -0.35221024069E+02  0.50874541601E+01 -0.22219515693E+01  0.35900030572E+02  0.41800000000E+01 0. -1.
         -5    1    3    3    0  502  0.66107769268E+01  0.80436723725E+02  0.19418965734E+03  0.21033512382E+03  0.41800000000E+01 0. -1.
        -11    1    1    2    0    0  0.18259118595E+02 -0.94373595900E+02  0.19862605611E+02  0.98154440127E+02  0.00000000000E+00 0.  1.
         11    1    1    2    0    0  0.10351128547E+02  0.88494180145E+01  0.42635528918E+02  0.44757640549E+02  0.00000000000E+00 0. -1.
</event>
<event>
 7    1  0.2749315E-009  0.1052153E+03  0.7561462E-02  0.1269696E+00
         -2   -1    0    0    0  501 -0.00000000000E+00  0.00000000000E+00  0.27069073872E+02  0.27069073872E+02  0.00000000000E+00 0. -1.
          2   -1    0    0  501    0  0.00000000000E+00 -0.00000000000E+00 -0.54109625061E+03  0.54109625061E+03  0.00000000000E+00 0.  1.
         25    2    1    2    0    0 -0.33155589352E+02  0.13009084126E+02 -0.19267028978E+03  0.23245962419E+03  0.12508839651E+03 0.  0.
          5    1    3    3  502    0 -0.27315122295E+02 -0.46156144209E+02 -0.14945285801E+03  0.15883996575E+03  0.41800000000E+01 0. -1.
         -5    1    3    3    0  502 -0.58404670566E+01  0.59165228336E+02 -0.43217431772E+02  0.73619658437E+02  0.41800000000E+01 0. -1.
        -11    1    1    2    0    0  0.57548475868E+02  0.15417186102E+02 -0.19137747625E+03  0.20043666111E+03  0.00000000000E+00 0. -1.
         11    1    1    2    0    0 -0.24392886517E+02 -0.28426270228E+02 -0.12997941071E+03  0.13526903918E+03  0.00000000000E+00 0.  1.
</event>
<event>
 7    1  0.2749315E-009  0.1173668E+03  0.7561462E-02  0.1247505E+00
         -2   -1    0    0    0  501 -0.00000000000E+00  0.00000000000E+00  0.13973819829E+02  0.13973819829E+02  0.00000000000E+00 0.  1.
          2   -1    0    0  501    0  0.00000000000E+00 -0.00000000000E+00 -0.14105132911E+04  0.14105132911E+04  0.00000000000E+00 0. -1.
         25    2    1    2    0    0 -0.63335704283E+02 -0.43573062919E+02 -0.97859185008E+03  0.98954516312E+03  0.12509035756E+03 0.  0.
          5    1    3    3  502    0  0.15930345412E+02  0.95739504632E+01 -0.55453256878E+03  0.55485969278E+03  0.41800000000E+01 0. -1.
         -5    1    3    3    0  502 -0.79266049695E+02 -0.53147013382E+02 -0.42405928130E+03  0.43468547034E+03  0.41800000000E+01 0. -1.
        -11    1    1    2    0    0 -0.24266573013E+02  0.11671416957E+02 -0.10543584138E+03  0.10882005876E+03  0.00000000000E+00 0.  1.
         11    1    1    2    0    0  0.87602277296E+02  0.31901645962E+02 -0.31251177978E+03  0.32612188903E+03  0.00000000000E+00 0. -1.
</event>
<event>
 7    1  0.2942120E-009  0.1151919E+03  0.7561462E-02  0.1251246E+00
         -2   -1    0    0    0  501 -0.00000000000E+00  0.00000000000E+00  0.24222759865E+03  0.24222759865E+03  0.00000000000E+00 0.  1.
          2   -1    0    0  501    0  0.00000000000E+00 -0.00000000000E+00 -0.11822514267E+03  0.11822514267E+03  0.00000000000E+00 0. -1.
         25    2    1    2    0    0  0.33542942034E+01 -0.10046853824E+03  0.15204219372E+03  0.22106778194E+03  0.12509579159E+03 0.  0.
          5    1    3    3  502    0 -0.25686829479E+02 -0.12093736079E+02 -0.13049882898E+02  0.31525283578E+02  0.41800000000E+01 0. -1.
         -5    1    3    3    0  502  0.29041123682E+02 -0.88374802162E+02  0.16509207662E+03  0.18954249836E+03  0.41800000000E+01 0. -1.
        -11    1    1    2    0    0  0.18685127059E+02  0.53923239372E+02 -0.56700405280E+02  0.80447409383E+02  0.00000000000E+00 0. -1.
         11    1    1    2    0    0 -0.22039421262E+02  0.46545298869E+02  0.28660667529E+02  0.58937549997E+02  0.00000000000E+00 0.  1.
</event>
<event>
 7    1  0.2749315E-009  0.1007981E+03  0.7561462E-02  0.1278627E+00
          2   -1    0    0  501    0  0.00000000000E+00  0.00000000000E+00  0.77744511618E+03  0.77744511618E+03  0.00000000000E+00 0. -1.
         -2   -1    0    0    0  501 -0.00000000000E+00 -0.00000000000E+00 -0.48832233169E+02  0.48832233169E+02  0.00000000000E+00 0.  1.
         25    2    1    2    0    0  0.64351215296E+02 -0.20466327684E+01  0.69949071439E+03  0.71349770227E+03  0.12508574663E+03 0.  0.
          5    1    3    3  502    0  0.81812203133E+02 -0.18228163192E+02  0.67059517479E+03  0.67582605999E+03  0.41800000000E+01 0.  1.
         -5    1    3    3    0  502 -0.17460987837E+02  0.16181530424E+02  0.28895539605E+02  0.37671642281E+02  0.41800000000E+01 0.  1.
        -11    1    1    2    0    0 -0.29627900417E+02  0.34845568264E+02 -0.14613364779E+02  0.48016419493E+02  0.00000000000E+00 0.  1.
         11    1    1    2    0    0 -0.34723314879E+02 -0.32798935495E+02  0.43735533400E+02  0.64763227588E+02  0.00000000000E+00 0. -1.
</event>
<event>
 7    1  0.2749315E-009  0.1012629E+03  0.7561462E-02  0.1277662E+00
         -1   -1    0    0    0  501 -0.00000000000E+00  0.00000000000E+00  0.42747898949E+02  0.42747898949E+02  0.00000000000E+00 0.  1.
          1   -1    0    0  501    0  0.00000000000E+00 -0.00000000000E+00 -0.30117739715E+03  0.30117739715E+03  0.00000000000E+00 0. -1.
         25    2    1    2    0    0 -0.61600715715E+01 -0.20196089044E+02 -0.19091936853E+03  0.22922471959E+03  0.12509171954E+03 0.  0.
          5    1    3    3  502    0  0.15934426140E+02 -0.67182189707E+02 -0.14111410036E+03  0.15715601888E+03  0.41800000000E+01 0.  1.
         -5    1    3    3    0  502 -0.22094497711E+02  0.46986100663E+02 -0.49805268167E+02  0.72068700708E+02  0.41800000000E+01 0.  1.
        -11    1    1    2    0    0  0.14921667478E+01 -0.30408121132E+02 -0.54203443575E+02  0.62168269139E+02  0.00000000000E+00 0.  1.
         11    1    1    2    0    0  0.46679048237E+01  0.50604210176E+02 -0.13306686102E+02  0.52532307374E+02  0.00000000000E+00 0. -1.
</event>
<event>
 7    1  0.2749315E-009  0.7196585E+02  0.7561462E-02  0.1353533E+00
         -2   -1    0    0    0  501 -0.00000000000E+00  0.00000000000E+00  0.22643535245E+02  0.22643535245E+02  0.00000000000E+00 0.  1.
          2   -1    0    0  501    0  0.00000000000E+00 -0.00000000000E+00 -0.59644385764E+03  0.59644385764E+03  0.00000000000E+00 0. -1.
         25    2    1    2    0    0 -0.36651950100E+02 -0.22040756098E+01 -0.25580302720E+03  0.28710683523E+03  0.12508766012E+03 0.  0.
          5    1    3    3  502    0 -0.36540851066E+02  0.10245293882E+02 -0.80663134923E+01  0.39022271291E+02  0.41800000000E+01 0. -1.
         -5    1    3    3    0  502 -0.11109903415E+00 -0.12449369492E+02 -0.24773671371E+03  0.24808456394E+03  0.41800000000E+01 0. -1.
        -11    1    1    2    0    0 -0.25294974382E+02  0.14938972046E+02 -0.14089968356E+03  0.14392959891E+03  0.00000000000E+00 0.  1.
         11    1    1    2    0    0  0.61946924481E+02 -0.12734896436E+02 -0.17709761163E+03  0.18805095874E+03  0.00000000000E+00 0. -1.
</event>
<event>
 7    1  0.2749315E-009  0.8319789E+02  0.7561462E-02  0.1320214E+00
          1   -1    0    0  501    0  0.00000000000E+00  0.00000000000E+00  0.43178004123E+03  0.43178004123E+03  0.00000000000E+00 0. -1.
         -1   -1    0    0    0  501 -0.00000000000E+00 -0.00000000000E+00 -0.51490556178E+02  0.51490556178E+02  0.00000000000E+00 0.  1.
         25    2    1    2    0    0 -0.13430398186E+02 -0.72568444457E+02  0.32044878285E+03  0.35182464743E+03  0.12508639168E+03 0.  0.
          5    1    3    3  502    0 -0.28294040550E+02 -0.48049268279E+02  0.31785170873E+03  0.32273280908E+03  0.41800000000E+01 0.  1.
         -5    1    3    3    0  502  0.14863642364E+02 -0.24519176179E+02  0.25970741213E+01  0.29091838354E+02  0.41800000000E+01 0.  1.
        -11    1    1    2    0    0 -0.11834698914E+02  0.23496407589E+02 -0.20929668467E+02  0.33618332649E+02  0.00000000000E+00 0.  1.
         11    1    1    2    0    0  0.25265097100E+02  0.49072036868E+02  0.80770370662E+02  0.97827617321E+02  0.00000000000E+00 0. -1.
</event>
<event>
 7    1  0.2749315E-009  0.5870555E+03  0.7561462E-02  0.9932632E-01
          1   -1    0    0  501    0  0.00000000000E+00  0.00000000000E+00  0.27560243249E+03  0.27560243249E+03  0.00000000000E+00 0. -1.
         -1   -1    0    0    0  501 -0.00000000000E+00 -0.00000000000E+00 -0.12811520960E+04  0.12811520960E+04  0.00000000000E+00 0.  1.
         25    2    1    2    0    0  0.50732602503E+03  0.28726343077E+03 -0.54188308391E+03  0.80571954029E+03  0.12508687639E+03 0.  0.
          5    1    3    3  502    0  0.36134073386E+03  0.18930018953E+03 -0.29868392288E+03  0.50559988716E+03  0.41800000000E+01 0.  1.
         -5    1    3    3    0  502  0.14598529117E+03  0.97963241241E+02 -0.24319916103E+03  0.30011965313E+03  0.41800000000E+01 0.  1.
        -11    1    1    2    0    0 -0.39570297936E+03 -0.26567305801E+03 -0.36180162175E+03  0.59838401978E+03  0.00000000000E+00 0.  1.
         11    1    1    2    0    0 -0.11162304567E+03 -0.21590372759E+02 -0.10186495781E+03  0.15265096839E+03  0.00000000000E+00 0. -1.
</event>
<event>
 7    1  0.2749315E-009  0.9952445E+02  0.7561462E-02  0.1281299E+00
          1   -1    0    0  501    0  0.00000000000E+00  0.00000000000E+00  0.34990995376E+03  0.34990995376E+03  0.00000000000E+00 0. -1.
         -1   -1    0    0    0  501 -0.00000000000E+00 -0.00000000000E+00 -0.37999077477E+02  0.37999077477E+02  0.00000000000E+00 0.  1.
         25    2    1    2    0    0  0.38137339057E+02  0.86303729082E+01  0.17395672150E+03  0.21780278256E+03  0.12509265035E+03 0.  0.
          5    1    3    3  502    0 -0.42152158203E+02  0.22214112947E+02  0.81760383533E+02  0.94723302153E+02  0.41800000000E+01 0. -1.
         -5    1    3    3    0  502  0.80289497260E+02 -0.13583740039E+02  0.92196337965E+02  0.12307948041E+03  0.41800000000E+01 0. -1.
        -11    1    1    2    0    0  0.10925782445E+02  0.12201536555E+02 -0.53340324402E+01  0.17225043350E+02  0.00000000000E+00 0.  1.
         11    1    1    2    0    0 -0.49063121502E+02 -0.20831909463E+02  0.14328818723E+03  0.15288120533E+03  0.00000000000E+00 0. -1.
</event>
<event>
 7    1  0.2749315E-009  0.2366106E+03  0.7561462E-02  0.1122072E+00
         -1   -1    0    0    0  501 -0.00000000000E+00  0.00000000000E+00  0.14606629754E+03  0.14606629754E+03  0.00000000000E+00 0.  1.
          1   -1    0    0  501    0  0.00000000000E+00 -0.00000000000E+00 -0.40670795186E+03  0.40670795186E+03  0.00000000000E+00 0. -1.
         25    2    1    2    0    0  0.63782249708E+02 -0.20454186524E+03 -0.18291547592E+03  0.30823611567E+03  0.12508349875E+03 0.  0.
          5    1    3    3  502    0  0.83029812296E+02 -0.20570814325E+03 -0.18433325796E+03  0.28845452383E+03  0.41800000000E+01 0. -1.
         -5    1    3    3    0  502 -0.19247562588E+02  0.11662780024E+01  0.14177820384E+01  0.19781591844E+02  0.41800000000E+01 0. -1.
        -11    1    1    2    0    0 -0.49947751051E+02  0.33782786483E+02 -0.25140423214E+02  0.65330661844E+02  0.00000000000E+00 0.  1.
         11    1    1    2    0    0 -0.13834498657E+02  0.17075907876E+03 -0.52585755184E+02  0.17920747189E+03  0.00000000000E+00 0. -1.
</event>
<event>
 7    1  0.2749315E-009  0.1076233E+03  0.7561462E-02  0.1265036E+00
         -1   -1    0    0    0  501 -0.00000000000E+00  0.00000000000E+00  0.13309148436E+03  0.13309148436E+03  0.00000000000E+00 0.  1.
          1   -1    0    0  501    0  0.00000000000E+00 -0.00000000000E+00 -0.12132654063E+03  0.12132654063E+03  0.00000000000E+00 0. -1.
         25    2    1    2    0    0  0.15182029447E+02  0.32683822128E+02 -0.47844673815E+02  0.13869064995E+03  0.12508899761E+03 0.  0.
          5    1    3    3  502    0  0.42335466580E+02  0.66693823458E+02 -0.52164633624E+02  0.94757475795E+02  0.41800000000E+01 0. -1.
         -5    1    3    3    0  502 -0.27153437132E+02 -0.34010001330E+02  0.43199598086E+01  0.43933174155E+02  0.41800000000E+01 0. -1.
        -11    1    1    2    0    0 -0.35793946390E+02 -0.52688223288E+02  0.19928147359E+02  0.66741190644E+02  0.00000000000E+00 0. -1.
         11    1    1    2    0    0  0.20611916943E+02  0.20004401159E+02  0.39681470180E+02  0.48986184394E+02  0.00000000000E+00 0.  1.
</event>
<event>
 7    1  0.3325606E-009  0.1085239E+03  0.7561462E-02  0.1263328E+00
         -1   -1    0    0    0  501 -0.00000000000E+00  0.00000000000E+00  0.15927322249E+03  0.15927322249E+03  0.00000000000E+00 0.  1.
          1   -1    0    0  501    0  0.00000000000E+00 -0.00000000000E+00 -0.15280634734E+03  0.15280634734E+03  0.00000000000E+00 0. -1.
         25    2    1    2    0    0 -0.54307541848E+02 -0.92210654450E+02 -0.31091447556E+02  0.16753149766E+03  0.12509200894E+03 0.  0.
          5    1    3    3  502    0 -0.44156438205E+02 -0.58969781162E+02 -0.79062124951E+02  0.10814581881E+03  0.41800000000E+01 0. -1.
         -5    1    3    3    0  502 -0.10151103643E+02 -0.33240873288E+02  0.47970677394E+02  0.59385678844E+02  0.41800000000E+01 0. -1.
        -11    1    1    2    0    0  0.40446631124E+02  0.53040661169E+02  0.66282986629E+02  0.94035504055E+02  0.00000000000E+00 0.  1.
         11    1    1    2    0    0  0.13860910723E+02  0.39169993281E+02 -0.28724663930E+02  0.50512568115E+02  0.00000000000E+00 0. -1.
</event>
<event>
 7    1  0.2749315E-009  0.1713334E+03  0.7561462E-02  0.1176464E+00
          1   -1    0    0  501    0  0.00000000000E+00  0.00000000000E+00  0.52651832209E+03  0.52651832209E+03  0.00000000000E+00 0. -1.
         -1   -1    0    0    0  501 -0.00000000000E+00 -0.00000000000E+00 -0.66860109564E+02  0.66860109564E+02  0.00000000000E+00 0.  1.
         25    2    1    2    0    0  0.13781425644E+03  0.63695077041E+02  0.25913611659E+03  0.32534570455E+03  0.12509383848E+03 0.  0.
          5    1    3    3  502    0  0.42117611669E+02 -0.10806303506E+02  0.53105195522E+01  0.44003902396E+02  0.41800000000E+01 0. -1.
         -5    1    3    3    0  502  0.95696644771E+02  0.74501380547E+02  0.25382559704E+03  0.28134180215E+03  0.41800000000E+01 0. -1.
        -11    1    1    2    0    0 -0.23634439582E+02 -0.58775098836E+02  0.65193543882E+02  0.90902679506E+02  0.00000000000E+00 0.  1.
         11    1    1    2    0    0 -0.11417981686E+03 -0.49199782045E+01  0.13532855205E+03  0.17713004760E+03  0.00000000000E+00 0. -1.
</event>
<event>
 7    1  0.2749315E-009  0.1721320E+03  0.7561462E-02  0.1175643E+00
         -2   -1    0    0    0  501 -0.00000000000E+00  0.00000000000E+00  0.41184264604E+02  0.41184264604E+02  0.00000000000E+00 0.  1.
          2   -1    0    0  501    0  0.00000000000E+00 -0.00000000000E+00 -0.87343820572E+03  0.87343820572E+03  0.00000000000E+00 0. -1.
         25    2    1    2    0    0  0.14350775361E+03 -0.56071114135E+02 -0.48382451575E+03  0.52294525332E+03  0.12508849169E+03 0.  0.
          5    1    3    3  502    0  0.13358635837E+03 -0.21245155173E+02 -0.23271126358E+03  0.26920006753E+03  0.41800000000E+01 0.  1.
         -5    1    3    3    0  502  0.99213952346E+01 -0.34825958962E+02 -0.25111325216E+03  0.25374518579E+03  0.41800000000E+01 0.  1.
        -11    1    1    2    0    0 -0.12038711061E+03  0.98359030008E+01 -0.28705862319E+03  0.31143611630E+03  0.00000000000E+00 0. -1.
         11    1    1    2    0    0 -0.23120642996E+02  0.46235211134E+02 -0.61370802181E+02  0.80241100700E+02  0.00000000000E+00 0.  1.
</event>
<event>
 7    1  0.2749315E-009  0.1088103E+03  0.7561462E-02  0.1262789E+00
          2   -1    0    0  501    0  0.00000000000E+00  0.00000000000E+00  0.29745496400E+03  0.29745496400E+03  0.00000000000E+00 0. -1.
         -2   -1    0    0    0  501 -0.00000000000E+00 -0.00000000000E+00 -0.72217702875E+02  0.72217702875E+02  0.00000000000E+00 0.  1.
         25    2    1    2    0    0 -0.72364256764E+02  0.27529058926E+02  0.60888851759E+02  0.15921513899E+03  0.12509026130E+03 0.  0.
          5    1    3    3  502    0 -0.74459500959E+02  0.46866437412E+02 -0.71088866842E+01  0.88366786230E+02  0.41800000000E+01 0. -1.
         -5    1    3    3    0  502  0.20952441949E+01 -0.19337378486E+02  0.67997738443E+02  0.70848352757E+02  0.41800000000E+01 0. -1.
        -11    1    1    2    0    0  0.17394195206E+02 -0.47948124468E+02  0.20239302417E+02  0.54874493429E+02  0.00000000000E+00 0.  1.
         11    1    1    2    0    0  0.54970061559E+02  0.20419065542E+02  0.14410910695E+03  0.15558303446E+03  0.00000000000E+00 0. -1.
</event>
<event>
 7    1  0.2749315E-009  0.9689243E+02  0.7561462E-02  0.1286970E+00
          1   -1    0    0  501    0  0.00000000000E+00  0.00000000000E+00  0.12310046276E+03  0.12310046276E+03  0.00000000000E+00 0. -1.
         -1   -1    0    0    0  501 -0.00000000000E+00 -0.00000000000E+00 -0.11388175903E+03  0.11388175903E+03  0.00000000000E+00 0.  1.
         25    2    1    2    0    0  0.30594617492E+02 -0.35924983178E+02  0.12179090624E+02  0.13424815756E+03  0.12509037743E+03 0.  0.
          5    1    3    3  502    0  0.26527401533E+02  0.20877200721E+02 -0.43010375488E+02  0.54835438739E+02  0.41800000000E+01 0. -1.
         -5    1    3    3    0  502  0.40672159588E+01 -0.56802183900E+02  0.55189466112E+02  0.79412718825E+02  0.41800000000E+01 0. -1.
        -11    1    1    2    0    0 -0.15048572129E+02  0.66600217242E+02 -0.95277934294E+00  0.68285842225E+02  0.00000000000E+00 0.  1.
         11    1    1    2    0    0 -0.15546045362E+02 -0.30675234064E+02 -0.20076075502E+01  0.34448222006E+02  0.00000000000E+00 0. -1.
</event>
<event>
 7    1  0.2749315E-009  0.1122576E+03  0.7561462E-02  0.1256445E+00
         -1   -1    0    0    0  501 -0.00000000000E+00  0.00000000000E+00  0.13640462870E+03  0.13640462870E+03  0.00000000000E+00 0.  1.
          1   -1    0    0  501    0  0.00000000000E+00 -0.00000000000E+00 -0.12118384613E+03  0.12118384613E+03  0.00000000000E+00 0. -1.
         25    2    1    2    0    0  0.34596221104E+01  0.40075567705E+02  0.63380467607E+02  0.14588702305E+03  0.12509164524E+03 0.  0.
          5    1    3    3  502    0  0.46924134119E+02 -0.18823503524E+02  0.50241900433E+02  0.71399717134E+02  0.41800000000E+01 0. -1.
         -5    1    3    3    0  502 -0.43464512009E+02  0.58899071228E+02  0.13138567174E+02  0.74487305919E+02  0.41800000000E+01 0. -1.
        -11    1    1    2    0    0 -0.12616052287E+02  0.28559167402E+02 -0.10895098249E+02  0.33068020561E+02  0.00000000000E+00 0.  1.
         11    1    1    2    0    0  0.91564301762E+01 -0.68634735107E+02 -0.37264586790E+02  0.78633431219E+02  0.00000000000E+00 0. -1.
</event>
<event>
 7    1  0.2749315E-009  0.9540936E+02  0.7561462E-02  0.1290257E+00
         -1   -1    0    0    0  501 -0.00000000000E+00  0.00000000000E+00  0.41075166433E+02  0.41075166433E+02  0.00000000000E+00 0.  1.
          1   -1    0    0  501    0  0.00000000000E+00 -0.00000000000E+00 -0.46285636831E+03  0.46285636831E+03  0.00000000000E+00 0. -1.
         25    2    1    2    0    0 -0.13856234233E+02  0.48465887914E+02 -0.35292138905E+03  0.37781016959E+03  0.12508429109E+03 0.  0.
          5    1    3    3  502    0 -0.24516542994E+02  0.85685845321E+02 -0.18444076035E+03  0.20488775329E+03  0.41800000000E+01 0. -1.
         -5    1    3    3    0  502  0.10660308762E+02 -0.37219957407E+02 -0.16848062870E+03  0.17292241630E+03  0.41800000000E+01 0. -1.
        -11    1    1    2    0    0 -0.63498447301E+01 -0.40404202627E+02 -0.88066840211E+02  0.97100918959E+02  0.00000000000E+00 0. -1.
         11    1    1    2    0    0  0.20206078963E+02 -0.80616852871E+01  0.19207027381E+02  0.29020446198E+02  0.00000000000E+00 0.  1.
</event>
<event>
 7    1  0.2749315E-009  0.1927902E+03  0.7561462E-02  0.1155969E+00
          2   -1    0    0  501    0  0.00000000000E+00  0.00000000000E+00  0.72050487250E+03  0.72050487250E+03  0.00000000000E+00 0. -1.
         -2   -1    0    0    0  501 -0.00000000000E+00 -0.00000000000E+00 -0.61871472113E+02  0.61871472113E+02  0.00000000000E+00 0.  1.
         25    2    1    2    0    0 -0.17082252797E+03  0.50728729089E+02  0.38509189540E+03  0.44237383589E+03  0.12508038520E+03 0.  0.
          5    1    3    3  502    0 -0.17266675778E+03  0.40641644612E+02  0.39132091891E+03  0.42966857751E+03  0.41800000000E+01 0. -1.
         -5    1    3    3    0  502  0.18442298083E+01  0.10087084476E+02 -0.62290235090E+01  0.12705258388E+02  0.41800000000E+01 0. -1.
        -11    1    1    2    0    0  0.82397162623E+02 -0.68172490432E+02  0.11094012158E+03  0.15409247690E+03  0.00000000000E+00 0.  1.
         11    1    1    2    0    0  0.88425365347E+02  0.17443761343E+02  0.16260138340E+03  0.18591003182E+03  0.00000000000E+00 0. -1.
</event>
<event>
 7    1  0.2749315E-009  0.8618614E+02  0.7561462E-02  0.1312359E+00
         -3   -1    0    0    0  501 -0.00000000000E+00  0.00000000000E+00  0.12862492273E+03  0.12862492273E+03  0.00000000000E+00 0.  1.
          3   -1    0    0  501    0  0.00000000000E+00 -0.00000000000E+00 -0.11281077376E+03  0.11281077376E+03  0.00000000000E+00 0. -1.
         25    2    1    2    0    0  0.13993127140E+02 -0.60313347017E+01  0.57448253663E+02  0.13849107556E+03  0.12508913445E+03 0.  0.
          5    1    3    3  502    0 -0.44635069823E+02  0.25553170000E+01 -0.12609816277E+02  0.46640100446E+02  0.41800000000E+01 0. -1.
         -5    1    3    3    0  502  0.58628196963E+02 -0.85866517017E+01  0.70058069939E+02  0.91850975118E+02  0.41800000000E+01 0. -1.
        -11    1    1    2    0    0  0.25851853381E+02 -0.58184472418E+01  0.16694320871E+02  0.31318892076E+02  0.00000000000E+00 0.  1.
         11    1    1    2    0    0 -0.39844980521E+02  0.11849781943E+02 -0.58328425558E+02  0.71625728847E+02  0.00000000000E+00 0. -1.
</event>
<event>
 7    1  0.2749315E-009  0.7934398E+02  0.7561462E-02  0.1330924E+00
         -2   -1    0    0    0  501 -0.00000000000E+00  0.00000000000E+00  0.37676336651E+02  0.37676336651E+02  0.00000000000E+00 0.  1.
          2   -1    0    0  501    0  0.00000000000E+00 -0.00000000000E+00 -0.32068433759E+03  0.32068433759E+03  0.00000000000E+00 0. -1.
         25    2    1    2    0    0 -0.92078679830E+01  0.98119615987E+01 -0.16332538985E+03  0.20616662774E+03  0.12509370888E+03 0.  0.
          5    1    3    3  502    0 -0.14203946285E+02  0.45550792002E+02 -0.16294324465E+03  0.16983698101E+03  0.41800000000E+01 0. -1.
         -5    1    3    3    0  502  0.49960783019E+01 -0.35738830403E+02 -0.38214520368E+00  0.36329646735E+02  0.41800000000E+01 0. -1.
        -11    1    1    2    0    0 -0.30479714645E+02 -0.15792233629E+02 -0.10328101121E+03  0.10883645954E+03  0.00000000000E+00 0. -1.
         11    1    1    2    0    0  0.39687582628E+02  0.59802720305E+01 -0.16401599876E+02  0.43357586959E+02  0.00000000000E+00 0.  1.
</event>
<event>
 7    1  0.2749315E-009  0.1014639E+03  0.7561462E-02  0.1277247E+00
         -3   -1    0    0    0  501 -0.00000000000E+00  0.00000000000E+00  0.20589916583E+02  0.20589916583E+02  0.00000000000E+00 0.  1.
          3   -1    0    0  501    0  0.00000000000E+00 -0.00000000000E+00 -0.62202112577E+03  0.62202112577E+03  0.00000000000E+00 0. -1.
         25    2    1    2    0    0 -0.26356966958E+02  0.10897683504E+02 -0.36455006047E+03  0.38646964718E+03  0.12509433396E+03 0.  0.
          5    1    3    3  502    0  0.47842113767E+02  0.22489181344E+02 -0.15658799722E+03  0.16532363534E+03  0.41800000000E+01 0. -1.
         -5    1    3    3    0  502 -0.74199080725E+02 -0.11591497840E+02 -0.20796206325E+03  0.22114601184E+03  0.41800000000E+01 0. -1.
        -11    1    1    2    0    0 -0.23170111906E+02 -0.97636963628E+01 -0.16067389088E+02  0.29838646828E+02  0.00000000000E+00 0.  1.
         11    1    1    2    0    0  0.49527078864E+02 -0.11339871407E+01 -0.22081375963E+03  0.22630274835E+03  0.00000000000E+00 0. -1.
</event>
<event>
 7    1  0.2749315E-009  0.1262365E+03  0.7561462E-02  0.1233149E+00
          1   -1    0    0  501    0  0.00000000000E+00  0.00000000000E+00  0.88951966539E+02  0.88951966539E+02  0.00000000000E+00 0. -1.
         -1   -1    0    0    0  501 -0.00000000000E+00 -0.00000000000E+00 -0.25063018930E+03  0.25063018930E+03  0.00000000000E+00 0.  1.
         25    2    1    2    0    0 -0.25758843441E+02 -0.84534937473E+02 -0.14701507761E+03  0.21230354352E+03  0.12509871254E+03 0.  0.
          5    1    3    3  502    0 -0.68573843378E+02 -0.22136930885E+02 -0.44429047701E+02  0.84757468015E+02  0.41800000000E+01 0. -1.
         -5    1    3    3    0  502  0.42814999937E+02 -0.62398006588E+02 -0.10258602991E+03  0.12754607551E+03  0.41800000000E+01 0. -1.
        -11    1    1    2    0    0  0.36239078063E+02  0.24934299695E+02 -0.42050929427E+02  0.60854504729E+02  0.00000000000E+00 0.  1.
         11    1    1    2    0    0 -0.10480234622E+02  0.59600637779E+02  0.27387784274E+02  0.66424107587E+02  0.00000000000E+00 0. -1.
</event>
<event>
 7    1  0.2749315E-009  0.1129339E+03  0.7561462E-02  0.1255231E+00
          1   -1    0    0  501    0  0.00000000000E+00  0.00000000000E+00  0.96763176965E+02  0.96763176965E+02  0.00000000000E+00 0. -1.
         -1   -1    0    0    0  501 -0.00000000000E+00 -0.00000000000E+00 -0.16887720085E+03  0.16887720085E+03  0.00000000000E+00 0.  1.
         25    2    1    2    0    0  0.60857337980E+02  0.10434303206E+02 -0.91103348008E+01  0.13979432349E+03  0.12508782679E+03 0.  0.
          5    1    3    3  502    0 -0.10212881198E+02 -0.33038344121E+02  0.31548915395E+02  0.46996186944E+02  0.41800000000E+01 0. -1.
         -5    1    3    3    0  502  0.71070219179E+02  0.43472647327E+02 -0.40659250196E+02  0.92798136545E+02  0.41800000000E+01 0. -1.
        -11    1    1    2    0    0 -0.50419593533E+02  0.34756340094E+02 -0.26070035006E+02  0.66556632381E+02  0.00000000000E+00 0. -1.
         11    1    1    2    0    0 -0.10437744448E+02 -0.45190643300E+02 -0.36933654080E+02  0.59289421946E+02  0.00000000000E+00 0.  1.
</event>
<event>
 7    1  0.2749315E-009  0.9332306E+02  0.7561462E-02  0.1294998E+00
         -2   -1    0    0    0  501 -0.00000000000E+00  0.00000000000E+00  0.91986114199E+02  0.91986114199E+02  0.00000000000E+00 0.  1.
          2   -1    0    0  501    0  0.00000000000E+00 -0.00000000000E+00 -0.14552672067E+03  0.14552672067E+03  0.00000000000E+00 0. -1.
         25    2    1    2    0    0  0.57007382028E+01 -0.14548273224E+02  0.10881595540E+02  0.12653030353E+03  0.12508939971E+03 0.  0.
          5    1    3    3  502    0  0.15092246240E+02  0.38946040823E+02 -0.35508317206E+02  0.54980751024E+02  0.41800000000E+01 0.  1.
         -5    1    3    3    0  502 -0.93915080374E+01 -0.53494314047E+02  0.46389912746E+02  0.71549552501E+02  0.41800000000E+01 0.  1.
        -11    1    1    2    0    0  0.40725245540E+02  0.15980237566E+02 -0.27804909416E+02  0.51836537351E+02  0.00000000000E+00 0. -1.
         11    1    1    2    0    0 -0.46425983742E+02 -0.14319643422E+01 -0.36617292590E+02  0.59145993989E+02  0.00000000000E+00 0.  1.
</event>
<event>
 7    1  0.2749315E-009  0.1295658E+03  0.7561462E-02  0.1228101E+00
         -3   -1    0    0    0  501 -0.00000000000E+00  0.00000000000E+00  0.80844894288E+02  0.80844894288E+02  0.00000000000E+00 0.  1.
          3   -1    0    0  501    0  0.00000000000E+00 -0.00000000000E+00 -0.23764027511E+03  0.23764027511E+03  0.00000000000E+00 0. -1.
         25    2    1    2    0    0 -0.35342707027E+02 -0.66096605284E+02 -0.13947064251E+03  0.20178119758E+03  0.12508286616E+03 0.  0.
          5    1    3    3  502    0  0.32889141737E+02  0.16664183507E+02 -0.24362950210E+02  0.44389372592E+02  0.41800000000E+01 0.  1.
         -5    1    3    3    0  502 -0.68231848765E+02 -0.82760788792E+02 -0.11510769230E+03  0.15739182499E+03  0.41800000000E+01 0.  1.
        -11    1    1    2    0    0 -0.15538875617E+01  0.76367666127E+02 -0.17679510959E+02  0.78402806735E+02  0.00000000000E+00 0. -1.
         11    1    1    2    0    0  0.36896594589E+02 -0.10271060842E+02  0.35477264418E+00  0.38301165083E+02  0.00000000000E+00 0.  1.
</event>
<event>
 7    1  0.2749315E-009  0.1036756E+03  0.7561462E-02  0.1272751E+00
          1   -1    0    0  501    0  0.00000000000E+00  0.00000000000E+00  0.14527936389E+03  0.14527936389E+03  0.00000000000E+00 0. -1.
         -1   -1    0    0    0  501 -0.00000000000E+00 -0.00000000000E+00 -0.15088464597E+03  0.15088464597E+03  0.00000000000E+00 0.  1.
         25    2    1    2    0    0  0.24092553758E+02  0.73308260735E+02 -0.46938658245E+02  0.15429228845E+03  0.12509324682E+03 0.  0.
          5    1    3    3  502    0 -0.36825346591E+02  0.55198797327E+02 -0.59676798370E+02  0.89340953888E+02  0.41800000000E+01 0. -1.
         -5    1    3    3    0  502  0.60917900349E+02  0.18109463409E+02  0.12738140125E+02  0.64951334564E+02  0.41800000000E+01 0. -1.
        -11    1    1    2    0    0 -0.11483951367E+02 -0.36799119739E+02 -0.37690639248E+02  0.53913269605E+02  0.00000000000E+00 0.  1.
         11    1    1    2    0    0 -0.12608602391E+02 -0.36509140996E+02  0.79024015413E+02  0.87958451797E+02  0.00000000000E+00 0. -1.
</event>
<event>
 7    1  0.2749315E-009  0.1245272E+03  0.7561462E-02  0.1235810E+00
         -2   -1    0    0    0  501 -0.00000000000E+00  0.00000000000E+00  0.22423613351E+02  0.22423613351E+02  0.00000000000E+00 0.  1.
          2   -1    0    0  501    0  0.00000000000E+00 -0.00000000000E+00 -0.74669893620E+03  0.74669893620E+03  0.00000000000E+00 0. -1.
         25    2    1    2    0    0  0.37958004782E+02 -0.58451336893E+02 -0.43462961824E+03  0.45761051967E+03  0.12508842372E+03 0.  0.
          5    1    3    3  502    0 -0.26683875038E+02 -0.64741983651E+02 -0.29976573398E+03  0.30786445281E+03  0.41800000000E+01 0. -1.
         -5    1    3    3    0  502  0.64641879819E+02  0.62906467576E+01 -0.13486388427E+03  0.14974606687E+03  0.41800000000E+01 0. -1.
        -11    1    1    2    0    0 -0.58640979923E+02  0.78582556926E+01 -0.16916239182E+03  0.17921057869E+03  0.00000000000E+00 0. -1.
         11    1    1    2    0    0  0.20682975141E+02  0.50593081201E+02 -0.12048331278E+03  0.13230145118E+03  0.00000000000E+00 0.  1.
</event>
<event>
 7    1  0.2749315E-009  0.1166559E+03  0.7561462E-02  0.1248718E+00
          1   -1    0    0  501    0  0.00000000000E+00  0.00000000000E+00  0.11565808326E+04  0.11565808326E+04  0.00000000000E+00 0. -1.
         -1   -1    0    0    0  501 -0.00000000000E+00 -0.00000000000E+00 -0.20182192222E+02  0.20182192222E+02  0.00000000000E+00 0.  1.
         25    2    1    2    0    0 -0.78583331652E+02  0.19104765666E+02  0.88205367448E+03  0.89454271932E+03  0.12509060693E+03 0.  0.
          5    1    3    3  502    0 -0.11214486775E+03  0.14332970205E+02  0.72881168904E+03  0.73754040966E+03  0.41800000000E+01 0. -1.
         -5    1    3    3    0  502  0.33561536103E+02  0.47717954615E+01  0.15324198544E+03  0.15700230966E+03  0.41800000000E+01 0. -1.
        -11    1    1    2    0    0  0.45406972693E+02 -0.25729971888E+02  0.23976752754E+03  0.24538193064E+03  0.00000000000E+00 0. -1.
         11    1    1    2    0    0  0.33176358959E+02  0.66252062213E+01  0.14577438314E+02  0.36838374816E+02  0.00000000000E+00 0.  1.
</event>
<event>
 7    1  0.2749315E-009  0.1511968E+03  0.7561462E-02  0.1199010E+00
         -2   -1    0    0    0  501 -0.00000000000E+00  0.00000000000E+00  0.72919442648E+02  0.72919442648E+02  0.00000000000E+00 0.  1.
          2   -1    0    0  501    0  0.00000000000E+00 -0.00000000000E+00 -0.42524971547E+03  0.42524971547E+03  0.00000000000E+00 0. -1.
         25    2    1    2    0    0  0.10259317077E+03 -0.87549115813E+02 -0.14766086536E+03  0.23588054876E+03  0.12508275564E+03 0.  0.
          5    1    3    3  502    0  0.14361874557E+02 -0.36300275395E+02 -0.12534478165E+03  0.13134976255E+03  0.41800000000E+01 0.  1.
         -5    1    3    3    0  502  0.88231296212E+02 -0.51248840419E+02 -0.22316083710E+02  0.10453078622E+03  0.41800000000E+01 0.  1.
        -11    1    1    2    0    0 -0.37731455292E+02 -0.14226700779E+02 -0.31289840831E+02  0.51040335742E+02  0.00000000000E+00 0.  1.
         11    1    1    2    0    0 -0.64861715477E+02  0.10177581659E+03 -0.17337956663E+03  0.21124827361E+03  0.00000000000E+00 0. -1.
</event>
<event>
 7    1  0.2749315E-009  0.2846049E+03  0.7561462E-02  0.1093200E+00
          2   -1    0    0  501    0  0.00000000000E+00  0.00000000000E+00  0.17538379581E+04  0.17538379581E+04  0.00000000000E+00 0. -1.
         -2   -1    0    0    0  501 -0.00000000000E+00 -0.00000000000E+00 -0.51719770881E+02  0.51719770881E+02  0.00000000000E+00 0.  1.
         25    2    1    2    0    0 -0.21732545514E+03  0.17157824267E+03  0.99868906543E+03  0.10438857974E+04  0.12509301285E+03 0.  0.
          5    1    3    3  502    0 -0.18932771386E+03  0.14553303461E+03  0.63951706767E+03  0.68265979788E+03  0.41800000000E+01 0.  1.
         -5    1    3    3    0  502 -0.27997741279E+02  0.26045208062E+02  0.35917199776E+03  0.36122599955E+03  0.41800000000E+01 0.  1.
        -11    1    1    2    0    0  0.14865974904E+03 -0.58791888419E+02  0.37087502982E+03  0.40386197503E+03  0.00000000000E+00 0.  1.
         11    1    1    2    0    0  0.68665706092E+02 -0.11278635425E+03  0.33255409196E+03  0.35780995651E+03  0.00000000000E+00 0. -1.
</event>
<event>
 7    1  0.2749315E-009  0.9704106E+02  0.7561462E-02  0.1286644E+00
          2   -1    0    0  501    0  0.00000000000E+00  0.00000000000E+00  0.24042025576E+03  0.24042025576E+03  0.00000000000E+00 0. -1.
         -2   -1    0    0    0  501 -0.00000000000E+00 -0.00000000000E+00 -0.59076241797E+02  0.59076241797E+02  0.00000000000E+00 0.  1.
         25    2    1    2    0    0  0.18470649623E+02 -0.38372587732E+02  0.97883502748E+02  0.16444126629E+03  0.12508448969E+03 0.  0.
          5    1    3    3  502    0 -0.19906630023E+02  0.32275637668E+02  0.58626705506E+00  0.38155036559E+02  0.41800000000E+01 0.  1.
         -5    1    3    3    0  502  0.38377279645E+02 -0.70648225400E+02  0.97297235692E+02  0.12628622973E+03  0.41800000000E+01 0.  1.
        -11    1    1    2    0    0 -0.16900952032E+02 -0.14657046956E+02 -0.12337613543E+02  0.25547757494E+02  0.00000000000E+00 0.  1.
         11    1    1    2    0    0 -0.15696975910E+01  0.53029634688E+02  0.95798124756E+02  0.10950747377E+03  0.00000000000E+00 0. -1.
</event>
<event>
 7    1  0.3309949E-009  0.1493864E+03  0.7561462E-02  0.1201229E+00
         -1   -1    0    0    0  501 -0.00000000000E+00  0.00000000000E+00  0.92915165228E+02  0.92915165228E+02  0.00000000000E+00 0.  1.
          1   -1    0    0  501    0  0.00000000000E+00 -0.00000000000E+00 -0.39606133259E+03  0.39606133259E+03  0.00000000000E+00 0. -1.
         25    2    1    2    0    0  0.84845503623E+02 -0.90197371294E+02 -0.34639773297E+02  0.17938558781E+03  0.12507977434E+03 0.  0.
          5    1    3    3  502    0 -0.11906349275E+02  0.22700645461E+02  0.24530130578E+01  0.26087739083E+02  0.41800000000E+01 0. -1.
         -5    1    3    3    0  502  0.96751852898E+02 -0.11289801675E+03 -0.37092786354E+02  0.15329784873E+03  0.41800000000E+01 0. -1.
        -11    1    1    2    0    0 -0.32422962359E+02  0.39850934923E+02 -0.21026862808E+03  0.21645378596E+03  0.00000000000E+00 0. -1.
         11    1    1    2    0    0 -0.52422541264E+02  0.50346436371E+02 -0.58237765986E+02  0.93137124042E+02  0.00000000000E+00 0.  1.
</event>
<event>
 7    1  0.2749315E-009  0.1117673E+03  0.7561462E-02  0.1257332E+00
          1   -1    0    0  501    0  0.00000000000E+00  0.00000000000E+00  0.10998574451E+04  0.10998574451E+04  0.00000000000E+00 0. -1.
         -1   -1    0    0    0  501 -0.00000000000E+00 -0.00000000000E+00 -0.19305875539E+02  0.19305875539E+02  0.00000000000E+00 0.  1.
         25    2    1    2    0    0  0.34298784081E+02 -0.38627543483E+02  0.89432001959E+03  0.90450212677E+03  0.12508919292E+03 0.  0.
          5    1    3    3  502    0 -0.30510004060E+01  0.44100318179E+02  0.28022673036E+03  0.28372282156E+03  0.41800000000E+01 0.  1.
         -5    1    3    3    0  502  0.37349784487E+02 -0.82727861663E+02  0.61409328923E+03  0.62077930521E+03  0.41800000000E+01 0.  1.
        -11    1    1    2    0    0  0.21874404323E+02  0.18330746959E+02  0.12885001174E+02  0.31313401346E+02  0.00000000000E+00 0.  1.
         11    1    1    2    0    0 -0.56173188405E+02  0.20296796524E+02  0.17334654884E+03  0.18334779257E+03  0.00000000000E+00 0. -1.
</event>
<event>
 7    1  0.2749315E-009  0.8523552E+02  0.7561462E-02  0.1314818E+00
          1   -1    0    0  501    0  0.00000000000E+00  0.00000000000E+00  0.41659327562E+03  0.41659327562E+03  0.00000000000E+00 0. -1.
         -1   -1    0    0    0  501 -0.00000000000E+00 -0.00000000000E+00 -0.41148973760E+02  0.41148973760E+02  0.00000000000E+00 0.  1.
         25    2    1    2    0    0  0.49354108982E+02  0.45552913661E+02  0.25504821748E+03  0.29190109747E+03  0.12508301823E+03 0.  0.
          5    1    3    3  502    0 -0.11194219648E+02  0.50205748732E+01  0.20016731030E+03  0.20058649316E+03  0.41800000000E+01 0. -1.
         -5    1    3    3    0  502  0.60548328630E+02  0.40532338788E+02  0.54880907178E+02  0.91314604310E+02  0.41800000000E+01 0. -1.
        -11    1    1    2    0    0 -0.24966395896E+02 -0.53367222101E+02  0.12647077943E+03  0.13952146562E+03  0.00000000000E+00 0. -1.
         11    1    1    2    0    0 -0.24387713086E+02  0.78143084399E+01 -0.60746950571E+01  0.26319686282E+02  0.00000000000E+00 0.  1.
</event>
<event>
 7    1  0.2749315E-009  0.2264894E+03  0.7561462E-02  0.1129135E+00
          1   -1    0    0  501    0  0.00000000000E+00  0.00000000000E+00  0.22729082803E+03  0.22729082803E+03  0.00000000000E+00 0. -1.
         -1   -1    0    0    0  501 -0.00000000000E+00 -0.00000000000E+00 -0.44620287445E+03  0.44620287445E+03  0.00000000000E+00 0.  1.
         25    2    1    2    0    0  0.14606762076E+03  0.15186493605E+03 -0.33616427280E+03  0.41599678341E+03  0.12509275306E+03 0.  0.
          5    1    3    3  502    0  0.11229217153E+03  0.35914089906E+02 -0.21277258601E+03  0.24328789406E+03  0.41800000000E+01 0. -1.
         -5    1    3    3    0  502  0.33775449236E+02  0.11595084614E+03 -0.12339168680E+03  0.17270888936E+03  0.41800000000E+01 0. -1.
        -11    1    1    2    0    0 -0.73242384140E+02 -0.10331178193E+03  0.11322847360E+03  0.16987777475E+03  0.00000000000E+00 0.  1.
         11    1    1    2    0    0 -0.72825236625E+02 -0.48553154119E+02  0.40237527797E+01  0.87619144317E+02  0.00000000000E+00 0. -1.
</event>
<event>
 7    1  0.2749315E-009  0.1272149E+03  0.7561462E-02  0.1231648E+00
          1   -1    0    0  501    0  0.00000000000E+00  0.00000000000E+00  0.43301608900E+03  0.43301608900E+03  0.00000000000E+00 0. -1.
         -1   -1    0    0    0  501 -0.00000000000E+00 -0.00000000000E+00 -0.59866491635E+02  0.59866491635E+02  0.00000000000E+00 0.  1.
         25    2    1    2    0    0 -0.38876366488E+02  0.10151625150E+03  0.27302241215E+03  0.31938175417E+03  0.12508615499E+03 0.  0.
          5    1    3    3  502    0  0.52765141719E-01  0.51298766387E+02  0.24405952258E+03  0.24942752290E+03  0.41800000000E+01 0.  1.
         -5    1    3    3    0  502 -0.38929131630E+02  0.50217485110E+02  0.28962889568E+02  0.69954231268E+02  0.41800000000E+01 0.  1.
        -11    1    1    2    0    0  0.42744073085E+02 -0.53928500104E+01  0.46383338089E+02  0.63305234124E+02  0.00000000000E+00 0. -1.
         11    1    1    2    0    0 -0.38677065974E+01 -0.96123401486E+02  0.53743847120E+02  0.11019559234E+03  0.00000000000E+00 0.  1.
</event>
<event>
 7    1  0.2749315E-009  0.3354398E+03  0.7561462E-02  0.1068755E+00
         -1   -1    0    0    0  501 -0.00000000000E+00  0.00000000000E+00  0.15981113976E+03  0.15981113976E+03  0.00000000000E+00 0.  1.
          1   -1    0    0  501    0  0.00000000000E+00 -0.00000000000E+00 -0.10254957354E+04  0.10254957354E+04  0.00000000000E+00 0. -1.
         25    2    1    2    0    0 -0.53644572648E+02  0.32994806482E+03 -0.14371755326E+03  0.38476638525E+03  0.12508785093E+03 0.  0.
          5    1    3    3  502    0 -0.48899675140E+02  0.19258155730E+03 -0.14703290953E+03  0.24721444805E+03  0.41800000000E+01 0.  1.
         -5    1    3    3    0  502 -0.47448975076E+01  0.13736650752E+03  0.33153562618E+01  0.13755193720E+03  0.41800000000E+01 0.  1.
        -11    1    1    2    0    0  0.51905041128E+02 -0.28754471253E+03 -0.68320140709E+03  0.74306140907E+03  0.00000000000E+00 0. -1.
         11    1    1    2    0    0  0.17395315205E+01 -0.42403352296E+02 -0.38765635294E+02  0.57479080852E+02  0.00000000000E+00 0.  1.
</event>
<event>
 7    1  0.2749315E-009  0.1054208E+03  0.7561462E-02  0.1269293E+00
          2   -1    0    0  501    0  0.00000000000E+00  0.00000000000E+00  0.66374742808E+02  0.66374742808E+02  0.00000000000E+00 0. -1.
         -2   -1    0    0    0  501 -0.00000000000E+00 -0.00000000000E+00 -0.19535792814E+03  0.19535792814E+03  0.00000000000E+00 0.  1.
         25    2    1    2    0    0  0.31834407347E+02 -0.40555967956E+01 -0.78230731464E+02  0.15098621315E+03  0.12508761673E+03 0.  0.
          5    1    3    3  502    0  0.62090200949E+02 -0.45803423748E+02 -0.50301215546E+02  0.92199953180E+02  0.41800000000E+01 0. -1.
         -5    1    3    3    0  502 -0.30255793603E+02  0.41747826953E+02 -0.27929515917E+02  0.58786259969E+02  0.41800000000E+01 0. -1.
        -11    1    1    2    0    0 -0.49344248086E+02  0.24362248906E+02 -0.60897108994E+02  0.82078205846E+02  0.00000000000E+00 0.  1.
         11    1    1    2    0    0  0.17509840740E+02 -0.20306652110E+02  0.10144655122E+02  0.28668251956E+02  0.00000000000E+00 0. -1.
</event>
<event>
 7    1  0.2749315E-009  0.9081448E+02  0.7561462E-02  0.1300891E+00
          1   -1    0    0  501    0  0.00000000000E+00  0.00000000000E+00  0.48483239937E+03  0.48483239937E+03  0.00000000000E+00 0. -1.
         -1   -1    0    0    0  501 -0.00000000000E+00 -0.00000000000E+00 -0.33138045237E+02  0.33138045237E+02  0.00000000000E+00 0.  1.
         25    2    1    2    0    0 -0.49999557037E+02 -0.42266350249E+02  0.27522459729E+03  0.30932927667E+03  0.12509845077E+03 0.  0.
          5    1    3    3  502    0 -0.67619033333E+02 -0.36832342185E+02  0.72880059929E+02  0.10610339596E+03  0.41800000000E+01 0.  1.
         -5    1    3    3    0  502  0.17619476295E+02 -0.54340080632E+01  0.20234453737E+03  0.20322588071E+03  0.41800000000E+01 0.  1.
        -11    1    1    2    0    0  0.18056019520E+02  0.49643622999E+02  0.34871499061E+02  0.63297161012E+02  0.00000000000E+00 0.  1.
         11    1    1    2    0    0  0.31943537518E+02 -0.73772727501E+01  0.14159825778E+03  0.14534400692E+03  0.00000000000E+00 0. -1.
</event>
<event>
 7    1  0.2749315E-009  0.1129063E+03  0.7561462E-02  0.1255281E+00
          1   -1    0    0  501    0  0.00000000000E+00  0.00000000000E+00  0.63360285233E+02  0.63360285233E+02  0.00000000000E+00 0. -1.
         -1   -1    0    0    0  501 -0.00000000000E+00 -0.00000000000E+00 -0.21418689697E+03  0.21418689697E+03  0.00000000000E+00 0.  1.
         25    2    1    2    0    0 -0.13951090105E+02  0.38425637273E+02 -0.78154984724E+02  0.15305431742E+03  0.12508501081E+03 0.  0.
          5    1    3    3  502    0  0.54866904355E+02  0.18431919814E+02 -0.22574747551E+02  0.62267202350E+02  0.41800000000E+01 0. -1.
         -5    1    3    3    0  502 -0.68817994459E+02  0.19993717459E+02 -0.55580237173E+02  0.90787115074E+02  0.41800000000E+01 0. -1.
        -11    1    1    2    0    0 -0.25820968902E+02  0.14638469616E+02 -0.56616200688E+01  0.30216902051E+02  0.00000000000E+00 0. -1.
         11    1    1    2    0    0  0.39772059007E+02 -0.53064106889E+02 -0.67010006946E+02  0.94275962729E+02  0.00000000000E+00 0.  1.
</event>
<event>
 7    1  0.2749315E-009  0.1609931E+03  0.7561462E-02  0.1187580E+00
          1   -1    0    0  501    0  0.00000000000E+00  0.00000000000E+00  0.11909387294E+04  0.11909387294E+04  0.00000000000E+00 0. -1.
         -1   -1    0    0    0  501 -0.00000000000E+00 -0.00000000000E+00 -0.25905441094E+02  0.25905441094E+02  0.00000000000E+00 0.  1.
         25    2    1    2    0    0 -0.10977912430E+03 -0.73189101821E+02  0.69919507279E+03  0.72244743125E+03  0.12509372624E+03 0.  0.
          5    1    3    3  502    0 -0.12950668494E+03 -0.83943669735E+02  0.65172643810E+03  0.66976364760E+03  0.41800000000E+01 0. -1.
         -5    1    3    3    0  502  0.19727560638E+02  0.10754567915E+02  0.47468634690E+02  0.52683783644E+02  0.41800000000E+01 0. -1.
        -11    1    1    2    0    0  0.36645454083E+02  0.60182974488E+02  0.10816219615E+03  0.12908888565E+03  0.00000000000E+00 0.  1.
         11    1    1    2    0    0  0.73133670215E+02  0.13006127333E+02  0.35767601939E+03  0.36530785361E+03  0.00000000000E+00 0. -1.
</event>
<event>
 7    1  0.2749315E-009  0.1071038E+03  0.7561462E-02  0.1266029E+00
          2   -1    0    0  501    0  0.00000000000E+00  0.00000000000E+00  0.32535250951E+03  0.32535250951E+03  0.00000000000E+00 0. -1.
         -2   -1    0    0    0  501 -0.00000000000E+00 -0.00000000000E+00 -0.54822238846E+02  0.54822238846E+02  0.00000000000E+00 0.  1.
         25    2    1    2    0    0 -0.22344273001E+02  0.71567834342E+02  0.11785439282E+03  0.18750632521E+03  0.12509093747E+03 0.  0.
          5    1    3    3  502    0 -0.42969001547E+02  0.40614004147E+02  0.13416659128E+03  0.14667644338E+03  0.41800000000E+01 0. -1.
         -5    1    3    3    0  502  0.20624728547E+02  0.30953830195E+02 -0.16312198463E+02  0.40829881828E+02  0.41800000000E+01 0. -1.
        -11    1    1    2    0    0  0.55968190983E+02 -0.59739013896E+02  0.10783211931E+03  0.13538446786E+03  0.00000000000E+00 0.  1.
         11    1    1    2    0    0 -0.33623917982E+02 -0.11828820445E+02  0.44843758538E+02  0.57283955288E+02  0.00000000000E+00 0. -1.
</event>
<event>
 7    1  0.2749315E-009  0.1293582E+03  0.7561462E-02  0.1228411E+00
         -1   -1    0    0    0  501 -0.00000000000E+00  0.00000000000E+00  0.32027834784E+03  0.32027834784E+03  0.00000000000E+00 0.  1.
          1   -1    0    0  501    0  0.00000000000E+00 -0.00000000000E+00 -0.64511401786E+02  0.64511401786E+02  0.00000000000E+00 0. -1.
         25    2    1    2    0    0  0.61693319551E+02  0.58588057490E+02  0.19249016937E+03  0.24482350842E+03  0.12508980300E+03 0.  0.
          5    1    3    3  502    0  0.21714106528E+01 -0.36636391593E+02  0.65940857006E+02  0.75581804926E+02  0.41800000000E+01 0.  1.
         -5    1    3    3    0  502  0.59521908898E+02  0.95224449084E+02  0.12654931236E+03  0.16924170350E+03  0.41800000000E+01 0.  1.
        -11    1    1    2    0    0 -0.76804608420E+02 -0.52890190948E+02  0.75277438818E+02  0.11984578828E+03  0.00000000000E+00 0.  1.
         11    1    1    2    0    0  0.15111288869E+02 -0.56978665426E+01 -0.12000662133E+02  0.20120452929E+02  0.00000000000E+00 0. -1.
</event>
<event>
 7    1  0.2749315E-009  0.1370768E+03  0.7561462E-02  0.1217317E+00
         -2   -1    0    0    0  501 -0.00000000000E+00  0.00000000000E+00  0.44177135974E+02  0.44177135974E+02  0.00000000000E+00 0.  1.
          2   -1    0    0  501    0  0.00000000000E+00 -0.00000000000E+00 -0.69178494663E+03  0.69178494663E+03  0.00000000000E+00 0. -1.
         25    2    1    2    0    0  0.10426800774E+03 -0.85382753636E+02 -0.38815061346E+03  0.42950497068E+03  0.12510631101E+03 0.  0.
          5    1    3    3  502    0  0.17082297017E+02 -0.20950431586E+02 -0.92574128509E+00  0.27368866471E+02  0.41800000000E+01 0.  1.
         -5    1    3    3    0  502  0.87185710723E+02 -0.64432322050E+02 -0.38722487218E+03  0.40213610421E+03  0.41800000000E+01 0.  1.
        -11    1    1    2    0    0 -0.89088907021E+02  0.55972421726E+02 -0.10555169339E+03  0.14903323564E+03  0.00000000000E+00 0.  1.
         11    1    1    2    0    0 -0.15179100719E+02  0.29410331910E+02 -0.15390550380E+03  0.15742387628E+03  0.00000000000E+00 0. -1.
</event>
<event>
 7    1  0.2749315E-009  0.4204615E+03  0.7561462E-02  0.1036916E+00
          1   -1    0    0  501    0  0.00000000000E+00  0.00000000000E+00  0.54448658730E+03  0.54448658730E+03  0.00000000000E+00 0. -1.
         -1   -1    0    0    0  501 -0.00000000000E+00 -0.00000000000E+00 -0.42917514878E+03  0.42917514878E+03  0.00000000000E+00 0.  1.
         25    2    1    2    0    0 -0.41305939169E+03 -0.77904527618E+02 -0.15576607055E+03  0.46539706545E+03  0.12507670968E+03 0.  0.
          5    1    3    3  502    0 -0.12904733536E+03 -0.25916489613E+02 -0.11292044417E+03  0.17347443128E+03  0.41800000000E+01 0.  1.
         -5    1    3    3    0  502 -0.28401205633E+03 -0.51988038004E+02 -0.42845626379E+02  0.29192263417E+03  0.41800000000E+01 0.  1.
        -11    1    1    2    0    0  0.21006913933E+03  0.34309172649E+02  0.84110363761E+02  0.22886833752E+03  0.00000000000E+00 0.  1.
         11    1    1    2    0    0  0.20299025236E+03  0.43595354969E+02  0.18696714530E+03  0.27939633311E+03  0.00000000000E+00 0. -1.
</event>
<event>
 7    1  0.2749315E-009  0.1040304E+03  0.7561462E-02  0.1272042E+00
         -3   -1    0    0    0  501 -0.00000000000E+00  0.00000000000E+00  0.28013973635E+03  0.28013973635E+03  0.00000000000E+00 0.  1.
          3   -1    0    0  501    0  0.00000000000E+00 -0.00000000000E+00 -0.68734406829E+02  0.68734406829E+02  0.00000000000E+00 0. -1.
         25    2    1    2    0    0 -0.17547065494E+02  0.29341181934E+02  0.89655898560E+01  0.13000321028E+03  0.12510654826E+03 0.  0.
          5    1    3    3  502    0  0.20265581129E+02 -0.40418756707E+02 -0.13603171636E+02  0.47401353892E+02  0.41800000000E+01 0.  1.
         -5    1    3    3    0  502 -0.37812646623E+02  0.69759938641E+02  0.22568761492E+02  0.82601856390E+02  0.41800000000E+01 0.  1.
        -11    1    1    2    0    0  0.20533842414E+02  0.22963047286E+02  0.73491307459E+02  0.79686338208E+02  0.00000000000E+00 0.  1.
         11    1    1    2    0    0 -0.29867769199E+01 -0.52304229220E+02  0.12894843221E+03  0.13918459469E+03  0.00000000000E+00 0. -1.
</event>
<event>
 7    1  0.2749315E-009  0.9449003E+02  0.7561462E-02  0.1292329E+00
          2   -1    0    0  501    0  0.00000000000E+00  0.00000000000E+00  0.13242142955E+03  0.13242142955E+03  0.00000000000E+00 0.  1.
         -2   -1    0    0    0  501 -0.00000000000E+00 -0.00000000000E+00 -0.10759677302E+03  0.10759677302E+03  0.00000000000E+00 0. -1.
         25    2    1    2    0    0  0.28469483645E+02 -0.18225732114E+02  0.29302838926E+02  0.13284913772E+03  0.12509016034E+03 0.  0.
          5    1    3    3  502    0  0.51281209290E+02  0.63984662484E+01 -0.33350572007E+02  0.61647675137E+02  0.41800000000E+01 0. -1.
         -5    1    3    3    0  502 -0.22811725645E+02 -0.24624198363E+02  0.62653410933E+02  0.71201462579E+02  0.41800000000E+01 0. -1.
        -11    1    1    2    0    0  0.29651254810E+02  0.31948253656E+02  0.12017370905E+02  0.45213991496E+02  0.00000000000E+00 0.  1.
         11    1    1    2    0    0 -0.58120738455E+02 -0.13722521542E+02 -0.16495553310E+02  0.61955073360E+02  0.00000000000E+00 0. -1.
</event>
<event>
 7    1  0.2749315E-009  0.1019387E+03  0.7561462E-02  0.1276271E+00
          2   -1    0    0  501    0  0.00000000000E+00  0.00000000000E+00  0.30875940688E+03  0.30875940688E+03  0.00000000000E+00 0. -1.
         -2   -1    0    0    0  501 -0.00000000000E+00 -0.00000000000E+00 -0.48223035572E+02  0.48223035572E+02  0.00000000000E+00 0.  1.
         25    2    1    2    0    0 -0.45492640121E+01 -0.50439924347E+02  0.10716490648E+03  0.17233230932E+03  0.12509686600E+03 0.  0.
          5    1    3    3  502    0 -0.18784446378E+02 -0.81256401619E+02  0.31412962973E+02  0.89217178125E+02  0.41800000000E+01 0.  1.
         -5    1    3    3    0  502  0.14235182366E+02  0.30816477272E+02  0.75751943504E+02  0.83115131193E+02  0.41800000000E+01 0.  1.
        -11    1    1    2    0    0 -0.27889402874E+02  0.21160847137E+01  0.10593652569E+03  0.10956661938E+03  0.00000000000E+00 0. -1.
         11    1    1    2    0    0  0.32438666886E+02  0.48323839633E+02  0.47434939140E+02  0.75083513753E+02  0.00000000000E+00 0.  1.
</event>
<event>
 7    1  0.2749315E-009  0.1040354E+03  0.7561462E-02  0.1272032E+00
         -2   -1    0    0    0  501 -0.00000000000E+00  0.00000000000E+00  0.20531460079E+02  0.20531460079E+02  0.00000000000E+00 0. -1.
          2   -1    0    0  501    0  0.00000000000E+00 -0.00000000000E+00 -0.74477170481E+03  0.74477170481E+03  0.00000000000E+00 0.  1.
         25    2    1    2    0    0  0.88543694222E+01 -0.75038417254E+01 -0.58504076194E+03  0.59837707152E+03  0.12509084339E+03 0.  0.
          5    1    3    3  502    0  0.62219677264E+02  0.13716767213E+02 -0.23004812751E+03  0.23874474091E+03  0.41800000000E+01 0.  1.
         -5    1    3    3    0  502 -0.53365307842E+02 -0.21220608939E+02 -0.35499263443E+03  0.35963233061E+03  0.41800000000E+01 0.  1.
        -11    1    1    2    0    0  0.38729064660E+02  0.34899433340E+01 -0.35049041074E+02  0.52350314556E+02  0.00000000000E+00 0. -1.
         11    1    1    2    0    0 -0.47583434082E+02  0.40138983914E+01 -0.10415044171E+03  0.11457577880E+03  0.00000000000E+00 0.  1.
</event>
<event>
 7    1  0.2749315E-009  0.9692934E+02  0.7561462E-02  0.1286889E+00
         -1   -1    0    0    0  501 -0.00000000000E+00  0.00000000000E+00  0.62506001012E+02  0.62506001012E+02  0.00000000000E+00 0.  1.
          1   -1    0    0  501    0  0.00000000000E+00 -0.00000000000E+00 -0.27054146237E+03  0.27054146237E+03  0.00000000000E+00 0. -1.
         25    2    1    2    0    0  0.69949273747E+02 -0.15860905327E+02 -0.11070313904E+03  0.18178831769E+03  0.12508932104E+03 0.  0.
          5    1    3    3  502    0  0.56467339717E+02 -0.26054520796E+02 -0.13684964860E+03  0.15037518821E+03  0.41800000000E+01 0. -1.
         -5    1    3    3    0  502  0.13481934029E+02  0.10193615469E+02  0.26146509556E+02  0.31413129476E+02  0.41800000000E+01 0. -1.
        -11    1    1    2    0    0 -0.54559808662E+02  0.51669568082E+02 -0.75787478263E+02  0.10672515565E+03  0.00000000000E+00 0. -1.
         11    1    1    2    0    0 -0.15389465084E+02 -0.35808662755E+02 -0.21544844052E+02  0.44533990042E+02  0.00000000000E+00 0.  1.
</event>
<event>
 7    1  0.2749315E-009  0.1406903E+03  0.7561462E-02  0.1212403E+00
          2   -1    0    0  501    0  0.00000000000E+00  0.00000000000E+00  0.43989693988E+03  0.43989693988E+03  0.00000000000E+00 0. -1.
         -2   -1    0    0    0  501 -0.00000000000E+00 -0.00000000000E+00 -0.54653525011E+02  0.54653525011E+02  0.00000000000E+00 0.  1.
         25    2    1    2    0    0 -0.95654149596E+02 -0.23061462298E+01  0.29874420338E+03  0.33771396099E+03  0.12509031035E+03 0.  0.
          5    1    3    3  502    0 -0.81059809429E+02  0.53223554537E+02  0.15514211192E+03  0.18300269603E+03  0.41800000000E+01 0.  1.
         -5    1    3    3    0  502 -0.14594340167E+02 -0.55529700767E+02  0.14360209146E+03  0.15471126496E+03  0.41800000000E+01 0.  1.
        -11    1    1    2    0    0  0.74444042349E+02 -0.36208737826E+02  0.37136495037E+02  0.90730961638E+02  0.00000000000E+00 0.  1.
         11    1    1    2    0    0  0.21210107247E+02  0.38514884056E+02  0.49362716448E+02  0.66105542267E+02  0.00000000000E+00 0. -1.
</event>
<event>
 7    1  0.2749315E-009  0.1230988E+03  0.7561462E-02  0.1238071E+00
         -3   -1    0    0    0  501 -0.00000000000E+00  0.00000000000E+00  0.18726543534E+03  0.18726543534E+03  0.00000000000E+00 0.  1.
          3   -1    0    0  501    0  0.00000000000E+00 -0.00000000000E+00 -0.14246287011E+03  0.14246287011E+03  0.00000000000E+00 0. -1.
         25    2    1    2    0    0 -0.57221956612E+02 -0.69824673284E+02 -0.59719459126E+02  0.16542065009E+03  0.12509092837E+03 0.  0.
          5    1    3    3  502    0 -0.82657074218E+02 -0.43545790175E+01 -0.41757633057E+02  0.92802621704E+02  0.41800000000E+01 0.  1.
         -5    1    3    3    0  502  0.25435117606E+02 -0.65470094267E+02 -0.17961826069E+02  0.72618028386E+02  0.41800000000E+01 0.  1.
        -11    1    1    2    0    0  0.11013956856E+02  0.24862962162E+01 -0.15474975691E+02  0.19156298889E+02  0.00000000000E+00 0. -1.
         11    1    1    2    0    0  0.46207999755E+02  0.67338377068E+02  0.11999700004E+03  0.14515135647E+03  0.00000000000E+00 0.  1.
</event>
<event>
 7    1  0.2749315E-009  0.1042631E+03  0.7561462E-02  0.1271578E+00
          2   -1    0    0  501    0  0.00000000000E+00  0.00000000000E+00  0.49715673562E+03  0.49715673562E+03  0.00000000000E+00 0.  1.
         -2   -1    0    0    0  501 -0.00000000000E+00 -0.00000000000E+00 -0.48701366549E+02  0.48701366549E+02  0.00000000000E+00 0. -1.
         25    2    1    2    0    0 -0.67781554767E+02 -0.66327085664E+02  0.14316540562E+03  0.21245778338E+03  0.12509338469E+03 0.  0.
          5    1    3    3  502    0 -0.52380840866E+02 -0.26795563735E+02  0.15693852709E+03  0.16765717524E+03  0.41800000000E+01 0.  1.
         -5    1    3    3    0  502 -0.15400713901E+02 -0.39531521929E+02 -0.13773121466E+02  0.44800608139E+02  0.41800000000E+01 0.  1.
        -11    1    1    2    0    0  0.18186765285E+02  0.52297120417E+02  0.55677459671E+02  0.78522141787E+02  0.00000000000E+00 0. -1.
         11    1    1    2    0    0  0.49594789481E+02  0.14029965247E+02  0.24961250378E+03  0.25487817700E+03  0.00000000000E+00 0.  1.
</event>
<event>
 7    1  0.2749315E-009  0.1060186E+03  0.7561462E-02  0.1268126E+00
         -2   -1    0    0    0  501 -0.00000000000E+00  0.00000000000E+00  0.43052618507E+02  0.43052618507E+02  0.00000000000E+00 0.  1.
          2   -1    0    0  501    0  0.00000000000E+00 -0.00000000000E+00 -0.41204489927E+03  0.41204489927E+03  0.00000000000E+00 0. -1.
         25    2    1    2    0    0 -0.78081469735E+02 -0.34772824335E+01 -0.21821781233E+03  0.26338954338E+03  0.12508489332E+03 0.  0.
          5    1    3    3  502    0 -0.73434062834E+01 -0.22935513175E+02  0.78549265190E+01  0.25673637277E+02  0.41800000000E+01 0. -1.
         -5    1    3    3    0  502 -0.70738063451E+02  0.19458230741E+02 -0.22607273885E+03  0.23771590610E+03  0.41800000000E+01 0. -1.
        -11    1    1    2    0    0  0.20336108475E+02  0.40637148069E+02 -0.36057952224E+02  0.58009577051E+02  0.00000000000E+00 0. -1.
         11    1    1    2    0    0  0.57745361260E+02 -0.37159865636E+02 -0.11471651621E+03  0.13369839735E+03  0.00000000000E+00 0.  1.
</event>
<event>
 7    1  0.3271217E-009  0.2764987E+03  0.7561462E-02  0.1097617E+00
          2   -1    0    0  501    0  0.00000000000E+00  0.00000000000E+00  0.16014766484E+04  0.16014766484E+04  0.00000000000E+00 0. -1.
         -2   -1    0    0    0  501 -0.00000000000E+00 -0.00000000000E+00 -0.53163538764E+02  0.53163538764E+02  0.00000000000E+00 0.  1.
         25    2    1    2    0    0 -0.20946245214E+03  0.16876119893E+03  0.71216326358E+03  0.77147906221E+03  0.12509423778E+03 0.  0.
          5    1    3    3  502    0 -0.14851163821E+03  0.15320272866E+03  0.40368359222E+03  0.45662314635E+03  0.41800000000E+01 0.  1.
         -5    1    3    3    0  502 -0.60950813932E+02  0.15558470265E+02  0.30847967135E+03  0.31485591586E+03  0.41800000000E+01 0.  1.
        -11    1    1    2    0    0  0.15242537827E+03 -0.83033771734E+02  0.61831700011E+03  0.64221804382E+03  0.00000000000E+00 0.  1.
         11    1    1    2    0    0  0.57037073872E+02 -0.85727427192E+02  0.21783284598E+03  0.24094308115E+03  0.00000000000E+00 0. -1.
</event>
<event>
 7    1  0.2749315E-009  0.4481893E+03  0.7561462E-02  0.1028263E+00
          2   -1    0    0  501    0  0.00000000000E+00  0.00000000000E+00  0.63723489233E+03  0.63723489233E+03  0.00000000000E+00 0. -1.
         -2   -1    0    0    0  501 -0.00000000000E+00 -0.00000000000E+00 -0.36708461476E+03  0.36708461476E+03  0.00000000000E+00 0.  1.
         25    2    1    2    0    0  0.38693313584E+03 -0.21642348785E+03  0.30162851201E+03  0.55062125635E+03  0.12509049118E+03 0.  0.
          5    1    3    3  502    0  0.16164541465E+03 -0.48716142990E+02  0.17273341206E+03  0.24157153538E+03  0.41800000000E+01 0. -1.
         -5    1    3    3    0  502  0.22528772119E+03 -0.16770734486E+03  0.12889509995E+03  0.30904972097E+03  0.41800000000E+01 0. -1.
        -11    1    1    2    0    0 -0.17020190657E+03  0.64850899826E+02 -0.49091628327E+02  0.18863805602E+03  0.00000000000E+00 0. -1.
         11    1    1    2    0    0 -0.21673122927E+03  0.15157258802E+03  0.17613393885E+02  0.26506019472E+03  0.00000000000E+00 0.  1.
</event>
<event>
 7    1  0.2749315E-009  0.1227930E+03  0.7561462E-02  0.1238559E+00
         -2   -1    0    0    0  501 -0.00000000000E+00  0.00000000000E+00  0.24379415650E+02  0.24379415650E+02  0.00000000000E+00 0.  1.
          2   -1    0    0  501    0  0.00000000000E+00 -0.00000000000E+00 -0.10572440527E+04  0.10572440527E+04  0.00000000000E+00 0. -1.
         25    2    1    2    0    0 -0.73392701489E+02 -0.90727987330E+02 -0.49307130403E+03  0.52190428220E+03  0.12508682025E+03 0.  0.
          5    1    3    3  502    0  0.58290224013E+01 -0.19689142618E+02 -0.30545614128E+03  0.30617407873E+03  0.41800000000E+01 0.  1.
         -5    1    3    3    0  502 -0.79221723890E+02 -0.71038844712E+02 -0.18761516275E+03  0.21573020346E+03  0.41800000000E+01 0.  1.
        -11    1    1    2    0    0  0.58543293480E+02  0.82510576963E+02 -0.53110127219E+03  0.54065134222E+03  0.00000000000E+00 0.  1.
         11    1    1    2    0    0  0.14849408008E+02  0.82174103669E+01 -0.86920608514E+01  0.19067843957E+02  0.00000000000E+00 0. -1.
</event>
<event>
 7    1  0.2749315E-009  0.1319453E+03  0.7561462E-02  0.1224597E+00
          2   -1    0    0  501    0  0.00000000000E+00  0.00000000000E+00  0.92688437720E+03  0.92688437720E+03  0.00000000000E+00 0. -1.
         -2   -1    0    0    0  501 -0.00000000000E+00 -0.00000000000E+00 -0.19690650503E+02  0.19690650503E+02  0.00000000000E+00 0.  1.
         25    2    1    2    0    0  0.23032699166E+02  0.75044070315E+02  0.57521424468E+03  0.59386968928E+03  0.12509061851E+03 0.  0.
          5    1    3    3  502    0 -0.20861421866E+01  0.10611453746E+03  0.45015608060E+03  0.46251769301E+03  0.41800000000E+01 0.  1.
         -5    1    3    3    0  502  0.25118841352E+02 -0.31070467143E+02  0.12505816409E+03  0.13135199627E+03  0.41800000000E+01 0.  1.
        -11    1    1    2    0    0 -0.53795480720E+02 -0.66576551718E+02  0.26568068391E+03  0.27912831599E+03  0.00000000000E+00 0. -1.
         11    1    1    2    0    0  0.30762781554E+02 -0.84675185964E+01  0.66298798099E+02  0.73577022429E+02  0.00000000000E+00 0.  1.
</event>
<event>
 7    1  0.2749315E-009  0.1115478E+03  0.7561462E-02  0.1257730E+00
         -2   -1    0    0    0  501 -0.00000000000E+00  0.00000000000E+00  0.64124780868E+02  0.64124780868E+02  0.00000000000E+00 0.  1.
          2   -1    0    0  501    0  0.00000000000E+00 -0.00000000000E+00 -0.33501217766E+03  0.33501217766E+03  0.00000000000E+00 0. -1.
         25    2    1    2    0    0 -0.69441911958E+02  0.26807644016E+02 -0.40550472472E+02  0.15110504872E+03  0.12509023150E+03 0.  0.
          5    1    3    3  502    0 -0.10247121995E+03  0.40719927968E+01 -0.15929079175E+02  0.10386597136E+03  0.41800000000E+01 0.  1.
         -5    1    3    3    0  502  0.33029307987E+02  0.22735651219E+02 -0.24621393297E+02  0.47239077366E+02  0.41800000000E+01 0.  1.
        -11    1    1    2    0    0  0.44015172715E+02 -0.11638167485E+01 -0.63119775928E+02  0.76959703818E+02  0.00000000000E+00 0.  1.
         11    1    1    2    0    0  0.25426739243E+02 -0.25643827267E+02 -0.16721714839E+03  0.17107220598E+03  0.00000000000E+00 0. -1.
</event>
<event>
 7    1  0.4231098E-009  0.1282242E+03  0.7561462E-02  0.1230115E+00
          2   -1    0    0  501    0  0.00000000000E+00  0.00000000000E+00  0.14934735339E+03  0.14934735339E+03  0.00000000000E+00 0. -1.
         -2   -1    0    0    0  501 -0.00000000000E+00 -0.00000000000E+00 -0.15842120207E+03  0.15842120207E+03  0.00000000000E+00 0.  1.
         25    2    1    2    0    0 -0.16808317296E+02 -0.10631903030E+03  0.86548711827E+01  0.16525518360E+03  0.12509241855E+03 0.  0.
          5    1    3    3  502    0  0.33381995263E+02 -0.61792786725E+02  0.50017791743E+02  0.86324724094E+02  0.41800000000E+01 0. -1.
         -5    1    3    3    0  502 -0.50190312559E+02 -0.44526243571E+02 -0.41362920561E+02  0.78930459511E+02  0.41800000000E+01 0. -1.
        -11    1    1    2    0    0 -0.12902385070E+02  0.73387629972E+02  0.27254741698E+02  0.79341267436E+02  0.00000000000E+00 0. -1.
         11    1    1    2    0    0  0.29710702366E+02  0.32931400325E+02 -0.44983461566E+02  0.63172104420E+02  0.00000000000E+00 0.  1.
</event>
<event>
 7    1  0.2749315E-009  0.1086023E+03  0.7561462E-02  0.1263180E+00
          1   -1    0    0  501    0  0.00000000000E+00  0.00000000000E+00  0.11180793275E+03  0.11180793275E+03  0.00000000000E+00 0. -1.
         -1   -1    0    0    0  501 -0.00000000000E+00 -0.00000000000E+00 -0.18604513007E+03  0.18604513007E+03  0.00000000000E+00 0.  1.
         25    2    1    2    0    0  0.32711255296E+02  0.16825275519E+02 -0.12636294929E+03  0.18156982489E+03  0.12508753030E+03 0.  0.
          5    1    3    3  502    0  0.11281568911E+02  0.68176690360E+02 -0.43811334228E+02  0.81928263208E+02  0.41800000000E+01 0.  1.
         -5    1    3    3    0  502  0.21429686385E+02 -0.51351414840E+02 -0.82551615063E+02  0.99641561681E+02  0.41800000000E+01 0.  1.
        -11    1    1    2    0    0 -0.53603269451E+02  0.13567157180E+02  0.37062845931E+01  0.55417639748E+02  0.00000000000E+00 0.  1.
         11    1    1    2    0    0  0.20892014155E+02 -0.30392432699E+02  0.48419467383E+02  0.60865598185E+02  0.00000000000E+00 0. -1.
</event>
<event>
 7    1  0.2749315E-009  0.8329093E+02  0.7561462E-02  0.1319963E+00
          1   -1    0    0  501    0  0.00000000000E+00  0.00000000000E+00  0.14715721539E+03  0.14715721539E+03  0.00000000000E+00 0. -1.
         -1   -1    0    0    0  501 -0.00000000000E+00 -0.00000000000E+00 -0.11933943744E+03  0.11933943744E+03  0.00000000000E+00 0.  1.
         25    2    1    2    0    0 -0.21714106148E+02  0.69856081370E+02 -0.49280542861E+01  0.14500339843E+03  0.12510126030E+03 0.  0.
          5    1    3    3  502    0 -0.33879367512E+01  0.14981078277E+02  0.57573238388E+02  0.59733248700E+02  0.41800000000E+01 0.  1.
         -5    1    3    3    0  502 -0.18326169397E+02  0.54875003093E+02 -0.62501292675E+02  0.85270149731E+02  0.41800000000E+01 0.  1.
        -11    1    1    2    0    0 -0.19498118815E+02 -0.19320668654E+02 -0.22916373907E+02  0.35757867213E+02  0.00000000000E+00 0.  1.
         11    1    1    2    0    0  0.41212224963E+02 -0.50535412716E+02  0.55662206143E+02  0.85735387195E+02  0.00000000000E+00 0. -1.
</event>
<event>
 7    1  0.2749315E-009  0.1192551E+03  0.7561462E-02  0.1244331E+00
         -2   -1    0    0    0  501 -0.00000000000E+00  0.00000000000E+00  0.12727023807E+03  0.12727023807E+03  0.00000000000E+00 0.  1.
          2   -1    0    0  501    0  0.00000000000E+00 -0.00000000000E+00 -0.22842011352E+03  0.22842011352E+03  0.00000000000E+00 0. -1.
         25    2    1    2    0    0  0.78089877324E+02 -0.43230662156E+02 -0.15442612904E+03  0.21785649201E+03  0.12508837950E+03 0.  0.
          5    1    3    3  502    0  0.59689169342E+02  0.11403997272E+02 -0.92679852820E+01  0.61613440431E+02  0.41800000000E+01 0. -1.
         -5    1    3    3    0  502  0.18400707982E+02 -0.54634659428E+02 -0.14515814376E+03  0.15624305157E+03  0.41800000000E+01 0. -1.
        -11    1    1    2    0    0 -0.19276301586E+02  0.56334089592E+02  0.34413391174E+01  0.59640156504E+02  0.00000000000E+00 0. -1.
         11    1    1    2    0    0 -0.58813575738E+02 -0.13103427436E+02  0.49834914478E+02  0.78193703088E+02  0.00000000000E+00 0.  1.
</event>
<event>
 7    1  0.2749315E-009  0.8899057E+02  0.7561462E-02  0.1305315E+00
         -1   -1    0    0    0  501 -0.00000000000E+00  0.00000000000E+00  0.65011285754E+03  0.65011285754E+03  0.00000000000E+00 0.  1.
          1   -1    0    0  501    0  0.00000000000E+00 -0.00000000000E+00 -0.29436198872E+02  0.29436198872E+02  0.00000000000E+00 0. -1.
         25    2    1    2    0    0 -0.49652029208E+01 -0.12806877992E+02  0.13188803035E+03  0.18229453569E+03  0.12509266897E+03 0.  0.
          5    1    3    3  502    0  0.36035190767E+02 -0.24549953898E+02  0.19381255006E+00  0.43803483575E+02  0.41800000000E+01 0. -1.
         -5    1    3    3    0  502 -0.41000393688E+02  0.11743075905E+02  0.13169421780E+03  0.13849105211E+03  0.41800000000E+01 0. -1.
        -11    1    1    2    0    0  0.47425163291E+02  0.11715642766E+02  0.25400167217E+03  0.25865662927E+03  0.00000000000E+00 0.  1.
         11    1    1    2    0    0 -0.42459960370E+02  0.10912352262E+01  0.23478695615E+03  0.23859789146E+03  0.00000000000E+00 0. -1.
</event>
<event>
 7    1  0.2749315E-009  0.1365712E+03  0.7561462E-02  0.1218019E+00
         -1   -1    0    0    0  501 -0.00000000000E+00  0.00000000000E+00  0.42244353477E+03  0.42244353477E+03  0.00000000000E+00 0.  1.
          1   -1    0    0  501    0  0.00000000000E+00 -0.00000000000E+00 -0.55747759855E+02  0.55747759855E+02  0.00000000000E+00 0. -1.
         25    2    1    2    0    0 -0.10709098400E+03 -0.47018606919E+01  0.22391564870E+03  0.27798739143E+03  0.12509270848E+03 0.  0.
          5    1    3    3  502    0 -0.47414564429E+02 -0.41641515353E+02  0.18936826376E+03  0.19964961418E+03  0.41800000000E+01 0. -1.
         -5    1    3    3    0  502 -0.59676419570E+02  0.36939654661E+02  0.34547384940E+02  0.78337777256E+02  0.41800000000E+01 0. -1.
        -11    1    1    2    0    0  0.15023115812E+02 -0.35938891979E+02  0.30900276039E+02  0.49720468870E+02  0.00000000000E+00 0. -1.
         11    1    1    2    0    0  0.92067868188E+02  0.40640752671E+02  0.11187985018E+03  0.15048343432E+03  0.00000000000E+00 0.  1.
</event>
<event>
 7    1  0.2749315E-009  0.1090443E+03  0.7561462E-02  0.1262350E+00
          1   -1    0    0  501    0  0.00000000000E+00  0.00000000000E+00  0.17785330366E+03  0.17785330366E+03  0.00000000000E+00 0. -1.
         -1   -1    0    0    0  501 -0.00000000000E+00 -0.00000000000E+00 -0.94467697246E+02  0.94467697246E+02  0.00000000000E+00 0.  1.
         25    2    1    2    0    0  0.22658695134E+02 -0.68190843321E+02  0.37579928780E+02  0.14907372452E+03  0.12508923502E+03 0.  0.
          5    1    3    3  502    0  0.39933843082E+02  0.23259165563E+01  0.60655443905E+02  0.72778272763E+02  0.41800000000E+01 0.  1.
         -5    1    3    3    0  502 -0.17275147949E+02 -0.70516759878E+02 -0.23075515125E+02  0.76295451755E+02  0.41800000000E+01 0.  1.
        -11    1    1    2    0    0  0.28323368524E+02  0.17728825780E+02 -0.70430114648E+01  0.34148623377E+02  0.00000000000E+00 0.  1.
         11    1    1    2    0    0 -0.50982063657E+02  0.50462017541E+02  0.52848689101E+02  0.89098653013E+02  0.00000000000E+00 0. -1.
</event>
<event>
 7    1  0.2749315E-009  0.1035989E+03  0.7561462E-02  0.1272905E+00
          2   -1    0    0  501    0  0.00000000000E+00  0.00000000000E+00  0.17988827809E+03  0.17988827809E+03  0.00000000000E+00 0. -1.
         -2   -1    0    0    0  501 -0.00000000000E+00 -0.00000000000E+00 -0.87029632454E+02  0.87029632454E+02  0.00000000000E+00 0.  1.
         25    2    1    2    0    0 -0.25388668418E+02  0.31761401970E+02  0.19365715974E+01  0.13155037248E+03  0.12509348125E+03 0.  0.
          5    1    3    3  502    0  0.30547508912E+02  0.41145944701E+02 -0.36371314278E+02  0.62980028330E+02  0.41800000000E+01 0. -1.
         -5    1    3    3    0  502 -0.55936177330E+02 -0.93845427309E+01  0.38307885875E+02  0.68570344150E+02  0.41800000000E+01 0. -1.
        -11    1    1    2    0    0 -0.13115451236E+02  0.26214725829E+02  0.37687809787E+02  0.47745135019E+02  0.00000000000E+00 0. -1.
         11    1    1    2    0    0  0.38504119654E+02 -0.57976127800E+02  0.53234264251E+02  0.87622403045E+02  0.00000000000E+00 0.  1.
</event>
<event>
 7    1  0.2749315E-009  0.1718841E+03  0.7561462E-02  0.1175897E+00
         -2   -1    0    0    0  501 -0.00000000000E+00  0.00000000000E+00  0.13254435381E+03  0.13254435381E+03  0.00000000000E+00 0.  1.
          2   -1    0    0  501    0  0.00000000000E+00 -0.00000000000E+00 -0.24784573867E+03  0.24784573867E+03  0.00000000000E+00 0. -1.
         25    2    1    2    0    0 -0.12541990506E+02 -0.14426922584E+03 -0.54560052160E+02  0.19898421549E+03  0.12508799971E+03 0.  0.
          5    1    3    3  502    0  0.37247527723E+02 -0.12487218028E+03 -0.62875262446E+02  0.14474533069E+03  0.41800000000E+01 0. -1.
         -5    1    3    3    0  502 -0.49789518229E+02 -0.19397045560E+02  0.83152102862E+01  0.54238884797E+02  0.41800000000E+01 0. -1.
        -11    1    1    2    0    0 -0.28082266112E+02  0.59233594534E+02  0.61459492724E+01  0.65840755492E+02  0.00000000000E+00 0.  1.
         11    1    1    2    0    0  0.40624256618E+02  0.85035631309E+02 -0.66887281974E+02  0.11556512150E+03  0.00000000000E+00 0. -1.
</event>
<event>
 7    1  0.2749315E-009  0.1089127E+03  0.7561462E-02  0.1262597E+00
         -2   -1    0    0    0  501 -0.00000000000E+00  0.00000000000E+00  0.11586089575E+02  0.11586089575E+02  0.00000000000E+00 0. -1.
          2   -1    0    0  501    0  0.00000000000E+00 -0.00000000000E+00 -0.14609737108E+04  0.14609737108E+04  0.00000000000E+00 0.  1.
         25    2    1    2    0    0  0.50354189939E+02 -0.49477196403E+02 -0.88326846443E+03  0.89487125618E+03  0.12509135655E+03 0.  0.
          5    1    3    3  502    0  0.36596993105E+02  0.13686716818E+02 -0.81381258101E+02  0.90371719535E+02  0.41800000000E+01 0. -1.
         -5    1    3    3    0  502  0.13757196834E+02 -0.63163913221E+02 -0.80188720632E+03  0.80449953665E+03  0.41800000000E+01 0. -1.
        -11    1    1    2    0    0 -0.53276953055E+02 -0.99948480542E+01 -0.22706245100E+03  0.23344311378E+03  0.00000000000E+00 0.  1.
         11    1    1    2    0    0  0.29227631161E+01  0.59472044457E+02 -0.33905670579E+03  0.34424543041E+03  0.00000000000E+00 0. -1.
</event>
<event>
 7    1  0.2749315E-009  0.1443605E+03  0.7561462E-02  0.1207579E+00
         -2   -1    0    0    0  501 -0.00000000000E+00  0.00000000000E+00  0.25261895219E+02  0.25261895219E+02  0.00000000000E+00 0.  1.
          2   -1    0    0  501    0  0.00000000000E+00 -0.00000000000E+00 -0.93023396139E+03  0.93023396139E+03  0.00000000000E+00 0. -1.
         25    2    1    2    0    0 -0.12950041166E+02  0.10212066380E+03 -0.38871185724E+03  0.42111806416E+03  0.12508869836E+03 0.  0.
          5    1    3    3  502    0 -0.40987048717E+02  0.11947036987E+03 -0.27497511352E+03  0.30262500374E+03  0.41800000000E+01 0. -1.
         -5    1    3    3    0  502  0.28037007551E+02 -0.17349706063E+02 -0.11373674372E+03  0.11849306041E+03  0.41800000000E+01 0. -1.
        -11    1    1    2    0    0  0.19703787873E+02 -0.11386838446E+03 -0.50014873476E+03  0.51332543783E+03  0.00000000000E+00 0. -1.
         11    1    1    2    0    0 -0.67537467067E+01  0.11747720660E+02 -0.16111474165E+02  0.21052354620E+02  0.00000000000E+00 0.  1.
</event>
<event>
 7    1  0.2749315E-009  0.1148350E+03  0.7561462E-02  0.1251869E+00
         -2   -1    0    0    0  501 -0.00000000000E+00  0.00000000000E+00  0.10446775712E+03  0.10446775712E+03  0.00000000000E+00 0.  1.
          2   -1    0    0  501    0  0.00000000000E+00 -0.00000000000E+00 -0.14351112596E+03  0.14351112596E+03  0.00000000000E+00 0. -1.
         25    2    1    2    0    0  0.77292749670E+01 -0.59977850778E+02 -0.19609801201E+02  0.14031679167E+03  0.12508866234E+03 0.  0.
          5    1    3    3  502    0 -0.45090149543E+02 -0.65823129415E+02  0.79819735673E+01  0.80293151973E+02  0.41800000000E+01 0.  1.
         -5    1    3    3    0  502  0.52819424510E+02  0.58452786375E+01 -0.27591774768E+02  0.60023639699E+02  0.41800000000E+01 0.  1.
        -11    1    1    2    0    0  0.20569895828E+02  0.64598765678E+02  0.76432168569E+01  0.68224188566E+02  0.00000000000E+00 0.  1.
         11    1    1    2    0    0 -0.28299170795E+02 -0.46209149006E+01 -0.27076784492E+02  0.39437902842E+02  0.00000000000E+00 0. -1.
</event>
<event>
 7    1  0.3739675E-009  0.7450548E+02  0.7561462E-02  0.1345409E+00
          1   -1    0    0  501    0  0.00000000000E+00  0.00000000000E+00  0.52524821816E+02  0.52524821816E+02  0.00000000000E+00 0. -1.
         -1   -1    0    0    0  501 -0.00000000000E+00 -0.00000000000E+00 -0.24936898268E+03  0.24936898268E+03  0.00000000000E+00 0.  1.
         25    2    1    2    0    0 -0.16133792687E+02 -0.85813929681E+01 -0.15412396033E+03  0.19933893428E+03  0.12509147054E+03 0.  0.
          5    1    3    3  502    0  0.32154704759E+02  0.30975949314E+02 -0.11993534957E+03  0.12804450379E+03  0.41800000000E+01 0. -1.
         -5    1    3    3    0  502 -0.48288497446E+02 -0.39557342282E+02 -0.34188610758E+02  0.71294430495E+02  0.41800000000E+01 0. -1.
        -11    1    1    2    0    0  0.28320176913E+02  0.78941934603E+01 -0.68219451590E+02  0.74284885987E+02  0.00000000000E+00 0.  1.
         11    1    1    2    0    0 -0.12186384226E+02  0.68719950773E+00  0.25499251055E+02  0.28269984224E+02  0.00000000000E+00 0. -1.
</event>
<event>
 7    1  0.2749315E-009  0.8634227E+02  0.7561462E-02  0.1311959E+00
          1   -1    0    0  501    0  0.00000000000E+00  0.00000000000E+00  0.17495700878E+03  0.17495700878E+03  0.00000000000E+00 0. -1.
         -1   -1    0    0    0  501 -0.00000000000E+00 -0.00000000000E+00 -0.12302962745E+03  0.12302962745E+03  0.00000000000E+00 0.  1.
         25    2    1    2    0    0 -0.46404585904E+02 -0.80088772822E+01 -0.59608643274E+02  0.14634871702E+03  0.12508888405E+03 0.  0.
          5    1    3    3  502    0  0.91772157900E+01 -0.51183522135E+02 -0.54830869389E+02  0.75682698590E+02  0.41800000000E+01 0.  1.
         -5    1    3    3    0  502 -0.55581801694E+02  0.43174644853E+02 -0.47777738844E+01  0.70666018432E+02  0.41800000000E+01 0.  1.
        -11    1    1    2    0    0  0.97892096898E+01 -0.52037973031E+01 -0.15338838010E+02  0.18925857555E+02  0.00000000000E+00 0.  1.
         11    1    1    2    0    0  0.36615376214E+02  0.13212674585E+02  0.12687486261E+03  0.13271206165E+03  0.00000000000E+00 0. -1.
</event>
<event>
 7    1  0.2749315E-009  0.9864230E+02  0.7561462E-02  0.1283177E+00
         -1   -1    0    0    0  501 -0.00000000000E+00  0.00000000000E+00  0.63120776200E+03  0.63120776200E+03  0.00000000000E+00 0.  1.
          1   -1    0    0  501    0  0.00000000000E+00 -0.00000000000E+00 -0.34938915505E+02  0.34938915505E+02  0.00000000000E+00 0. -1.
         25    2    1    2    0    0 -0.58328660290E+02  0.19638723660E+02  0.50227639511E+03  0.52126570158E+03  0.12509373477E+03 0.  0.
          5    1    3    3  502    0 -0.68614310702E+02  0.36343388039E+02  0.49312678447E+03  0.49921965451E+03  0.41800000000E+01 0. -1.
         -5    1    3    3    0  502  0.10285650412E+02 -0.16704664379E+02  0.91496106388E+01  0.22046047067E+02  0.41800000000E+01 0. -1.
        -11    1    1    2    0    0  0.62606868914E+02  0.15153801219E+02  0.28167999683E+02  0.70304295265E+02  0.00000000000E+00 0. -1.
         11    1    1    2    0    0 -0.42782086243E+01 -0.34792524879E+02  0.65824451700E+02  0.74576680659E+02  0.00000000000E+00 0.  1.
</event>
<event>
 7    1  0.2749315E-009  0.1607884E+03  0.7561462E-02  0.1187810E+00
         -3   -1    0    0    0  501 -0.00000000000E+00  0.00000000000E+00  0.12027820907E+04  0.12027820907E+04  0.00000000000E+00 0.  1.
          3   -1    0    0  501    0  0.00000000000E+00 -0.00000000000E+00 -0.25427800496E+02  0.25427800496E+02  0.00000000000E+00 0. -1.
         25    2    1    2    0    0  0.13109503192E+03 -0.38188173749E+02  0.58111821840E+03  0.60990964316E+03  0.12508854883E+03 0.  0.
          5    1    3    3  502    0  0.15419722529E+03 -0.43064112059E+02  0.48105285739E+03  0.50701146539E+03  0.41800000000E+01 0. -1.
         -5    1    3    3    0  502 -0.23102193372E+02  0.48759383100E+01  0.10006536101E+03  0.10289817777E+03  0.41800000000E+01 0. -1.
        -11    1    1    2    0    0 -0.11048501565E+03  0.37993619206E+02  0.58109887207E+03  0.59272789111E+03  0.00000000000E+00 0.  1.
         11    1    1    2    0    0 -0.20610016271E+02  0.19455454317E+00  0.15137199689E+02  0.25572356883E+02  0.00000000000E+00 0. -1.
</event>
<event>
 7    1  0.2749315E-009  0.1208205E+03  0.7561462E-02  0.1241750E+00
         -1   -1    0    0    0  501 -0.00000000000E+00  0.00000000000E+00  0.93261770530E+03  0.93261770530E+03  0.00000000000E+00 0.  1.
          1   -1    0    0  501    0  0.00000000000E+00 -0.00000000000E+00 -0.17304011415E+02  0.17304011415E+02  0.00000000000E+00 0. -1.
         25    2    1    2    0    0  0.57427065561E+00  0.57189513357E+02  0.40892105029E+03  0.43143165370E+03  0.12508347702E+03 0.  0.
          5    1    3    3  502    0 -0.46118531654E+02  0.70422561065E+02  0.30871053207E+03  0.32000925156E+03  0.41800000000E+01 0.  1.
         -5    1    3    3    0  502  0.46692802309E+02 -0.13233047708E+02  0.10021051821E+03  0.11142240214E+03  0.41800000000E+01 0.  1.
        -11    1    1    2    0    0  0.45822571722E+02 -0.31578451488E+02  0.31583487405E+03  0.32070013150E+03  0.00000000000E+00 0.  1.
         11    1    1    2    0    0 -0.46396842378E+02 -0.25611061869E+02  0.19055776955E+03  0.19778993151E+03  0.00000000000E+00 0. -1.
</event>
<event>
 7    1  0.2749315E-009  0.1661989E+03  0.7561462E-02  0.1181871E+00
         -2   -1    0    0    0  501 -0.00000000000E+00  0.00000000000E+00  0.18085495140E+03  0.18085495140E+03  0.00000000000E+00 0.  1.
          2   -1    0    0  501    0  0.00000000000E+00 -0.00000000000E+00 -0.23977536352E+03  0.23977536352E+03  0.00000000000E+00 0. -1.
         25    2    1    2    0    0  0.12729775593E+03 -0.92659498589E+02  0.51876117080E+02  0.20767568456E+03  0.12509019582E+03 0.  0.
          5    1    3    3  502    0  0.62932390914E+02 -0.15352688928E+01  0.70371539625E+02  0.94511739302E+02  0.41800000000E+01 0.  1.
         -5    1    3    3    0  502  0.64365365018E+02 -0.91124229696E+02 -0.18495422545E+02  0.11316394526E+03  0.41800000000E+01 0.  1.
        -11    1    1    2    0    0 -0.51993332340E+02  0.32871348950E+02  0.58455322213E+01  0.61789986539E+02  0.00000000000E+00 0.  1.
         11    1    1    2    0    0 -0.75304423593E+02  0.59788149639E+02 -0.11664206141E+03  0.15116464382E+03  0.00000000000E+00 0. -1.
</event>
<event>
 7    1  0.2749315E-009  0.4472692E+03  0.7561462E-02  0.1028540E+00
         -2   -1    0    0    0  501 -0.00000000000E+00  0.00000000000E+00  0.38496364783E+03  0.38496364783E+03  0.00000000000E+00 0.  1.
          2   -1    0    0  501    0  0.00000000000E+00 -0.00000000000E+00 -0.54615568811E+03  0.54615568811E+03  0.00000000000E+00 0. -1.
         25    2    1    2    0    0  0.41843820603E+03 -0.13100194072E+03  0.19956573446E+00  0.45596053973E+03  0.12509169925E+03 0.  0.
          5    1    3    3  502    0  0.29698687998E+03 -0.14403067899E+03  0.25748906716E+02  0.33109896099E+03  0.41800000000E+01 0. -1.
         -5    1    3    3    0  502  0.12145132605E+03  0.13028738266E+02 -0.25549340981E+02  0.12486157874E+03  0.41800000000E+01 0. -1.
        -11    1    1    2    0    0 -0.91866046951E+02  0.54477378966E+02 -0.69339026949E+02  0.12733835267E+03  0.00000000000E+00 0.  1.
         11    1    1    2    0    0 -0.32657215908E+03  0.76524561753E+02 -0.92052579070E+02  0.34782044355E+03  0.00000000000E+00 0. -1.
</event>
<event>
 7    1  0.2749315E-009  0.8532995E+02  0.7561462E-02  0.1314572E+00
          1   -1    0    0  501    0  0.00000000000E+00  0.00000000000E+00  0.48135225602E+03  0.48135225602E+03  0.00000000000E+00 0. -1.
         -1   -1    0    0    0  501 -0.00000000000E+00 -0.00000000000E+00 -0.29662700565E+02  0.29662700565E+02  0.00000000000E+00 0.  1.
         25    2    1    2    0    0 -0.28430375428E+02 -0.77780935415E+01  0.34532066987E+03  0.36846086747E+03  0.12509300871E+03 0.  0.
          5    1    3    3  502    0 -0.19655654012E+02 -0.65037718564E+02  0.22093777646E+03  0.23118655462E+03  0.41800000000E+01 0. -1.
         -5    1    3    3    0  502 -0.87747214162E+01  0.57259625023E+02  0.12438289342E+03  0.13727431285E+03  0.41800000000E+01 0. -1.
        -11    1    1    2    0    0  0.19681625351E+02 -0.11882542252E+02  0.11651589466E+03  0.11876243048E+03  0.00000000000E+00 0. -1.
         11    1    1    2    0    0  0.87487500768E+01  0.19660635793E+02 -0.10147009070E+02  0.23791658638E+02  0.00000000000E+00 0.  1.
</event>
<event>
 7    1  0.2749315E-009  0.1217959E+03  0.7561462E-02  0.1240163E+00
          1   -1    0    0  501    0  0.00000000000E+00  0.00000000000E+00  0.19111294684E+03  0.19111294684E+03  0.00000000000E+00 0.  1.
         -1   -1    0    0    0  501 -0.00000000000E+00 -0.00000000000E+00 -0.12074434810E+03  0.12074434810E+03  0.00000000000E+00 0. -1.
         25    2    1    2    0    0 -0.34227563940E+02 -0.67406098668E+02 -0.35824371730E+02  0.15048643907E+03  0.12509066497E+03 0.  0.
          5    1    3    3  502    0 -0.32344886280E+02 -0.91731348187E+02 -0.61234075211E+02  0.11501267876E+03  0.41800000000E+01 0. -1.
         -5    1    3    3    0  502 -0.18826776607E+01  0.24325249519E+02  0.25409703482E+02  0.35473760307E+02  0.41800000000E+01 0. -1.
        -11    1    1    2    0    0  0.56652029223E+02  0.70431873401E+01  0.51498649925E+02  0.76884132610E+02  0.00000000000E+00 0. -1.
         11    1    1    2    0    0 -0.22424465283E+02  0.60362911328E+02  0.54694320552E+02  0.84486723264E+02  0.00000000000E+00 0.  1.
</event>
<event>
 7    1  0.2749315E-009  0.1606724E+03  0.7561462E-02  0.1187940E+00
         -1   -1    0    0    0  501 -0.00000000000E+00  0.00000000000E+00  0.49126912188E+02  0.49126912188E+02  0.00000000000E+00 0.  1.
          1   -1    0    0  501    0  0.00000000000E+00 -0.00000000000E+00 -0.73725631069E+03  0.73725631069E+03  0.00000000000E+00 0. -1.
         25    2    1    2    0    0  0.80285706228E+02 -0.11884609652E+03 -0.48664934166E+03  0.52253639184E+03  0.12508600949E+03 0.  0.
          5    1    3    3  502    0 -0.12717169546E+02 -0.44145006313E+02 -0.42833546311E+02  0.62949925125E+02  0.41800000000E+01 0.  1.
         -5    1    3    3    0  502  0.93002875773E+02 -0.74701090206E+02 -0.44381579535E+03  0.45958646671E+03  0.41800000000E+01 0.  1.
        -11    1    1    2    0    0 -0.41791408812E+02  0.10808453219E+03 -0.94126086655E+02  0.14929336268E+03  0.00000000000E+00 0.  1.
         11    1    1    2    0    0 -0.38494297415E+02  0.10761564324E+02 -0.10735397018E+03  0.11455346836E+03  0.00000000000E+00 0. -1.
</event>
<event>
 7    1  0.2749315E-009  0.1125964E+03  0.7561462E-02  0.1255836E+00
          2   -1    0    0  501    0  0.00000000000E+00  0.00000000000E+00  0.93608163637E+02  0.93608163637E+02  0.00000000000E+00 0. -1.
         -2   -1    0    0    0  501 -0.00000000000E+00 -0.00000000000E+00 -0.18900000024E+03  0.18900000024E+03  0.00000000000E+00 0.  1.
         25    2    1    2    0    0  0.52085595737E+02 -0.40635191342E+02 -0.93874545731E+02  0.16977672923E+03  0.12509028497E+03 0.  0.
          5    1    3    3  502    0  0.79607664968E+02 -0.33677584747E+02 -0.10750608787E+03  0.13800938869E+03  0.41800000000E+01 0. -1.
         -5    1    3    3    0  502 -0.27522069231E+02 -0.69576065949E+01  0.13631542140E+02  0.31767340546E+02  0.41800000000E+01 0. -1.
        -11    1    1    2    0    0 -0.11949795496E+02  0.62925060962E+02  0.11583907406E+02  0.65088768772E+02  0.00000000000E+00 0. -1.
         11    1    1    2    0    0 -0.40135800241E+02 -0.22289869620E+02 -0.13101198282E+02  0.47742665877E+02  0.00000000000E+00 0.  1.
</event>
<event>
 7    1  0.2749315E-009  0.3663837E+03  0.7561462E-02  0.1056084E+00
          2   -1    0    0  501    0  0.00000000000E+00  0.00000000000E+00  0.45009472930E+04  0.45009472930E+04  0.00000000000E+00 0. -1.
         -2   -1    0    0    0  501 -0.00000000000E+00 -0.00000000000E+00 -0.84576577642E+02  0.84576577642E+02  0.00000000000E+00 0.  1.
         25    2    1    2    0    0 -0.35558958803E+03 -0.58838041018E+02  0.40278428980E+04  0.40458709380E+04  0.12508943132E+03 0.  0.
          5    1    3    3  502    0 -0.12076464529E+03 -0.37832925311E+02  0.86091583950E+03  0.87017755941E+03  0.41800000000E+01 0. -1.
         -5    1    3    3    0  502 -0.23482494274E+03 -0.21005115708E+02  0.31669270585E+04  0.31756933786E+04  0.41800000000E+01 0. -1.
        -11    1    1    2    0    0  0.19701060458E+03 -0.10458639554E+02  0.24681450673E+03  0.31597462270E+03  0.00000000000E+00 0.  1.
         11    1    1    2    0    0  0.15857898345E+03  0.69296680573E+02  0.14171331065E+03  0.22367830996E+03  0.00000000000E+00 0. -1.
</event>
<event>
 7    1  0.2749315E-009  0.3140576E+03  0.7561462E-02  0.1078417E+00
         -2   -1    0    0    0  501 -0.00000000000E+00  0.00000000000E+00  0.90294944370E+02  0.90294944370E+02  0.00000000000E+00 0.  1.
          2   -1    0    0  501    0  0.00000000000E+00 -0.00000000000E+00 -0.11731698778E+04  0.11731698778E+04  0.00000000000E+00 0. -1.
         25    2    1    2    0    0  0.92379315566E+02 -0.28349402315E+03 -0.43970682815E+03  0.54579569310E+03  0.12509214515E+03 0.  0.
          5    1    3    3  502    0  0.48574792072E+02 -0.16354488232E+02 -0.88389454028E+02  0.10226019604E+03  0.41800000000E+01 0. -1.
         -5    1    3    3    0  502  0.43804523494E+02 -0.26713953491E+03 -0.35131737412E+03  0.44353549706E+03  0.41800000000E+01 0. -1.
        -11    1    1    2    0    0 -0.85814169568E+02  0.15403354239E+03 -0.46521448470E+03  0.49750871415E+03  0.00000000000E+00 0.  1.
         11    1    1    2    0    0 -0.65651459972E+01  0.12946048076E+03 -0.17795362055E+03  0.22016041490E+03  0.00000000000E+00 0. -1.
</event>
<event>
 7    1  0.2749315E-009  0.1122733E+03  0.7561462E-02  0.1256417E+00
          1   -1    0    0  501    0  0.00000000000E+00  0.00000000000E+00  0.37919060523E+03  0.37919060523E+03  0.00000000000E+00 0. -1.
         -1   -1    0    0    0  501 -0.00000000000E+00 -0.00000000000E+00 -0.67797756839E+02  0.67797756839E+02  0.00000000000E+00 0.  1.
         25    2    1    2    0    0  0.49999945223E+02  0.61464768430E+02  0.28962963891E+03  0.32528460145E+03  0.12508729723E+03 0.  0.
          5    1    3    3  502    0  0.31829391711E+02 -0.11998902783E+02  0.21906044309E+03  0.22172513158E+03  0.41800000000E+01 0.  1.
         -5    1    3    3    0  502  0.18170553511E+02  0.73463671213E+02  0.70569195812E+02  0.10355946987E+03  0.41800000000E+01 0.  1.
        -11    1    1    2    0    0  0.15220875988E+02 -0.44586103287E+02 -0.84589266004E+01  0.47865949394E+02  0.00000000000E+00 0.  1.
         11    1    1    2    0    0 -0.65220821211E+02 -0.16878665143E+02  0.30222136084E+02  0.73837811221E+02  0.00000000000E+00 0. -1.
</event>
<event>
 7    1  0.2749315E-009  0.1129947E+03  0.7561462E-02  0.1255123E+00
          2   -1    0    0  501    0  0.00000000000E+00  0.00000000000E+00  0.16164398233E+03  0.16164398233E+03  0.00000000000E+00 0. -1.
         -2   -1    0    0    0  501 -0.00000000000E+00 -0.00000000000E+00 -0.11863975439E+03  0.11863975439E+03  0.00000000000E+00 0.  1.
         25    2    1    2    0    0 -0.42879093248E+02  0.57076675233E+02  0.69747729327E+02  0.16002656381E+03  0.12508953547E+03 0.  0.
          5    1    3    3  502    0  0.43837236492E+02  0.98161048070E+01  0.19675374540E+02  0.49220442705E+02  0.41800000000E+01 0.  1.
         -5    1    3    3    0  502 -0.86716329739E+02  0.47260570426E+02  0.50072354787E+02  0.11080612111E+03  0.41800000000E+01 0.  1.
        -11    1    1    2    0    0  0.46609387851E+02 -0.31680611180E+02 -0.57286330804E+02  0.80360561581E+02  0.00000000000E+00 0.  1.
         11    1    1    2    0    0 -0.37302946032E+01 -0.25396064053E+02  0.30542829413E+02  0.39896611331E+02  0.00000000000E+00 0. -1.
</event>
<event>
 7    1  0.2749315E-009  0.6283402E+02  0.7561462E-02  0.1386309E+00
          2   -1    0    0  501    0  0.00000000000E+00  0.00000000000E+00  0.26467359261E+03  0.26467359261E+03  0.00000000000E+00 0. -1.
         -2   -1    0    0    0  501 -0.00000000000E+00 -0.00000000000E+00 -0.52109098932E+02  0.52109098932E+02  0.00000000000E+00 0.  1.
         25    2    1    2    0    0  0.16049495254E+01  0.15888694300E+02  0.66229357467E+02  0.14243724350E+03  0.12508802531E+03 0.  0.
          5    1    3    3  502    0  0.97631144863E+01  0.37166037018E+02 -0.26494929976E+02  0.46862420195E+02  0.41800000000E+01 0.  1.
         -5    1    3    3    0  502 -0.81581649610E+01 -0.21277342718E+02  0.92724287443E+02  0.95574823308E+02  0.41800000000E+01 0.  1.
        -11    1    1    2    0    0  0.42528494926E+01 -0.39393655778E+02  0.14474414326E+03  0.15006936347E+03  0.00000000000E+00 0. -1.
         11    1    1    2    0    0 -0.58577990179E+01  0.23504961479E+02  0.15909929518E+01  0.24276084569E+02  0.00000000000E+00 0.  1.
</event>
<event>
 7    1  0.2749315E-009  0.1036654E+03  0.7561462E-02  0.1272772E+00
          2   -1    0    0  501    0  0.00000000000E+00  0.00000000000E+00  0.67659266464E+03  0.67659266464E+03  0.00000000000E+00 0. -1.
         -2   -1    0    0    0  501 -0.00000000000E+00 -0.00000000000E+00 -0.26066401377E+02  0.26066401377E+02  0.00000000000E+00 0.  1.
         25    2    1    2    0    0 -0.47281358198E+01 -0.47597744528E+02  0.51829268838E+03  0.53531617437E+03  0.12509274624E+03 0.  0.
          5    1    3    3  502    0  0.47878487198E+02 -0.53998419745E+02  0.38657569143E+03  0.39327651402E+03  0.41800000000E+01 0. -1.
         -5    1    3    3    0  502 -0.52606623018E+02  0.64006752170E+01  0.13171699695E+03  0.14203966035E+03  0.41800000000E+01 0. -1.
        -11    1    1    2    0    0 -0.10086755144E+02 -0.14711089078E+02  0.87307743613E+02  0.89111171387E+02  0.00000000000E+00 0. -1.
         11    1    1    2    0    0  0.14814890964E+02  0.62308833605E+02  0.44925831273E+02  0.78231720262E+02  0.00000000000E+00 0.  1.
</event>
<event>
 7    1  0.2749315E-009  0.1490486E+03  0.7561462E-02  0.1201647E+00
          2   -1    0    0  501    0  0.00000000000E+00  0.00000000000E+00  0.10563903129E+04  0.10563903129E+04  0.00000000000E+00 0.  1.
         -2   -1    0    0    0  501 -0.00000000000E+00 -0.00000000000E+00 -0.28564591097E+02  0.28564591097E+02  0.00000000000E+00 0. -1.
         25    2    1    2    0    0  0.11526713747E+03 -0.59411953573E+02  0.45406335258E+03  0.48850056547E+03  0.12507190373E+03 0.  0.
          5    1    3    3  502    0  0.13412648788E+03 -0.62445330590E+02  0.44050578032E+03  0.46470651917E+03  0.41800000000E+01 0. -1.
         -5    1    3    3    0  502 -0.18859350408E+02  0.30333770174E+01  0.13557572261E+02  0.23794046305E+02  0.41800000000E+01 0. -1.
        -11    1    1    2    0    0 -0.88352915911E+02  0.38162872474E+02  0.53936378325E+03  0.54788313833E+03  0.00000000000E+00 0.  1.
         11    1    1    2    0    0 -0.26914221561E+02  0.21249081098E+02  0.34398585924E+02  0.48571200143E+02  0.00000000000E+00 0. -1.
</event>
<event>
 7    1  0.2749315E-009  0.1010409E+03  0.7561462E-02  0.1278122E+00
         -1   -1    0    0    0  501 -0.00000000000E+00  0.00000000000E+00  0.67421033330E+02  0.67421033330E+02  0.00000000000E+00 0.  1.
          1   -1    0    0  501    0  0.00000000000E+00 -0.00000000000E+00 -0.25554281882E+03  0.25554281882E+03  0.00000000000E+00 0. -1.
         25    2    1    2    0    0 -0.65887234200E+02  0.18264174427E+02 -0.13879132636E+03  0.19895745749E+03  0.12508529059E+03 0.  0.
          5    1    3    3  502    0 -0.73188211332E+02  0.26880446775E+02 -0.21413437774E+02  0.80963451100E+02  0.41800000000E+01 0. -1.
         -5    1    3    3    0  502  0.73009771318E+01 -0.86162723477E+01 -0.11737788858E+03  0.11799400639E+03  0.41800000000E+01 0. -1.
        -11    1    1    2    0    0  0.49281853505E+02 -0.53663123889E+02 -0.42395498679E+02  0.84295968223E+02  0.00000000000E+00 0. -1.
         11    1    1    2    0    0  0.16605380695E+02  0.35398949461E+02 -0.69349604513E+01  0.39710426432E+02  0.00000000000E+00 0.  1.
</event>
<event>
 7    1  0.2749315E-009  0.2098109E+03  0.7561462E-02  0.1141716E+00
          2   -1    0    0  501    0  0.00000000000E+00  0.00000000000E+00  0.10001933530E+04  0.10001933530E+04  0.00000000000E+00 0. -1.
         -2   -1    0    0    0  501 -0.00000000000E+00 -0.00000000000E+00 -0.61823709317E+02  0.61823709317E+02  0.00000000000E+00 0.  1.
         25    2    1    2    0    0 -0.16908022978E+03  0.10570966297E+03  0.69137694492E+03  0.73035337240E+03  0.12510520235E+03 0.  0.
          5    1    3    3  502    0 -0.10314175966E+03  0.39021937633E+02  0.18553339850E+03  0.21587276012E+03  0.41800000000E+01 0. -1.
         -5    1    3    3    0  502 -0.65938470116E+02  0.66687725336E+02  0.50584354643E+03  0.51448061228E+03  0.41800000000E+01 0. -1.
        -11    1    1    2    0    0  0.44235063296E+02  0.97979727803E+01  0.87322008007E+02  0.98376187046E+02  0.00000000000E+00 0. -1.
         11    1    1    2    0    0  0.12484516648E+03 -0.11550763575E+03  0.15967069076E+03  0.23328750288E+03  0.00000000000E+00 0.  1.
</event>
<event>
 7    1  0.4143316E-009  0.1510168E+03  0.7561462E-02  0.1199229E+00
          2   -1    0    0  501    0  0.00000000000E+00  0.00000000000E+00  0.18676138352E+04  0.18676138352E+04  0.00000000000E+00 0. -1.
         -2   -1    0    0    0  501 -0.00000000000E+00 -0.00000000000E+00 -0.17031677218E+02  0.17031677218E+02  0.00000000000E+00 0.  1.
         25    2    1    2    0    0 -0.90267629809E+02 -0.78590491703E+02  0.13755992108E+04  0.13864504397E+04  0.12508765882E+03 0.  0.
          5    1    3    3  502    0 -0.46329605930E+01  0.23761265046E+02  0.72926967591E+02  0.76953733129E+02  0.41800000000E+01 0.  1.
         -5    1    3    3    0  502 -0.85634669216E+02 -0.10235175675E+03  0.13026722432E+04  0.13094967065E+04  0.41800000000E+01 0.  1.
        -11    1    1    2    0    0  0.36183694519E+01  0.53665540150E+02  0.11294168685E+03  0.12509559315E+03  0.00000000000E+00 0.  1.
         11    1    1    2    0    0  0.86649260357E+02  0.24924951553E+02  0.36204126026E+03  0.37309947958E+03  0.00000000000E+00 0. -1.
</event>
<event>
 7    1  0.2749315E-009  0.1090981E+03  0.7561462E-02  0.1262249E+00
          2   -1    0    0  501    0  0.00000000000E+00  0.00000000000E+00  0.50969509157E+03  0.50969509157E+03  0.00000000000E+00 0. -1.
         -2   -1    0    0    0  501 -0.00000000000E+00 -0.00000000000E+00 -0.24315657075E+02  0.24315657075E+02  0.00000000000E+00 0.  1.
         25    2    1    2    0    0 -0.52217244653E+01  0.18212491183E+02  0.30928909321E+03  0.33416539106E+03  0.12509118339E+03 0.  0.
          5    1    3    3  502    0 -0.40844665237E+02 -0.40471222609E+02  0.14732219006E+03  0.15820084267E+03  0.41800000000E+01 0.  1.
         -5    1    3    3    0  502  0.35622940772E+02  0.58683713792E+02  0.16196690316E+03  0.17596454839E+03  0.41800000000E+01 0.  1.
        -11    1    1    2    0    0 -0.49335961745E+01 -0.54175001063E+02  0.12691785153E+03  0.13808480057E+03  0.00000000000E+00 0.  1.
         11    1    1    2    0    0  0.10155320640E+02  0.35962509880E+02  0.49172489747E+02  0.61760557009E+02  0.00000000000E+00 0. -1.
</event>
<event>
 7    1  0.2749315E-009  0.2357192E+03  0.7561462E-02  0.1122678E+00
         -1   -1    0    0    0  501 -0.00000000000E+00  0.00000000000E+00  0.24371893605E+03  0.24371893605E+03  0.00000000000E+00 0.  1.
          1   -1    0    0  501    0  0.00000000000E+00 -0.00000000000E+00 -0.25967637438E+03  0.25967637438E+03  0.00000000000E+00 0. -1.
         25    2    1    2    0    0  0.11510269759E+03  0.18184256724E+03 -0.76281554477E+02  0.26034938029E+03  0.12509026345E+03 0.  0.
          5    1    3    3  502    0  0.13583123165E+03  0.15138430947E+03 -0.37807009501E+02  0.20691586457E+03  0.41800000000E+01 0.  1.
         -5    1    3    3    0  502 -0.20728534059E+02  0.30458257773E+02 -0.38474544976E+02  0.53433515718E+02  0.41800000000E+01 0.  1.
        -11    1    1    2    0    0 -0.11958003374E+03 -0.12169817688E+03  0.64944170173E+02  0.18255841795E+03  0.00000000000E+00 0.  1.
         11    1    1    2    0    0  0.44773361469E+01 -0.60144390361E+02 -0.46200540298E+01  0.60487512183E+02  0.00000000000E+00 0. -1.
</event>
<event>
 7    1  0.2749315E-009  0.1020723E+03  0.7561462E-02  0.1275998E+00
          3   -1    0    0  501    0  0.00000000000E+00  0.00000000000E+00  0.29523596969E+02  0.29523596969E+02  0.00000000000E+00 0. -1.
         -3   -1    0    0    0  501 -0.00000000000E+00 -0.00000000000E+00 -0.48540478161E+03  0.48540478161E+03  0.00000000000E+00 0.  1.
         25    2    1    2    0    0  0.37733433728E+01  0.51322622922E+02 -0.25423574374E+03  0.28797715540E+03  0.12508708525E+03 0.  0.
          5    1    3    3  502    0  0.39358866253E+02  0.72616759416E+02 -0.21647633505E+03  0.23173646700E+03  0.41800000000E+01 0.  1.
         -5    1    3    3    0  502 -0.35585522880E+02 -0.21294136494E+02 -0.37759408689E+02  0.56240688405E+02  0.41800000000E+01 0.  1.
        -11    1    1    2    0    0  0.13241040808E+02  0.96982173554E+01 -0.88871099853E+00  0.16436860673E+02  0.00000000000E+00 0. -1.
         11    1    1    2    0    0 -0.17014384181E+02 -0.61020840277E+02 -0.20075672990E+03  0.21051436250E+03  0.00000000000E+00 0.  1.
</event>
<event>
 7    1  0.2749315E-009  0.1175562E+03  0.7561462E-02  0.1247184E+00
         -4   -1    0    0    0  501 -0.00000000000E+00  0.00000000000E+00  0.20143093029E+03  0.20143093029E+03  0.00000000000E+00 0.  1.
          4   -1    0    0  501    0  0.00000000000E+00 -0.00000000000E+00 -0.92397021674E+02  0.92397021674E+02  0.00000000000E+00 0. -1.
         25    2    1    2    0    0 -0.31423069637E+02 -0.75032729317E+02  0.37189654435E+02  0.15377789882E+03  0.12508897631E+03 0.  0.
          5    1    3    3  502    0  0.41001299670E+02 -0.63471351523E+02  0.21301637916E+02  0.78619025793E+02  0.41800000000E+01 0.  1.
         -5    1    3    3    0  502 -0.72424369307E+02 -0.11561377795E+02  0.15888016519E+02  0.75158873029E+02  0.41800000000E+01 0.  1.
        -11    1    1    2    0    0  0.25654336462E+02  0.25728207901E+02  0.81723130903E+02  0.89435763460E+02  0.00000000000E+00 0.  1.
         11    1    1    2    0    0  0.57687331751E+01  0.49304521416E+02 -0.98788767232E+01  0.50614289680E+02  0.00000000000E+00 0. -1.
</event>
<event>
 7    1  0.2749315E-009  0.8366033E+02  0.7561462E-02  0.1318974E+00
          2   -1    0    0  501    0  0.00000000000E+00  0.00000000000E+00  0.10377140302E+03  0.10377140302E+03  0.00000000000E+00 0. -1.
         -2   -1    0    0    0  501 -0.00000000000E+00 -0.00000000000E+00 -0.13031101701E+03  0.13031101701E+03  0.00000000000E+00 0.  1.
         25    2    1    2    0    0  0.22994086112E+02  0.41665197752E+02 -0.21011145737E+02  0.13547725855E+03  0.12509157701E+03 0.  0.
          5    1    3    3  502    0  0.29034702852E+02  0.66300661520E+02 -0.56317265647E+02  0.91803586519E+02  0.41800000000E+01 0.  1.
         -5    1    3    3    0  502 -0.60406167402E+01 -0.24635463768E+02  0.35306119910E+02  0.43673672033E+02  0.41800000000E+01 0.  1.
        -11    1    1    2    0    0 -0.33593687483E+02 -0.90102023589E+01  0.32338080273E+02  0.47491799514E+02  0.00000000000E+00 0. -1.
         11    1    1    2    0    0  0.10599601371E+02 -0.32654995393E+02 -0.37866548531E+02  0.51113361961E+02  0.00000000000E+00 0.  1.
</event>
<event>
 7    1  0.2749315E-009  0.1242739E+03  0.7561462E-02  0.1236208E+00
         -2   -1    0    0    0  501 -0.00000000000E+00  0.00000000000E+00  0.79165616856E+02  0.79165616856E+02  0.00000000000E+00 0.  1.
          2   -1    0    0  501    0  0.00000000000E+00 -0.00000000000E+00 -0.25363774809E+03  0.25363774809E+03  0.00000000000E+00 0. -1.
         25    2    1    2    0    0  0.90261341481E+01 -0.73772685178E+02 -0.15724358973E+03  0.21423608003E+03  0.12509065233E+03 0.  0.
          5    1    3    3  502    0  0.53509663491E+01  0.28274810942E+02 -0.30356253154E+01  0.29236709729E+02  0.41800000000E+01 0. -1.
         -5    1    3    3    0  502  0.36751677990E+01 -0.10204749612E+03 -0.15420796442E+03  0.18499937030E+03  0.41800000000E+01 0. -1.
        -11    1    1    2    0    0 -0.28809767758E+02 -0.10532421614E+02 -0.31662345128E+01  0.30837633896E+02  0.00000000000E+00 0.  1.
         11    1    1    2    0    0  0.19783633610E+02  0.84305106791E+02 -0.14062306989E+02  0.87729651018E+02  0.00000000000E+00 0. -1.
</event>
<event>
 7    1  0.2749315E-009  0.1057182E+03  0.7561462E-02  0.1268711E+00
         -1   -1    0    0    0  501 -0.00000000000E+00  0.00000000000E+00  0.90924004166E+02  0.90924004166E+02  0.00000000000E+00 0.  1.
          1   -1    0    0  501    0  0.00000000000E+00 -0.00000000000E+00 -0.13521725736E+03  0.13521725736E+03  0.00000000000E+00 0. -1.
         25    2    1    2    0    0 -0.67616990003E+01  0.19841935229E+02 -0.43656843662E+02  0.13413965622E+03  0.12509238348E+03 0.  0.
          5    1    3    3  502    0  0.58027665262E+02  0.13632248714E+02 -0.94606602280E+01  0.60498137432E+02  0.41800000000E+01 0.  1.
         -5    1    3    3    0  502 -0.64789364263E+02  0.62096865155E+01 -0.34196183434E+02  0.73641518790E+02  0.41800000000E+01 0.  1.
        -11    1    1    2    0    0 -0.22257067012E+02  0.24733449352E+02 -0.15598703312E+02  0.36748334573E+02  0.00000000000E+00 0. -1.
         11    1    1    2    0    0  0.29018766013E+02 -0.44575384581E+02  0.14962293781E+02  0.55253270733E+02  0.00000000000E+00 0.  1.
</event>
<event>
 7    1  0.2749315E-009  0.2483852E+03  0.7561462E-02  0.1114330E+00
          2   -1    0    0  501    0  0.00000000000E+00  0.00000000000E+00  0.48680211339E+03  0.48680211339E+03  0.00000000000E+00 0. -1.
         -2   -1    0    0    0  501 -0.00000000000E+00 -0.00000000000E+00 -0.14689661271E+03  0.14689661271E+03  0.00000000000E+00 0.  1.
         25    2    1    2    0    0  0.66137626739E+01 -0.23428833824E+03  0.25496181989E+03  0.36822323068E+03  0.12509216889E+03 0.  0.
          5    1    3    3  502    0 -0.45832228222E+02 -0.11269382580E+03  0.69101854432E+02  0.13997510566E+03  0.41800000000E+01 0.  1.
         -5    1    3    3    0  502  0.52445990896E+02 -0.12159451244E+03  0.18585996545E+03  0.22824812502E+03  0.41800000000E+01 0.  1.
        -11    1    1    2    0    0 -0.21100737226E+02  0.24792072604E+02 -0.11317948370E+02  0.34467142771E+02  0.00000000000E+00 0.  1.
         11    1    1    2    0    0  0.14486974552E+02  0.20949626564E+03  0.96261629167E+02  0.23100835266E+03  0.00000000000E+00 0. -1.
</event>
<event>
 7    1  0.2749315E-009  0.1099387E+03  0.7561462E-02  0.1260683E+00
         -2   -1    0    0    0  501 -0.00000000000E+00  0.00000000000E+00  0.17354173162E+02  0.17354173162E+02  0.00000000000E+00 0.  1.
          2   -1    0    0  501    0  0.00000000000E+00 -0.00000000000E+00 -0.96288646055E+03  0.96288646055E+03  0.00000000000E+00 0. -1.
         25    2    1    2    0    0 -0.19400411859E+02 -0.29351232618E+02 -0.75226034025E+03  0.76340157065E+03  0.12509383567E+03 0.  0.
          5    1    3    3  502    0  0.27460164321E+02 -0.60962845804E+02 -0.52134196399E+03  0.52562861890E+03  0.41800000000E+01 0. -1.
         -5    1    3    3    0  502 -0.46860576180E+02  0.31611613186E+02 -0.23091837626E+03  0.23777295175E+03  0.41800000000E+01 0. -1.
        -11    1    1    2    0    0  0.40550197808E+02  0.51520735507E+02 -0.15109980973E+03  0.16471143624E+03  0.00000000000E+00 0.  1.
         11    1    1    2    0    0 -0.21149785949E+02 -0.22169502889E+02 -0.42172137407E+02  0.52127626816E+02  0.00000000000E+00 0. -1.
</event>
<event>
 7    1  0.3419039E-009  0.9358647E+02  0.7561462E-02  0.1294392E+00
         -1   -1    0    0    0  501 -0.00000000000E+00  0.00000000000E+00  0.77557583925E+02  0.77557583925E+02  0.00000000000E+00 0.  1.
          1   -1    0    0  501    0  0.00000000000E+00 -0.00000000000E+00 -0.17249478771E+03  0.17249478771E+03  0.00000000000E+00 0. -1.
         25    2    1    2    0    0 -0.22494891913E+02 -0.33238660777E+02 -0.57958400570E+02  0.14358912051E+03  0.12509128907E+03 0.  0.
          5    1    3    3  502    0 -0.41906909796E+02  0.93367864875E+01 -0.80616366459E+02  0.91432136646E+02  0.41800000000E+01 0.  1.
         -5    1    3    3    0  502  0.19412017883E+02 -0.42575447264E+02  0.22657965889E+02  0.52156983869E+02  0.41800000000E+01 0.  1.
        -11    1    1    2    0    0 -0.34175336649E+02  0.84621962834E+01 -0.16754147751E+01  0.35247261109E+02  0.00000000000E+00 0.  1.
         11    1    1    2    0    0  0.56670228562E+02  0.24776464494E+02 -0.35303388440E+02  0.71215990012E+02  0.00000000000E+00 0. -1.
</event>
<event>
 7    1  0.2749315E-009  0.1569363E+03  0.7561462E-02  0.1192200E+00
         -1   -1    0    0    0  501 -0.00000000000E+00  0.00000000000E+00  0.11371311763E+03  0.11371311763E+03  0.00000000000E+00 0.  1.
          1   -1    0    0  501    0  0.00000000000E+00 -0.00000000000E+00 -0.24021236251E+03  0.24021236251E+03  0.00000000000E+00 0. -1.
         25    2    1    2    0    0  0.39455409372E+02 -0.11066493781E+03 -0.11186699999E+03  0.20485322415E+03  0.12508860847E+03 0.  0.
          5    1    3    3  502    0 -0.26783785198E+02 -0.96825863017E+02 -0.46887116919E+02  0.11094364800E+03  0.41800000000E+01 0.  1.
         -5    1    3    3    0  502  0.66239194570E+02 -0.13839074788E+02 -0.64979883071E+02  0.93909576148E+02  0.41800000000E+01 0.  1.
        -11    1    1    2    0    0 -0.16559461641E+02  0.11975228928E+03 -0.95298277972E+00  0.12089555300E+03  0.00000000000E+00 0. -1.
         11    1    1    2    0    0 -0.22895947731E+02 -0.90873514779E+01 -0.13679262112E+02  0.28176702988E+02  0.00000000000E+00 0.  1.
</event>
<event>
 7    1  0.2749315E-009  0.1032977E+03  0.7561462E-02  0.1273510E+00
          2   -1    0    0  501    0  0.00000000000E+00  0.00000000000E+00  0.33519236738E+03  0.33519236738E+03  0.00000000000E+00 0.  1.
         -2   -1    0    0    0  501 -0.00000000000E+00 -0.00000000000E+00 -0.53933100506E+02  0.53933100506E+02  0.00000000000E+00 0. -1.
         25    2    1    2    0    0 -0.23503256797E+02 -0.47598614606E+02  0.68128852240E+02  0.15201070750E+03  0.12509070107E+03 0.  0.
          5    1    3    3  502    0 -0.42666138072E+02 -0.71461382593E+02  0.83098304720E+02  0.11768572211E+03  0.41800000000E+01 0. -1.
         -5    1    3    3    0  502  0.19162881276E+02  0.23862767988E+02 -0.14969452480E+02  0.34324985395E+02  0.41800000000E+01 0. -1.
        -11    1    1    2    0    0 -0.27810732182E+02  0.18135842474E+02  0.13548073883E+03  0.13948969926E+03  0.00000000000E+00 0.  1.
         11    1    1    2    0    0  0.51313988978E+02  0.29462772132E+02  0.77649675808E+02  0.97625061125E+02  0.00000000000E+00 0. -1.
</event>
<event>
 7    1  0.2749315E-009  0.1629083E+03  0.7561462E-02  0.1185452E+00
         -3   -1    0    0    0  501 -0.00000000000E+00  0.00000000000E+00  0.61300685524E+03  0.61300685524E+03  0.00000000000E+00 0.  1.
          3   -1    0    0  501    0  0.00000000000E+00 -0.00000000000E+00 -0.54460351550E+02  0.54460351550E+02  0.00000000000E+00 0. -1.
         25    2    1    2    0    0 -0.84994946851E+02  0.11017486936E+03  0.20857527655E+03  0.28020315546E+03  0.12509004561E+03 0.  0.
          5    1    3    3  502    0  0.11498761396E+02 -0.90547945812E+01  0.75730897093E+02  0.77245401112E+02  0.41800000000E+01 0.  1.
         -5    1    3    3    0  502 -0.96493708246E+02  0.11922966394E+03  0.13284437946E+03  0.20295775434E+03  0.41800000000E+01 0.  1.
        -11    1    1    2    0    0  0.55704473299E+02 -0.15164922745E+02  0.19305229999E+03  0.20149976119E+03  0.00000000000E+00 0. -1.
         11    1    1    2    0    0  0.29290473551E+02 -0.95009946612E+02  0.15691892715E+03  0.18576429015E+03  0.00000000000E+00 0.  1.
</event>
<event>
 7    1  0.2749315E-009  0.1092694E+03  0.7561462E-02  0.1261929E+00
         -2   -1    0    0    0  501 -0.00000000000E+00  0.00000000000E+00  0.31120204544E+02  0.31120204544E+02  0.00000000000E+00 0.  1.
          2   -1    0    0  501    0  0.00000000000E+00 -0.00000000000E+00 -0.48834064459E+03  0.48834064459E+03  0.00000000000E+00 0. -1.
         25    2    1    2    0    0  0.34483854230E+02  0.37888333826E+02 -0.31955993922E+03  0.34697366882E+03  0.12509000781E+03 0.  0.
          5    1    3    3  502    0  0.16853057640E+02 -0.43682471432E+02 -0.16128847233E+03  0.16799889157E+03  0.41800000000E+01 0.  1.
         -5    1    3    3    0  502  0.17630796590E+02  0.81570805258E+02 -0.15827146689E+03  0.17897477725E+03  0.41800000000E+01 0.  1.
        -11    1    1    2    0    0  0.20060154377E+02 -0.24768526617E+02 -0.10593774883E+02  0.33587464487E+02  0.00000000000E+00 0.  1.
         11    1    1    2    0    0 -0.54544008607E+02 -0.13119807210E+02 -0.12706672594E+03  0.13889971583E+03  0.00000000000E+00 0. -1.
</event>
<event>
 7    1  0.2749315E-009  0.8023957E+02  0.7561462E-02  0.1328373E+00
          2   -1    0    0  501    0  0.00000000000E+00  0.00000000000E+00  0.29922411773E+02  0.29922411773E+02  0.00000000000E+00 0. -1.
         -2   -1    0    0    0  501 -0.00000000000E+00 -0.00000000000E+00 -0.57944298673E+03  0.57944298673E+03  0.00000000000E+00 0.  1.
         25    2    1    2    0    0 -0.95802186991E+01 -0.42043362796E+02 -0.44593313616E+03  0.46514812912E+03  0.12508794966E+03 0.  0.
          5    1    3    3  502    0  0.28873586990E+02 -0.22390224257E+02 -0.40101478784E+03  0.40269757714E+03  0.41800000000E+01 0.  1.
         -5    1    3    3    0  502 -0.38453805690E+02 -0.19653138539E+02 -0.44918348315E+02  0.62450551973E+02  0.41800000000E+01 0.  1.
        -11    1    1    2    0    0 -0.55876449841E+01  0.58018806199E+02 -0.10707710301E+03  0.12191353345E+03  0.00000000000E+00 0.  1.
         11    1    1    2    0    0  0.15167863683E+02 -0.15975443403E+02  0.34896642059E+01  0.22303735941E+02  0.00000000000E+00 0. -1.
</event>
<event>
 7    1  0.2749315E-009  0.7157015E+02  0.7561462E-02  0.1354834E+00
         -2   -1    0    0    0  501 -0.00000000000E+00  0.00000000000E+00  0.94715862486E+02  0.94715862486E+02  0.00000000000E+00 0.  1.
          2   -1    0    0  501    0  0.00000000000E+00 -0.00000000000E+00 -0.17332751806E+03  0.17332751806E+03  0.00000000000E+00 0. -1.
         25    2    1    2    0    0 -0.13640775239E+02  0.51375105190E+02 -0.89367307525E+02  0.16266853759E+03  0.12509622410E+03 0.  0.
          5    1    3    3  502    0 -0.18779159136E+02  0.66500515593E-01  0.28248462224E+02  0.34177613407E+02  0.41800000000E+01 0.  1.
         -5    1    3    3    0  502  0.51383838973E+01  0.51308604674E+02 -0.11761576975E+03  0.12849092418E+03  0.41800000000E+01 0.  1.
        -11    1    1    2    0    0  0.60774731941E-01 -0.57336250389E+02  0.41809594572E+02  0.70961197147E+02  0.00000000000E+00 0.  1.
         11    1    1    2    0    0  0.13580000507E+02  0.59611451989E+01 -0.31053942622E+02  0.34413645815E+02  0.00000000000E+00 0. -1.
</event>
<event>
 7    1  0.2749315E-009  0.1120232E+03  0.7561462E-02  0.1256869E+00
         -2   -1    0    0    0  501 -0.00000000000E+00  0.00000000000E+00  0.15232261011E+03  0.15232261011E+03  0.00000000000E+00 0.  1.
          2   -1    0    0  501    0  0.00000000000E+00 -0.00000000000E+00 -0.15719954204E+03  0.15719954204E+03  0.00000000000E+00 0. -1.
         25    2    1    2    0    0 -0.23960731392E+02  0.21780979263E+02 -0.10643815202E+03  0.16740679959E+03  0.12508968238E+03 0.  0.
          5    1    3    3  502    0  0.30323510760E+02 -0.34645543130E+02 -0.61806404232E+02  0.77183761036E+02  0.41800000000E+01 0. -1.
         -5    1    3    3    0  502 -0.54284242151E+02  0.56426522394E+02 -0.44631747786E+02  0.90223038553E+02  0.41800000000E+01 0. -1.
        -11    1    1    2    0    0  0.38947911819E+02  0.27641652109E+02  0.48172763810E+02  0.67835211649E+02  0.00000000000E+00 0.  1.
         11    1    1    2    0    0 -0.14987180427E+02 -0.49422631372E+02  0.53388456283E+02  0.74280140907E+02  0.00000000000E+00 0. -1.
</event>
<event>
 7    1  0.2749315E-009  0.1143827E+03  0.7561462E-02  0.1252662E+00
         -2   -1    0    0    0  501 -0.00000000000E+00  0.00000000000E+00  0.63527433436E+02  0.63527433436E+02  0.00000000000E+00 0.  1.
          2   -1    0    0  501    0  0.00000000000E+00 -0.00000000000E+00 -0.44724478356E+03  0.44724478356E+03  0.00000000000E+00 0. -1.
         25    2    1    2    0    0  0.45216001691E+02  0.74611634407E+02 -0.34197109381E+03  0.37444026844E+03  0.12509957168E+03 0.  0.
          5    1    3    3  502    0  0.44878155783E+02  0.83133828521E+02 -0.12245622890E+03  0.15472001392E+03  0.41800000000E+01 0.  1.
         -5    1    3    3    0  502  0.33784590782E+00 -0.85221941135E+01 -0.21951486491E+03  0.21972025453E+03  0.41800000000E+01 0.  1.
        -11    1    1    2    0    0  0.18883672721E+02 -0.54254059022E+02 -0.38191704724E+02  0.68983348176E+02  0.00000000000E+00 0. -1.
         11    1    1    2    0    0 -0.64099674412E+02 -0.20357575385E+02 -0.35545515901E+01  0.67348600374E+02  0.00000000000E+00 0.  1.
</event>
<event>
 7    1  0.2749315E-009  0.8173863E+02  0.7561462E-02  0.1324189E+00
         -1   -1    0    0    0  501 -0.00000000000E+00  0.00000000000E+00  0.45088773990E+02  0.45088773990E+02  0.00000000000E+00 0.  1.
          1   -1    0    0  501    0  0.00000000000E+00 -0.00000000000E+00 -0.30792666487E+03  0.30792666487E+03  0.00000000000E+00 0. -1.
         25    2    1    2    0    0  0.35483108044E+02  0.26220943532E+02 -0.15785078697E+03  0.20618013796E+03  0.12508712766E+03 0.  0.
          5    1    3    3  502    0  0.62450714979E+02  0.17038817176E+02 -0.23838739222E+02  0.69109847198E+02  0.41800000000E+01 0. -1.
         -5    1    3    3    0  502 -0.26967606935E+02  0.91821263560E+01 -0.13401204775E+03  0.13707029076E+03  0.41800000000E+01 0. -1.
        -11    1    1    2    0    0  0.13709997678E+02 -0.12962199797E+02  0.97916417658E+01  0.21256973170E+02  0.00000000000E+00 0.  1.
         11    1    1    2    0    0 -0.49193105722E+02 -0.13258743735E+02 -0.11477874568E+03  0.12557832773E+03  0.00000000000E+00 0. -1.
</event>
<event>
 7    1  0.2749315E-009  0.1523083E+03  0.7561462E-02  0.1197665E+00
          3   -1    0    0  501    0  0.00000000000E+00  0.00000000000E+00  0.35628119509E+03  0.35628119509E+03  0.00000000000E+00 0. -1.
         -3   -1    0    0    0  501 -0.00000000000E+00 -0.00000000000E+00 -0.98252169563E+02  0.98252169563E+02  0.00000000000E+00 0.  1.
         25    2    1    2    0    0  0.10771587156E+03 -0.83791591171E+02  0.21561178684E+03  0.28417930241E+03  0.12508274683E+03 0.  0.
          5    1    3    3  502    0  0.59925102473E+02  0.10082777733E+02  0.14505464386E+03  0.15732451309E+03  0.41800000000E+01 0. -1.
         -5    1    3    3    0  502  0.47790769088E+02 -0.93874368904E+02  0.70557142982E+02  0.12685478932E+03  0.41800000000E+01 0. -1.
        -11    1    1    2    0    0 -0.22875781573E+02  0.30383804895E+02 -0.28524997283E+02  0.47541060700E+02  0.00000000000E+00 0.  1.
         11    1    1    2    0    0 -0.84840089988E+02  0.53407786275E+02  0.70942235964E+02  0.12281300154E+03  0.00000000000E+00 0. -1.
</event>
<event>
 7    1  0.2749315E-009  0.1318494E+03  0.7561462E-02  0.1224737E+00
          3   -1    0    0  501    0  0.00000000000E+00  0.00000000000E+00  0.33329871786E+02  0.33329871786E+02  0.00000000000E+00 0. -1.
         -3   -1    0    0    0  501 -0.00000000000E+00 -0.00000000000E+00 -0.67393237258E+03  0.67393237258E+03  0.00000000000E+00 0.  1.
         25    2    1    2    0    0 -0.85272730322E+02  0.41825825686E+02 -0.43723505231E+03  0.46458910947E+03  0.12509081274E+03 0.  0.
          5    1    3    3  502    0 -0.78206319236E+02 -0.99593719011E+01 -0.12402460964E+03  0.14702038516E+03  0.41800000000E+01 0. -1.
         -5    1    3    3    0  502 -0.70664110859E+01  0.51785197587E+02 -0.31321044268E+03  0.31756872430E+03  0.41800000000E+01 0. -1.
        -11    1    1    2    0    0 -0.20076040056E+02 -0.87407056152E+01 -0.37073333170E+02  0.43056699262E+02  0.00000000000E+00 0. -1.
         11    1    1    2    0    0  0.10534877038E+03 -0.33085120071E+02 -0.16629411531E+03  0.19961643564E+03  0.00000000000E+00 0.  1.
</event>
<event>
 7    1  0.2813771E-009  0.1294116E+03  0.7561462E-02  0.1228331E+00
         -1   -1    0    0    0  501 -0.00000000000E+00  0.00000000000E+00  0.11581401990E+03  0.11581401990E+03  0.00000000000E+00 0.  1.
          1   -1    0    0  501    0  0.00000000000E+00 -0.00000000000E+00 -0.21553615793E+03  0.21553615793E+03  0.00000000000E+00 0. -1.
         25    2    1    2    0    0  0.91537145100E+02 -0.40280585907E+02  0.38582093462E+01  0.16019804362E+03  0.12508778065E+03 0.  0.
          5    1    3    3  502    0  0.38353194292E+02 -0.70163655002E+02 -0.35384797539E+02  0.87541203398E+02  0.41800000000E+01 0. -1.
         -5    1    3    3    0  502  0.53183950808E+02  0.29883069095E+02  0.39243006885E+02  0.72656840225E+02  0.41800000000E+01 0. -1.
        -11    1    1    2    0    0 -0.73831130478E+02  0.24829158392E+00 -0.19505526042E+02  0.76364671299E+02  0.00000000000E+00 0.  1.
         11    1    1    2    0    0 -0.17706014621E+02  0.40032294323E+02 -0.84074821332E+02  0.94787462908E+02  0.00000000000E+00 0. -1.
</event>
<event>
 7    1  0.2749315E-009  0.9690716E+02  0.7561462E-02  0.1286938E+00
          3   -1    0    0  501    0  0.00000000000E+00  0.00000000000E+00  0.21071632298E+03  0.21071632298E+03  0.00000000000E+00 0. -1.
         -3   -1    0    0    0  501 -0.00000000000E+00 -0.00000000000E+00 -0.79073978649E+02  0.79073978649E+02  0.00000000000E+00 0.  1.
         25    2    1    2    0    0 -0.67057732269E+02  0.17601047632E+02  0.72629397945E+02  0.16040530343E+03  0.12509314765E+03 0.  0.
          5    1    3    3  502    0  0.11534846517E+02  0.33309600838E+02  0.71855825849E+02  0.80145581916E+02  0.41800000000E+01 0. -1.
         -5    1    3    3    0  502 -0.78592578786E+02 -0.15708553206E+02  0.77357209563E+00  0.80259721516E+02  0.41800000000E+01 0. -1.
        -11    1    1    2    0    0  0.38464842424E+02  0.84479067170E+01 -0.17926755058E+02  0.43269848365E+02  0.00000000000E+00 0.  1.
         11    1    1    2    0    0  0.28592889845E+02 -0.26048954349E+02  0.76939701445E+02  0.86115149833E+02  0.00000000000E+00 0. -1.
</event>
<event>
 7    1  0.2749315E-009  0.1003790E+03  0.7561462E-02  0.1279501E+00
          1   -1    0    0  501    0  0.00000000000E+00  0.00000000000E+00  0.10847407906E+03  0.10847407906E+03  0.00000000000E+00 0. -1.
         -1   -1    0    0    0  501 -0.00000000000E+00 -0.00000000000E+00 -0.11710950185E+03  0.11710950185E+03  0.00000000000E+00 0.  1.
         25    2    1    2    0    0 -0.78154533121E+00  0.81761286344E+01 -0.31515884298E+02  0.12926424653E+03  0.12509410288E+03 0.  0.
          5    1    3    3  502    0 -0.33073565014E+02 -0.39312035790E+02  0.16680661758E+02  0.54175767068E+02  0.41800000000E+01 0. -1.
         -5    1    3    3    0  502  0.32292019683E+02  0.47488164425E+02 -0.48196546056E+02  0.75088479458E+02  0.41800000000E+01 0. -1.
        -11    1    1    2    0    0 -0.39888577272E+02 -0.25592142819E+02  0.20979804214E+01  0.47438991270E+02  0.00000000000E+00 0.  1.
         11    1    1    2    0    0  0.40670122603E+02  0.17416014185E+02  0.20782481087E+02  0.48880343112E+02  0.00000000000E+00 0. -1.
</event>
<event>
 7    1  0.2749315E-009  0.1291765E+03  0.7561462E-02  0.1228683E+00
         -2   -1    0    0    0  501 -0.00000000000E+00  0.00000000000E+00  0.10963984072E+03  0.10963984072E+03  0.00000000000E+00 0.  1.
          2   -1    0    0  501    0  0.00000000000E+00 -0.00000000000E+00 -0.15939310850E+03  0.15939310850E+03  0.00000000000E+00 0. -1.
         25    2    1    2    0    0 -0.26430793153E+02 -0.68419031648E+02 -0.48381600732E+02  0.15286393146E+03  0.12508737560E+03 0.  0.
          5    1    3    3  502    0  0.48922988539E+02 -0.18806260669E+02 -0.54449886692E+01  0.52860708940E+02  0.41800000000E+01 0.  1.
         -5    1    3    3    0  502 -0.75353781692E+02 -0.49612770979E+02 -0.42936612063E+02  0.10000322252E+03  0.41800000000E+01 0.  1.
        -11    1    1    2    0    0 -0.40364728646E+01  0.82000352875E+02  0.48240648470E+01  0.82241246260E+02  0.00000000000E+00 0. -1.
         11    1    1    2    0    0  0.30467266017E+02 -0.13581321226E+02 -0.61957318936E+01  0.33927771493E+02  0.00000000000E+00 0.  1.
</event>
<event>
 7    1  0.2749315E-009  0.8541772E+02  0.7561462E-02  0.1314344E+00
         -2   -1    0    0    0  501 -0.00000000000E+00  0.00000000000E+00  0.48279115088E+02  0.48279115088E+02  0.00000000000E+00 0.  1.
          2   -1    0    0  501    0  0.00000000000E+00 -0.00000000000E+00 -0.29693755351E+03  0.29693755351E+03  0.00000000000E+00 0. -1.
         25    2    1    2    0    0 -0.40158580718E+02  0.14957411081E+02 -0.18059188358E+03  0.22382232266E+03  0.12508624207E+03 0.  0.
          5    1    3    3  502    0 -0.36117153495E+02 -0.39443032922E+02 -0.25563974216E+02  0.59423823508E+02  0.41800000000E+01 0. -1.
         -5    1    3    3    0  502 -0.40414272233E+01  0.54400444003E+02 -0.15502790937E+03  0.16439849915E+03  0.41800000000E+01 0. -1.
        -11    1    1    2    0    0  0.49212410199E+02 -0.57150221647E+01  0.25438384683E+01  0.49608405639E+02  0.00000000000E+00 0.  1.
         11    1    1    2    0    0 -0.90538294811E+01 -0.92423889164E+01 -0.70610393305E+02  0.71785940293E+02  0.00000000000E+00 0. -1.
</event>
<event>
 7    1  0.2749315E-009  0.2651380E+03  0.7561462E-02  0.1104095E+00
         -1   -1    0    0    0  501 -0.00000000000E+00  0.00000000000E+00  0.13325896867E+03  0.13325896867E+03  0.00000000000E+00 0.  1.
          1   -1    0    0  501    0  0.00000000000E+00 -0.00000000000E+00 -0.60612243567E+03  0.60612243567E+03  0.00000000000E+00 0. -1.
         25    2    1    2    0    0 -0.24260714077E+03 -0.72545397156E+02 -0.15325987015E+03  0.32133712540E+03  0.12509157030E+03 0.  0.
          5    1    3    3  502    0 -0.67875735441E+02  0.28622655872E+02 -0.11675548425E+02  0.74700486758E+02  0.41800000000E+01 0.  1.
         -5    1    3    3    0  502 -0.17473140533E+03 -0.10116805303E+03 -0.14158432173E+03  0.24663663865E+03  0.41800000000E+01 0.  1.
        -11    1    1    2    0    0  0.11717856097E+03  0.21540979387E+02 -0.21916952528E+03  0.24945963552E+03  0.00000000000E+00 0. -1.
         11    1    1    2    0    0  0.12542857981E+03  0.51004417770E+02 -0.10043407157E+03  0.16858464342E+03  0.00000000000E+00 0.  1.
</event>
<event>
 7    1  0.2749315E-009  0.2580246E+03  0.7561462E-02  0.1108336E+00
         -2   -1    0    0    0  501 -0.00000000000E+00  0.00000000000E+00  0.85105046267E+02  0.85105046267E+02  0.00000000000E+00 0.  1.
          2   -1    0    0  501    0  0.00000000000E+00 -0.00000000000E+00 -0.86859582895E+03  0.86859582895E+03  0.00000000000E+00 0. -1.
         25    2    1    2    0    0  0.18759882295E+02  0.24283934810E+03 -0.30509495564E+03  0.40994277504E+03  0.12508902704E+03 0.  0.
          5    1    3    3  502    0 -0.33218512700E+02  0.20158171280E+03 -0.25452868960E+03  0.32640616224E+03  0.41800000000E+01 0. -1.
         -5    1    3    3    0  502  0.51978394995E+02  0.41257635293E+02 -0.50566266040E+02  0.83536612797E+02  0.41800000000E+01 0. -1.
        -11    1    1    2    0    0 -0.24430882174E+02 -0.13290798985E+03 -0.17562412087E+03  0.22159700721E+03  0.00000000000E+00 0.  1.
         11    1    1    2    0    0  0.56709998787E+01 -0.10993135824E+03 -0.30277170617E+03  0.32216109296E+03  0.00000000000E+00 0. -1.
</event>
<event>
 7    1  0.2749315E-009  0.1103288E+03  0.7561462E-02  0.1259962E+00
          2   -1    0    0  501    0  0.00000000000E+00  0.00000000000E+00  0.17192117755E+03  0.17192117755E+03  0.00000000000E+00 0. -1.
         -2   -1    0    0    0  501 -0.00000000000E+00 -0.00000000000E+00 -0.11255677465E+03  0.11255677465E+03  0.00000000000E+00 0.  1.
         25    2    1    2    0    0 -0.85254486665E+02  0.88600214497E+01  0.16745891640E+02  0.15256418342E+03  0.12509427524E+03 0.  0.
          5    1    3    3  502    0  0.14715591663E+02 -0.19586039051E+02  0.38945384051E+02  0.46199317123E+02  0.41800000000E+01 0. -1.
         -5    1    3    3    0  502 -0.99970078328E+02  0.28446060501E+02 -0.22199492412E+02  0.10636486630E+03  0.41800000000E+01 0. -1.
        -11    1    1    2    0    0  0.36874782335E+02 -0.20265895024E+02 -0.24273036732E+02  0.48576088620E+02  0.00000000000E+00 0.  1.
         11    1    1    2    0    0  0.48379704330E+02  0.11405873574E+02  0.66891547993E+02  0.83337680169E+02  0.00000000000E+00 0. -1.
</event>
<event>
 7    1  0.2749315E-009  0.3068195E+03  0.7561462E-02  0.1081880E+00
          1   -1    0    0  501    0  0.00000000000E+00  0.00000000000E+00  0.13348473855E+04  0.13348473855E+04  0.00000000000E+00 0. -1.
         -1   -1    0    0    0  501 -0.00000000000E+00 -0.00000000000E+00 -0.76763229074E+02  0.76763229074E+02  0.00000000000E+00 0.  1.
         25    2    1    2    0    0 -0.25865849418E+03 -0.14786078327E+03  0.64825839921E+03  0.72432880627E+03  0.12508492960E+03 0.  0.
          5    1    3    3  502    0 -0.20528143728E+03 -0.75539607924E+02  0.54552458605E+03  0.58775951480E+03  0.41800000000E+01 0.  1.
         -5    1    3    3    0  502 -0.53377056907E+02 -0.72321175346E+02  0.10273381316E+03  0.13656929147E+03  0.41800000000E+01 0.  1.
        -11    1    1    2    0    0  0.21776283266E+03  0.14917895543E+03  0.44449446545E+03  0.51696261166E+03  0.00000000000E+00 0.  1.
         11    1    1    2    0    0  0.40895661522E+02 -0.13181721561E+01  0.16533129178E+03  0.17031919666E+03  0.00000000000E+00 0. -1.
</event>
<event>
 7    1  0.2749315E-009  0.9332895E+02  0.7561462E-02  0.1294985E+00
          1   -1    0    0  501    0  0.00000000000E+00  0.00000000000E+00  0.22064753021E+03  0.22064753021E+03  0.00000000000E+00 0. -1.
         -1   -1    0    0    0  501 -0.00000000000E+00 -0.00000000000E+00 -0.67296895115E+02  0.67296895115E+02  0.00000000000E+00 0.  1.
         25    2    1    2    0    0 -0.29296192731E+02  0.42332146692E+02  0.11327427461E+03  0.17643456446E+03  0.12509123349E+03 0.  0.
          5    1    3    3  502    0 -0.64919928805E+01  0.62165466298E+02  0.37668105534E+01  0.62756293974E+02  0.41800000000E+01 0. -1.
         -5    1    3    3    0  502 -0.22804199850E+02 -0.19833319606E+02  0.10950746406E+03  0.11367827049E+03  0.41800000000E+01 0. -1.
        -11    1    1    2    0    0 -0.12480971266E+02 -0.49559527322E+02 -0.28357935946E+01  0.51185575287E+02  0.00000000000E+00 0.  1.
         11    1    1    2    0    0  0.41777163997E+02  0.72273806305E+01  0.42912154081E+02  0.60324285576E+02  0.00000000000E+00 0. -1.
</event>
<event>
 7    1  0.2749315E-009  0.1053220E+03  0.7561462E-02  0.1269486E+00
          1   -1    0    0  501    0  0.00000000000E+00  0.00000000000E+00  0.54126700414E+03  0.54126700414E+03  0.00000000000E+00 0. -1.
         -1   -1    0    0    0  501 -0.00000000000E+00 -0.00000000000E+00 -0.45152268774E+02  0.45152268774E+02  0.00000000000E+00 0.  1.
         25    2    1    2    0    0  0.86299386763E+02 -0.53670390094E+02  0.17627000447E+03  0.23884480098E+03  0.12509048545E+03 0.  0.
          5    1    3    3  502    0  0.15055578440E+02 -0.61463668268E+01  0.14742917706E+03  0.14838221900E+03  0.41800000000E+01 0. -1.
         -5    1    3    3    0  502  0.71243808323E+02 -0.47524023267E+02  0.28840827406E+02  0.90462581973E+02  0.41800000000E+01 0. -1.
        -11    1    1    2    0    0 -0.85712969466E+02  0.40275475901E+02  0.32045185711E+03  0.33415298864E+03  0.00000000000E+00 0. -1.
         11    1    1    2    0    0 -0.58641729659E+00  0.13394914194E+02 -0.60712621405E+00  0.13421483291E+02  0.00000000000E+00 0.  1.
</event>
<event>
 7    1  0.2749315E-009  0.1115368E+03  0.7561462E-02  0.1257750E+00
         -2   -1    0    0    0  501 -0.00000000000E+00  0.00000000000E+00  0.10898119351E+02  0.10898119351E+02  0.00000000000E+00 0. -1.
          2   -1    0    0  501    0  0.00000000000E+00 -0.00000000000E+00 -0.11757370616E+04  0.11757370616E+04  0.00000000000E+00 0.  1.
         25    2    1    2    0    0  0.62289586065E+01  0.31387219963E+02 -0.65971601079E+03  0.67223254123E+03  0.12508963624E+03 0.  0.
          5    1    3    3  502    0 -0.11256610397E+02 -0.45392764547E+02 -0.17720448518E+03  0.18331971067E+03  0.41800000000E+01 0. -1.
         -5    1    3    3    0  502  0.17485569003E+02  0.76779984510E+02 -0.48251152561E+03  0.48891283056E+03  0.41800000000E+01 0. -1.
        -11    1    1    2    0    0  0.38393220561E+02 -0.35708148338E+02 -0.27470635146E+03  0.27966531922E+03  0.00000000000E+00 0. -1.
         11    1    1    2    0    0 -0.44622179168E+02  0.43209283747E+01 -0.23041657996E+03  0.23473732046E+03  0.00000000000E+00 0.  1.
</event>
<event>
 7    1  0.2749315E-009  0.1200954E+03  0.7561462E-02  0.1242940E+00
          1   -1    0    0  501    0  0.00000000000E+00  0.00000000000E+00  0.66400700503E+02  0.66400700503E+02  0.00000000000E+00 0. -1.
         -1   -1    0    0    0  501 -0.00000000000E+00 -0.00000000000E+00 -0.22356058542E+03  0.22356058542E+03  0.00000000000E+00 0.  1.
         25    2    1    2    0    0  0.19285785914E+02 -0.50226311192E+02 -0.65289005331E+02  0.15101293542E+03  0.12509048154E+03 0.  0.
          5    1    3    3  502    0 -0.61698963310E+01 -0.89131065321E+02 -0.40996642496E+02  0.98390098698E+02  0.41800000000E+01 0.  1.
         -5    1    3    3    0  502  0.25455682245E+02  0.38904754129E+02 -0.24292362835E+02  0.52622836721E+02  0.41800000000E+01 0.  1.
        -11    1    1    2    0    0 -0.55215422557E+02  0.30227864207E+02 -0.59456663798E+02  0.86588460736E+02  0.00000000000E+00 0. -1.
         11    1    1    2    0    0  0.35929636643E+02  0.19998446985E+02 -0.32414215784E+02  0.52359889763E+02  0.00000000000E+00 0.  1.
</event>
<event>
 7    1  0.2749315E-009  0.1120384E+03  0.7561462E-02  0.1256841E+00
         -1   -1    0    0    0  501 -0.00000000000E+00  0.00000000000E+00  0.20631300870E+03  0.20631300870E+03  0.00000000000E+00 0.  1.
          1   -1    0    0  501    0  0.00000000000E+00 -0.00000000000E+00 -0.85742775774E+02  0.85742775774E+02  0.00000000000E+00 0. -1.
         25    2    1    2    0    0 -0.50589629426E+02 -0.24217678900E+02  0.11364730126E+02  0.13756182883E+03  0.12509313764E+03 0.  0.
          5    1    3    3  502    0 -0.65881278346E+01 -0.69212991169E+02  0.23149185561E+02  0.73397539244E+02  0.41800000000E+01 0. -1.
         -5    1    3    3    0  502 -0.44001501591E+02  0.44995312268E+02 -0.11784455435E+02  0.64164289588E+02  0.41800000000E+01 0. -1.
        -11    1    1    2    0    0  0.62599519205E+02  0.37875165062E+02  0.40926700654E+02  0.83834496239E+02  0.00000000000E+00 0.  1.
         11    1    1    2    0    0 -0.12009889780E+02 -0.13657486161E+02  0.68278802146E+02  0.70659459404E+02  0.00000000000E+00 0. -1.
</event>
<event>
 7    1  0.2749315E-009  0.1119128E+03  0.7561462E-02  0.1257068E+00
         -1   -1    0    0    0  501 -0.00000000000E+00  0.00000000000E+00  0.33807766752E+03  0.33807766752E+03  0.00000000000E+00 0.  1.
          1   -1    0    0  501    0  0.00000000000E+00 -0.00000000000E+00 -0.47469916455E+02  0.47469916455E+02  0.00000000000E+00 0. -1.
         25    2    1    2    0    0  0.31169767677E+02  0.73859305966E+01  0.74495150025E+02  0.14907418661E+03  0.12508988508E+03 0.  0.
          5    1    3    3  502    0  0.50116595520E+02 -0.47844218879E+02  0.50347594604E+02  0.85750190140E+02  0.41800000000E+01 0.  1.
         -5    1    3    3    0  502 -0.18946827842E+02  0.55230149476E+02  0.24147555421E+02  0.63323996472E+02  0.41800000000E+01 0.  1.
        -11    1    1    2    0    0 -0.38099215418E+02 -0.44233702671E+02  0.13734437676E+03  0.14923688718E+03  0.00000000000E+00 0.  1.
         11    1    1    2    0    0  0.69294477407E+01  0.36847772075E+02  0.78768224280E+02  0.87236510184E+02  0.00000000000E+00 0. -1.
</event>
<event>
 7    1  0.2749315E-009  0.1226883E+03  0.7561462E-02  0.1238727E+00
          2   -1    0    0  501    0  0.00000000000E+00  0.00000000000E+00  0.24831963717E+03  0.24831963717E+03  0.00000000000E+00 0. -1.
         -2   -1    0    0    0  501 -0.00000000000E+00 -0.00000000000E+00 -0.70721898926E+02  0.70721898926E+02  0.00000000000E+00 0.  1.
         25    2    1    2    0    0 -0.50393126224E+02 -0.20279907573E+02  0.13108267423E+03  0.18915371488E+03  0.12508284674E+03 0.  0.
          5    1    3    3  502    0 -0.20133301725E+02 -0.72448388443E+02  0.63804323372E+02  0.98704523236E+02  0.41800000000E+01 0.  1.
         -5    1    3    3    0  502 -0.30259824499E+02  0.52168480870E+02  0.67278350862E+02  0.90449191648E+02  0.41800000000E+01 0.  1.
        -11    1    1    2    0    0  0.51113296324E+02  0.54885274993E+02  0.40577808899E+01  0.75109440538E+02  0.00000000000E+00 0.  1.
         11    1    1    2    0    0 -0.72017009969E+00 -0.34605367421E+02  0.42457283118E+02  0.54778380672E+02  0.00000000000E+00 0. -1.
</event>
<event>
 7    1  0.2749315E-009  0.2003328E+03  0.7561462E-02  0.1149459E+00
         -1   -1    0    0    0  501 -0.00000000000E+00  0.00000000000E+00  0.28607807991E+03  0.28607807991E+03  0.00000000000E+00 0.  1.
          1   -1    0    0  501    0  0.00000000000E+00 -0.00000000000E+00 -0.16842355425E+03  0.16842355425E+03  0.00000000000E+00 0. -1.
         25    2    1    2    0    0  0.15838239813E+03 -0.82825539304E+02 -0.54420629646E+01  0.21822445435E+03  0.12508893807E+03 0.  0.
          5    1    3    3  502    0 -0.72580962873E+01 -0.41994856470E+02  0.17064408078E+02  0.46096793324E+02  0.41800000000E+01 0.  1.
         -5    1    3    3    0  502  0.16564049441E+03 -0.40830682833E+02 -0.22506471043E+02  0.17212766102E+03  0.41800000000E+01 0.  1.
        -11    1    1    2    0    0 -0.41182869564E+02  0.51382187631E+02  0.35626603016E+01  0.65945814877E+02  0.00000000000E+00 0.  1.
         11    1    1    2    0    0 -0.11719952856E+03  0.31443351672E+02  0.11953392832E+03  0.17033136493E+03  0.00000000000E+00 0. -1.
</event>
<event>
 7    1  0.2749315E-009  0.1040497E+03  0.7561462E-02  0.1272003E+00
         -2   -1    0    0    0  501 -0.00000000000E+00  0.00000000000E+00  0.11328680049E+04  0.11328680049E+04  0.00000000000E+00 0.  1.
          2   -1    0    0  501    0  0.00000000000E+00 -0.00000000000E+00 -0.19817823750E+02  0.19817823750E+02  0.00000000000E+00 0. -1.
         25    2    1    2    0    0  0.27332066823E+02  0.53754517639E+02  0.92157916495E+03  0.93198297732E+03  0.12509005833E+03 0.  0.
          5    1    3    3  502    0 -0.36527728079E+02  0.43888101998E+02  0.66115924824E+03  0.66363353166E+03  0.41800000000E+01 0. -1.
         -5    1    3    3    0  502  0.63859794902E+02  0.98664156412E+01  0.26041991672E+03  0.26834944566E+03  0.41800000000E+01 0. -1.
        -11    1    1    2    0    0 -0.61824611719E+01 -0.62790898064E+02  0.18688836660E+03  0.19725156850E+03  0.00000000000E+00 0.  1.
         11    1    1    2    0    0 -0.21149605651E+02  0.90363804250E+01  0.45826496339E+01  0.23451282866E+02  0.00000000000E+00 0. -1.
</event>
<event>
 7    1  0.2749315E-009  0.6558063E+02  0.7561462E-02  0.1375801E+00
          3   -1    0    0  501    0  0.00000000000E+00  0.00000000000E+00  0.10678584915E+03  0.10678584915E+03  0.00000000000E+00 0. -1.
         -3   -1    0    0    0  501 -0.00000000000E+00 -0.00000000000E+00 -0.11575976509E+03  0.11575976509E+03  0.00000000000E+00 0.  1.
         25    2    1    2    0    0  0.22457812049E+02  0.17664694882E+02 -0.15463977795E+02  0.12923136433E+03  0.12508083846E+03 0.  0.
          5    1    3    3  502    0 -0.62488811839E+01  0.31937692419E+02  0.47920986930E+02  0.58077173670E+02  0.41800000000E+01 0. -1.
         -5    1    3    3    0  502  0.28706693233E+02 -0.14272997537E+02 -0.63384964725E+02  0.71154190658E+02  0.41800000000E+01 0. -1.
        -11    1    1    2    0    0 -0.38732288519E+02  0.39837539480E+01 -0.29086849017E+02  0.48601494372E+02  0.00000000000E+00 0.  1.
         11    1    1    2    0    0  0.16274476471E+02 -0.21648448830E+02  0.35576910870E+02  0.44712755542E+02  0.00000000000E+00 0. -1.
</event>
<event>
 7    1  0.2749315E-009  0.8615470E+02  0.7561462E-02  0.1312440E+00
         -2   -1    0    0    0  501 -0.00000000000E+00  0.00000000000E+00  0.33544644611E+03  0.33544644611E+03  0.00000000000E+00 0.  1.
          2   -1    0    0  501    0  0.00000000000E+00 -0.00000000000E+00 -0.48118494882E+02  0.48118494882E+02  0.00000000000E+00 0. -1.
         25    2    1    2    0    0  0.32228399833E+02  0.56405724460E+02  0.17218171633E+03  0.22251729354E+03  0.12508847660E+03 0.  0.
          5    1    3    3  502    0 -0.19716411791E+02  0.28027220187E+01 -0.12082070997E+02  0.23665185066E+02  0.41800000000E+01 0.  1.
         -5    1    3    3    0  502  0.51944811624E+02  0.53603002441E+02  0.18426378733E+03  0.19885210848E+03  0.41800000000E+01 0.  1.
        -11    1    1    2    0    0 -0.31823820457E+02 -0.13956051942E+02 -0.36055978577E+01  0.34936045429E+02  0.00000000000E+00 0. -1.
         11    1    1    2    0    0 -0.40457937580E+00 -0.42449672517E+02  0.11875183276E+03  0.12611160202E+03  0.00000000000E+00 0.  1.
</event>
<event>
 7    1  0.2749315E-009  0.1039602E+03  0.7561462E-02  0.1272182E+00
         -1   -1    0    0    0  501 -0.00000000000E+00  0.00000000000E+00  0.12006059350E+03  0.12006059350E+03  0.00000000000E+00 0.  1.
          1   -1    0    0  501    0  0.00000000000E+00 -0.00000000000E+00 -0.14925368839E+03  0.14925368839E+03  0.00000000000E+00 0. -1.
         25    2    1    2    0    0  0.41207279303E+02  0.54338715115E+01 -0.88541194529E+02  0.15879550978E+03  0.12509557934E+03 0.  0.
          5    1    3    3  502    0  0.88527344512E+01  0.60954104951E+02 -0.20346892908E+02  0.65001863579E+02  0.41800000000E+01 0.  1.
         -5    1    3    3    0  502  0.32354544852E+02 -0.55520233440E+02 -0.68194301621E+02  0.93793646199E+02  0.41800000000E+01 0.  1.
        -11    1    1    2    0    0 -0.24971676406E+02  0.32232004338E+02  0.56130635455E+02  0.69376760970E+02  0.00000000000E+00 0.  1.
         11    1    1    2    0    0 -0.16235602897E+02 -0.37665875849E+02  0.32174641820E+01  0.41142011140E+02  0.00000000000E+00 0. -1.
</event>
<event>
 7    1  0.3123152E-009  0.5995732E+02  0.7561462E-02  0.1398011E+00
          2   -1    0    0  501    0  0.00000000000E+00  0.00000000000E+00  0.40758518991E+03  0.40758518991E+03  0.00000000000E+00 0.  1.
         -2   -1    0    0    0  501 -0.00000000000E+00 -0.00000000000E+00 -0.32631498449E+02  0.32631498449E+02  0.00000000000E+00 0. -1.
         25    2    1    2    0    0  0.26391495726E+01 -0.22835775426E+02  0.27429610810E+03  0.30234857056E+03  0.12509142839E+03 0.  0.
          5    1    3    3  502    0 -0.65255618294E+01 -0.28686900389E+02  0.19775169373E+01  0.29780936593E+02  0.41800000000E+01 0.  1.
         -5    1    3    3    0  502  0.91647114020E+01  0.58511249627E+01  0.27231859116E+03  0.27256763397E+03  0.41800000000E+01 0.  1.
        -11    1    1    2    0    0 -0.37670270947E+02  0.18528412403E+01  0.86977796330E+02  0.94803055797E+02  0.00000000000E+00 0.  1.
         11    1    1    2    0    0  0.35031121375E+02  0.20982934186E+02  0.13679787038E+02  0.43065062002E+02  0.00000000000E+00 0. -1.
</event>
<event>
 7    1  0.2749315E-009  0.1000527E+03  0.7561462E-02  0.1280185E+00
         -1   -1    0    0    0  501 -0.00000000000E+00  0.00000000000E+00  0.37751791460E+02  0.37751791460E+02  0.00000000000E+00 0.  1.
          1   -1    0    0  501    0  0.00000000000E+00 -0.00000000000E+00 -0.32393668958E+03  0.32393668958E+03  0.00000000000E+00 0. -1.
         25    2    1    2    0    0 -0.11531473880E+01  0.19851557243E+02 -0.20577528211E+03  0.24163077958E+03  0.12508618165E+03 0.  0.
          5    1    3    3  502    0 -0.55582012539E+02 -0.12783251249E+02 -0.13422730305E+03  0.14590138079E+03  0.41800000000E+01 0. -1.
         -5    1    3    3    0  502  0.54428865150E+02  0.32634808492E+02 -0.71547979054E+02  0.95729398795E+02  0.41800000000E+01 0. -1.
        -11    1    1    2    0    0 -0.11987708190E+02  0.27594947536E+02 -0.59289132974E+02  0.66485995261E+02  0.00000000000E+00 0. -1.
         11    1    1    2    0    0  0.13140855578E+02 -0.47446504779E+02 -0.21120483037E+02  0.53571706196E+02  0.00000000000E+00 0.  1.
</event>
<event>
 7    1  0.2749315E-009  0.1156193E+03  0.7561462E-02  0.1250504E+00
         -1   -1    0    0    0  501 -0.00000000000E+00  0.00000000000E+00  0.17654949952E+02  0.17654949952E+02  0.00000000000E+00 0.  1.
          1   -1    0    0  501    0  0.00000000000E+00 -0.00000000000E+00 -0.11533058228E+04  0.11533058228E+04  0.00000000000E+00 0. -1.
         25    2    1    2    0    0  0.65288505022E+02 -0.64934893500E+02 -0.70577263347E+03  0.72266340415E+03  0.12509299043E+03 0.  0.
          5    1    3    3  502    0  0.13421237814E+01 -0.35224812770E+02 -0.55533544896E+03  0.55646879697E+03  0.41800000000E+01 0. -1.
         -5    1    3    3    0  502  0.63946381241E+02 -0.29710080730E+02 -0.15043718451E+03  0.16619460718E+03  0.41800000000E+01 0. -1.
        -11    1    1    2    0    0  0.16284296321E+02  0.34302555064E+02 -0.17040325421E+03  0.17458268137E+03  0.00000000000E+00 0.  1.
         11    1    1    2    0    0 -0.81572801343E+02  0.30632338435E+02 -0.25947498514E+03  0.27371468720E+03  0.00000000000E+00 0. -1.
</event>
<event>
 7    1  0.2749315E-009  0.2224386E+03  0.7561462E-02  0.1132078E+00
          1   -1    0    0  501    0  0.00000000000E+00  0.00000000000E+00  0.59440131839E+03  0.59440131839E+03  0.00000000000E+00 0. -1.
         -1   -1    0    0    0  501 -0.00000000000E+00 -0.00000000000E+00 -0.91963138090E+02  0.91963138090E+02  0.00000000000E+00 0.  1.
         25    2    1    2    0    0 -0.83620596181E+02 -0.17969343142E+03  0.34822541320E+03  0.41975047337E+03  0.12508952032E+03 0.  0.
          5    1    3    3  502    0 -0.10006935603E+03 -0.71853118843E+02  0.15761331622E+03  0.20009042095E+03  0.41800000000E+01 0.  1.
         -5    1    3    3    0  502  0.16448759847E+02 -0.10784031258E+03  0.19061209697E+03  0.21966005242E+03  0.41800000000E+01 0.  1.
        -11    1    1    2    0    0  0.11581451749E+02  0.11511965786E+03  0.55236202457E+02  0.12820960850E+03  0.00000000000E+00 0. -1.
         11    1    1    2    0    0  0.72039144432E+02  0.64573773561E+02  0.98976564649E+02  0.13840437461E+03  0.00000000000E+00 0.  1.
</event>
<event>
 7    1  0.2749315E-009  0.1107838E+03  0.7561462E-02  0.1259125E+00
         -1   -1    0    0    0  501 -0.00000000000E+00  0.00000000000E+00  0.15018502186E+03  0.15018502186E+03  0.00000000000E+00 0.  1.
          1   -1    0    0  501    0  0.00000000000E+00 -0.00000000000E+00 -0.11070456636E+03  0.11070456636E+03  0.00000000000E+00 0. -1.
         25    2    1    2    0    0  0.29240127890E+02 -0.39252473842E+02 -0.18964084024E+02  0.13566551027E+03  0.12509897047E+03 0.  0.
          5    1    3    3  502    0 -0.16248637839E+02 -0.71032190035E+02 -0.30039038136E+02  0.78926589087E+02  0.41800000000E+01 0.  1.
         -5    1    3    3    0  502  0.45488765729E+02  0.31779716193E+02  0.11074954112E+02  0.56738921187E+02  0.41800000000E+01 0.  1.
        -11    1    1    2    0    0 -0.43083810089E+02 -0.78898757938E+01 -0.59750818798E+01  0.44205954749E+02  0.00000000000E+00 0. -1.
         11    1    1    2    0    0  0.13843682199E+02  0.47142349636E+02  0.64419621402E+02  0.81018123205E+02  0.00000000000E+00 0.  1.
</event>
<event>
 7    1  0.2749315E-009  0.9555492E+02  0.7561462E-02  0.1289931E+00
         -2   -1    0    0    0  501 -0.00000000000E+00  0.00000000000E+00  0.58390086192E+02  0.58390086192E+02  0.00000000000E+00 0.  1.
          2   -1    0    0  501    0  0.00000000000E+00 -0.00000000000E+00 -0.24842899091E+03  0.24842899091E+03  0.00000000000E+00 0. -1.
         25    2    1    2    0    0  0.55696750898E+02  0.26686766792E+02 -0.10372055347E+03  0.17383732066E+03  0.12508856566E+03 0.  0.
          5    1    3    3  502    0  0.76415982205E+02 -0.39229317776E+01 -0.15621132869E+02  0.78206674410E+02  0.41800000000E+01 0.  1.
         -5    1    3    3    0  502 -0.20719231307E+02  0.30609698570E+02 -0.88099420597E+02  0.95630646249E+02  0.41800000000E+01 0.  1.
        -11    1    1    2    0    0 -0.77849085398E+01  0.12942557878E+02  0.10160371957E+02  0.18202960300E+02  0.00000000000E+00 0.  1.
         11    1    1    2    0    0 -0.47911842358E+02 -0.39629324670E+02 -0.96478723213E+02  0.11477879615E+03  0.00000000000E+00 0. -1.
</event>
<event>
 7    1  0.2749315E-009  0.1907968E+03  0.7561462E-02  0.1157745E+00
          2   -1    0    0  501    0  0.00000000000E+00  0.00000000000E+00  0.14776417588E+04  0.14776417588E+04  0.00000000000E+00 0. -1.
         -2   -1    0    0    0  501 -0.00000000000E+00 -0.00000000000E+00 -0.27518790362E+02  0.27518790362E+02  0.00000000000E+00 0.  1.
         25    2    1    2    0    0 -0.31379197237E+01 -0.17602546463E+03  0.79399640298E+03  0.82284224805E+03  0.12507704222E+03 0.  0.
          5    1    3    3  502    0  0.50912127793E+02 -0.89499057102E+02  0.52714284085E+03  0.53712119027E+03  0.41800000000E+01 0. -1.
         -5    1    3    3    0  502 -0.54050047516E+02 -0.86526407525E+02  0.26685356213E+03  0.28572105778E+03  0.41800000000E+01 0. -1.
        -11    1    1    2    0    0 -0.33676331549E+01  0.11780579674E+03  0.31762325395E+03  0.33878323180E+03  0.00000000000E+00 0.  1.
         11    1    1    2    0    0  0.65055528786E+01  0.58219667883E+02  0.33850331148E+03  0.34353506929E+03  0.00000000000E+00 0. -1.
</event>
<event>
 7    1  0.2749315E-009  0.8359163E+02  0.7561462E-02  0.1319157E+00
         -2   -1    0    0    0  501 -0.00000000000E+00  0.00000000000E+00  0.57169753340E+02  0.57169753340E+02  0.00000000000E+00 0.  1.
          2   -1    0    0  501    0  0.00000000000E+00 -0.00000000000E+00 -0.20600884473E+03  0.20600884473E+03  0.00000000000E+00 0. -1.
         25    2    1    2    0    0  0.13055566486E+02  0.15131234175E+01 -0.87152961680E+02  0.15301769898E+03  0.12508413213E+03 0.  0.
          5    1    3    3  502    0  0.56991071330E+02  0.22690988448E+02 -0.83819716638E+02  0.10395229899E+03  0.41800000000E+01 0.  1.
         -5    1    3    3    0  502 -0.43935504844E+02 -0.21177865031E+02 -0.33332450417E+01  0.49065399985E+02  0.41800000000E+01 0.  1.
        -11    1    1    2    0    0 -0.25789859614E+02 -0.21142576065E+02  0.99492600072E+01  0.34801051080E+02  0.00000000000E+00 0.  1.
         11    1    1    2    0    0  0.12734293128E+02  0.19629452648E+02 -0.71635389723E+02  0.75359848019E+02  0.00000000000E+00 0. -1.
</event>
<event>
 7    1  0.2749315E-009  0.1082157E+03  0.7561462E-02  0.1263910E+00
          4   -1    0    0  501    0  0.00000000000E+00  0.00000000000E+00  0.32311357582E+03  0.32311357582E+03  0.00000000000E+00 0. -1.
         -4   -1    0    0    0  501 -0.00000000000E+00 -0.00000000000E+00 -0.16499457358E+03  0.16499457358E+03  0.00000000000E+00 0.  1.
         25    2    1    2    0    0 -0.36041831044E+02  0.89766789980E+02  0.27120997811E+03  0.31393876484E+03  0.12508239555E+03 0.  0.
          5    1    3    3  502    0 -0.40632891008E+02  0.34429360349E+02  0.24786833404E+03  0.25355984718E+03  0.41800000000E+01 0. -1.
         -5    1    3    3    0  502  0.45910599645E+01  0.55337429631E+02  0.23341644075E+02  0.60378917660E+02  0.41800000000E+01 0. -1.
        -11    1    1    2    0    0  0.21576690881E+02 -0.90307910097E+02 -0.12480018900E+03  0.15555114719E+03  0.00000000000E+00 0.  1.
         11    1    1    2    0    0  0.14465140163E+02  0.54112011710E+00  0.11709213131E+02  0.18618237378E+02  0.00000000000E+00 0. -1.
</event>
<event>
 7    1  0.2749315E-009  0.2492500E+03  0.7561462E-02  0.1113780E+00
         -2   -1    0    0    0  501 -0.00000000000E+00  0.00000000000E+00  0.84341676028E+02  0.84341676028E+02  0.00000000000E+00 0.  1.
          2   -1    0    0  501    0  0.00000000000E+00 -0.00000000000E+00 -0.10716607303E+04  0.10716607303E+04  0.00000000000E+00 0. -1.
         25    2    1    2    0    0  0.15600288158E+03 -0.17122364035E+03 -0.20304763159E+03  0.33246093543E+03  0.12508996290E+03 0.  0.
          5    1    3    3  502    0  0.31927466634E+02 -0.12105135594E+03 -0.12741940568E+03  0.17867840173E+03  0.41800000000E+01 0.  1.
         -5    1    3    3    0  502  0.12407541495E+03 -0.50172284407E+02 -0.75628225906E+02  0.15378253370E+03  0.41800000000E+01 0.  1.
        -11    1    1    2    0    0 -0.10051900467E+03  0.65606777851E+02 -0.26781961518E+03  0.29348878321E+03  0.00000000000E+00 0.  1.
         11    1    1    2    0    0 -0.55483876919E+02  0.10561686250E+03 -0.51645180748E+03  0.53005268766E+03  0.00000000000E+00 0. -1.
</event>
<event>
 7    1  0.2749315E-009  0.1219940E+03  0.7561462E-02  0.1239843E+00
         -2   -1    0    0    0  501 -0.00000000000E+00  0.00000000000E+00  0.25752867219E+03  0.25752867219E+03  0.00000000000E+00 0.  1.
          2   -1    0    0  501    0  0.00000000000E+00 -0.00000000000E+00 -0.88361280576E+02  0.88361280576E+02  0.00000000000E+00 0. -1.
         25    2    1    2    0    0  0.10909935970E+03 -0.46696761463E+02  0.89870353652E+02  0.19444298706E+03  0.12509251349E+03 0.  0.
          5    1    3    3  502    0  0.64401021161E+02 -0.21727002611E+02  0.11772953698E+03  0.13600467068E+03  0.41800000000E+01 0. -1.
         -5    1    3    3    0  502  0.44698338544E+02 -0.24969758852E+02 -0.27859183325E+02  0.58438316379E+02  0.41800000000E+01 0. -1.
        -11    1    1    2    0    0 -0.27951617869E+02  0.31232960940E+02  0.87566915099E+01  0.42819042922E+02  0.00000000000E+00 0. -1.
         11    1    1    2    0    0 -0.81147741836E+02  0.15463800523E+02  0.70540346454E+02  0.10862792279E+03  0.00000000000E+00 0.  1.
</event>
<event>
 7    1  0.2749315E-009  0.1080265E+03  0.7561462E-02  0.1264269E+00
         -2   -1    0    0    0  501 -0.00000000000E+00  0.00000000000E+00  0.11518312922E+03  0.11518312922E+03  0.00000000000E+00 0.  1.
          2   -1    0    0  501    0  0.00000000000E+00 -0.00000000000E+00 -0.16871558687E+03  0.16871558687E+03  0.00000000000E+00 0. -1.
         25    2    1    2    0    0  0.75643880310E+02 -0.12633127553E+02 -0.66108890363E+02  0.16093432651E+03  0.12509148462E+03 0.  0.
          5    1    3    3  502    0  0.14615667558E+02 -0.36284405181E+02 -0.84168932877E+02  0.92908866418E+02  0.41800000000E+01 0.  1.
         -5    1    3    3    0  502  0.61028212752E+02  0.23651277628E+02  0.18060042514E+02  0.68025460092E+02  0.41800000000E+01 0.  1.
        -11    1    1    2    0    0 -0.79343241866E+02 -0.17100950193E+02  0.32011637985E+02  0.87249856698E+02  0.00000000000E+00 0.  1.
         11    1    1    2    0    0  0.36993615565E+01  0.29734077745E+02 -0.19435205275E+02  0.35714532887E+02  0.00000000000E+00 0. -1.
</event>
<event>
 7    1  0.2749315E-009  0.1104645E+03  0.7561462E-02  0.1259712E+00
         -1   -1    0    0    0  501 -0.00000000000E+00  0.00000000000E+00  0.44880515960E+02  0.44880515960E+02  0.00000000000E+00 0.  1.
          1   -1    0    0  501    0  0.00000000000E+00 -0.00000000000E+00 -0.34144390511E+03  0.34144390511E+03  0.00000000000E+00 0. -1.
         25    2    1    2    0    0 -0.50723059288E+02  0.26861320743E+02 -0.14638051058E+03  0.20091976028E+03  0.12508851625E+03 0.  0.
          5    1    3    3  502    0 -0.71753104052E+02 -0.75489645117E+01 -0.14301296148E+03  0.16023630786E+03  0.41800000000E+01 0.  1.
         -5    1    3    3    0  502  0.21030044763E+02  0.34410285255E+02 -0.33675491041E+01  0.40683452423E+02  0.41800000000E+01 0.  1.
        -11    1    1    2    0    0  0.13497879465E+02  0.34107074768E+02 -0.60472045105E+02  0.70727318191E+02  0.00000000000E+00 0. -1.
         11    1    1    2    0    0  0.37225179823E+02 -0.60968395512E+02 -0.89710833469E+02  0.11467734260E+03  0.00000000000E+00 0.  1.
</event>
<event>
 7    1  0.2749315E-009  0.1061132E+03  0.7561462E-02  0.1267942E+00
         -2   -1    0    0    0  501 -0.00000000000E+00  0.00000000000E+00  0.10903616346E+02  0.10903616346E+02  0.00000000000E+00 0.  1.
          2   -1    0    0  501    0  0.00000000000E+00 -0.00000000000E+00 -0.17935190138E+04  0.17935190138E+04  0.00000000000E+00 0. -1.
         25    2    1    2    0    0 -0.38814441953E+02  0.38415878159E+02 -0.14335093705E+04  0.14399928392E+04  0.12509165041E+03 0.  0.
          5    1    3    3  502    0  0.31016838806E+02 -0.22437119237E+01 -0.12134889201E+03  0.12533995582E+03  0.41800000000E+01 0.  1.
         -5    1    3    3    0  502 -0.69831280759E+02  0.40659590082E+02 -0.13121604785E+04  0.13146528833E+04  0.41800000000E+01 0.  1.
        -11    1    1    2    0    0  0.42053529772E+02  0.16315547394E+02 -0.10565113173E+03  0.11487757870E+03  0.00000000000E+00 0.  1.
         11    1    1    2    0    0 -0.32390878187E+01 -0.54731425553E+02 -0.24345489529E+03  0.24955221232E+03  0.00000000000E+00 0. -1.
</event>
<event>
 7    1  0.2749315E-009  0.1157250E+03  0.7561462E-02  0.1250321E+00
         -3   -1    0    0    0  501 -0.00000000000E+00  0.00000000000E+00  0.19063864752E+03  0.19063864752E+03  0.00000000000E+00 0.  1.
          3   -1    0    0  501    0  0.00000000000E+00 -0.00000000000E+00 -0.82518611468E+02  0.82518611468E+02  0.00000000000E+00 0. -1.
         25    2    1    2    0    0  0.15469095622E+02 -0.59397352581E+02  0.66013671775E+02  0.15418636799E+03  0.12509313650E+03 0.  0.
          5    1    3    3  502    0  0.26785407893E+02  0.30963499780E+02  0.44314644214E+02  0.60476908704E+02  0.41800000000E+01 0.  1.
         -5    1    3    3    0  502 -0.11316312270E+02 -0.90360852361E+02  0.21699027561E+02  0.93709459288E+02  0.41800000000E+01 0.  1.
        -11    1    1    2    0    0 -0.63635123274E+00  0.76495376983E+02  0.53772378074E+02  0.93506236617E+02  0.00000000000E+00 0.  1.
         11    1    1    2    0    0 -0.14832744390E+02 -0.17098024402E+02 -0.11666013799E+02  0.25464654377E+02  0.00000000000E+00 0. -1.
</event>
<event>
 7    1  0.2749315E-009  0.1255744E+03  0.7561462E-02  0.1234174E+00
         -2   -1    0    0    0  501 -0.00000000000E+00  0.00000000000E+00  0.39214377833E+02  0.39214377833E+02  0.00000000000E+00 0.  1.
          2   -1    0    0  501    0  0.00000000000E+00 -0.00000000000E+00 -0.74221744458E+03  0.74221744458E+03  0.00000000000E+00 0. -1.
         25    2    1    2    0    0 -0.47380593840E+02 -0.52636844772E+02 -0.63759530836E+03  0.65359901244E+03  0.12509330003E+03 0.  0.
          5    1    3    3  502    0  0.16328331627E+02 -0.74284562122E+02 -0.35361271687E+03  0.36172397836E+03  0.41800000000E+01 0.  1.
         -5    1    3    3    0  502 -0.63708925467E+02  0.21647717350E+02 -0.28398259149E+03  0.29187503408E+03  0.41800000000E+01 0.  1.
        -11    1    1    2    0    0 -0.18027885957E+02  0.35701022603E+02 -0.12145279196E+02  0.41798032175E+02  0.00000000000E+00 0. -1.
         11    1    1    2    0    0  0.65408479797E+02  0.16935822169E+02 -0.53262479187E+02  0.86034777799E+02  0.00000000000E+00 0.  1.
</event>
<event>
 7    1  0.2749315E-009  0.8371601E+02  0.7561462E-02  0.1318825E+00
          2   -1    0    0  501    0  0.00000000000E+00  0.00000000000E+00  0.18545296564E+03  0.18545296564E+03  0.00000000000E+00 0.  1.
         -2   -1    0    0    0  501 -0.00000000000E+00 -0.00000000000E+00 -0.78777018029E+02  0.78777018029E+02  0.00000000000E+00 0. -1.
         25    2    1    2    0    0 -0.35018883473E+02  0.29392179473E+02  0.25358150420E+02  0.13557384026E+03  0.12508800084E+03 0.  0.
          5    1    3    3  502    0 -0.33778351090E+02 -0.17504730498E+02 -0.39772872943E+02  0.55197340645E+02  0.41800000000E+01 0.  1.
         -5    1    3    3    0  502 -0.12405323831E+01  0.46896909971E+02  0.65131023363E+02  0.80376499611E+02  0.41800000000E+01 0.  1.
        -11    1    1    2    0    0  0.19832982921E+02  0.21322157288E+02 -0.28125003512E+01  0.29255627855E+02  0.00000000000E+00 0. -1.
         11    1    1    2    0    0  0.15185900552E+02 -0.50714336761E+02  0.84130297540E+02  0.99400515556E+02  0.00000000000E+00 0.  1.
</event>
<event>
 7    1  0.2749315E-009  0.1495737E+03  0.7561462E-02  0.1200998E+00
         -2   -1    0    0    0  501 -0.00000000000E+00  0.00000000000E+00  0.37101893451E+02  0.37101893451E+02  0.00000000000E+00 0. -1.
          2   -1    0    0  501    0  0.00000000000E+00 -0.00000000000E+00 -0.72943603221E+03  0.72943603221E+03  0.00000000000E+00 0.  1.
         25    2    1    2    0    0 -0.43680396980E+02  0.11169919545E+03 -0.31106933086E+03  0.35608487294E+03  0.12509045045E+03 0.  0.
          5    1    3    3  502    0 -0.26549652780E+02  0.13852860229E+03 -0.25755909747E+03  0.29368217312E+03  0.41800000000E+01 0.  1.
         -5    1    3    3    0  502 -0.17130744200E+02 -0.26829406846E+02 -0.53510233387E+02  0.62402699826E+02  0.41800000000E+01 0.  1.
        -11    1    1    2    0    0  0.34686443055E+02 -0.37094025880E+02 -0.27879465495E+03  0.28338238427E+03  0.00000000000E+00 0.  1.
         11    1    1    2    0    0  0.89939539245E+01 -0.74605169568E+02 -0.10247015296E+03  0.12707066845E+03  0.00000000000E+00 0. -1.
</event>
<event>
 7    1  0.2749315E-009  0.9096570E+02  0.7561462E-02  0.1300530E+00
          2   -1    0    0  501    0  0.00000000000E+00  0.00000000000E+00  0.24273261460E+03  0.24273261460E+03  0.00000000000E+00 0. -1.
         -2   -1    0    0    0  501 -0.00000000000E+00 -0.00000000000E+00 -0.56680664271E+02  0.56680664271E+02  0.00000000000E+00 0.  1.
         25    2    1    2    0    0 -0.16853311481E+01  0.19566839969E+02  0.50439246190E+02  0.13629133836E+03  0.12508201225E+03 0.  0.
          5    1    3    3  502    0  0.40586058611E+02  0.30265962992E+02 -0.18960134118E+02  0.54223756373E+02  0.41800000000E+01 0.  1.
         -5    1    3    3    0  502 -0.42271389759E+02 -0.10699123023E+02  0.69399380308E+02  0.82067581984E+02  0.41800000000E+01 0.  1.
        -11    1    1    2    0    0 -0.19254294133E+02  0.28787299605E+02  0.76246810925E+02  0.83743731929E+02  0.00000000000E+00 0.  1.
         11    1    1    2    0    0  0.20939625281E+02 -0.48354139574E+02  0.59365893213E+02  0.79378208583E+02  0.00000000000E+00 0. -1.
</event>
<event>
 7    1  0.2749315E-009  0.1207311E+03  0.7561462E-02  0.1241896E+00
         -2   -1    0    0    0  501 -0.00000000000E+00  0.00000000000E+00  0.72746351124E+02  0.72746351124E+02  0.00000000000E+00 0.  1.
          2   -1    0    0  501    0  0.00000000000E+00 -0.00000000000E+00 -0.29365079095E+03  0.29365079095E+03  0.00000000000E+00 0. -1.
         25    2    1    2    0    0 -0.29371686655E+02  0.88976204673E+02 -0.89396899420E+02  0.18005119130E+03  0.12508862814E+03 0.  0.
          5    1    3    3  502    0 -0.18310928435E+02  0.11456817603E+03 -0.39303788018E+02  0.12257005022E+03  0.41800000000E+01 0. -1.
         -5    1    3    3    0  502 -0.11060758220E+02 -0.25591971355E+02 -0.50093111402E+02  0.57481141082E+02  0.41800000000E+01 0. -1.
        -11    1    1    2    0    0  0.25093290073E+02 -0.35208870038E+02  0.10357471113E+01  0.43248242833E+02  0.00000000000E+00 0.  1.
         11    1    1    2    0    0  0.42783965814E+01 -0.53767334635E+02 -0.13254328752E+03  0.14309770794E+03  0.00000000000E+00 0. -1.
</event>
<event>
 7    1  0.2749315E-009  0.8873394E+02  0.7561462E-02  0.1305947E+00
          1   -1    0    0  501    0  0.00000000000E+00  0.00000000000E+00  0.69404132266E+02  0.69404132266E+02  0.00000000000E+00 0. -1.
         -1   -1    0    0    0  501 -0.00000000000E+00 -0.00000000000E+00 -0.19787320418E+03  0.19787320418E+03  0.00000000000E+00 0.  1.
         25    2    1    2    0    0  0.47133208274E+02 -0.20709155426E+02 -0.76365029578E+02  0.15533743729E+03  0.12509074003E+03 0.  0.
          5    1    3    3  502    0  0.61972444150E+02 -0.32661963887E+02 -0.10157588861E+03  0.12346060613E+03  0.41800000000E+01 0. -1.
         -5    1    3    3    0  502 -0.14839235876E+02  0.11952808461E+02  0.25210859033E+02  0.31876831158E+02  0.41800000000E+01 0. -1.
        -11    1    1    2    0    0 -0.16438087238E+02  0.45467265742E+02 -0.53972227802E+02  0.72460225918E+02  0.00000000000E+00 0. -1.
         11    1    1    2    0    0 -0.30695121036E+02 -0.24758110317E+02  0.18681854708E+01  0.39479673236E+02  0.00000000000E+00 0.  1.
</event>
<event>
 7    1  0.2749315E-009  0.1231179E+03  0.7561462E-02  0.1238040E+00
          2   -1    0    0  501    0  0.00000000000E+00  0.00000000000E+00  0.37077877305E+02  0.37077877305E+02  0.00000000000E+00 0. -1.
         -2   -1    0    0    0  501 -0.00000000000E+00 -0.00000000000E+00 -0.57237669611E+03  0.57237669611E+03  0.00000000000E+00 0.  1.
         25    2    1    2    0    0  0.63123567918E+02 -0.68958263618E+02 -0.23447213541E+03  0.28171987547E+03  0.12509627892E+03 0.  0.
          5    1    3    3  502    0 -0.26845211817E+02  0.23123180745E+01 -0.10574161098E+03  0.10920060853E+03  0.41800000000E+01 0.  1.
         -5    1    3    3    0  502  0.89968779735E+02 -0.71270581693E+02 -0.12873052443E+03  0.17251926693E+03  0.41800000000E+01 0.  1.
        -11    1    1    2    0    0 -0.18414145535E+02  0.53867282084E+02 -0.61512171154E+02  0.83812362066E+02  0.00000000000E+00 0. -1.
         11    1    1    2    0    0 -0.44709422383E+02  0.15090981534E+02 -0.23931451224E+03  0.24392233588E+03  0.00000000000E+00 0.  1.
</event>
<event>
 7    1  0.2749315E-009  0.1477119E+03  0.7561462E-02  0.1203313E+00
          1   -1    0    0  501    0  0.00000000000E+00  0.00000000000E+00  0.26476314358E+03  0.26476314358E+03  0.00000000000E+00 0. -1.
         -1   -1    0    0    0  501 -0.00000000000E+00 -0.00000000000E+00 -0.10859419522E+03  0.10859419522E+03  0.00000000000E+00 0.  1.
         25    2    1    2    0    0  0.12425473107E+03 -0.54063154956E+01  0.12808601360E+03  0.21799496043E+03  0.12508920598E+03 0.  0.
          5    1    3    3  502    0  0.32119353238E+02 -0.33246123719E+02  0.11078224588E+03  0.12011301343E+03  0.41800000000E+01 0.  1.
         -5    1    3    3    0  502  0.92135377830E+02  0.27839808223E+02  0.17303767722E+02  0.97881946993E+02  0.41800000000E+01 0.  1.
        -11    1    1    2    0    0 -0.49403341272E+02 -0.41340236971E+02  0.15084291695E+02  0.66160722317E+02  0.00000000000E+00 0. -1.
         11    1    1    2    0    0 -0.74851389796E+02  0.46746552466E+02  0.12998643061E+02  0.89201656057E+02  0.00000000000E+00 0.  1.
</event>
<event>
 7    1  0.2749315E-009  0.1016489E+03  0.7561462E-02  0.1276866E+00
         -1   -1    0    0    0  501 -0.00000000000E+00  0.00000000000E+00  0.48910996760E+02  0.48910996760E+02  0.00000000000E+00 0.  1.
          1   -1    0    0  501    0  0.00000000000E+00 -0.00000000000E+00 -0.33312188557E+03  0.33312188557E+03  0.00000000000E+00 0. -1.
         25    2    1    2    0    0 -0.60221212597E+02  0.18331255319E+02 -0.11395042584E+03  0.18054055051E+03  0.12509021329E+03 0.  0.
          5    1    3    3  502    0 -0.47745121502E+02  0.67013737549E+02 -0.41454918167E+02  0.92230256900E+02  0.41800000000E+01 0.  1.
         -5    1    3    3    0  502 -0.12476091094E+02 -0.48682482231E+02 -0.72495507671E+02  0.88310293611E+02  0.41800000000E+01 0.  1.
        -11    1    1    2    0    0  0.26495295173E+02  0.80172320989E+01 -0.15277081652E+03  0.15525849110E+03  0.00000000000E+00 0. -1.
         11    1    1    2    0    0  0.33725917423E+02 -0.26348487418E+02 -0.17489646454E+02  0.46233840726E+02  0.00000000000E+00 0.  1.
</event>
<event>
 7    1  0.2749315E-009  0.1057287E+03  0.7561462E-02  0.1268690E+00
         -1   -1    0    0    0  501 -0.00000000000E+00  0.00000000000E+00  0.24343550240E+03  0.24343550240E+03  0.00000000000E+00 0.  1.
          1   -1    0    0  501    0  0.00000000000E+00 -0.00000000000E+00 -0.68414164371E+02  0.68414164371E+02  0.00000000000E+00 0. -1.
         25    2    1    2    0    0 -0.40851782632E+02  0.67107063845E+00  0.16622793198E+03  0.21201681550E+03  0.12510030458E+03 0.  0.
          5    1    3    3  502    0  0.42674068313E+02 -0.16664416751E+02  0.63729442933E+02  0.78598302708E+02  0.41800000000E+01 0.  1.
         -5    1    3    3    0  502 -0.83525850945E+02  0.17335487390E+02  0.10249848904E+03  0.13341851279E+03  0.41800000000E+01 0.  1.
        -11    1    1    2    0    0 -0.18006931233E+02 -0.97731671177E+01  0.30243233517E+02  0.36529680282E+02  0.00000000000E+00 0.  1.
         11    1    1    2    0    0  0.58858713865E+02  0.91020964792E+01 -0.21449827470E+02  0.63303170984E+02  0.00000000000E+00 0. -1.
</event>
<event>
 7    1  0.2849653E-009  0.1535539E+03  0.7561462E-02  0.1196173E+00
          2   -1    0    0  501    0  0.00000000000E+00  0.00000000000E+00  0.10730696489E+04  0.10730696489E+04  0.00000000000E+00 0. -1.
         -2   -1    0    0    0  501 -0.00000000000E+00 -0.00000000000E+00 -0.26445367689E+02  0.26445367689E+02  0.00000000000E+00 0.  1.
         25    2    1    2    0    0 -0.10989245689E+03  0.65676456981E+02  0.60021178642E+03  0.62633168617E+03  0.12508974162E+03 0.  0.
          5    1    3    3  502    0  0.43599611198E+01  0.60535227514E+02  0.15157245748E+03  0.16332545820E+03  0.41800000000E+01 0.  1.
         -5    1    3    3    0  502 -0.11425241801E+03  0.51412294670E+01  0.44863932894E+03  0.46300622796E+03  0.41800000000E+01 0.  1.
        -11    1    1    2    0    0  0.34823527323E+02 -0.47503135904E+01  0.31633584083E+02  0.47285591636E+02  0.00000000000E+00 0.  1.
         11    1    1    2    0    0  0.75068929568E+02 -0.60926143391E+02  0.41477891073E+03  0.42589773881E+03  0.00000000000E+00 0. -1.
</event>
<event>
 7    1  0.2749315E-009  0.8345953E+02  0.7561462E-02  0.1319511E+00
          2   -1    0    0  501    0  0.00000000000E+00  0.00000000000E+00  0.25936296233E+03  0.25936296233E+03  0.00000000000E+00 0.  1.
         -2   -1    0    0    0  501 -0.00000000000E+00 -0.00000000000E+00 -0.52591509132E+02  0.52591509132E+02  0.00000000000E+00 0. -1.
         25    2    1    2    0    0 -0.24150630214E+02 -0.23615233508E+02  0.15153411998E+03  0.19937998586E+03  0.12509539181E+03 0.  0.
          5    1    3    3  502    0 -0.60689968245E+02 -0.34143385109E+02  0.14453578721E+03  0.16049021521E+03  0.41800000000E+01 0.  1.
         -5    1    3    3    0  502  0.36539338031E+02  0.10528151601E+02  0.69983327641E+01  0.38889770652E+02  0.41800000000E+01 0.  1.
        -11    1    1    2    0    0  0.20147827948E+02  0.38519932437E+02  0.75490082217E+02  0.87111840063E+02  0.00000000000E+00 0.  1.
         11    1    1    2    0    0  0.40028022657E+01 -0.14904698930E+02 -0.20252748994E+02  0.25462645541E+02  0.00000000000E+00 0. -1.
</event>
<event>
 7    1  0.2749315E-009  0.1405319E+03  0.7561462E-02  0.1212615E+00
          1   -1    0    0  501    0  0.00000000000E+00  0.00000000000E+00  0.15079723134E+04  0.15079723134E+04  0.00000000000E+00 0. -1.
         -1   -1    0    0    0  501 -0.00000000000E+00 -0.00000000000E+00 -0.13709857955E+02  0.13709857955E+02  0.00000000000E+00 0.  1.
         25    2    1    2    0    0 -0.64414183076E+02  0.68024490358E+02  0.76605411658E+03  0.78183304721E+03  0.12508991130E+03 0.  0.
          5    1    3    3  502    0 -0.42517969325E+02  0.10149761321E+03  0.45234739503E+03  0.46555899883E+03  0.41800000000E+01 0.  1.
         -5    1    3    3    0  502 -0.21896213751E+02 -0.33473122856E+02  0.31370672155E+03  0.31627404838E+03  0.41800000000E+01 0.  1.
        -11    1    1    2    0    0  0.26931413538E+02 -0.85301374907E+02  0.49662039231E+03  0.50461216757E+03  0.00000000000E+00 0. -1.
         11    1    1    2    0    0  0.37482769539E+02  0.17276884549E+02  0.23158794656E+03  0.23523695659E+03  0.00000000000E+00 0.  1.
</event>
<event>
 7    1  0.2749315E-009  0.1323288E+03  0.7561462E-02  0.1224041E+00
         -1   -1    0    0    0  501 -0.00000000000E+00  0.00000000000E+00  0.52580833521E+02  0.52580833521E+02  0.00000000000E+00 0.  1.
          1   -1    0    0  501    0  0.00000000000E+00 -0.00000000000E+00 -0.41140856552E+03  0.41140856552E+03  0.00000000000E+00 0. -1.
         25    2    1    2    0    0  0.65860876296E+02  0.75626281972E+02 -0.18300288333E+03  0.24330478538E+03  0.12510065439E+03 0.  0.
          5    1    3    3  502    0 -0.12562840265E+02 -0.23508102016E+02 -0.95103837152E+01  0.28607265062E+02  0.41800000000E+01 0.  1.
         -5    1    3    3    0  502  0.78423716560E+02  0.99134383988E+02 -0.17349249962E+03  0.21469752032E+03  0.41800000000E+01 0.  1.
        -11    1    1    2    0    0 -0.85370035430E+01  0.67241251309E+01  0.64361697420E+01  0.12630066081E+02  0.00000000000E+00 0.  1.
         11    1    1    2    0    0 -0.57323872753E+02 -0.82350407103E+02 -0.18226101841E+03  0.20805454758E+03  0.00000000000E+00 0. -1.
</event>
<event>
 7    1  0.2749315E-009  0.2804380E+03  0.7561462E-02  0.1095450E+00
         -1   -1    0    0    0  501 -0.00000000000E+00  0.00000000000E+00  0.12218238385E+03  0.12218238385E+03  0.00000000000E+00 0.  1.
          1   -1    0    0  501    0  0.00000000000E+00 -0.00000000000E+00 -0.70575460256E+03  0.70575460256E+03  0.00000000000E+00 0. -1.
         25    2    1    2    0    0 -0.24904948396E+03 -0.10883017979E+03 -0.26830642697E+03  0.40187793377E+03  0.12509149214E+03 0.  0.
          5    1    3    3  502    0 -0.65671258158E+02 -0.10280175960E+02 -0.58557157353E+01  0.66859239994E+02  0.41800000000E+01 0.  1.
         -5    1    3    3    0  502 -0.18337822580E+03 -0.98550003830E+02 -0.26245071123E+03  0.33501869378E+03  0.41800000000E+01 0.  1.
        -11    1    1    2    0    0  0.49626027599E+02  0.65151640887E+02 -0.10233988892E+03  0.13107605346E+03  0.00000000000E+00 0. -1.
         11    1    1    2    0    0  0.19942345636E+03  0.43678538902E+02 -0.21292590282E+03  0.29498299917E+03  0.00000000000E+00 0.  1.
</event>
<event>
 7    1  0.2749315E-009  0.1418591E+03  0.7561462E-02  0.1210849E+00
         -2   -1    0    0    0  501 -0.00000000000E+00  0.00000000000E+00  0.11285051577E+04  0.11285051577E+04  0.00000000000E+00 0.  1.
          2   -1    0    0  501    0  0.00000000000E+00 -0.00000000000E+00 -0.29680792079E+02  0.29680792079E+02  0.00000000000E+00 0. -1.
         25    2    1    2    0    0  0.10907743457E+03  0.39809680779E+02  0.86286046947E+03  0.87957892715E+03  0.12509277318E+03 0.  0.
          5    1    3    3  502    0  0.33545237363E+02  0.66016360068E+02  0.22970482979E+03  0.24138190482E+03  0.41800000000E+01 0. -1.
         -5    1    3    3    0  502  0.75532197209E+02 -0.26206679289E+02  0.63315563968E+03  0.63819702233E+03  0.41800000000E+01 0. -1.
        -11    1    1    2    0    0 -0.51348463250E+02 -0.49069516687E+02  0.59319045117E+02  0.92537728844E+02  0.00000000000E+00 0. -1.
         11    1    1    2    0    0 -0.57728971322E+02  0.92598359083E+01  0.17664485101E+03  0.18606929375E+03  0.00000000000E+00 0.  1.
</event>
<event>
 7    1  0.2749315E-009  0.1074110E+03  0.7561462E-02  0.1265441E+00
         -2   -1    0    0    0  501 -0.00000000000E+00  0.00000000000E+00  0.76674954739E+02  0.76674954739E+02  0.00000000000E+00 0.  1.
          2   -1    0    0  501    0  0.00000000000E+00 -0.00000000000E+00 -0.28469570446E+03  0.28469570446E+03  0.00000000000E+00 0. -1.
         25    2    1    2    0    0 -0.78668566463E+02  0.33828107487E+02 -0.56124413142E+02  0.16165041801E+03  0.12509126144E+03 0.  0.
          5    1    3    3  502    0 -0.72668164843E+02  0.21717873563E+02 -0.94212561002E+02  0.12101986310E+03  0.41800000000E+01 0.  1.
         -5    1    3    3    0  502 -0.60004016196E+01  0.12110233923E+02  0.38088147860E+02  0.40630554915E+02  0.41800000000E+01 0.  1.
        -11    1    1    2    0    0  0.94571807916E+02 -0.45540030417E+02 -0.14456570627E+03  0.17865319659E+03  0.00000000000E+00 0. -1.
         11    1    1    2    0    0 -0.15903241453E+02  0.11711922931E+02 -0.73306303192E+01  0.21067044604E+02  0.00000000000E+00 0.  1.
</event>
<event>
 7    1  0.2749315E-009  0.8811350E+02  0.7561462E-02  0.1307486E+00
         -2   -1    0    0    0  501 -0.00000000000E+00  0.00000000000E+00  0.91168437057E+01  0.91168437057E+01  0.00000000000E+00 0. -1.
          2   -1    0    0  501    0  0.00000000000E+00 -0.00000000000E+00 -0.23407081661E+04  0.23407081661E+04  0.00000000000E+00 0.  1.
         25    2    1    2    0    0  0.17413945164E+02 -0.14448440474E+02 -0.20194576207E+04  0.20234545153E+04  0.12508833222E+03 0.  0.
          5    1    3    3  502    0  0.16468403345E+01 -0.45639539429E+02 -0.18403310199E+04  0.18409023371E+04  0.41800000000E+01 0.  1.
         -5    1    3    3    0  502  0.15767104829E+02  0.31191098955E+02 -0.17912660078E+03  0.18255217817E+03  0.41800000000E+01 0.  1.
        -11    1    1    2    0    0 -0.39073718580E+02  0.43796141964E+02 -0.18276355581E+03  0.19195670050E+03  0.00000000000E+00 0. -1.
         11    1    1    2    0    0  0.21659773416E+02 -0.29347701490E+02 -0.12937014592E+03  0.13441379402E+03  0.00000000000E+00 0.  1.
</event>
<event>
 7    1  0.3043907E-009  0.1314611E+03  0.7561462E-02  0.1225304E+00
         -2   -1    0    0    0  501 -0.00000000000E+00  0.00000000000E+00  0.52759991231E+02  0.52759991231E+02  0.00000000000E+00 0.  1.
          2   -1    0    0  501    0  0.00000000000E+00 -0.00000000000E+00 -0.42564952051E+03  0.42564952051E+03  0.00000000000E+00 0. -1.
         25    2    1    2    0    0  0.70123343171E+02 -0.74945431569E+02 -0.21687436082E+03  0.27058302617E+03  0.12508630900E+03 0.  0.
          5    1    3    3  502    0  0.99526885521E+02 -0.41624702550E+02 -0.10706238257E+03  0.15204618695E+03  0.41800000000E+01 0. -1.
         -5    1    3    3    0  502 -0.29403542350E+02 -0.33320729018E+02 -0.10981197825E+03  0.11853683922E+03  0.41800000000E+01 0. -1.
        -11    1    1    2    0    0 -0.38019530205E+02  0.12345975204E+02 -0.12446060936E+03  0.13072241989E+03  0.00000000000E+00 0. -1.
         11    1    1    2    0    0 -0.32103812966E+02  0.62599456364E+02 -0.31554559097E+02  0.77104065677E+02  0.00000000000E+00 0.  1.
</event>
<event>
 7    1  0.2749315E-009  0.2351522E+03  0.7561462E-02  0.1123065E+00
         -1   -1    0    0    0  501 -0.00000000000E+00  0.00000000000E+00  0.47958931574E+03  0.47958931574E+03  0.00000000000E+00 0.  1.
          1   -1    0    0  501    0  0.00000000000E+00 -0.00000000000E+00 -0.15609164124E+03  0.15609164124E+03  0.00000000000E+00 0. -1.
         25    2    1    2    0    0  0.16695543543E+03  0.15671224423E+03  0.28858959062E+03  0.38905460526E+03  0.12508672650E+03 0.  0.
          5    1    3    3  502    0  0.37266618522E+02  0.16214238428E+02 -0.23071528262E+01  0.40920627293E+02  0.41800000000E+01 0. -1.
         -5    1    3    3    0  502  0.12968881691E+03  0.14049800581E+03  0.29089674345E+03  0.34813397797E+03  0.41800000000E+01 0. -1.
        -11    1    1    2    0    0 -0.13296808188E+02 -0.48426198522E+02 -0.14482549966E+02  0.52265151533E+02  0.00000000000E+00 0.  1.
         11    1    1    2    0    0 -0.15365862725E+03 -0.10828604571E+03  0.49390633848E+02  0.19436120018E+03  0.00000000000E+00 0. -1.
</event>
<event>
 7    1  0.2749315E-009  0.1497094E+03  0.7561462E-02  0.1200831E+00
         -3   -1    0    0    0  501 -0.00000000000E+00  0.00000000000E+00  0.34453582157E+03  0.34453582157E+03  0.00000000000E+00 0.  1.
          3   -1    0    0  501    0  0.00000000000E+00 -0.00000000000E+00 -0.89925219981E+02  0.89925219981E+02  0.00000000000E+00 0. -1.
         25    2    1    2    0    0 -0.98180749601E+02  0.94171392199E+02  0.15794475871E+03  0.24310835985E+03  0.12508963637E+03 0.  0.
          5    1    3    3  502    0 -0.11239363045E+03  0.88672149217E+02  0.80964676831E+02  0.16452303640E+03  0.41800000000E+01 0. -1.
         -5    1    3    3    0  502  0.14212880854E+02  0.54992429818E+01  0.76980081879E+02  0.78585323450E+02  0.41800000000E+01 0. -1.
        -11    1    1    2    0    0  0.89296004338E+02 -0.66516934171E+02  0.25134968572E+02  0.11414922500E+03  0.00000000000E+00 0. -1.
         11    1    1    2    0    0  0.88847452626E+01 -0.27654458027E+02  0.71530874311E+02  0.77203456703E+02  0.00000000000E+00 0.  1.
</event>
<event>
 7    1  0.2749315E-009  0.1634384E+03  0.7561462E-02  0.1184869E+00
          2   -1    0    0  501    0  0.00000000000E+00  0.00000000000E+00  0.67798095943E+03  0.67798095943E+03  0.00000000000E+00 0. -1.
         -2   -1    0    0    0  501 -0.00000000000E+00 -0.00000000000E+00 -0.52698368994E+02  0.52698368994E+02  0.00000000000E+00 0.  1.
         25    2    1    2    0    0 -0.13825742787E+03  0.67566706852E+02  0.32192870103E+03  0.37810845014E+03  0.12509010866E+03 0.  0.
          5    1    3    3  502    0 -0.46579507057E+02  0.27054109440E+02  0.24715067066E+03  0.25298715723E+03  0.41800000000E+01 0.  1.
         -5    1    3    3    0  502 -0.91677920813E+02  0.40512597412E+02  0.74778030372E+02  0.12512129291E+03  0.41800000000E+01 0.  1.
        -11    1    1    2    0    0 -0.39644292612E+01 -0.23219490785E+02  0.85246186113E+02  0.88440792050E+02  0.00000000000E+00 0.  1.
         11    1    1    2    0    0  0.14222185713E+03 -0.44347216067E+02  0.21810770330E+03  0.26413008624E+03  0.00000000000E+00 0. -1.
</event>
<event>
 7    1  0.2749315E-009  0.1309200E+03  0.7561462E-02  0.1226097E+00
          2   -1    0    0  501    0  0.00000000000E+00  0.00000000000E+00  0.25359159427E+03  0.25359159427E+03  0.00000000000E+00 0. -1.
         -2   -1    0    0    0  501 -0.00000000000E+00 -0.00000000000E+00 -0.20923757130E+03  0.20923757130E+03  0.00000000000E+00 0.  1.
         25    2    1    2    0    0 -0.57743993710E+02 -0.62398354405E+02  0.20784321253E+03  0.25704763448E+03  0.12508701755E+03 0.  0.
          5    1    3    3  502    0 -0.81676634330E+02 -0.84296771303E+02  0.17446698024E+03  0.21031694616E+03  0.41800000000E+01 0.  1.
         -5    1    3    3    0  502  0.23932640620E+02  0.21898416897E+02  0.33376232285E+02  0.46730688324E+02  0.41800000000E+01 0.  1.
        -11    1    1    2    0    0  0.20573161980E+02 -0.15241160564E+02 -0.59906517960E+01  0.26295168341E+02  0.00000000000E+00 0. -1.
         11    1    1    2    0    0  0.37170831731E+02  0.77639514969E+02 -0.15749853776E+03  0.17948636274E+03  0.00000000000E+00 0.  1.
</event>
<event>
 7    1  0.2749315E-009  0.1038838E+03  0.7561462E-02  0.1272334E+00
         -2   -1    0    0    0  501 -0.00000000000E+00  0.00000000000E+00  0.20703981138E+02  0.20703981138E+02  0.00000000000E+00 0.  1.
          2   -1    0    0  501    0  0.00000000000E+00 -0.00000000000E+00 -0.71945002993E+03  0.71945002993E+03  0.00000000000E+00 0. -1.
         25    2    1    2    0    0 -0.16055800399E+02  0.23090714559E+02 -0.54532168138E+03  0.56019158168E+03  0.12509157516E+03 0.  0.
          5    1    3    3  502    0  0.42287480202E+02 -0.21774138904E+02 -0.30815997226E+03  0.31183711294E+03  0.41800000000E+01 0.  1.
         -5    1    3    3    0  502 -0.58343280601E+02  0.44864853463E+02 -0.23716170913E+03  0.24835446874E+03  0.41800000000E+01 0.  1.
        -11    1    1    2    0    0 -0.33274166829E+02 -0.14202449742E+02 -0.30887640253E+02  0.47570222590E+02  0.00000000000E+00 0.  1.
         11    1    1    2    0    0  0.49329967228E+02 -0.88882648161E+01 -0.12253672715E+03  0.13239220679E+03  0.00000000000E+00 0. -1.
</event>
<event>
 7    1  0.2749315E-009  0.9344769E+02  0.7561462E-02  0.1294711E+00
          2   -1    0    0  501    0  0.00000000000E+00  0.00000000000E+00  0.24843570004E+03  0.24843570004E+03  0.00000000000E+00 0. -1.
         -2   -1    0    0    0  501 -0.00000000000E+00 -0.00000000000E+00 -0.60262234562E+02  0.60262234562E+02  0.00000000000E+00 0.  1.
         25    2    1    2    0    0 -0.34967700169E+02  0.25033636091E+01  0.48283698463E+02  0.13859086512E+03  0.12508839064E+03 0.  0.
          5    1    3    3  502    0 -0.47969868209E+02  0.32267780054E+02 -0.21246155840E+02  0.61734831527E+02  0.41800000000E+01 0. -1.
         -5    1    3    3    0  502  0.13002168040E+02 -0.29764416445E+02  0.69529854303E+02  0.76856033592E+02  0.41800000000E+01 0. -1.
        -11    1    1    2    0    0 -0.21128357195E+02  0.25803373542E+02  0.57785786523E+02  0.66718952990E+02  0.00000000000E+00 0.  1.
         11    1    1    2    0    0  0.56096057364E+02 -0.28306737151E+02  0.82103980494E+02  0.10338811650E+03  0.00000000000E+00 0. -1.
</event>
<event>
 7    1  0.2749315E-009  0.7855786E+02  0.7561462E-02  0.1333195E+00
         -4   -1    0    0    0  501 -0.00000000000E+00  0.00000000000E+00  0.21836254212E+03  0.21836254212E+03  0.00000000000E+00 0.  1.
          4   -1    0    0  501    0  0.00000000000E+00 -0.00000000000E+00 -0.81449634931E+02  0.81449634931E+02  0.00000000000E+00 0. -1.
         25    2    1    2    0    0 -0.55265824646E+02 -0.39475053650E+02  0.34660531126E+02  0.14650139270E+03  0.12509482167E+03 0.  0.
          5    1    3    3  502    0 -0.48935950419E+01 -0.15670793890E+02  0.75448302914E+02  0.77326837942E+02  0.41800000000E+01 0.  1.
         -5    1    3    3    0  502 -0.50372229604E+02 -0.23804259759E+02 -0.40787771788E+02  0.69174554754E+02  0.41800000000E+01 0.  1.
        -11    1    1    2    0    0  0.43669519971E+02  0.51551737429E+02  0.11423721432E+03  0.13272057015E+03  0.00000000000E+00 0.  1.
         11    1    1    2    0    0  0.11596304675E+02 -0.12076683779E+02 -0.11984838251E+02  0.20590214207E+02  0.00000000000E+00 0. -1.
</event>
<event>
 7    1  0.2749315E-009  0.6771681E+02  0.7561462E-02  0.1368034E+00
          1   -1    0    0  501    0  0.00000000000E+00  0.00000000000E+00  0.22815313193E+03  0.22815313193E+03  0.00000000000E+00 0. -1.
         -1   -1    0    0    0  501 -0.00000000000E+00 -0.00000000000E+00 -0.95490318860E+02  0.95490318860E+02  0.00000000000E+00 0.  1.
         25    2    1    2    0    0 -0.28165221086E+02  0.44684242073E+02  0.16074209207E+03  0.21041440946E+03  0.12508494065E+03 0.  0.
          5    1    3    3  502    0 -0.29526240560E+02  0.40898471025E+02  0.10599012320E+01  0.50626866429E+02  0.41800000000E+01 0. -1.
         -5    1    3    3    0  502  0.13610194745E+01  0.37857710480E+01  0.15968219084E+03  0.15978754303E+03  0.41800000000E+01 0. -1.
        -11    1    1    2    0    0  0.40795485295E+02 -0.98566529182E+01 -0.53722536953E+02  0.68172840662E+02  0.00000000000E+00 0.  1.
         11    1    1    2    0    0 -0.12630264209E+02 -0.34827589155E+02  0.25643257949E+02  0.45056200668E+02  0.00000000000E+00 0. -1.
</event>
<event>
 7    1  0.2749315E-009  0.2900295E+03  0.7561462E-02  0.1090334E+00
         -2   -1    0    0    0  501 -0.00000000000E+00  0.00000000000E+00  0.40962971431E+03  0.40962971431E+03  0.00000000000E+00 0.  1.
          2   -1    0    0  501    0  0.00000000000E+00 -0.00000000000E+00 -0.22681697460E+03  0.22681697460E+03  0.00000000000E+00 0. -1.
         25    2    1    2    0    0 -0.25382829341E+03 -0.10330983731E+03  0.17263222569E+03  0.34720490578E+03  0.12509051215E+03 0.  0.
          5    1    3    3  502    0 -0.61515742630E+02 -0.78506598259E+02  0.96514945477E+02  0.13885272652E+03  0.41800000000E+01 0.  1.
         -5    1    3    3    0  502 -0.19231255078E+03 -0.24803239053E+02  0.76117280212E+02  0.20835217926E+03  0.41800000000E+01 0.  1.
        -11    1    1    2    0    0  0.20158833316E+03  0.42325279957E+02 -0.10732020319E+02  0.20626308843E+03  0.00000000000E+00 0. -1.
         11    1    1    2    0    0  0.52239960252E+02  0.60984557355E+02  0.20912534332E+02  0.82978694706E+02  0.00000000000E+00 0.  1.
</event>
<event>
 7    1  0.2749315E-009  0.1048421E+03  0.7561462E-02  0.1270431E+00
          3   -1    0    0  501    0  0.00000000000E+00  0.00000000000E+00  0.54304227024E+03  0.54304227024E+03  0.00000000000E+00 0. -1.
         -3   -1    0    0    0  501 -0.00000000000E+00 -0.00000000000E+00 -0.40891930383E+02  0.40891930383E+02  0.00000000000E+00 0.  1.
         25    2    1    2    0    0  0.55829869243E+02 -0.42183896774E+02  0.41456434050E+03  0.43864574382E+03  0.12510012274E+03 0.  0.
          5    1    3    3  502    0 -0.33274362674E+02 -0.36648029651E+02  0.10041934136E+03  0.11203471697E+03  0.41800000000E+01 0. -1.
         -5    1    3    3    0  502  0.89104231917E+02 -0.55358671221E+01  0.31414499915E+03  0.32661102685E+03  0.41800000000E+01 0. -1.
        -11    1    1    2    0    0 -0.37214361541E+02  0.33585601834E+02 -0.50755919393E+01  0.50385146512E+02  0.00000000000E+00 0.  1.
         11    1    1    2    0    0 -0.18615507702E+02  0.85982949398E+01  0.92661591297E+02  0.94903310293E+02  0.00000000000E+00 0. -1.
</event>
<event>
 7    1  0.2749315E-009  0.1351834E+03  0.7561462E-02  0.1219961E+00
          2   -1    0    0  501    0  0.00000000000E+00  0.00000000000E+00  0.40769325351E+03  0.40769325351E+03  0.00000000000E+00 0. -1.
         -2   -1    0    0    0  501 -0.00000000000E+00 -0.00000000000E+00 -0.49485646291E+02  0.49485646291E+02  0.00000000000E+00 0.  1.
         25    2    1    2    0    0 -0.12592322794E+02  0.98991724414E+02  0.21902342869E+03  0.27124980669E+03  0.12508903715E+03 0.  0.
          5    1    3    3  502    0 -0.39981586571E+02 -0.66607763644E+01  0.10833230130E+03  0.11574218381E+03  0.41800000000E+01 0.  1.
         -5    1    3    3    0  502  0.27389263777E+02  0.10565250078E+03  0.11069112739E+03  0.15550762288E+03  0.41800000000E+01 0.  1.
        -11    1    1    2    0    0  0.33684172609E+01 -0.10767407803E+03  0.10927181695E+03  0.15344504975E+03  0.00000000000E+00 0.  1.
         11    1    1    2    0    0  0.92239055330E+01  0.86823536197E+01  0.29912361578E+02  0.32484043357E+02  0.00000000000E+00 0. -1.
</event>
<event>
 7    1  0.2749315E-009  0.1855439E+03  0.7561462E-02  0.1162543E+00
         -1   -1    0    0    0  501 -0.00000000000E+00  0.00000000000E+00  0.30806292245E+02  0.30806292245E+02  0.00000000000E+00 0.  1.
          1   -1    0    0  501    0  0.00000000000E+00 -0.00000000000E+00 -0.11973417076E+04  0.11973417076E+04  0.00000000000E+00 0. -1.
         25    2    1    2    0    0 -0.15411474521E+03 -0.44021073495E+02 -0.61603142169E+03  0.64871452058E+03  0.12508639853E+03 0.  0.
          5    1    3    3  502    0 -0.15328323279E+03 -0.72806037115E+02 -0.56524049350E+03  0.59017858008E+03  0.41800000000E+01 0.  1.
         -5    1    3    3    0  502 -0.83151242264E+00  0.28784963620E+02 -0.50790928196E+02  0.58535940502E+02  0.41800000000E+01 0.  1.
        -11    1    1    2    0    0  0.10337946180E+03 -0.24963325945E+01 -0.41185152664E+03  0.42463540220E+03  0.00000000000E+00 0. -1.
         11    1    1    2    0    0  0.50735283413E+02  0.46517406090E+02 -0.13865246697E+03  0.15479807702E+03  0.00000000000E+00 0.  1.
</event>
<event>
 7    1  0.2749315E-009  0.1298131E+03  0.7561462E-02  0.1227733E+00
          2   -1    0    0  501    0  0.00000000000E+00  0.00000000000E+00  0.26466815729E+04  0.26466815729E+04  0.00000000000E+00 0. -1.
         -2   -1    0    0    0  501 -0.00000000000E+00 -0.00000000000E+00 -0.78883583818E+01  0.78883583818E+01  0.00000000000E+00 0.  1.
         25    2    1    2    0    0  0.76633829943E+02  0.13058344535E+02  0.19075396431E+04  0.19132162000E+04  0.12508186797E+03 0.  0.
          5    1    3    3  502    0  0.99676273410E+02  0.34857253761E+02  0.11057358181E+04  0.11107743063E+04  0.41800000000E+01 0.  1.
         -5    1    3    3    0  502 -0.23042443467E+02 -0.21798909225E+02  0.80180382497E+03  0.80244189371E+03  0.41800000000E+01 0.  1.
        -11    1    1    2    0    0 -0.16414790034E+02 -0.49101426872E+02  0.30776211934E+03  0.31208639438E+03  0.00000000000E+00 0.  1.
         11    1    1    2    0    0 -0.60219039909E+02  0.36043082336E+02  0.42349145209E+03  0.42926733692E+03  0.00000000000E+00 0. -1.
</event>
<event>
 7    1  0.2749315E-009  0.8596491E+02  0.7561462E-02  0.1312928E+00
          1   -1    0    0  501    0  0.00000000000E+00  0.00000000000E+00  0.93056761761E+02  0.93056761761E+02  0.00000000000E+00 0. -1.
         -1   -1    0    0    0  501 -0.00000000000E+00 -0.00000000000E+00 -0.15690257469E+03  0.15690257469E+03  0.00000000000E+00 0.  1.
         25    2    1    2    0    0 -0.18090731589E+01  0.11783553532E+02 -0.94759038011E+02  0.15737883001E+03  0.12508675378E+03 0.  0.
          5    1    3    3  502    0 -0.26275751027E+01 -0.50514073706E+02 -0.93994627310E+01  0.51617807905E+02  0.41800000000E+01 0. -1.
         -5    1    3    3    0  502  0.81850194389E+00  0.62297627238E+02 -0.85359575280E+02  0.10576102211E+03  0.41800000000E+01 0. -1.
        -11    1    1    2    0    0 -0.75590844203E+01  0.22215263290E+02 -0.19873143220E+02  0.30750601649E+02  0.00000000000E+00 0.  1.
         11    1    1    2    0    0  0.93681575791E+01 -0.33998816822E+02  0.50786368300E+02  0.61829904794E+02  0.00000000000E+00 0. -1.
</event>
<event>
 7    1  0.2749315E-009  0.1385388E+03  0.7561462E-02  0.1215309E+00
         -2   -1    0    0    0  501 -0.00000000000E+00  0.00000000000E+00  0.75300466792E+02  0.75300466792E+02  0.00000000000E+00 0.  1.
          2   -1    0    0  501    0  0.00000000000E+00 -0.00000000000E+00 -0.36570565657E+03  0.36570565657E+03  0.00000000000E+00 0. -1.
         25    2    1    2    0    0 -0.20934504951E+02 -0.12075667658E+03 -0.11758857691E+03  0.21093702006E+03  0.12508766757E+03 0.  0.
          5    1    3    3  502    0  0.32556707156E+02 -0.20847702418E+02  0.10084272713E+02  0.40171268751E+02  0.41800000000E+01 0.  1.
         -5    1    3    3    0  502 -0.53491212106E+02 -0.99908974161E+02 -0.12767284962E+03  0.17076575131E+03  0.41800000000E+01 0.  1.
        -11    1    1    2    0    0  0.20494653482E+02  0.50097860671E+02 -0.13500173372E+02  0.55786030028E+02  0.00000000000E+00 0.  1.
         11    1    1    2    0    0  0.43985146880E+00  0.70658815908E+02 -0.15931643950E+03  0.17428307327E+03  0.00000000000E+00 0. -1.
</event>
<event>
 7    1  0.2749315E-009  0.7672006E+02  0.7561462E-02  0.1338626E+00
         -2   -1    0    0    0  501 -0.00000000000E+00  0.00000000000E+00  0.15670749788E+02  0.15670749788E+02  0.00000000000E+00 0.  1.
          2   -1    0    0  501    0  0.00000000000E+00 -0.00000000000E+00 -0.10143038273E+04  0.10143038273E+04  0.00000000000E+00 0. -1.
         25    2    1    2    0    0 -0.61064041896E+01 -0.34520866182E+02 -0.77260280561E+03  0.78344854299E+03  0.12509015109E+03 0.  0.
          5    1    3    3  502    0  0.20230039165E+02 -0.14015961185E+02 -0.72348919077E+03  0.72391973534E+03  0.41800000000E+01 0.  1.
         -5    1    3    3    0  502 -0.26336443355E+02 -0.20504904997E+02 -0.49113614841E+02  0.59528807650E+02  0.41800000000E+01 0.  1.
        -11    1    1    2    0    0  0.41109418308E+01  0.64581209939E+02 -0.12046279865E+03  0.13674398846E+03  0.00000000000E+00 0.  1.
         11    1    1    2    0    0  0.19954623588E+01 -0.30060343757E+02 -0.10556747323E+03  0.10978204562E+03  0.00000000000E+00 0. -1.
</event>
<event>
 7    1  0.2749315E-009  0.9035523E+02  0.7561462E-02  0.1301994E+00
         -1   -1    0    0    0  501 -0.00000000000E+00  0.00000000000E+00  0.16070740321E+03  0.16070740321E+03  0.00000000000E+00 0.  1.
          1   -1    0    0  501    0  0.00000000000E+00 -0.00000000000E+00 -0.87941609914E+02  0.87941609914E+02  0.00000000000E+00 0. -1.
         25    2    1    2    0    0  0.19461732694E+02  0.44806509635E+02  0.46353209812E+02  0.14206740056E+03  0.12509254133E+03 0.  0.
          5    1    3    3  502    0  0.54783899065E+02  0.69470609446E+02  0.43534813936E+02  0.98692419152E+02  0.41800000000E+01 0. -1.
         -5    1    3    3    0  502 -0.35322166371E+02 -0.24664099811E+02  0.28183958753E+01  0.43374981406E+02  0.41800000000E+01 0. -1.
        -11    1    1    2    0    0 -0.10997570753E+02 -0.24444946837E+02  0.60392551820E+02  0.66073915456E+02  0.00000000000E+00 0.  1.
         11    1    1    2    0    0 -0.84641619411E+01 -0.20361562798E+02 -0.33979968337E+02  0.40507697110E+02  0.00000000000E+00 0. -1.
</event>
<event>
 7    1  0.2749315E-009  0.1989732E+03  0.7561462E-02  0.1150608E+00
          2   -1    0    0  501    0  0.00000000000E+00  0.00000000000E+00  0.63084082751E+03  0.63084082751E+03  0.00000000000E+00 0.  1.
         -2   -1    0    0    0  501 -0.00000000000E+00 -0.00000000000E+00 -0.12558788976E+03  0.12558788976E+03  0.00000000000E+00 0. -1.
         25    2    1    2    0    0  0.17284559016E+03  0.42294139634E+01  0.51788411341E+03  0.56012967408E+03  0.12509121026E+03 0.  0.
          5    1    3    3  502    0  0.70850454045E+01 -0.38953825186E+02  0.13294376917E+03  0.13877721904E+03  0.41800000000E+01 0. -1.
         -5    1    3    3    0  502  0.16576054475E+03  0.43183239149E+02  0.38494034424E+03  0.42135245504E+03  0.41800000000E+01 0. -1.
        -11    1    1    2    0    0 -0.46520968696E+02 -0.33240296450E+02  0.23387255106E+02  0.61774440814E+02  0.00000000000E+00 0. -1.
         11    1    1    2    0    0 -0.12632462146E+03  0.29010882487E+02 -0.36018430762E+02  0.13452460238E+03  0.00000000000E+00 0.  1.
</event>
<event>
 7    1  0.2749315E-009  0.1083978E+03  0.7561462E-02  0.1263566E+00
         -1   -1    0    0    0  501 -0.00000000000E+00  0.00000000000E+00  0.13341785929E+03  0.13341785929E+03  0.00000000000E+00 0.  1.
          1   -1    0    0  501    0  0.00000000000E+00 -0.00000000000E+00 -0.12453869504E+03  0.12453869504E+03  0.00000000000E+00 0. -1.
         25    2    1    2    0    0 -0.14488209869E+02 -0.65822870941E+02  0.19100978925E+02  0.14337052007E+03  0.12509076731E+03 0.  0.
          5    1    3    3  502    0  0.15989184578E+02 -0.94380675438E+02  0.29258069603E+02  0.10018419514E+03  0.41800000000E+01 0.  1.
         -5    1    3    3    0  502 -0.30477394447E+02  0.28557804497E+02 -0.10157090678E+02  0.43186324930E+02  0.41800000000E+01 0.  1.
        -11    1    1    2    0    0 -0.11685741515E+02  0.42056789661E+02  0.35869397544E+02  0.56497290125E+02  0.00000000000E+00 0.  1.
         11    1    1    2    0    0  0.26173951384E+02  0.23766081280E+02 -0.46091212224E+02  0.58088744131E+02  0.00000000000E+00 0. -1.
</event>
<event>
 7    1  0.2749315E-009  0.2359570E+03  0.7561462E-02  0.1122516E+00
         -2   -1    0    0    0  501 -0.00000000000E+00  0.00000000000E+00  0.83590597667E+02  0.83590597667E+02  0.00000000000E+00 0. -1.
          2   -1    0    0  501    0  0.00000000000E+00 -0.00000000000E+00 -0.76957323186E+03  0.76957323186E+03  0.00000000000E+00 0.  1.
         25    2    1    2    0    0 -0.21635783359E+03  0.19356612082E+02 -0.23276886025E+03  0.34207321341E+03  0.12508936983E+03 0.  0.
          5    1    3    3  502    0 -0.19824575402E+03 -0.19349512318E+02 -0.15197648366E+03  0.25057954146E+03  0.41800000000E+01 0.  1.
         -5    1    3    3    0  502 -0.18112079578E+02  0.38706124400E+02 -0.80792376591E+02  0.91493671956E+02  0.41800000000E+01 0.  1.
        -11    1    1    2    0    0  0.17558533926E+03  0.15275564837E+02 -0.39197470326E+03  0.42977636306E+03  0.00000000000E+00 0.  1.
         11    1    1    2    0    0  0.40772494330E+02 -0.34632176918E+02 -0.61239070682E+02  0.81314253055E+02  0.00000000000E+00 0. -1.
</event>
<event>
 7    1  0.2749315E-009  0.1066347E+03  0.7561462E-02  0.1266932E+00
          2   -1    0    0  501    0  0.00000000000E+00  0.00000000000E+00  0.28403492711E+03  0.28403492711E+03  0.00000000000E+00 0. -1.
         -2   -1    0    0    0  501 -0.00000000000E+00 -0.00000000000E+00 -0.76816535793E+02  0.76816535793E+02  0.00000000000E+00 0.  1.
         25    2    1    2    0    0  0.17606694814E+02 -0.53305700894E+02  0.10454077616E+02  0.13750700021E+03  0.12508954360E+03 0.  0.
          5    1    3    3  502    0 -0.19041995695E+02  0.23997109822E+02  0.36639420575E+02  0.47941406111E+02  0.41800000000E+01 0.  1.
         -5    1    3    3    0  502  0.36648690509E+02 -0.77302810716E+02 -0.26185342959E+02  0.89565594100E+02  0.41800000000E+01 0.  1.
        -11    1    1    2    0    0  0.30576651070E+02  0.31205923800E+02  0.13529862110E+03  0.14217755851E+03  0.00000000000E+00 0.  1.
         11    1    1    2    0    0 -0.48183345884E+02  0.22099777094E+02  0.61465692597E+02  0.81166904183E+02  0.00000000000E+00 0. -1.
</event>
<event>
 7    1  0.2749315E-009  0.1653683E+03  0.7561462E-02  0.1182766E+00
          2   -1    0    0  501    0  0.00000000000E+00  0.00000000000E+00  0.77125125113E+02  0.77125125113E+02  0.00000000000E+00 0. -1.
         -2   -1    0    0    0  501 -0.00000000000E+00 -0.00000000000E+00 -0.49400433157E+03  0.49400433157E+03  0.00000000000E+00 0.  1.
         25    2    1    2    0    0 -0.49719644562E+02  0.15380270790E+03 -0.21818481518E+03  0.29896604561E+03  0.12509503122E+03 0.  0.
          5    1    3    3  502    0 -0.55347216159E+02  0.12238944700E+03 -0.78529369861E+02  0.15564968810E+03  0.41800000000E+01 0. -1.
         -5    1    3    3    0  502  0.56275715967E+01  0.31413260900E+02 -0.13965544532E+03  0.14331635751E+03  0.41800000000E+01 0. -1.
        -11    1    1    2    0    0  0.24576565540E+02 -0.11724950990E+03 -0.19338043459E+03  0.22748065330E+03  0.00000000000E+00 0.  1.
         11    1    1    2    0    0  0.25143079022E+02 -0.36553197998E+02 -0.53139566886E+01  0.44682757774E+02  0.00000000000E+00 0. -1.
</event>
<event>
 7    1  0.2749315E-009  0.1319363E+03  0.7561462E-02  0.1224611E+00
         -1   -1    0    0    0  501 -0.00000000000E+00  0.00000000000E+00  0.34732572818E+02  0.34732572818E+02  0.00000000000E+00 0.  1.
          1   -1    0    0  501    0  0.00000000000E+00 -0.00000000000E+00 -0.87156219193E+03  0.87156219193E+03  0.00000000000E+00 0. -1.
         25    2    1    2    0    0 -0.10095680746E+03  0.19358261488E+02 -0.67686310327E+03  0.69595880664E+03  0.12509188910E+03 0.  0.
          5    1    3    3  502    0 -0.98352229502E+02 -0.24745428168E+02 -0.30476502995E+03  0.32122374311E+03  0.41800000000E+01 0.  1.
         -5    1    3    3    0  502 -0.26045779577E+01  0.44103689656E+02 -0.37209807332E+03  0.37473506353E+03  0.41800000000E+01 0.  1.
        -11    1    1    2    0    0  0.81348566144E+02 -0.39020287127E+02 -0.15868186660E+03  0.18253795991E+03  0.00000000000E+00 0.  1.
         11    1    1    2    0    0  0.19608241315E+02  0.19662025638E+02 -0.12846492406E+01  0.27797998190E+02  0.00000000000E+00 0. -1.
</event>
<event>
 7    1  0.2749315E-009  0.1331770E+03  0.7561462E-02  0.1222816E+00
          1   -1    0    0  501    0  0.00000000000E+00  0.00000000000E+00  0.64254150373E+02  0.64254150373E+02  0.00000000000E+00 0. -1.
         -1   -1    0    0    0  501 -0.00000000000E+00 -0.00000000000E+00 -0.32560325130E+03  0.32560325130E+03  0.00000000000E+00 0.  1.
         25    2    1    2    0    0  0.71200843723E+02 -0.59672868209E+02 -0.15127352292E+03  0.21716957080E+03  0.12509409417E+03 0.  0.
          5    1    3    3  502    0  0.67592639380E+02  0.21241820518E+02 -0.47243416774E+02  0.85260733434E+02  0.41800000000E+01 0.  1.
         -5    1    3    3    0  502  0.36082043432E+01 -0.80914688727E+02 -0.10403010614E+03  0.13190883736E+03  0.41800000000E+01 0.  1.
        -11    1    1    2    0    0 -0.72720437503E+01 -0.14581062701E+02 -0.60930152668E+02  0.63071178156E+02  0.00000000000E+00 0.  1.
         11    1    1    2    0    0 -0.63928799973E+02  0.74253930910E+02 -0.49145425343E+02  0.10961665272E+03  0.00000000000E+00 0. -1.
</event>
<event>
 7    1  0.2749315E-009  0.1698686E+03  0.7561462E-02  0.1177985E+00
         -2   -1    0    0    0  501 -0.00000000000E+00  0.00000000000E+00  0.35654144342E+02  0.35654144342E+02  0.00000000000E+00 0.  1.
          2   -1    0    0  501    0  0.00000000000E+00 -0.00000000000E+00 -0.88419629581E+03  0.88419629581E+03  0.00000000000E+00 0. -1.
         25    2    1    2    0    0 -0.76598145329E+02  0.11297376832E+03 -0.52767162103E+03  0.55920939619E+03  0.12508981154E+03 0.  0.
          5    1    3    3  502    0 -0.15473482145E+02 -0.23227769210E+02 -0.15815485005E+03  0.16065300155E+03  0.41800000000E+01 0. -1.
         -5    1    3    3    0  502 -0.61124663184E+02  0.13620153753E+03 -0.36951677098E+03  0.39855639464E+03  0.41800000000E+01 0. -1.
        -11    1    1    2    0    0 -0.68004048911E+01  0.10893902821E+02 -0.12040524479E+02  0.17603887499E+02  0.00000000000E+00 0.  1.
         11    1    1    2    0    0  0.83398550220E+02 -0.12386767114E+03 -0.30883000596E+03  0.34303715646E+03  0.00000000000E+00 0. -1.
</event>
<event>
 7    1  0.2749315E-009  0.1012086E+03  0.7561462E-02  0.1277775E+00
         -3   -1    0    0    0  501 -0.00000000000E+00  0.00000000000E+00  0.44779421477E+02  0.44779421477E+02  0.00000000000E+00 0.  1.
          3   -1    0    0  501    0  0.00000000000E+00 -0.00000000000E+00 -0.42223913909E+03  0.42223913909E+03  0.00000000000E+00 0. -1.
         25    2    1    2    0    0  0.45190631527E+02  0.49702400135E+02 -0.11291606824E+03  0.18141123301E+03  0.12508986865E+03 0.  0.
          5    1    3    3  502    0 -0.10835172063E+02 -0.19106996667E+02 -0.85603359080E+02  0.88475339847E+02  0.41800000000E+01 0.  1.
         -5    1    3    3    0  502  0.56025803590E+02  0.68809396802E+02 -0.27312709161E+02  0.92935893162E+02  0.41800000000E+01 0.  1.
        -11    1    1    2    0    0 -0.50679657428E+02 -0.10646334263E+02 -0.69814610687E+02  0.86924403798E+02  0.00000000000E+00 0.  1.
         11    1    1    2    0    0  0.54890259014E+01 -0.39056065872E+02 -0.19472903868E+03  0.19868292376E+03  0.00000000000E+00 0. -1.
</event>
<event>
 7    1  0.2749315E-009  0.1674551E+03  0.7561462E-02  0.1180528E+00
          1   -1    0    0  501    0  0.00000000000E+00  0.00000000000E+00  0.16429843443E+04  0.16429843443E+04  0.00000000000E+00 0. -1.
         -1   -1    0    0    0  501 -0.00000000000E+00 -0.00000000000E+00 -0.23689264477E+02  0.23689264477E+02  0.00000000000E+00 0.  1.
         25    2    1    2    0    0  0.13644017662E+03 -0.17480420497E+02  0.12365296748E+04  0.12504309705E+04  0.12510191203E+03 0.  0.
          5    1    3    3  502    0 -0.18778294679E+01 -0.40513495274E+02  0.41623770095E+03  0.41822980003E+03  0.41800000000E+01 0.  1.
         -5    1    3    3    0  502  0.13831800609E+03  0.23033074777E+02  0.82029197384E+03  0.83220117044E+03  0.41800000000E+01 0.  1.
        -11    1    1    2    0    0 -0.98483646605E+02  0.43677024396E+02  0.32460350956E+03  0.34201483817E+03  0.00000000000E+00 0. -1.
         11    1    1    2    0    0 -0.37956530017E+02 -0.26196603899E+02  0.58161895446E+02  0.74227800107E+02  0.00000000000E+00 0.  1.
</event>
<event>
 7    1  0.2749315E-009  0.1152878E+03  0.7561462E-02  0.1251080E+00
         -4   -1    0    0    0  501 -0.00000000000E+00  0.00000000000E+00  0.16216537978E+02  0.16216537978E+02  0.00000000000E+00 0.  1.
          4   -1    0    0  501    0  0.00000000000E+00 -0.00000000000E+00 -0.12452304663E+04  0.12452304663E+04  0.00000000000E+00 0. -1.
         25    2    1    2    0    0 -0.49014227730E+01 -0.76815296429E+02 -0.87460126832E+03  0.88684762350E+03  0.12508683001E+03 0.  0.
          5    1    3    3  502    0  0.93416099436E+01  0.17871008022E+02 -0.27576269098E+02  0.34417460997E+02  0.41800000000E+01 0.  1.
         -5    1    3    3    0  502 -0.14243032717E+02 -0.94686304452E+02 -0.84702499922E+03  0.85243016250E+03  0.41800000000E+01 0.  1.
        -11    1    1    2    0    0 -0.18028284917E+02  0.87144709797E+02 -0.21099910273E+03  0.22899746910E+03  0.00000000000E+00 0.  1.
         11    1    1    2    0    0  0.22929707690E+02 -0.10329413368E+02 -0.14341355722E+03  0.14560191163E+03  0.00000000000E+00 0. -1.
</event>
<event>
 7    1  0.2749315E-009  0.7548249E+02  0.7561462E-02  0.1342383E+00
         -1   -1    0    0    0  501 -0.00000000000E+00  0.00000000000E+00  0.52321386940E+03  0.52321386940E+03  0.00000000000E+00 0.  1.
          1   -1    0    0  501    0  0.00000000000E+00 -0.00000000000E+00 -0.50093763265E+02  0.50093763265E+02  0.00000000000E+00 0. -1.
         25    2    1    2    0    0  0.28388683745E+02  0.15877516420E+02  0.48957847676E+02  0.13821026555E+03  0.12508874355E+03 0.  0.
          5    1    3    3  502    0  0.69677185037E+01 -0.17693568613E+02  0.83246756831E+02  0.85493311986E+02  0.41800000000E+01 0.  1.
         -5    1    3    3    0  502  0.21420965241E+02  0.33571085033E+02 -0.34288909155E+02  0.52716953565E+02  0.41800000000E+01 0.  1.
        -11    1    1    2    0    0 -0.25310349223E+02 -0.50609131300E+02  0.32719033382E+03  0.33204730460E+03  0.00000000000E+00 0.  1.
         11    1    1    2    0    0 -0.30783345218E+01  0.34731614879E+02  0.96971924642E+02  0.10305006252E+03  0.00000000000E+00 0. -1.
</event>
<event>
 7    1  0.2749315E-009  0.1625889E+03  0.7561462E-02  0.1185805E+00
         -2   -1    0    0    0  501 -0.00000000000E+00  0.00000000000E+00  0.44657601542E+02  0.44657601542E+02  0.00000000000E+00 0. -1.
          2   -1    0    0  501    0  0.00000000000E+00 -0.00000000000E+00 -0.66975560303E+03  0.66975560303E+03  0.00000000000E+00 0.  1.
         25    2    1    2    0    0  0.79884066327E+02  0.10176097750E+03 -0.25504598437E+03  0.31214095169E+03  0.12508700567E+03 0.  0.
          5    1    3    3  502    0  0.75780029155E+02  0.33698168452E+01 -0.14970362495E+03  0.16787678877E+03  0.41800000000E+01 0.  1.
         -5    1    3    3    0  502  0.41040371723E+01  0.98391160657E+02 -0.10534235942E+03  0.14426416292E+03  0.41800000000E+01 0.  1.
        -11    1    1    2    0    0 -0.70570831802E+02 -0.11471742126E+03 -0.27871455891E+03  0.30955150523E+03  0.00000000000E+00 0. -1.
         11    1    1    2    0    0 -0.93132345254E+01  0.12956443756E+02 -0.91337458208E+02  0.92720747646E+02  0.00000000000E+00 0.  1.
</event>
<event>
 7    1  0.2749315E-009  0.1403651E+03  0.7561462E-02  0.1212838E+00
          2   -1    0    0  501    0  0.00000000000E+00  0.00000000000E+00  0.11667992379E+04  0.11667992379E+04  0.00000000000E+00 0. -1.
         -2   -1    0    0    0  501 -0.00000000000E+00 -0.00000000000E+00 -0.27722894239E+02  0.27722894239E+02  0.00000000000E+00 0.  1.
         25    2    1    2    0    0  0.11451283866E+03  0.64890716902E+02  0.77916107763E+03  0.80003900942E+03  0.12508571597E+03 0.  0.
          5    1    3    3  502    0  0.11356487520E+03  0.74058656070E+02  0.43341887051E+03  0.45414871478E+03  0.41800000000E+01 0. -1.
         -5    1    3    3    0  502  0.94796345858E+00 -0.91679391681E+01  0.34574220712E+03  0.34589029464E+03  0.41800000000E+01 0. -1.
        -11    1    1    2    0    0 -0.70041907996E+02 -0.55857116939E+02  0.11696916504E+03  0.14733523665E+03  0.00000000000E+00 0.  1.
         11    1    1    2    0    0 -0.44470930667E+02 -0.90335999624E+01  0.24294610098E+03  0.24714788606E+03  0.00000000000E+00 0. -1.
</event>
<event>
 7    1  0.2749315E-009  0.1317084E+03  0.7561462E-02  0.1224943E+00
          2   -1    0    0  501    0  0.00000000000E+00  0.00000000000E+00  0.83191647610E+03  0.83191647610E+03  0.00000000000E+00 0. -1.
         -2   -1    0    0    0  501 -0.00000000000E+00 -0.00000000000E+00 -0.42090013577E+02  0.42090013577E+02  0.00000000000E+00 0.  1.
         25    2    1    2    0    0  0.42224342483E+02 -0.90352673370E+02  0.68174547683E+03  0.70026504786E+03  0.12509093251E+03 0.  0.
          5    1    3    3  502    0  0.46815520052E+01 -0.11480206748E+03  0.49378094769E+03  0.50698967281E+03  0.41800000000E+01 0. -1.
         -5    1    3    3    0  502  0.37542790478E+02  0.24449394114E+02  0.18796452913E+03  0.19327537505E+03  0.41800000000E+01 0. -1.
        -11    1    1    2    0    0 -0.40402994723E+02  0.56042057587E+02  0.99891327779E+01  0.69806138519E+02  0.00000000000E+00 0.  1.
         11    1    1    2    0    0 -0.18213477597E+01  0.34310615783E+02  0.98091852922E+02  0.10393530330E+03  0.00000000000E+00 0. -1.
</event>
<event>
 7    1  0.2749315E-009  0.5411120E+02  0.7561462E-02  0.1424349E+00
          1   -1    0    0  501    0  0.00000000000E+00  0.00000000000E+00  0.83492373362E+02  0.83492373362E+02  0.00000000000E+00 0. -1.
         -1   -1    0    0    0  501 -0.00000000000E+00 -0.00000000000E+00 -0.14486770234E+03  0.14486770234E+03  0.00000000000E+00 0.  1.
         25    2    1    2    0    0 -0.10472323938E+02 -0.11952073750E+02 -0.36181317981E+02  0.13117676013E+03  0.12508290447E+03 0.  0.
          5    1    3    3  502    0 -0.30437901597E+02  0.31844394007E+01  0.40192087937E+02  0.50690066489E+02  0.41800000000E+01 0.  1.
         -5    1    3    3    0  502  0.19965577659E+02 -0.15136513151E+02 -0.76373405919E+02  0.80486693641E+02  0.41800000000E+01 0.  1.
        -11    1    1    2    0    0  0.18952240850E+02 -0.14687038380E+02  0.28138062335E+02  0.36968190132E+02  0.00000000000E+00 0. -1.
         11    1    1    2    0    0 -0.84799169122E+01  0.26639112130E+02 -0.53332073335E+02  0.60215125443E+02  0.00000000000E+00 0.  1.
</event>
<event>
 7    1  0.2749315E-009  0.1289558E+03  0.7561462E-02  0.1229013E+00
         -2   -1    0    0    0  501 -0.00000000000E+00  0.00000000000E+00  0.94300380346E+03  0.94300380346E+03  0.00000000000E+00 0.  1.
          2   -1    0    0  501    0  0.00000000000E+00 -0.00000000000E+00 -0.22821813048E+02  0.22821813048E+02  0.00000000000E+00 0. -1.
         25    2    1    2    0    0  0.74085435628E+02  0.40316604334E+02  0.32374122366E+03  0.35716932666E+03  0.12508983833E+03 0.  0.
          5    1    3    3  502    0 -0.27790644564E+02  0.25626085647E+02  0.15389129134E+03  0.15852134916E+03  0.41800000000E+01 0. -1.
         -5    1    3    3    0  502  0.10187608019E+03  0.14690518687E+02  0.16984993232E+03  0.19864797750E+03  0.41800000000E+01 0. -1.
        -11    1    1    2    0    0  0.15122120263E+02  0.60966806001E+01  0.39887035976E+02  0.43090876929E+02  0.00000000000E+00 0. -1.
         11    1    1    2    0    0 -0.89207555891E+02 -0.46413284935E+02  0.55655373078E+03  0.56556541292E+03  0.00000000000E+00 0.  1.
</event>
<event>
 7    1  0.2749315E-009  0.7376379E+02  0.7561462E-02  0.1347742E+00
          3   -1    0    0  501    0  0.00000000000E+00  0.00000000000E+00  0.44619478697E+02  0.44619478697E+02  0.00000000000E+00 0. -1.
         -3   -1    0    0    0  501 -0.00000000000E+00 -0.00000000000E+00 -0.38911867861E+03  0.38911867861E+03  0.00000000000E+00 0.  1.
         25    2    1    2    0    0 -0.52506050734E+02 -0.18891235714E+02 -0.10972126062E+03  0.17550011100E+03  0.12509104596E+03 0.  0.
          5    1    3    3  502    0  0.83918247721E+01 -0.11569334373E+02 -0.11295889165E+03  0.11393619190E+03  0.41800000000E+01 0.  1.
         -5    1    3    3    0  502 -0.60897875506E+02 -0.73219013405E+01  0.32376310355E+01  0.61563919101E+02  0.41800000000E+01 0.  1.
        -11    1    1    2    0    0  0.22893014454E+01  0.20779788667E+02 -0.30535404429E+01  0.21127343122E+02  0.00000000000E+00 0. -1.
         11    1    1    2    0    0  0.50216749288E+02 -0.18885529531E+01 -0.23172439885E+03  0.23711070318E+03  0.00000000000E+00 0.  1.
</event>
<event>
 7    1  0.2749315E-009  0.1367766E+03  0.7561462E-02  0.1217733E+00
          2   -1    0    0  501    0  0.00000000000E+00  0.00000000000E+00  0.11248253458E+03  0.11248253458E+03  0.00000000000E+00 0. -1.
         -2   -1    0    0    0  501 -0.00000000000E+00 -0.00000000000E+00 -0.28514856882E+03  0.28514856882E+03  0.00000000000E+00 0.  1.
         25    2    1    2    0    0  0.46857935259E+02 -0.11361649013E+03 -0.17209477824E+03  0.24570028398E+03  0.12509054290E+03 0.  0.
          5    1    3    3  502    0 -0.22563949938E+01  0.13199884213E+02  0.10830434434E+02  0.17722837573E+02  0.41800000000E+01 0.  1.
         -5    1    3    3    0  502  0.49114330252E+02 -0.12681637435E+03 -0.18292521267E+03  0.22797744640E+03  0.41800000000E+01 0.  1.
        -11    1    1    2    0    0 -0.43615819996E+02  0.94548069821E+02 -0.37150649842E+02  0.11055246738E+03  0.00000000000E+00 0.  1.
         11    1    1    2    0    0 -0.32421152622E+01  0.19068420311E+02  0.36579393839E+02  0.41378352048E+02  0.00000000000E+00 0. -1.
</event>
<event>
 7    1  0.2749315E-009  0.9710722E+02  0.7561462E-02  0.1286499E+00
          1   -1    0    0  501    0  0.00000000000E+00  0.00000000000E+00  0.16983909344E+03  0.16983909344E+03  0.00000000000E+00 0. -1.
         -1   -1    0    0    0  501 -0.00000000000E+00 -0.00000000000E+00 -0.10227877831E+03  0.10227877831E+03  0.00000000000E+00 0.  1.
         25    2    1    2    0    0  0.17860060965E+02  0.58357639121E+02  0.88592654101E+02  0.16498727639E+03  0.12509015624E+03 0.  0.
          5    1    3    3  502    0 -0.39185792192E+02  0.11331548781E+02  0.80699213430E+02  0.90519421981E+02  0.41800000000E+01 0.  1.
         -5    1    3    3    0  502  0.57045853157E+02  0.47026090340E+02  0.78934406710E+01  0.74467854412E+02  0.41800000000E+01 0.  1.
        -11    1    1    2    0    0 -0.75574847942E+01 -0.65938436597E+02 -0.44844736189E+02  0.80100208247E+02  0.00000000000E+00 0.  1.
         11    1    1    2    0    0 -0.10302576171E+02  0.75807974766E+01  0.23812397213E+02  0.27030387108E+02  0.00000000000E+00 0. -1.
</event>
<event>
 7    1  0.2749315E-009  0.1956295E+03  0.7561462E-02  0.1153480E+00
          3   -1    0    0  501    0  0.00000000000E+00  0.00000000000E+00  0.23264863501E+03  0.23264863501E+03  0.00000000000E+00 0.  1.
         -3   -1    0    0    0  501 -0.00000000000E+00 -0.00000000000E+00 -0.17030527883E+03  0.17030527883E+03  0.00000000000E+00 0. -1.
         25    2    1    2    0    0 -0.94564555414E+02  0.13688614430E+03  0.20664425438E+02  0.20917650179E+03  0.12509004269E+03 0.  0.
          5    1    3    3  502    0 -0.93004354953E+01  0.11296873941E+03  0.36424306685E+02  0.11913285316E+03  0.41800000000E+01 0.  1.
         -5    1    3    3    0  502 -0.85264119919E+02  0.23917404889E+02 -0.15759881247E+02  0.90043648633E+02  0.41800000000E+01 0.  1.
        -11    1    1    2    0    0  0.79720314403E+02 -0.36463774177E+02  0.16787929695E+02  0.89256764109E+02  0.00000000000E+00 0.  1.
         11    1    1    2    0    0  0.14844241011E+02 -0.10042237012E+03  0.24891001051E+02  0.10452064794E+03  0.00000000000E+00 0. -1.
</event>
<event>
 7    1  0.2749315E-009  0.8633296E+02  0.7561462E-02  0.1311983E+00
         -2   -1    0    0    0  501 -0.00000000000E+00  0.00000000000E+00  0.64187759772E+02  0.64187759772E+02  0.00000000000E+00 0.  1.
          2   -1    0    0  501    0  0.00000000000E+00 -0.00000000000E+00 -0.31321610831E+03  0.31321610831E+03  0.00000000000E+00 0. -1.
         25    2    1    2    0    0  0.39215193953E+02  0.60672194446E+02 -0.21082088210E+03  0.25555761239E+03  0.12508118286E+03 0.  0.
          5    1    3    3  502    0 -0.63809940276E+00  0.93838975408E+01 -0.18539601962E+03  0.18568150472E+03  0.41800000000E+01 0. -1.
         -5    1    3    3    0  502  0.39853293355E+02  0.51288296905E+02 -0.25424862477E+02  0.69876107667E+02  0.41800000000E+01 0. -1.
        -11    1    1    2    0    0 -0.49175586415E+02 -0.68705445930E+02 -0.54939438024E+02  0.10078203436E+03  0.00000000000E+00 0. -1.
         11    1    1    2    0    0  0.99603924626E+01  0.80332514841E+01  0.16731971582E+02  0.21064221335E+02  0.00000000000E+00 0.  1.
</event>
<event>
 7    1  0.2749315E-009  0.1412125E+03  0.7561462E-02  0.1211707E+00
          2   -1    0    0  501    0  0.00000000000E+00  0.00000000000E+00  0.46942979538E+02  0.46942979538E+02  0.00000000000E+00 0. -1.
         -2   -1    0    0    0  501 -0.00000000000E+00 -0.00000000000E+00 -0.49601894210E+03  0.49601894210E+03  0.00000000000E+00 0.  1.
         25    2    1    2    0    0  0.99082932263E+02 -0.40279843772E+02 -0.24967711633E+03  0.29903965359E+03  0.12508460624E+03 0.  0.
          5    1    3    3  502    0  0.49342547494E+02 -0.69299138832E+02 -0.69792568915E+02  0.11011599662E+03  0.41800000000E+01 0. -1.
         -5    1    3    3    0  502  0.49740384769E+02  0.29019295060E+02 -0.17988454742E+03  0.18892365697E+03  0.41800000000E+01 0. -1.
        -11    1    1    2    0    0 -0.25525655629E+02 -0.28883854195E+02 -0.42833941970E+02  0.57624497508E+02  0.00000000000E+00 0.  1.
         11    1    1    2    0    0 -0.73557276634E+02  0.69163697967E+02 -0.15656490426E+03  0.18629777054E+03  0.00000000000E+00 0. -1.
</event>
<event>
 7    1  0.2749315E-009  0.1042071E+03  0.7561462E-02  0.1271690E+00
          2   -1    0    0  501    0  0.00000000000E+00  0.00000000000E+00  0.68282921817E+03  0.68282921817E+03  0.00000000000E+00 0. -1.
         -2   -1    0    0    0  501 -0.00000000000E+00 -0.00000000000E+00 -0.21378934523E+02  0.21378934523E+02  0.00000000000E+00 0.  1.
         25    2    1    2    0    0 -0.46453462808E+02  0.26474297634E+02  0.39647333194E+03  0.41916219238E+03  0.12508808071E+03 0.  0.
          5    1    3    3  502    0  0.85700194763E+01 -0.26008691335E+02  0.17846119684E+02  0.32952293495E+02  0.41800000000E+01 0.  1.
         -5    1    3    3    0  502 -0.55023482284E+02  0.52482988969E+02  0.37862721226E+03  0.38620989888E+03  0.41800000000E+01 0.  1.
        -11    1    1    2    0    0  0.61154501752E+02 -0.48517136399E+02  0.20937241166E+03  0.22345154368E+03  0.00000000000E+00 0. -1.
         11    1    1    2    0    0 -0.14701038944E+02  0.22042838765E+02  0.55604540050E+02  0.61594416638E+02  0.00000000000E+00 0.  1.
</event>
<event>
 7    1  0.2749315E-009  0.1198168E+03  0.7561462E-02  0.1243400E+00
         -1   -1    0    0    0  501 -0.00000000000E+00  0.00000000000E+00  0.14232307978E+02  0.14232307978E+02  0.00000000000E+00 0.  1.
          1   -1    0    0  501    0  0.00000000000E+00 -0.00000000000E+00 -0.10783569630E+04  0.10783569630E+04  0.00000000000E+00 0. -1.
         25    2    1    2    0    0  0.60894706155E+02  0.12087791138E+02 -0.54140709624E+03  0.55912420737E+03  0.12507579892E+03 0.  0.
          5    1    3    3  502    0  0.90121974213E+02  0.36822176340E+02 -0.32416365083E+03  0.33849281799E+03  0.41800000000E+01 0.  1.
         -5    1    3    3    0  502 -0.29227268057E+02 -0.24734385202E+02 -0.21724344541E+03  0.22063138939E+03  0.41800000000E+01 0.  1.
        -11    1    1    2    0    0 -0.38971216690E+02 -0.47858699246E+02 -0.36895267711E+03  0.37407925466E+03  0.00000000000E+00 0. -1.
         11    1    1    2    0    0 -0.21923489466E+02  0.35770908108E+02 -0.15376488167E+03  0.15938580894E+03  0.00000000000E+00 0.  1.
</event>
<event>
 7    1  0.2749315E-009  0.1023844E+03  0.7561462E-02  0.1275360E+00
          2   -1    0    0  501    0  0.00000000000E+00  0.00000000000E+00  0.52598631666E+02  0.52598631666E+02  0.00000000000E+00 0. -1.
         -2   -1    0    0    0  501 -0.00000000000E+00 -0.00000000000E+00 -0.25520355784E+03  0.25520355784E+03  0.00000000000E+00 0.  1.
         25    2    1    2    0    0 -0.29299256219E+02  0.22503032998E+02 -0.90432310531E+02  0.15871439382E+03  0.12508966027E+03 0.  0.
          5    1    3    3  502    0  0.20831840090E+02 -0.32724298039E+02 -0.71808999834E+02  0.81724232030E+02  0.41800000000E+01 0. -1.
         -5    1    3    3    0  502 -0.50131096309E+02  0.55227331038E+02 -0.18623310697E+02  0.76990161787E+02  0.41800000000E+01 0. -1.
        -11    1    1    2    0    0  0.57223251113E+02 -0.26097927760E+02 -0.10061188108E+03  0.11865223519E+03  0.00000000000E+00 0.  1.
         11    1    1    2    0    0 -0.27923994894E+02  0.35948947620E+01 -0.11560734563E+02  0.30435560498E+02  0.00000000000E+00 0. -1.
</event>
<event>
 7    1  0.2749315E-009  0.9755432E+02  0.7561462E-02  0.1285525E+00
          1   -1    0    0  501    0  0.00000000000E+00  0.00000000000E+00  0.48190445888E+03  0.48190445888E+03  0.00000000000E+00 0. -1.
         -1   -1    0    0    0  501 -0.00000000000E+00 -0.00000000000E+00 -0.30325943823E+02  0.30325943823E+02  0.00000000000E+00 0.  1.
         25    2    1    2    0    0  0.30794295668E+02  0.26299508856E+02  0.31565289602E+03  0.34194269759E+03  0.12509238529E+03 0.  0.
          5    1    3    3  502    0 -0.26318796250E+02 -0.98794040466E+01  0.23458502308E+03  0.23630041708E+03  0.41800000000E+01 0.  1.
         -5    1    3    3    0  502  0.57113091918E+02  0.36178912903E+02  0.81067872936E+02  0.10564228050E+03  0.41800000000E+01 0.  1.
        -11    1    1    2    0    0 -0.38043154168E+02  0.26046388081E+02  0.41263275840E+02  0.61873692666E+02  0.00000000000E+00 0.  1.
         11    1    1    2    0    0  0.72488585004E+01 -0.52345896937E+02  0.94662343204E+02  0.10841401245E+03  0.00000000000E+00 0. -1.
</event>
<event>
 7    1  0.2749315E-009  0.6086687E+02  0.7561462E-02  0.1394229E+00
          2   -1    0    0  501    0  0.00000000000E+00  0.00000000000E+00  0.16957591304E+03  0.16957591304E+03  0.00000000000E+00 0. -1.
         -2   -1    0    0    0  501 -0.00000000000E+00 -0.00000000000E+00 -0.81946848628E+02  0.81946848628E+02  0.00000000000E+00 0.  1.
         25    2    1    2    0    0 -0.16382568559E+02  0.30786867549E+02  0.71491007035E+02  0.14823797077E+03  0.12508921666E+03 0.  0.
          5    1    3    3  502    0 -0.27256105501E+02  0.11103865558E+02 -0.31162689186E+02  0.43067118719E+02  0.41800000000E+01 0.  1.
         -5    1    3    3    0  502  0.10873536943E+02  0.19683001991E+02  0.10265369622E+03  0.10517085205E+03  0.41800000000E+01 0.  1.
        -11    1    1    2    0    0 -0.94639675130E+01 -0.40449304129E+02  0.46435217355E+02  0.62305234904E+02  0.00000000000E+00 0. -1.
         11    1    1    2    0    0  0.25846536072E+02  0.96624365804E+01 -0.30297159973E+02  0.40979556001E+02  0.00000000000E+00 0.  1.
</event>
<event>
 7    1  0.2749315E-009  0.1344687E+03  0.7561462E-02  0.1220972E+00
         -2   -1    0    0    0  501 -0.00000000000E+00  0.00000000000E+00  0.13270167334E+03  0.13270167334E+03  0.00000000000E+00 0.  1.
          2   -1    0    0  501    0  0.00000000000E+00 -0.00000000000E+00 -0.16782761432E+03  0.16782761432E+03  0.00000000000E+00 0. -1.
         25    2    1    2    0    0 -0.26658323538E+02 -0.84569521226E+02  0.32634925823E+02  0.15676812506E+03  0.12509411064E+03 0.  0.
          5    1    3    3  502    0 -0.57875779400E+01 -0.11553646297E+03  0.24702658975E+02  0.11836327172E+03  0.41800000000E+01 0.  1.
         -5    1    3    3    0  502 -0.20870745597E+02  0.30966941739E+02  0.79322668474E+01  0.38404853337E+02  0.41800000000E+01 0.  1.
        -11    1    1    2    0    0 -0.74427966986E+01 -0.11479307642E+02  0.88170855870E+01  0.16276078301E+02  0.00000000000E+00 0.  1.
         11    1    1    2    0    0  0.34101120236E+02  0.96048828868E+02 -0.76577952390E+02  0.12748508431E+03  0.00000000000E+00 0. -1.
</event>
<event>
 7    1  0.2749315E-009  0.1174227E+03  0.7561462E-02  0.1247410E+00
         -2   -1    0    0    0  501 -0.00000000000E+00  0.00000000000E+00  0.28751497042E+03  0.28751497042E+03  0.00000000000E+00 0.  1.
          2   -1    0    0  501    0  0.00000000000E+00 -0.00000000000E+00 -0.56095200652E+02  0.56095200652E+02  0.00000000000E+00 0. -1.
         25    2    1    2    0    0  0.41810168619E+02 -0.50691309104E+02  0.13070761183E+03  0.19248352784E+03  0.12509088568E+03 0.  0.
          5    1    3    3  502    0  0.40138215765E+02  0.26252641320E+02  0.98496227741E+01  0.49140258545E+02  0.41800000000E+01 0.  1.
         -5    1    3    3    0  502  0.16719528538E+01 -0.76943950425E+02  0.12085798905E+03  0.14334326929E+03  0.41800000000E+01 0.  1.
        -11    1    1    2    0    0 -0.43906476659E+02  0.74096316251E+02  0.92106464388E+02  0.12610171909E+03  0.00000000000E+00 0.  1.
         11    1    1    2    0    0  0.20963080405E+01 -0.23405007147E+02  0.86056935479E+01  0.25024924143E+02  0.00000000000E+00 0. -1.
</event>
<event>
 7    1  0.2749315E-009  0.1132207E+03  0.7561462E-02  0.1254719E+00
         -1   -1    0    0    0  501 -0.00000000000E+00  0.00000000000E+00  0.76902293428E+02  0.76902293428E+02  0.00000000000E+00 0.  1.
          1   -1    0    0  501    0  0.00000000000E+00 -0.00000000000E+00 -0.22387224293E+03  0.22387224293E+03  0.00000000000E+00 0. -1.
         25    2    1    2    0    0 -0.70356075827E+02 -0.58259569920E+00 -0.64464283552E+02  0.15733124041E+03  0.12508860273E+03 0.  0.
          5    1    3    3  502    0 -0.79888369872E+02  0.24086969389E+02 -0.88245347550E+02  0.12151974119E+03  0.41800000000E+01 0. -1.
         -5    1    3    3    0  502  0.95322940449E+01 -0.24669565088E+02  0.23781063998E+02  0.35811499219E+02  0.41800000000E+01 0. -1.
        -11    1    1    2    0    0 -0.35339680018E+01  0.34597326529E+02 -0.34519722513E+02  0.49000767088E+02  0.00000000000E+00 0. -1.
         11    1    1    2    0    0  0.73890043829E+02 -0.34014730830E+02 -0.47985943442E+02  0.94442528865E+02  0.00000000000E+00 0.  1.
</event>
<event>
 7    1  0.2749315E-009  0.1149518E+03  0.7561462E-02  0.1251665E+00
          2   -1    0    0  501    0  0.00000000000E+00  0.00000000000E+00  0.32673359176E+03  0.32673359176E+03  0.00000000000E+00 0. -1.
         -2   -1    0    0    0  501 -0.00000000000E+00 -0.00000000000E+00 -0.46436243553E+02  0.46436243553E+02  0.00000000000E+00 0.  1.
         25    2    1    2    0    0 -0.59273858513E+02  0.27271535845E+01  0.17587075450E+03  0.22383049654E+03  0.12509492884E+03 0.  0.
          5    1    3    3  502    0  0.27999573979E+02  0.23194499001E+02  0.14858807752E+02  0.39499588538E+02  0.41800000000E+01 0. -1.
         -5    1    3    3    0  502 -0.87273432491E+02 -0.20467345416E+02  0.16101194675E+03  0.18433090800E+03  0.41800000000E+01 0. -1.
        -11    1    1    2    0    0 -0.11917871157E+02  0.24580389915E+02  0.12891038139E+02  0.30206126623E+02  0.00000000000E+00 0.  1.
         11    1    1    2    0    0  0.71191729669E+02 -0.27307543499E+02  0.91535555563E+02  0.11913321215E+03  0.00000000000E+00 0. -1.
</event>
<event>
 7    1  0.2749315E-009  0.1292405E+03  0.7561462E-02  0.1228587E+00
         -2   -1    0    0    0  501 -0.00000000000E+00  0.00000000000E+00  0.67236310688E+02  0.67236310688E+02  0.00000000000E+00 0.  1.
          2   -1    0    0  501    0  0.00000000000E+00 -0.00000000000E+00 -0.32611961735E+03  0.32611961735E+03  0.00000000000E+00 0. -1.
         25    2    1    2    0    0  0.93428507430E+02 -0.45946565749E+02 -0.14446683884E+03  0.21761950488E+03  0.12509040121E+03 0.  0.
          5    1    3    3  502    0  0.99898014626E+02 -0.22044707373E+02 -0.39584047527E+02  0.10977227185E+03  0.41800000000E+01 0.  1.
         -5    1    3    3    0  502 -0.64695071956E+01 -0.23901858376E+02 -0.10488279132E+03  0.10784723303E+03  0.41800000000E+01 0.  1.
        -11    1    1    2    0    0  0.13343803254E+02  0.14432991525E+02 -0.65343787279E+01  0.20713918871E+02  0.00000000000E+00 0. -1.
         11    1    1    2    0    0 -0.10677231068E+03  0.31513574225E+02 -0.10788208910E+03  0.15502250429E+03  0.00000000000E+00 0.  1.
</event>
<event>
 7    1  0.2749315E-009  0.8661279E+02  0.7561462E-02  0.1311268E+00
         -2   -1    0    0    0  501 -0.00000000000E+00  0.00000000000E+00  0.64157321411E+03  0.64157321411E+03  0.00000000000E+00 0.  1.
          2   -1    0    0  501    0  0.00000000000E+00 -0.00000000000E+00 -0.28006114996E+02  0.28006114996E+02  0.00000000000E+00 0. -1.
         25    2    1    2    0    0  0.21926562576E+02  0.54025359711E+02  0.47259002080E+03  0.49233063097E+03  0.12509439952E+03 0.  0.
          5    1    3    3  502    0  0.37483863449E+01  0.45245949637E+02  0.46923399722E+03  0.47144380673E+03  0.41800000000E+01 0. -1.
         -5    1    3    3    0  502  0.18178176231E+02  0.87794100738E+01  0.33560235793E+01  0.20886824235E+02  0.41800000000E+01 0. -1.
        -11    1    1    2    0    0  0.34242784557E+02 -0.10067889268E+02  0.54579507477E+02  0.65213904384E+02  0.00000000000E+00 0.  1.
         11    1    1    2    0    0 -0.56169347133E+02 -0.43957470443E+02  0.86397570838E+02  0.11203479376E+03  0.00000000000E+00 0. -1.
</event>
<event>
 7    1  0.2749315E-009  0.1196621E+03  0.7561462E-02  0.1243656E+00
         -3   -1    0    0    0  501 -0.00000000000E+00  0.00000000000E+00  0.24362693009E+03  0.24362693009E+03  0.00000000000E+00 0.  1.
          3   -1    0    0  501    0  0.00000000000E+00 -0.00000000000E+00 -0.62685822765E+02  0.62685822765E+02  0.00000000000E+00 0. -1.
         25    2    1    2    0    0 -0.47797780923E+02  0.35442385679E+02  0.12054548588E+03  0.18363128841E+03  0.12509374625E+03 0.  0.
          5    1    3    3  502    0  0.80420777589E+01 -0.39021640118E+02  0.61271728558E+02  0.73205604517E+02  0.41800000000E+01 0. -1.
         -5    1    3    3    0  502 -0.55839858682E+02  0.74464025797E+02  0.59273757320E+02  0.11042568389E+03  0.41800000000E+01 0. -1.
        -11    1    1    2    0    0 -0.11314007197E+02  0.21324094160E+02  0.19809688907E+02  0.31227352196E+02  0.00000000000E+00 0.  1.
         11    1    1    2    0    0  0.59111788120E+02 -0.56766479838E+02  0.40585932541E+02  0.91454112254E+02  0.00000000000E+00 0. -1.
</event>
<event>
 7    1  0.2749315E-009  0.9884938E+02  0.7561462E-02  0.1282734E+00
          2   -1    0    0  501    0  0.00000000000E+00  0.00000000000E+00  0.15365361016E+03  0.15365361016E+03  0.00000000000E+00 0. -1.
         -2   -1    0    0    0  501 -0.00000000000E+00 -0.00000000000E+00 -0.86724323377E+02  0.86724323377E+02  0.00000000000E+00 0.  1.
         25    2    1    2    0    0 -0.23388756284E+02  0.13905533197E+02  0.76218684028E+02  0.14898981009E+03  0.12509307712E+03 0.  0.
          5    1    3    3  502    0  0.37517201967E+02 -0.33693771682E+02  0.29394927376E+02  0.58517901953E+02  0.41800000000E+01 0. -1.
         -5    1    3    3    0  502 -0.60905958251E+02  0.47599304879E+02  0.46823756652E+02  0.90471908140E+02  0.41800000000E+01 0. -1.
        -11    1    1    2    0    0  0.13386786798E+01 -0.37424279538E+02  0.24449357579E+02  0.44722923044E+02  0.00000000000E+00 0. -1.
         11    1    1    2    0    0  0.22050077604E+02  0.23518746341E+02 -0.33738754821E+02  0.46665200403E+02  0.00000000000E+00 0.  1.
</event>
<event>
 7    1  0.2749315E-009  0.9981388E+02  0.7561462E-02  0.1280688E+00
          2   -1    0    0  501    0  0.00000000000E+00  0.00000000000E+00  0.38497499253E+03  0.38497499253E+03  0.00000000000E+00 0. -1.
         -2   -1    0    0    0  501 -0.00000000000E+00 -0.00000000000E+00 -0.35521938568E+02  0.35521938568E+02  0.00000000000E+00 0.  1.
         25    2    1    2    0    0  0.45684260548E+02  0.13417099876E+01  0.15131294517E+03  0.20157511519E+03  0.12509223733E+03 0.  0.
          5    1    3    3  502    0 -0.39622949365E+02  0.93529274832E+01  0.80629660622E+02  0.90421623193E+02  0.41800000000E+01 0. -1.
         -5    1    3    3    0  502  0.85307209913E+02 -0.80112174956E+01  0.70683284549E+02  0.11115349200E+03  0.41800000000E+01 0. -1.
        -11    1    1    2    0    0 -0.21212301027E+02 -0.29036639119E+02  0.30186789862E+02  0.46950297213E+02  0.00000000000E+00 0.  1.
         11    1    1    2    0    0 -0.24471959521E+02  0.27694929132E+02  0.16795331893E+03  0.17197151870E+03  0.00000000000E+00 0. -1.
</event>
<event>
 7    1  0.2749315E-009  0.7728002E+02  0.7561462E-02  0.1336952E+00
         -1   -1    0    0    0  501 -0.00000000000E+00  0.00000000000E+00  0.40511521490E+02  0.40511521490E+02  0.00000000000E+00 0.  1.
          1   -1    0    0  501    0  0.00000000000E+00 -0.00000000000E+00 -0.67638323079E+03  0.67638323079E+03  0.00000000000E+00 0. -1.
         25    2    1    2    0    0 -0.30277022033E+02 -0.23614115692E+02 -0.59458746884E+03  0.60881593368E+03  0.12509299933E+03 0.  0.
          5    1    3    3  502    0  0.10306516859E+02 -0.50306075143E+01  0.33049912438E+00  0.12211180590E+02  0.41800000000E+01 0.  1.
         -5    1    3    3    0  502 -0.40583538893E+02 -0.18583508177E+02 -0.59491796796E+03  0.59660475309E+03  0.41800000000E+01 0.  1.
        -11    1    1    2    0    0  0.52579575695E+02  0.43037409670E+02 -0.39168787572E+02  0.78428466333E+02  0.00000000000E+00 0.  1.
         11    1    1    2    0    0 -0.22302553662E+02 -0.19423293979E+02 -0.21154528939E+01  0.29650352271E+02  0.00000000000E+00 0. -1.
</event>
<event>
 7    1  0.2749315E-009  0.8177854E+02  0.7561462E-02  0.1324079E+00
         -2   -1    0    0    0  501 -0.00000000000E+00  0.00000000000E+00  0.51383156620E+03  0.51383156620E+03  0.00000000000E+00 0.  1.
          2   -1    0    0  501    0  0.00000000000E+00 -0.00000000000E+00 -0.25317124119E+02  0.25317124119E+02  0.00000000000E+00 0. -1.
         25    2    1    2    0    0 -0.37691748853E+02 -0.40789104211E+01  0.28733706762E+03  0.31566995025E+03  0.12509045376E+03 0.  0.
          5    1    3    3  502    0  0.27383813401E+01 -0.21729771888E+02  0.26519953265E+03  0.26613520292E+03  0.41800000000E+01 0. -1.
         -5    1    3    3    0  502 -0.40430130193E+02  0.17650861467E+02  0.22137534968E+02  0.49534747324E+02  0.41800000000E+01 0. -1.
        -11    1    1    2    0    0 -0.29176685881E+02 -0.45327962390E+01  0.70518799874E+02  0.76450810175E+02  0.00000000000E+00 0.  1.
         11    1    1    2    0    0  0.66868434734E+02  0.86117066601E+01  0.13065857459E+03  0.14702792990E+03  0.00000000000E+00 0. -1.
</event>
<event>
 7    1  0.2749315E-009  0.1183733E+03  0.7561462E-02  0.1245805E+00
         -2   -1    0    0    0  501 -0.00000000000E+00  0.00000000000E+00  0.25999991632E+02  0.25999991632E+02  0.00000000000E+00 0.  1.
          2   -1    0    0  501    0  0.00000000000E+00 -0.00000000000E+00 -0.57625807791E+03  0.57625807791E+03  0.00000000000E+00 0. -1.
         25    2    1    2    0    0  0.26386065347E+02 -0.54076582174E+02 -0.28017092883E+03  0.31267136246E+03  0.12508849012E+03 0.  0.
          5    1    3    3  502    0  0.75496068239E+02 -0.46831017981E+02 -0.17549242878E+03  0.19674314607E+03  0.41800000000E+01 0. -1.
         -5    1    3    3    0  502 -0.49110002892E+02 -0.72455641926E+01 -0.10467850005E+03  0.11592821640E+03  0.41800000000E+01 0. -1.
        -11    1    1    2    0    0 -0.33653113070E+02 -0.87275004975E+01 -0.52243799690E+02  0.62754409329E+02  0.00000000000E+00 0.  1.
         11    1    1    2    0    0  0.72670477229E+01  0.62804082671E+02 -0.21784335776E+03  0.22683229775E+03  0.00000000000E+00 0. -1.
</event>
<event>
 7    1  0.2749315E-009  0.5050969E+02  0.7561462E-02  0.1442612E+00
          1   -1    0    0  501    0  0.00000000000E+00  0.00000000000E+00  0.77802570207E+03  0.77802570207E+03  0.00000000000E+00 0. -1.
         -1   -1    0    0    0  501 -0.00000000000E+00 -0.00000000000E+00 -0.22295501147E+02  0.22295501147E+02  0.00000000000E+00 0.  1.
         25    2    1    2    0    0 -0.31855651437E+02  0.50166768683E+01  0.63423516542E+03  0.64725697859E+03  0.12508957472E+03 0.  0.
          5    1    3    3  502    0 -0.16229171735E+02 -0.92318434058E+01  0.62234448349E+03  0.62263853196E+03  0.41800000000E+01 0.  1.
         -5    1    3    3    0  502 -0.15626479702E+02  0.14248520274E+02  0.11890681931E+02  0.24618446634E+02  0.41800000000E+01 0.  1.
        -11    1    1    2    0    0  0.26283645633E+02  0.21050078313E+02  0.55915034183E+01  0.34135036769E+02  0.00000000000E+00 0.  1.
         11    1    1    2    0    0  0.55720058036E+01 -0.26066755182E+02  0.11590353208E+03  0.11892918785E+03  0.00000000000E+00 0. -1.
</event>
<event>
 7    1  0.2749315E-009  0.1161684E+03  0.7561462E-02  0.1249555E+00
         -1   -1    0    0    0  501 -0.00000000000E+00  0.00000000000E+00  0.17821411671E+03  0.17821411671E+03  0.00000000000E+00 0.  1.
          1   -1    0    0  501    0  0.00000000000E+00 -0.00000000000E+00 -0.10494721333E+03  0.10494721333E+03  0.00000000000E+00 0. -1.
         25    2    1    2    0    0  0.57545434435E+02 -0.20338751947E+02 -0.16227780674E+02  0.14012950646E+03  0.12509115021E+03 0.  0.
          5    1    3    3  502    0 -0.30620047360E+01 -0.56030902036E+02 -0.36181194897E+02  0.66898349159E+02  0.41800000000E+01 0.  1.
         -5    1    3    3    0  502  0.60607439171E+02  0.35692150089E+02  0.19953414223E+02  0.73231157303E+02  0.41800000000E+01 0.  1.
        -11    1    1    2    0    0 -0.80278909730E+02  0.10997399354E+02  0.46272163253E+02  0.93310016783E+02  0.00000000000E+00 0. -1.
         11    1    1    2    0    0  0.22733475295E+02  0.93413525933E+01  0.43222520799E+02  0.49721806800E+02  0.00000000000E+00 0.  1.
</event>
<event>
 7    1  0.2749315E-009  0.1304079E+03  0.7561462E-02  0.1226852E+00
         -1   -1    0    0    0  501 -0.00000000000E+00  0.00000000000E+00  0.23952794237E+02  0.23952794237E+02  0.00000000000E+00 0. -1.
          1   -1    0    0  501    0  0.00000000000E+00 -0.00000000000E+00 -0.14424913761E+04  0.14424913761E+04  0.00000000000E+00 0.  1.
         25    2    1    2    0    0  0.10047851544E+03  0.60983497379E+02 -0.11019622265E+04  0.11152507943E+04  0.12509463065E+03 0.  0.
          5    1    3    3  502    0  0.59804463543E+02  0.39754688274E+02 -0.20772464592E+03  0.21982722766E+03  0.41800000000E+01 0. -1.
         -5    1    3    3    0  502  0.40674051896E+02  0.21228809105E+02 -0.89423758056E+03  0.89542356665E+03  0.41800000000E+01 0. -1.
        -11    1    1    2    0    0 -0.55468174165E+01 -0.46442089724E+02 -0.16710677596E+03  0.17352898735E+03  0.00000000000E+00 0.  1.
         11    1    1    2    0    0 -0.94931698022E+02 -0.14541407655E+02 -0.14946957941E+03  0.17766438865E+03  0.00000000000E+00 0. -1.
</event>
<event>
 7    1  0.2749315E-009  0.1006131E+03  0.7561462E-02  0.1279012E+00
         -1   -1    0    0    0  501 -0.00000000000E+00  0.00000000000E+00  0.32898465747E+02  0.32898465747E+02  0.00000000000E+00 0.  1.
          1   -1    0    0  501    0  0.00000000000E+00 -0.00000000000E+00 -0.39470115042E+03  0.39470115042E+03  0.00000000000E+00 0. -1.
         25    2    1    2    0    0 -0.20343933252E+02 -0.37448240679E+02 -0.20596932043E+03  0.24471902781E+03  0.12509114782E+03 0.  0.
          5    1    3    3  502    0  0.43458504211E+02 -0.17120455267E+02 -0.15058968126E+03  0.15772278237E+03  0.41800000000E+01 0.  1.
         -5    1    3    3    0  502 -0.63802437464E+02 -0.20327785411E+02 -0.55379639177E+02  0.86996245445E+02  0.41800000000E+01 0.  1.
        -11    1    1    2    0    0 -0.18547865982E+02  0.44044245885E+02 -0.46627510757E+02  0.66768583087E+02  0.00000000000E+00 0. -1.
         11    1    1    2    0    0  0.38891799235E+02 -0.65960052062E+01 -0.10920585349E+03  0.11611200527E+03  0.00000000000E+00 0.  1.
</event>
<event>
 7    1  0.2787136E-009  0.1449428E+03  0.7561462E-02  0.1206829E+00
         -1   -1    0    0    0  501 -0.00000000000E+00  0.00000000000E+00  0.34036452806E+02  0.34036452806E+02  0.00000000000E+00 0.  1.
          1   -1    0    0  501    0  0.00000000000E+00 -0.00000000000E+00 -0.94416060512E+03  0.94416060512E+03  0.00000000000E+00 0. -1.
         25    2    1    2    0    0  0.12341915943E+03 -0.43878072751E+02 -0.63584165655E+03  0.66113464780E+03  0.12508731402E+03 0.  0.
          5    1    3    3  502    0  0.21870375052E+02 -0.81358021082E+01 -0.41234640840E+03  0.41302728421E+03  0.41800000000E+01 0.  1.
         -5    1    3    3    0  502  0.10154878438E+03 -0.35742270642E+02 -0.22349524815E+03  0.24810736359E+03  0.41800000000E+01 0.  1.
        -11    1    1    2    0    0 -0.93288351930E+02 -0.12889601988E+02 -0.14921197472E+03  0.17644566259E+03  0.00000000000E+00 0. -1.
         11    1    1    2    0    0 -0.30130807503E+02  0.56767674739E+02 -0.12507052104E+03  0.14061674755E+03  0.00000000000E+00 0.  1.
</event>
<event>
 7    1  0.2749315E-009  0.1158507E+03  0.7561462E-02  0.1250103E+00
          1   -1    0    0  501    0  0.00000000000E+00  0.00000000000E+00  0.33902307300E+03  0.33902307300E+03  0.00000000000E+00 0. -1.
         -1   -1    0    0    0  501 -0.00000000000E+00 -0.00000000000E+00 -0.41171976213E+02  0.41171976213E+02  0.00000000000E+00 0.  1.
         25    2    1    2    0    0  0.34094675397E+02  0.20705282722E+02  0.13231411433E+03  0.18640424451E+03  0.12509341268E+03 0.  0.
          5    1    3    3  502    0  0.62037754479E+01  0.72010108380E+02  0.79941611373E+02  0.10785210321E+03  0.41800000000E+01 0.  1.
         -5    1    3    3    0  502  0.27890899950E+02 -0.51304825657E+02  0.52372502956E+02  0.78552141292E+02  0.41800000000E+01 0.  1.
        -11    1    1    2    0    0 -0.66329004729E+02 -0.12507699648E+02  0.11056080043E+03  0.12953636559E+03  0.00000000000E+00 0.  1.
         11    1    1    2    0    0  0.32234329331E+02 -0.81975830740E+01  0.54976182033E+02  0.64254439119E+02  0.00000000000E+00 0. -1.
</event>
<event>
 7    1  0.2749315E-009  0.2760800E+03  0.7561462E-02  0.1097849E+00
         -2   -1    0    0    0  501 -0.00000000000E+00  0.00000000000E+00  0.77335117378E+02  0.77335117378E+02  0.00000000000E+00 0.  1.
          2   -1    0    0  501    0  0.00000000000E+00 -0.00000000000E+00 -0.10987380633E+04  0.10987380633E+04  0.00000000000E+00 0. -1.
         25    2    1    2    0    0  0.20969963624E+03 -0.16437136634E+03 -0.60786843889E+03  0.67538358736E+03  0.12508823907E+03 0.  0.
          5    1    3    3  502    0  0.84550321929E+02 -0.12983069518E+02 -0.28352782008E+03  0.29618037442E+03  0.41800000000E+01 0. -1.
         -5    1    3    3    0  502  0.12514931431E+03 -0.15138829683E+03 -0.32434061881E+03  0.37920321293E+03  0.41800000000E+01 0. -1.
        -11    1    1    2    0    0 -0.15801433038E+03  0.14617551431E+03 -0.25926577476E+03  0.33697856245E+03  0.00000000000E+00 0.  1.
         11    1    1    2    0    0 -0.51685305859E+02  0.18195852030E+02 -0.15426873231E+03  0.16371103091E+03  0.00000000000E+00 0. -1.
</event>
<event>
 7    1  0.2749315E-009  0.1100353E+03  0.7561462E-02  0.1260505E+00
          2   -1    0    0  501    0  0.00000000000E+00  0.00000000000E+00  0.42797862947E+03  0.42797862947E+03  0.00000000000E+00 0. -1.
         -2   -1    0    0    0  501 -0.00000000000E+00 -0.00000000000E+00 -0.42608203852E+02  0.42608203852E+02  0.00000000000E+00 0.  1.
         25    2    1    2    0    0 -0.80799557702E+02  0.93390400941E+00  0.19879261262E+03  0.24838994366E+03  0.12509844355E+03 0.  0.
          5    1    3    3  502    0 -0.56490869063E+02  0.39789498263E+02  0.33678077852E+02  0.76981217108E+02  0.41800000000E+01 0. -1.
         -5    1    3    3    0  502 -0.24308688639E+02 -0.38855594254E+02  0.16511453476E+03  0.17140872655E+03  0.41800000000E+01 0. -1.
        -11    1    1    2    0    0  0.44437553492E+02  0.32793752052E+02  0.42102805986E+02  0.69446184962E+02  0.00000000000E+00 0.  1.
         11    1    1    2    0    0  0.36362004211E+02 -0.33727656061E+02  0.14447500702E+03  0.15275070470E+03  0.00000000000E+00 0. -1.
</event>
<event>
 7    1  0.2749315E-009  0.1546251E+03  0.7561462E-02  0.1194902E+00
         -2   -1    0    0    0  501 -0.00000000000E+00  0.00000000000E+00  0.11862666887E+03  0.11862666887E+03  0.00000000000E+00 0. -1.
          2   -1    0    0  501    0  0.00000000000E+00 -0.00000000000E+00 -0.21290088883E+03  0.21290088883E+03  0.00000000000E+00 0.  1.
         25    2    1    2    0    0 -0.11846432829E+03  0.14627120455E+02 -0.31768706522E+02  0.17579830869E+03  0.12509214561E+03 0.  0.
          5    1    3    3  502    0 -0.35974429002E+02 -0.53245745279E+02 -0.43920106821E+00  0.64396694247E+02  0.41800000000E+01 0. -1.
         -5    1    3    3    0  502 -0.82489899289E+02  0.67872865734E+02 -0.31329505454E+02  0.11140161444E+03  0.41800000000E+01 0. -1.
        -11    1    1    2    0    0  0.69511241605E+02  0.26120373577E+02 -0.13753083939E+02  0.75519758627E+02  0.00000000000E+00 0. -1.
         11    1    1    2    0    0  0.48953086686E+02 -0.40747494032E+02 -0.48752429497E+02  0.80209490385E+02  0.00000000000E+00 0.  1.
</event>
<event>
 7    1  0.2749315E-009  0.2547781E+03  0.7561462E-02  0.1110322E+00
         -2   -1    0    0    0  501 -0.00000000000E+00  0.00000000000E+00  0.40620197898E+02  0.40620197898E+02  0.00000000000E+00 0.  1.
          2   -1    0    0  501    0  0.00000000000E+00 -0.00000000000E+00 -0.16732130823E+04  0.16732130823E+04  0.00000000000E+00 0. -1.
         25    2    1    2    0    0 -0.67082486183E+02  0.22459833183E+03 -0.73393364690E+03  0.78054445912E+03  0.12508630621E+03 0.  0.
          5    1    3    3  502    0 -0.97901011886E+02  0.20912572054E+03 -0.63996279999E+03  0.68035875308E+03  0.41800000000E+01 0. -1.
         -5    1    3    3    0  502  0.30818525703E+02  0.15472611292E+02 -0.93970846910E+02  0.10018570604E+03  0.41800000000E+01 0. -1.
        -11    1    1    2    0    0 -0.92053476899E+01 -0.78682083595E+02 -0.19200889740E+03  0.20770899207E+03  0.00000000000E+00 0.  1.
         11    1    1    2    0    0  0.76287833873E+02 -0.14591624824E+03 -0.70665034012E+03  0.72557982902E+03  0.00000000000E+00 0. -1.
</event>
<event>
 7    1  0.2749315E-009  0.1177958E+03  0.7561462E-02  0.1246778E+00
         -1   -1    0    0    0  501 -0.00000000000E+00  0.00000000000E+00  0.39870835125E+02  0.39870835125E+02  0.00000000000E+00 0.  1.
          1   -1    0    0  501    0  0.00000000000E+00 -0.00000000000E+00 -0.50009287232E+03  0.50009287232E+03  0.00000000000E+00 0. -1.
         25    2    1    2    0    0 -0.77734478942E+02 -0.40451823808E+02 -0.20894293326E+03  0.25881256502E+03  0.12509114751E+03 0.  0.
          5    1    3    3  502    0 -0.64501310462E+02  0.22575039259E+01 -0.24791731325E+02  0.69264837525E+02  0.41800000000E+01 0.  1.
         -5    1    3    3    0  502 -0.13233168480E+02 -0.42709327734E+02 -0.18415120193E+03  0.18954772749E+03  0.41800000000E+01 0.  1.
        -11    1    1    2    0    0  0.96618503223E+02  0.20953909188E+02 -0.20176997989E+03  0.22468939953E+03  0.00000000000E+00 0. -1.
         11    1    1    2    0    0 -0.18884024282E+02  0.19497914620E+02 -0.49509124044E+02  0.56461742900E+02  0.00000000000E+00 0.  1.
</event>
<event>
 7    1  0.2749315E-009  0.1003915E+03  0.7561462E-02  0.1279475E+00
          4   -1    0    0  501    0  0.00000000000E+00  0.00000000000E+00  0.28487516558E+03  0.28487516558E+03  0.00000000000E+00 0. -1.
         -4   -1    0    0    0  501 -0.00000000000E+00 -0.00000000000E+00 -0.44172061269E+02  0.44172061269E+02  0.00000000000E+00 0.  1.
         25    2    1    2    0    0 -0.13709425006E+02  0.24236467268E+01  0.15341028806E+03  0.19843439703E+03  0.12509065131E+03 0.  0.
          5    1    3    3  502    0 -0.60186748870E+02  0.20753154103E+02  0.42337410875E+02  0.76570666083E+02  0.41800000000E+01 0. -1.
         -5    1    3    3    0  502  0.46477323864E+02 -0.18329507376E+02  0.11107287718E+03  0.12186373095E+03  0.41800000000E+01 0. -1.
        -11    1    1    2    0    0 -0.23793783091E+02 -0.31439801157E+02  0.11258213059E+02  0.41004299431E+02  0.00000000000E+00 0.  1.
         11    1    1    2    0    0  0.37503208097E+02  0.29016154430E+02  0.76034603190E+02  0.89608530385E+02  0.00000000000E+00 0. -1.
</event>
<event>
 7    1  0.2749315E-009  0.1269225E+03  0.7561462E-02  0.1232095E+00
         -2   -1    0    0    0  501 -0.00000000000E+00  0.00000000000E+00  0.34534711958E+02  0.34534711958E+02  0.00000000000E+00 0. -1.
          2   -1    0    0  501    0  0.00000000000E+00 -0.00000000000E+00 -0.97369106471E+03  0.97369106471E+03  0.00000000000E+00 0.  1.
         25    2    1    2    0    0 -0.95943877999E+02  0.50790127468E+02 -0.77552525053E+03  0.79301435599E+03  0.12508992695E+03 0.  0.
          5    1    3    3  502    0 -0.17598640692E+02 -0.12636859293E+02 -0.17119504369E+02  0.27927624261E+02  0.41800000000E+01 0. -1.
         -5    1    3    3    0  502 -0.78345237307E+02  0.63426986762E+02 -0.75840574617E+03  0.76508673173E+03  0.41800000000E+01 0. -1.
        -11    1    1    2    0    0  0.45754011445E+02 -0.64298244003E+02 -0.13364680668E+03  0.15520683838E+03  0.00000000000E+00 0.  1.
         11    1    1    2    0    0  0.50189866554E+02  0.13508116535E+02 -0.29984295542E+02  0.60004582293E+02  0.00000000000E+00 0. -1.
</event>
<event>
 7    1  0.2749315E-009  0.1030066E+03  0.7561462E-02  0.1274098E+00
          1   -1    0    0  501    0  0.00000000000E+00  0.00000000000E+00  0.14313330701E+02  0.14313330701E+02  0.00000000000E+00 0. -1.
         -1   -1    0    0    0  501 -0.00000000000E+00 -0.00000000000E+00 -0.97150496106E+03  0.97150496106E+03  0.00000000000E+00 0.  1.
         25    2    1    2    0    0  0.60940088484E+01 -0.39152714063E+02 -0.64106059920E+03  0.65435164507E+03  0.12508921454E+03 0.  0.
          5    1    3    3  502    0 -0.41136959561E+02 -0.63297224528E+02 -0.31286385822E+03  0.32186962307E+03  0.41800000000E+01 0.  1.
         -5    1    3    3    0  502  0.47230968410E+02  0.24144510465E+02 -0.32819674099E+03  0.33248202200E+03  0.41800000000E+01 0.  1.
        -11    1    1    2    0    0 -0.24828955365E+02 -0.83011561838E+01 -0.26046009978E+02  0.36929403655E+02  0.00000000000E+00 0. -1.
         11    1    1    2    0    0  0.18734946517E+02  0.47453870246E+02 -0.29008502118E+03  0.29453724303E+03  0.00000000000E+00 0.  1.
</event>
<event>
 7    1  0.2749315E-009  0.1037790E+03  0.7561462E-02  0.1272544E+00
          1   -1    0    0  501    0  0.00000000000E+00  0.00000000000E+00  0.43822390016E+03  0.43822390016E+03  0.00000000000E+00 0. -1.
         -1   -1    0    0    0  501 -0.00000000000E+00 -0.00000000000E+00 -0.38612483793E+02  0.38612483793E+02  0.00000000000E+00 0.  1.
         25    2    1    2    0    0 -0.37107156067E+02 -0.56981735697E+02  0.18200207502E+03  0.23108276067E+03  0.12510246894E+03 0.  0.
          5    1    3    3  502    0  0.26332576612E+02  0.13433165434E+02  0.10419214781E+03  0.10838510317E+03  0.41800000000E+01 0. -1.
         -5    1    3    3    0  502 -0.63439732680E+02 -0.70414901131E+02  0.77809927209E+02  0.12269765750E+03  0.41800000000E+01 0. -1.
        -11    1    1    2    0    0  0.30759950343E+02  0.58532747150E+01  0.17808940883E+03  0.18082110747E+03  0.00000000000E+00 0. -1.
         11    1    1    2    0    0  0.63472057248E+01  0.51128460982E+02  0.39519932521E+02  0.64932515810E+02  0.00000000000E+00 0.  1.
</event>
<event>
 7    1  0.2749315E-009  0.2439974E+03  0.7561462E-02  0.1117158E+00
         -1   -1    0    0    0  501 -0.00000000000E+00  0.00000000000E+00  0.42544472018E+03  0.42544472018E+03  0.00000000000E+00 0.  1.
          1   -1    0    0  501    0  0.00000000000E+00 -0.00000000000E+00 -0.20768537081E+03  0.20768537081E+03  0.00000000000E+00 0. -1.
         25    2    1    2    0    0  0.22521601848E+03 -0.38795973689E+02  0.27709245619E+03  0.38033514368E+03  0.12508880719E+03 0.  0.
          5    1    3    3  502    0  0.15308704621E+02 -0.46737502441E+02  0.66968742126E+02  0.83192760463E+02  0.41800000000E+01 0.  1.
         -5    1    3    3    0  502  0.20990731386E+03  0.79415287525E+01  0.21012371407E+03  0.29714238322E+03  0.41800000000E+01 0.  1.
        -11    1    1    2    0    0 -0.11319917172E+03  0.18776186793E+02 -0.76224668842E+02  0.13775629862E+03  0.00000000000E+00 0. -1.
         11    1    1    2    0    0 -0.11201684676E+03  0.20019786895E+02  0.16891562011E+02  0.11503864869E+03  0.00000000000E+00 0.  1.
</event>
<event>
 7    1  0.2749315E-009  0.1242121E+03  0.7561462E-02  0.1236306E+00
          1   -1    0    0  501    0  0.00000000000E+00  0.00000000000E+00  0.94825246635E+03  0.94825246635E+03  0.00000000000E+00 0. -1.
         -1   -1    0    0    0  501 -0.00000000000E+00 -0.00000000000E+00 -0.20663164767E+02  0.20663164767E+02  0.00000000000E+00 0.  1.
         25    2    1    2    0    0 -0.55079428678E+02 -0.53931643703E+02  0.67080887525E+03  0.68671176726E+03  0.12508452550E+03 0.  0.
          5    1    3    3  502    0 -0.86124208331E+02 -0.25707259080E+02  0.29160168472E+03  0.30516758898E+03  0.41800000000E+01 0.  1.
         -5    1    3    3    0  502  0.31044779654E+02 -0.28224384623E+02  0.37920719053E+03  0.38154417828E+03  0.41800000000E+01 0.  1.
        -11    1    1    2    0    0  0.57147732289E+02 -0.49532958893E+01  0.14290857374E+03  0.15399110005E+03  0.00000000000E+00 0. -1.
         11    1    1    2    0    0 -0.20683036115E+01  0.58884939592E+02  0.11387185259E+03  0.12821276381E+03  0.00000000000E+00 0.  1.
</event>
<event>
 7    1  0.2749315E-009  0.2287225E+03  0.7561462E-02  0.1127542E+00
          1   -1    0    0  501    0  0.00000000000E+00  0.00000000000E+00  0.12917399770E+04  0.12917399770E+04  0.00000000000E+00 0. -1.
         -1   -1    0    0    0  501 -0.00000000000E+00 -0.00000000000E+00 -0.56879471751E+02  0.56879471751E+02  0.00000000000E+00 0.  1.
         25    2    1    2    0    0 -0.20453796818E+03 -0.10177127637E+03  0.38859664688E+03  0.46781260993E+03  0.12509240955E+03 0.  0.
          5    1    3    3  502    0 -0.10698736771E+03 -0.53877061155E+02  0.31354953076E+03  0.33567814228E+03  0.41800000000E+01 0.  1.
         -5    1    3    3    0  502 -0.97550600471E+02 -0.47894215214E+02  0.75047116119E+02  0.13213446765E+03  0.41800000000E+01 0.  1.
        -11    1    1    2    0    0  0.19597681639E+02  0.14222606017E+02  0.26520397880E+02  0.35912158822E+02  0.00000000000E+00 0.  1.
         11    1    1    2    0    0  0.18494028654E+03  0.87548670352E+02  0.81974346049E+03  0.84489467999E+03  0.00000000000E+00 0. -1.
</event>
<event>
 7    1  0.2749315E-009  0.1702414E+03  0.7561462E-02  0.1177596E+00
         -1   -1    0    0    0  501 -0.00000000000E+00  0.00000000000E+00  0.51761065712E+03  0.51761065712E+03  0.00000000000E+00 0.  1.
          1   -1    0    0  501    0  0.00000000000E+00 -0.00000000000E+00 -0.90274015614E+02  0.90274015614E+02  0.00000000000E+00 0. -1.
         25    2    1    2    0    0  0.13515517093E+02  0.15971070715E+03  0.89462256636E+02  0.22213226278E+03  0.12509623347E+03 0.  0.
          5    1    3    3  502    0  0.34071463368E+02  0.12952293358E+03  0.11564719389E+03  0.17699943727E+03  0.41800000000E+01 0.  1.
         -5    1    3    3    0  502 -0.20555946275E+02  0.30187773570E+02 -0.26184937251E+02  0.45132825518E+02  0.41800000000E+01 0.  1.
        -11    1    1    2    0    0 -0.35430636453E+02 -0.10348249091E+03  0.28589641528E+03  0.30610572715E+03  0.00000000000E+00 0.  1.
         11    1    1    2    0    0  0.21915119360E+02 -0.56228216237E+02  0.51977969585E+02  0.79646682793E+02  0.00000000000E+00 0. -1.
</event>
<event>
 7    1  0.2749315E-009  0.1099448E+03  0.7561462E-02  0.1260672E+00
          3   -1    0    0  501    0  0.00000000000E+00  0.00000000000E+00  0.16653859243E+03  0.16653859243E+03  0.00000000000E+00 0. -1.
         -3   -1    0    0    0  501 -0.00000000000E+00 -0.00000000000E+00 -0.10390438811E+03  0.10390438811E+03  0.00000000000E+00 0.  1.
         25    2    1    2    0    0 -0.12112825122E+02  0.69116614270E+02  0.60617374973E+02  0.15571392066E+03  0.12509409273E+03 0.  0.
          5    1    3    3  502    0 -0.21380757150E+02  0.94223565168E+02  0.86307546134E+01  0.97093662690E+02  0.41800000000E+01 0. -1.
         -5    1    3    3    0  502  0.92679320287E+01 -0.25106950898E+02  0.51986620360E+02  0.58620257965E+02  0.41800000000E+01 0. -1.
        -11    1    1    2    0    0  0.38850265104E+02 -0.31906762730E+02 -0.30264223595E+02  0.58679705490E+02  0.00000000000E+00 0.  1.
         11    1    1    2    0    0 -0.26737439982E+02 -0.37209851540E+02  0.32281052951E+02  0.56049354395E+02  0.00000000000E+00 0. -1.
</event>
<event>
 7    1  0.2749315E-009  0.9559348E+02  0.7561462E-02  0.1289845E+00
         -1   -1    0    0    0  501 -0.00000000000E+00  0.00000000000E+00  0.27185763644E+02  0.27185763644E+02  0.00000000000E+00 0.  1.
          1   -1    0    0  501    0  0.00000000000E+00 -0.00000000000E+00 -0.63820214273E+03  0.63820214273E+03  0.00000000000E+00 0. -1.
         25    2    1    2    0    0  0.39815762611E+02 -0.61936433343E+02 -0.35737391515E+03  0.38572735780E+03  0.12509221640E+03 0.  0.
          5    1    3    3  502    0  0.26293929926E+02 -0.27927013304E+02 -0.15031883663E+02  0.41409162627E+02  0.41800000000E+01 0. -1.
         -5    1    3    3    0  502  0.13521832685E+02 -0.34009420039E+02 -0.34234203148E+03  0.34431819518E+03  0.41800000000E+01 0. -1.
        -11    1    1    2    0    0  0.66848361473E+01 -0.20256246382E+02 -0.69732255697E+02  0.72921807687E+02  0.00000000000E+00 0.  1.
         11    1    1    2    0    0 -0.46500598758E+02  0.82192679724E+02 -0.18391020825E+03  0.20673874088E+03  0.00000000000E+00 0. -1.
</event>
<event>
 7    1  0.2749315E-009  0.2258971E+03  0.7561462E-02  0.1129561E+00
          2   -1    0    0  501    0  0.00000000000E+00  0.00000000000E+00  0.18262572957E+04  0.18262572957E+04  0.00000000000E+00 0. -1.
         -2   -1    0    0    0  501 -0.00000000000E+00 -0.00000000000E+00 -0.46152436188E+02  0.46152436188E+02  0.00000000000E+00 0.  1.
         25    2    1    2    0    0 -0.31570487095E+02 -0.20241959574E+03  0.14409307665E+04  0.14607872469E+04  0.12509004145E+03 0.  0.
          5    1    3    3  502    0  0.50894991445E+01 -0.19817229538E+03  0.13004629203E+04  0.13154920909E+04  0.41800000000E+01 0. -1.
         -5    1    3    3    0  502 -0.36659986239E+02 -0.42473003633E+01  0.14046784620E+03  0.14529515603E+03  0.41800000000E+01 0. -1.
        -11    1    1    2    0    0 -0.22428281112E+02  0.61123833164E+02  0.40084970496E+02  0.76458849285E+02  0.00000000000E+00 0.  1.
         11    1    1    2    0    0  0.53998768207E+02  0.14129576258E+03  0.29908912255E+03  0.33516363573E+03  0.00000000000E+00 0. -1.
</event>
<event>
 7    1  0.2749315E-009  0.1211117E+03  0.7561462E-02  0.1241274E+00
          2   -1    0    0  501    0  0.00000000000E+00  0.00000000000E+00  0.20410985482E+03  0.20410985482E+03  0.00000000000E+00 0. -1.
         -2   -1    0    0    0  501 -0.00000000000E+00 -0.00000000000E+00 -0.75483550345E+02  0.75483550345E+02  0.00000000000E+00 0.  1.
         25    2    1    2    0    0 -0.33315951530E+02  0.50374564534E+02  0.74977968042E+02  0.15784800126E+03  0.12508695548E+03 0.  0.
          5    1    3    3  502    0  0.21847665615E+01  0.85303892828E+02  0.63819347912E+02  0.10663915277E+03  0.41800000000E+01 0.  1.
         -5    1    3    3    0  502 -0.35500718092E+02 -0.34929328294E+02  0.11158620129E+02  0.51208848486E+02  0.41800000000E+01 0.  1.
        -11    1    1    2    0    0 -0.23940983823E+02  0.78063059018E+01  0.24317206280E+02  0.35006222868E+02  0.00000000000E+00 0. -1.
         11    1    1    2    0    0  0.57256935353E+02 -0.58180870436E+02  0.29331130153E+02  0.86739181036E+02  0.00000000000E+00 0.  1.
</event>
<event>
 7    1  0.2749315E-009  0.1329565E+03  0.7561462E-02  0.1223134E+00
          3   -1    0    0  501    0  0.00000000000E+00  0.00000000000E+00  0.60851505456E+02  0.60851505456E+02  0.00000000000E+00 0. -1.
         -3   -1    0    0    0  501 -0.00000000000E+00 -0.00000000000E+00 -0.48367364887E+03  0.48367364887E+03  0.00000000000E+00 0.  1.
         25    2    1    2    0    0  0.20681250228E+02 -0.12660929371E+03 -0.27453642980E+03  0.32783501503E+03  0.12509164012E+03 0.  0.
          5    1    3    3  502    0  0.26288450699E+02 -0.89150219823E+02 -0.61756858301E+02  0.11167016738E+03  0.41800000000E+01 0.  1.
         -5    1    3    3    0  502 -0.56072004708E+01 -0.37459073887E+02 -0.21277957150E+03  0.21616484765E+03  0.41800000000E+01 0.  1.
        -11    1    1    2    0    0 -0.32756742412E+02  0.76396199811E+02 -0.14216727572E+03  0.16468429739E+03  0.00000000000E+00 0.  1.
         11    1    1    2    0    0  0.12075492184E+02  0.50213093899E+02 -0.61184378895E+01  0.52005841908E+02  0.00000000000E+00 0. -1.
</event>
<event>
 7    1  0.2749315E-009  0.1021467E+03  0.7561462E-02  0.1275845E+00
         -2   -1    0    0    0  501 -0.00000000000E+00  0.00000000000E+00  0.27247741090E+02  0.27247741090E+02  0.00000000000E+00 0.  1.
          2   -1    0    0  501    0  0.00000000000E+00 -0.00000000000E+00 -0.65382949499E+03  0.65382949499E+03  0.00000000000E+00 0. -1.
         25    2    1    2    0    0  0.24893605554E+02 -0.10343321992E+02 -0.52667495925E+03  0.54199660345E+03  0.12508848688E+03 0.  0.
          5    1    3    3  502    0 -0.24456939812E+02 -0.52449232179E+02 -0.17511763370E+03  0.18447959750E+03  0.41800000000E+01 0.  1.
         -5    1    3    3    0  502  0.49350545366E+02  0.42105910187E+02 -0.35155732554E+03  0.35751700595E+03  0.41800000000E+01 0.  1.
        -11    1    1    2    0    0 -0.37140073018E+02  0.36692791571E+02 -0.23344523644E+02  0.57190145665E+02  0.00000000000E+00 0.  1.
         11    1    1    2    0    0  0.12246467463E+02 -0.26349469579E+02 -0.76562271009E+02  0.81890486960E+02  0.00000000000E+00 0. -1.
</event>
<event>
 7    1  0.2749315E-009  0.1007018E+03  0.7561462E-02  0.1278827E+00
          1   -1    0    0  501    0  0.00000000000E+00  0.00000000000E+00  0.14888475754E+02  0.14888475754E+02  0.00000000000E+00 0. -1.
         -1   -1    0    0    0  501 -0.00000000000E+00 -0.00000000000E+00 -0.95729109072E+03  0.95729109072E+03  0.00000000000E+00 0.  1.
         25    2    1    2    0    0  0.83173395532E+01 -0.12761487871E+02 -0.73118534722E+03  0.74196474498E+03  0.12509051561E+03 0.  0.
          5    1    3    3  502    0  0.43156708536E+02  0.32985055374E+02 -0.52660835497E+03  0.52941887697E+03  0.41800000000E+01 0. -1.
         -5    1    3    3    0  502 -0.34839368983E+02 -0.45746543245E+02 -0.20457699226E+03  0.21254586802E+03  0.41800000000E+01 0. -1.
        -11    1    1    2    0    0  0.66935753785E+01 -0.36842019469E+02 -0.11479109832E+03  0.12074408724E+03  0.00000000000E+00 0. -1.
         11    1    1    2    0    0 -0.15010914932E+02  0.49603507341E+02 -0.96426169421E+02  0.10947073425E+03  0.00000000000E+00 0.  1.
</event>
<event>
 7    1  0.2749315E-009  0.9150319E+02  0.7561462E-02  0.1299252E+00
         -2   -1    0    0    0  501 -0.00000000000E+00  0.00000000000E+00  0.48150777489E+02  0.48150777489E+02  0.00000000000E+00 0. -1.
          2   -1    0    0  501    0  0.00000000000E+00 -0.00000000000E+00 -0.36545999786E+03  0.36545999786E+03  0.00000000000E+00 0.  1.
         25    2    1    2    0    0 -0.68412735176E+01 -0.34510509603E+02 -0.28173490308E+03  0.31025676576E+03  0.12508767641E+03 0.  0.
          5    1    3    3  502    0  0.54288965783E+02  0.24821131364E+01 -0.85704831820E+02  0.10156890907E+03  0.41800000000E+01 0.  1.
         -5    1    3    3    0  502 -0.61130239300E+02 -0.36992622740E+02 -0.19603007126E+03  0.20868785670E+03  0.41800000000E+01 0.  1.
        -11    1    1    2    0    0 -0.10379272893E+02  0.37968755937E+02  0.20650203148E+02  0.44449821409E+02  0.00000000000E+00 0. -1.
         11    1    1    2    0    0  0.17220546411E+02 -0.34582463341E+01 -0.56224520434E+02  0.58904188174E+02  0.00000000000E+00 0.  1.
</event>
<event>
 7    1  0.2749315E-009  0.1211409E+03  0.7561462E-02  0.1241227E+00
          1   -1    0    0  501    0  0.00000000000E+00  0.00000000000E+00  0.72694741747E+02  0.72694741747E+02  0.00000000000E+00 0. -1.
         -1   -1    0    0    0  501 -0.00000000000E+00 -0.00000000000E+00 -0.27149423932E+03  0.27149423932E+03  0.00000000000E+00 0.  1.
         25    2    1    2    0    0  0.34404526833E+02 -0.80833668250E+02 -0.12370214907E+03  0.19663856666E+03  0.12508697304E+03 0.  0.
          5    1    3    3  502    0 -0.44771736422E+02 -0.10511361963E+02 -0.29134505413E+02  0.54601180557E+02  0.41800000000E+01 0.  1.
         -5    1    3    3    0  502  0.79176263255E+02 -0.70322306287E+02 -0.94567643660E+02  0.14203738611E+03  0.41800000000E+01 0.  1.
        -11    1    1    2    0    0 -0.35769797269E+02  0.64673780279E+02 -0.95962558164E+02  0.12112385736E+03  0.00000000000E+00 0.  1.
         11    1    1    2    0    0  0.13652704351E+01  0.16159887971E+02  0.20865209668E+02  0.26426557042E+02  0.00000000000E+00 0. -1.
</event>
<event>
 7    1  0.2749315E-009  0.1106515E+03  0.7561462E-02  0.1259368E+00
          1   -1    0    0  501    0  0.00000000000E+00  0.00000000000E+00  0.97863420754E+03  0.97863420754E+03  0.00000000000E+00 0. -1.
         -1   -1    0    0    0  501 -0.00000000000E+00 -0.00000000000E+00 -0.18296636556E+02  0.18296636556E+02  0.00000000000E+00 0.  1.
         25    2    1    2    0    0 -0.16560888151E+02  0.16558297074E+02  0.80627513552E+03  0.81625682731E+03  0.12508866361E+03 0.  0.
          5    1    3    3  502    0  0.49206114655E+02 -0.17945867987E+02  0.36318129923E+03  0.36696242915E+03  0.41800000000E+01 0. -1.
         -5    1    3    3    0  502 -0.65767002805E+02  0.34504165062E+02  0.44309383628E+03  0.44929439816E+03  0.41800000000E+01 0. -1.
        -11    1    1    2    0    0  0.50666056868E+02 -0.28629566678E+02  0.93877171207E+02  0.11045191117E+03  0.00000000000E+00 0.  1.
         11    1    1    2    0    0 -0.34105168717E+02  0.12071269604E+02  0.60185264261E+02  0.70222105617E+02  0.00000000000E+00 0. -1.
</event>
<event>
 7    1  0.2749315E-009  0.3315674E+03  0.7561462E-02  0.1070445E+00
         -2   -1    0    0    0  501 -0.00000000000E+00  0.00000000000E+00  0.44135017650E+03  0.44135017650E+03  0.00000000000E+00 0.  1.
          2   -1    0    0  501    0  0.00000000000E+00 -0.00000000000E+00 -0.34671866390E+03  0.34671866390E+03  0.00000000000E+00 0. -1.
         25    2    1    2    0    0  0.27576098072E+03 -0.15436571865E+03 -0.15616257440E+03  0.37403953004E+03  0.12508367923E+03 0.  0.
          5    1    3    3  502    0  0.30288421445E+02  0.17538092051E+02 -0.38130266676E+02  0.51926513297E+02  0.41800000000E+01 0.  1.
         -5    1    3    3    0  502  0.24547255928E+03 -0.17190381070E+03 -0.11803230773E+03  0.32211301675E+03  0.41800000000E+01 0.  1.
        -11    1    1    2    0    0 -0.16846446256E+02  0.43272484338E+02  0.23559381018E+02  0.52070673956E+02  0.00000000000E+00 0. -1.
         11    1    1    2    0    0 -0.25891453446E+03  0.11109323431E+03  0.22723470598E+03  0.36195863641E+03  0.00000000000E+00 0.  1.
</event>
<event>
 7    1  0.2749315E-009  0.9636208E+02  0.7561462E-02  0.1288137E+00
          1   -1    0    0  501    0  0.00000000000E+00  0.00000000000E+00  0.51148500354E+03  0.51148500354E+03  0.00000000000E+00 0. -1.
         -1   -1    0    0    0  501 -0.00000000000E+00 -0.00000000000E+00 -0.33136867306E+02  0.33136867306E+02  0.00000000000E+00 0.  1.
         25    2    1    2    0    0  0.34172447093E+02 -0.36830888497E+02  0.37346613914E+03  0.39705067297E+03  0.12509200349E+03 0.  0.
          5    1    3    3  502    0  0.74822069206E+02  0.32887409921E+01  0.17292376096E+03  0.18849206180E+03  0.41800000000E+01 0.  1.
         -5    1    3    3    0  502 -0.40649622112E+02 -0.40119629489E+02  0.20054237818E+03  0.20855861118E+03  0.41800000000E+01 0.  1.
        -11    1    1    2    0    0 -0.22435019150E+02  0.68771712660E+00 -0.11444571709E+02  0.25194865761E+02  0.00000000000E+00 0.  1.
         11    1    1    2    0    0 -0.11737427943E+02  0.36143171370E+02  0.11632656880E+03  0.12237633211E+03  0.00000000000E+00 0. -1.
</event>
<event>
 7    1  0.2749315E-009  0.1245262E+03  0.7561462E-02  0.1235812E+00
          1   -1    0    0  501    0  0.00000000000E+00  0.00000000000E+00  0.81929156629E+02  0.81929156629E+02  0.00000000000E+00 0. -1.
         -1   -1    0    0    0  501 -0.00000000000E+00 -0.00000000000E+00 -0.26002734161E+03  0.26002734161E+03  0.00000000000E+00 0.  1.
         25    2    1    2    0    0  0.64183391607E+02 -0.63939353777E+02 -0.59607460497E+02  0.16556134029E+03  0.12509899813E+03 0.  0.
          5    1    3    3  502    0  0.19620294347E+02  0.18880656582E+02  0.26320675432E+02  0.38100990780E+02  0.41800000000E+01 0. -1.
         -5    1    3    3    0  502  0.44563097260E+02 -0.82820010359E+02 -0.85928135929E+02  0.12746034951E+03  0.41800000000E+01 0. -1.
        -11    1    1    2    0    0 -0.82686555344E+02  0.28635900037E+02 -0.61936390639E+02  0.10720633233E+03  0.00000000000E+00 0.  1.
         11    1    1    2    0    0  0.18503163737E+02  0.35303453740E+02 -0.56554333841E+02  0.69188825618E+02  0.00000000000E+00 0. -1.
</event>
<event>
 7    1  0.2749315E-009  0.1107789E+03  0.7561462E-02  0.1259134E+00
          1   -1    0    0  501    0  0.00000000000E+00  0.00000000000E+00  0.40937675721E+03  0.40937675721E+03  0.00000000000E+00 0. -1.
         -1   -1    0    0    0  501 -0.00000000000E+00 -0.00000000000E+00 -0.40087308225E+02  0.40087308225E+02  0.00000000000E+00 0.  1.
         25    2    1    2    0    0  0.41750103817E+02 -0.20146987898E+02  0.14841446051E+03  0.19956197354E+03  0.12509659030E+03 0.  0.
          5    1    3    3  502    0 -0.71147004537E+00 -0.67084394648E+02  0.56087776836E+02  0.87545035869E+02  0.41800000000E+01 0.  1.
         -5    1    3    3    0  502  0.42461573863E+02  0.46937406750E+02  0.92326683676E+02  0.11201693767E+03  0.41800000000E+01 0.  1.
        -11    1    1    2    0    0 -0.38800943867E+02 -0.24679389369E+02  0.32666282763E+02  0.56406307574E+02  0.00000000000E+00 0.  1.
         11    1    1    2    0    0 -0.29491599507E+01  0.44826377266E+02  0.18820870571E+03  0.19349578432E+03  0.00000000000E+00 0. -1.
</event>
<event>
 7    1  0.2749315E-009  0.2814301E+03  0.7561462E-02  0.1094910E+00
          1   -1    0    0  501    0  0.00000000000E+00  0.00000000000E+00  0.86146938488E+02  0.86146938488E+02  0.00000000000E+00 0. -1.
         -1   -1    0    0    0  501 -0.00000000000E+00 -0.00000000000E+00 -0.11265374204E+04  0.11265374204E+04  0.00000000000E+00 0.  1.
         25    2    1    2    0    0 -0.22564907569E+03 -0.16381587502E+03 -0.36053587252E+03  0.47263704724E+03  0.12508603750E+03 0.  0.
          5    1    3    3  502    0 -0.23684619002E+02 -0.28757313958E+02 -0.13846786901E+03  0.14345301472E+03  0.41800000000E+01 0. -1.
         -5    1    3    3    0  502 -0.20196445669E+03 -0.13505856106E+03 -0.22206800351E+03  0.32918403252E+03  0.41800000000E+01 0. -1.
        -11    1    1    2    0    0  0.10374821544E+03  0.10280719670E+03 -0.44664895391E+03  0.46992371714E+03  0.00000000000E+00 0.  1.
         11    1    1    2    0    0  0.12190086026E+03  0.61008678326E+02 -0.23320565547E+03  0.27012359450E+03  0.00000000000E+00 0. -1.
</event>
<event>
 7    1  0.2749315E-009  0.7624413E+02  0.7561462E-02  0.1340061E+00
         -1   -1    0    0    0  501 -0.00000000000E+00  0.00000000000E+00  0.41945966924E+03  0.41945966924E+03  0.00000000000E+00 0.  1.
          1   -1    0    0  501    0  0.00000000000E+00 -0.00000000000E+00 -0.36487601356E+02  0.36487601356E+02  0.00000000000E+00 0. -1.
         25    2    1    2    0    0  0.21092833997E+02 -0.45922315118E+02  0.15473117377E+03  0.20528694869E+03  0.12508888238E+03 0.  0.
          5    1    3    3  502    0  0.33741290724E+02 -0.60103823416E+02  0.16806590830E+03  0.18169910903E+03  0.41800000000E+01 0.  1.
         -5    1    3    3    0  502 -0.12648456727E+02  0.14181508298E+02 -0.13334734526E+02  0.23587839665E+02  0.41800000000E+01 0.  1.
        -11    1    1    2    0    0 -0.31618490907E+02  0.24122121640E+02  0.22217148534E+03  0.22570284583E+03  0.00000000000E+00 0.  1.
         11    1    1    2    0    0  0.10525656910E+02  0.21800193478E+02  0.60694087745E+01  0.24957476073E+02  0.00000000000E+00 0. -1.
</event>
<event>
 7    1  0.2749315E-009  0.1870600E+03  0.7561462E-02  0.1161140E+00
          2   -1    0    0  501    0  0.00000000000E+00  0.00000000000E+00  0.73916547596E+03  0.73916547596E+03  0.00000000000E+00 0. -1.
         -2   -1    0    0    0  501 -0.00000000000E+00 -0.00000000000E+00 -0.67941617756E+02  0.67941617756E+02  0.00000000000E+00 0.  1.
         25    2    1    2    0    0 -0.63351469457E+02  0.15855131194E+03  0.18223775055E+03  0.27930513347E+03  0.12509529431E+03 0.  0.
          5    1    3    3  502    0 -0.47040624713E+02  0.50590538301E+02  0.28578799124E+01  0.69266606792E+02  0.41800000000E+01 0. -1.
         -5    1    3    3    0  502 -0.16310844744E+02  0.10796077364E+03  0.17937987063E+03  0.21003852668E+03  0.41800000000E+01 0. -1.
        -11    1    1    2    0    0 -0.24480402721E+02 -0.52641521637E+02  0.19008723951E+03  0.19875507174E+03  0.00000000000E+00 0. -1.
         11    1    1    2    0    0  0.87831872178E+02 -0.10590979031E+03  0.29889886815E+03  0.32904688851E+03  0.00000000000E+00 0.  1.
</event>
<event>
 7    1  0.2749315E-009  0.1143679E+03  0.7561462E-02  0.1252688E+00
          2   -1    0    0  501    0  0.00000000000E+00  0.00000000000E+00  0.96123457230E+03  0.96123457230E+03  0.00000000000E+00 0. -1.
         -2   -1    0    0    0  501 -0.00000000000E+00 -0.00000000000E+00 -0.16352085890E+02  0.16352085890E+02  0.00000000000E+00 0.  1.
         25    2    1    2    0    0  0.61480689945E+02 -0.86076625656E+01  0.52149355122E+03  0.53986915315E+03  0.12509680836E+03 0.  0.
          5    1    3    3  502    0  0.47110178928E+02  0.43014762449E+02  0.42173123082E+03  0.42654934321E+03  0.41800000000E+01 0.  1.
         -5    1    3    3    0  502  0.14370511016E+02 -0.51622425014E+02  0.99762320402E+02  0.11331980993E+03  0.41800000000E+01 0.  1.
        -11    1    1    2    0    0  0.15738936919E+01  0.40407216699E+02  0.15006520817E+03  0.15541810385E+03  0.00000000000E+00 0.  1.
         11    1    1    2    0    0 -0.63054583637E+02 -0.31799554134E+02  0.27332372703E+03  0.28229940120E+03  0.00000000000E+00 0. -1.
</event>
<event>
 7    1  0.2749315E-009  0.9970766E+02  0.7561462E-02  0.1280912E+00
         -3   -1    0    0    0  501 -0.00000000000E+00  0.00000000000E+00  0.31464727999E+03  0.31464727999E+03  0.00000000000E+00 0.  1.
          3   -1    0    0  501    0  0.00000000000E+00 -0.00000000000E+00 -0.41047468496E+02  0.41047468496E+02  0.00000000000E+00 0. -1.
         25    2    1    2    0    0 -0.25029157793E+02  0.34533383616E+02  0.17247516516E+03  0.21729868387E+03  0.12510804167E+03 0.  0.
          5    1    3    3  502    0 -0.70825925061E+02  0.12297150398E+02  0.13804787750E+03  0.15569913439E+03  0.41800000000E+01 0.  1.
         -5    1    3    3    0  502  0.45796767268E+02  0.22236233218E+02  0.34427287658E+02  0.61599549474E+02  0.41800000000E+01 0.  1.
        -11    1    1    2    0    0  0.18027950170E+02 -0.53316466833E+02  0.10389489818E+03  0.11816007148E+03  0.00000000000E+00 0.  1.
         11    1    1    2    0    0  0.70012076233E+01  0.18783083217E+02 -0.27702518432E+01  0.20235993146E+02  0.00000000000E+00 0. -1.
</event>
<event>
 7    1  0.2749315E-009  0.9046555E+02  0.7561462E-02  0.1301728E+00
         -2   -1    0    0    0  501 -0.00000000000E+00  0.00000000000E+00  0.47213446695E+02  0.47213446695E+02  0.00000000000E+00 0.  1.
          2   -1    0    0  501    0  0.00000000000E+00 -0.00000000000E+00 -0.27725556808E+03  0.27725556808E+03  0.00000000000E+00 0. -1.
         25    2    1    2    0    0 -0.31655527757E+02  0.61838344621E+00 -0.10066036716E+03  0.16365326113E+03  0.12508966994E+03 0.  0.
          5    1    3    3  502    0 -0.20793697202E+02  0.61993371476E+02 -0.41123773299E+02  0.77357566409E+02  0.41800000000E+01 0.  1.
         -5    1    3    3    0  502 -0.10861830554E+02 -0.61374988030E+02 -0.59536593862E+02  0.86295694721E+02  0.41800000000E+01 0.  1.
        -11    1    1    2    0    0  0.96523639971E+01  0.20364925892E+02  0.49603211217E+01  0.23076029185E+02  0.00000000000E+00 0.  1.
         11    1    1    2    0    0  0.22003163760E+02 -0.20983309338E+02 -0.13434207534E+03  0.13773972446E+03  0.00000000000E+00 0. -1.
</event>
<event>
 7    1  0.2749315E-009  0.1270320E+03  0.7561462E-02  0.1231927E+00
          2   -1    0    0  501    0  0.00000000000E+00  0.00000000000E+00  0.79726762615E+02  0.79726762615E+02  0.00000000000E+00 0. -1.
         -2   -1    0    0    0  501 -0.00000000000E+00 -0.00000000000E+00 -0.26089094201E+03  0.26089094201E+03  0.00000000000E+00 0.  1.
         25    2    1    2    0    0  0.10387865465E+03  0.46692931370E+01 -0.12075235392E+03  0.20258756988E+03  0.12509202735E+03 0.  0.
          5    1    3    3  502    0 -0.60689265861E+01 -0.32965592131E+02 -0.65816239172E+02  0.73978455467E+02  0.41800000000E+01 0. -1.
         -5    1    3    3    0  502  0.10994758123E+03  0.37634885268E+02 -0.54936114745E+02  0.12860911442E+03  0.41800000000E+01 0. -1.
        -11    1    1    2    0    0 -0.63898528609E+02 -0.19915943764E+01 -0.72031634842E+02  0.96309629968E+02  0.00000000000E+00 0.  1.
         11    1    1    2    0    0 -0.39980126037E+02 -0.26776987606E+01  0.11619809367E+02  0.41720504770E+02  0.00000000000E+00 0. -1.
</event>
<event>
 7    1  0.2749315E-009  0.1022514E+03  0.7561462E-02  0.1275632E+00
         -2   -1    0    0    0  501 -0.00000000000E+00  0.00000000000E+00  0.29650175077E+02  0.29650175077E+02  0.00000000000E+00 0.  1.
          2   -1    0    0  501    0  0.00000000000E+00 -0.00000000000E+00 -0.58131916202E+03  0.58131916202E+03  0.00000000000E+00 0. -1.
         25    2    1    2    0    0 -0.70089108847E+02 -0.19493921320E+02 -0.36898289773E+03  0.39634280191E+03  0.12508693641E+03 0.  0.
          5    1    3    3  502    0 -0.31880540605E+02  0.38161602997E+02 -0.27547759668E+03  0.27996081062E+03  0.41800000000E+01 0. -1.
         -5    1    3    3    0  502 -0.38208568242E+02 -0.57655524317E+02 -0.93505301053E+02  0.11638199129E+03  0.41800000000E+01 0. -1.
        -11    1    1    2    0    0  0.40865678284E+02 -0.11756163062E+02 -0.21096589241E+02  0.47468696097E+02  0.00000000000E+00 0.  1.
         11    1    1    2    0    0  0.29223430562E+02  0.31250084382E+02 -0.16158949997E+03  0.16715783909E+03  0.00000000000E+00 0. -1.
</event>
<event>
 7    1  0.2749315E-009  0.1120012E+03  0.7561462E-02  0.1256908E+00
          2   -1    0    0  501    0  0.00000000000E+00  0.00000000000E+00  0.39523042670E+02  0.39523042670E+02  0.00000000000E+00 0.  1.
         -2   -1    0    0    0  501 -0.00000000000E+00 -0.00000000000E+00 -0.35816957120E+03  0.35816957120E+03  0.00000000000E+00 0. -1.
         25    2    1    2    0    0  0.80997480104E+02 -0.25116739485E+01 -0.21958508093E+03  0.26539517774E+03  0.12510032899E+03 0.  0.
          5    1    3    3  502    0 -0.14316636643E+02  0.33713566552E+02 -0.10829836999E+03  0.11440096152E+03  0.41800000000E+01 0.  1.
         -5    1    3    3    0  502  0.95314116747E+02 -0.36225240501E+02 -0.11128671094E+03  0.15099421622E+03  0.41800000000E+01 0.  1.
        -11    1    1    2    0    0 -0.53531352776E+02  0.13971646538E+02 -0.78846361538E+02  0.96320098446E+02  0.00000000000E+00 0. -1.
         11    1    1    2    0    0 -0.27466127329E+02 -0.11459972589E+02 -0.20215086068E+02  0.35977337685E+02  0.00000000000E+00 0.  1.
</event>
<event>
 7    1  0.2749315E-009  0.1129757E+03  0.7561462E-02  0.1255156E+00
         -3   -1    0    0    0  501 -0.00000000000E+00  0.00000000000E+00  0.12420567709E+03  0.12420567709E+03  0.00000000000E+00 0.  1.
          3   -1    0    0  501    0  0.00000000000E+00 -0.00000000000E+00 -0.17710238291E+03  0.17710238291E+03  0.00000000000E+00 0. -1.
         25    2    1    2    0    0  0.90318395235E+02 -0.33942885876E+02  0.39126881344E+01  0.15802652376E+03  0.12509013176E+03 0.  0.
          5    1    3    3  502    0  0.54059662701E+01  0.20260738905E+02  0.44475381232E+02  0.49348292250E+02  0.41800000000E+01 0. -1.
         -5    1    3    3    0  502  0.84912428964E+02 -0.54203624780E+02 -0.40562693098E+02  0.10867823151E+03  0.41800000000E+01 0. -1.
        -11    1    1    2    0    0 -0.33959990586E+02 -0.62393361747E+01  0.19987012433E+02  0.39896001585E+02  0.00000000000E+00 0.  1.
         11    1    1    2    0    0 -0.56358404649E+02  0.40182222051E+02 -0.76796406384E+02  0.10338553466E+03  0.00000000000E+00 0. -1.
</event>
<event>
 7    1  0.2749315E-009  0.2436278E+03  0.7561462E-02  0.1117399E+00
          1   -1    0    0  501    0  0.00000000000E+00  0.00000000000E+00  0.50638679678E+03  0.50638679678E+03  0.00000000000E+00 0. -1.
         -1   -1    0    0    0  501 -0.00000000000E+00 -0.00000000000E+00 -0.15393158626E+03  0.15393158626E+03  0.00000000000E+00 0.  1.
         25    2    1    2    0    0 -0.91487882982E+02  0.21032449440E+03  0.31741277632E+03  0.41110175265E+03  0.12508938719E+03 0.  0.
          5    1    3    3  502    0  0.39579813312E+01  0.73430147014E+02  0.18136164734E+03  0.19574772446E+03  0.41800000000E+01 0. -1.
         -5    1    3    3    0  502 -0.95445864313E+02  0.13689434739E+03  0.13605112898E+03  0.21535402819E+03  0.41800000000E+01 0. -1.
        -11    1    1    2    0    0  0.66940280459E+02 -0.47696708330E+02  0.87667078749E+01  0.82660947856E+02  0.00000000000E+00 0.  1.
         11    1    1    2    0    0  0.24547602523E+02 -0.16262778607E+03  0.26275726330E+02  0.16655568254E+03  0.00000000000E+00 0. -1.
</event>
<event>
 7    1  0.2749315E-009  0.9498984E+02  0.7561462E-02  0.1291199E+00
         -3   -1    0    0    0  501 -0.00000000000E+00  0.00000000000E+00  0.14768095725E+03  0.14768095725E+03  0.00000000000E+00 0.  1.
          3   -1    0    0  501    0  0.00000000000E+00 -0.00000000000E+00 -0.80718861422E+02  0.80718861422E+02  0.00000000000E+00 0. -1.
         25    2    1    2    0    0  0.12672036968E+02  0.46872428708E+01  0.58749682003E+02  0.13885893885E+03  0.12509088295E+03 0.  0.
          5    1    3    3  502    0  0.51135386147E+02 -0.41148301379E+02  0.33011491088E+02  0.73588323575E+02  0.41800000000E+01 0.  1.
         -5    1    3    3    0  502 -0.38463349179E+02  0.45835544250E+02  0.25738190916E+02  0.65270615275E+02  0.41800000000E+01 0.  1.
        -11    1    1    2    0    0  0.20471430560E+02  0.15271922677E+02  0.34383374521E+02  0.42831384929E+02  0.00000000000E+00 0.  1.
         11    1    1    2    0    0 -0.33143467528E+02 -0.19959165548E+02 -0.26170960698E+02  0.46709494892E+02  0.00000000000E+00 0. -1.
</event>
<event>
 7    1  0.2749315E-009  0.9103101E+02  0.7561462E-02  0.1300374E+00
          2   -1    0    0  501    0  0.00000000000E+00  0.00000000000E+00  0.55729481279E+02  0.55729481279E+02  0.00000000000E+00 0. -1.
         -2   -1    0    0    0  501 -0.00000000000E+00 -0.00000000000E+00 -0.21795786915E+03  0.21795786915E+03  0.00000000000E+00 0.  1.
         25    2    1    2    0    0 -0.27796196896E+02 -0.40975857352E+01 -0.12928549245E+03  0.18207472258E+03  0.12508815801E+03 0.  0.
          5    1    3    3  502    0  0.46383790458E+02 -0.23752192619E+01 -0.21995533646E+02  0.51559417997E+02  0.41800000000E+01 0.  1.
         -5    1    3    3    0  502 -0.74179987354E+02 -0.17223664732E+01 -0.10728995880E+03  0.13051530458E+03  0.41800000000E+01 0.  1.
        -11    1    1    2    0    0  0.61229079729E+01 -0.24486480310E+02  0.16773823826E+02  0.30305756644E+02  0.00000000000E+00 0. -1.
         11    1    1    2    0    0  0.21673288923E+02  0.28584066045E+02 -0.49716719250E+02  0.61306871209E+02  0.00000000000E+00 0.  1.
</event>
<event>
 7    1  0.2749315E-009  0.1403221E+03  0.7561462E-02  0.1212896E+00
         -2   -1    0    0    0  501 -0.00000000000E+00  0.00000000000E+00  0.10009026547E+03  0.10009026547E+03  0.00000000000E+00 0.  1.
          2   -1    0    0  501    0  0.00000000000E+00 -0.00000000000E+00 -0.23798659317E+03  0.23798659317E+03  0.00000000000E+00 0. -1.
         25    2    1    2    0    0  0.81447697598E+01 -0.10674912332E+03 -0.48752087041E+02  0.17171110724E+03  0.12508487420E+03 0.  0.
          5    1    3    3  502    0 -0.35425610195E+02 -0.11426315042E+03 -0.29351708208E+02  0.12324786641E+03  0.41800000000E+01 0.  1.
         -5    1    3    3    0  502  0.43570379955E+02  0.75140270940E+01 -0.19400378833E+02  0.48463240827E+02  0.41800000000E+01 0.  1.
        -11    1    1    2    0    0 -0.17130032439E+02  0.10990734157E+02  0.14485617930E+02  0.24981340546E+02  0.00000000000E+00 0.  1.
         11    1    1    2    0    0  0.89852626792E+01  0.95758389167E+02 -0.10362985859E+03  0.14138441085E+03  0.00000000000E+00 0. -1.
</event>
<event>
 7    1  0.2749315E-009  0.7199397E+02  0.7561462E-02  0.1353441E+00
         -1   -1    0    0    0  501 -0.00000000000E+00  0.00000000000E+00  0.17310188299E+03  0.17310188299E+03  0.00000000000E+00 0.  1.
          1   -1    0    0  501    0  0.00000000000E+00 -0.00000000000E+00 -0.98551780567E+02  0.98551780567E+02  0.00000000000E+00 0. -1.
         25    2    1    2    0    0 -0.21868763407E+02  0.29978669233E+02  0.10513641765E+03  0.16756546774E+03  0.12509019242E+03 0.  0.
          5    1    3    3  502    0 -0.24692869511E+02  0.15973086113E+02 -0.23620415121E+02  0.37950938001E+02  0.41800000000E+01 0.  1.
         -5    1    3    3    0  502  0.28241061036E+01  0.14005583120E+02  0.12875683277E+03  0.12961452974E+03  0.41800000000E+01 0.  1.
        -11    1    1    2    0    0 -0.24594042586E+02  0.19600793026E+02 -0.75654722250E+01  0.32346474119E+02  0.00000000000E+00 0. -1.
         11    1    1    2    0    0  0.46462805993E+02 -0.49579462258E+02 -0.23020843009E+02  0.71741721693E+02  0.00000000000E+00 0.  1.
</event>
<event>
 7    1  0.2749315E-009  0.1210354E+03  0.7561462E-02  0.1241399E+00
          1   -1    0    0  501    0  0.00000000000E+00  0.00000000000E+00  0.59871241126E+02  0.59871241126E+02  0.00000000000E+00 0. -1.
         -1   -1    0    0    0  501 -0.00000000000E+00 -0.00000000000E+00 -0.33861332266E+03  0.33861332266E+03  0.00000000000E+00 0.  1.
         25    2    1    2    0    0  0.12435010544E+02 -0.72447743357E+02 -0.22956489055E+03  0.27157618988E+03  0.12510109086E+03 0.  0.
          5    1    3    3  502    0 -0.18376707154E+02  0.20043708145E+02 -0.12725220196E+03  0.13019235349E+03  0.41800000000E+01 0. -1.
         -5    1    3    3    0  502  0.30811717698E+02 -0.92491451502E+02 -0.10231268859E+03  0.14138383640E+03  0.41800000000E+01 0. -1.
        -11    1    1    2    0    0 -0.17896302824E+02 -0.18575225037E+02 -0.11615841578E+02  0.28288591615E+02  0.00000000000E+00 0. -1.
         11    1    1    2    0    0  0.54612922802E+01  0.91022968394E+02 -0.37561349401E+02  0.98619782282E+02  0.00000000000E+00 0.  1.
</event>
<event>
 7    1  0.2749315E-009  0.1502264E+03  0.7561462E-02  0.1200195E+00
         -2   -1    0    0    0  501 -0.00000000000E+00  0.00000000000E+00  0.80756368924E+02  0.80756368924E+02  0.00000000000E+00 0. -1.
          2   -1    0    0  501    0  0.00000000000E+00 -0.00000000000E+00 -0.59364374225E+03  0.59364374225E+03  0.00000000000E+00 0.  1.
         25    2    1    2    0    0  0.47239746489E+02  0.11803643490E+03 -0.48381395610E+03  0.51564242130E+03  0.12508784480E+03 0.  0.
          5    1    3    3  502    0  0.78742159016E+02  0.11517249631E+03 -0.43881477920E+03  0.46047900534E+03  0.41800000000E+01 0. -1.
         -5    1    3    3    0  502 -0.31502412527E+02  0.28639385896E+01 -0.44999176901E+02  0.55163415966E+02  0.41800000000E+01 0. -1.
        -11    1    1    2    0    0 -0.89189232334E+01 -0.50789399476E+02 -0.56638338403E+02  0.76596420724E+02  0.00000000000E+00 0.  1.
         11    1    1    2    0    0 -0.38320823256E+02 -0.67247035424E+02  0.27564921177E+02  0.82161269146E+02  0.00000000000E+00 0. -1.
</event>
<event>
 7    1  0.2749315E-009  0.4035028E+03  0.7561462E-02  0.1042574E+00
          2   -1    0    0  501    0  0.00000000000E+00  0.00000000000E+00  0.41942304640E+03  0.41942304640E+03  0.00000000000E+00 0. -1.
         -2   -1    0    0    0  501 -0.00000000000E+00 -0.00000000000E+00 -0.41135501251E+03  0.41135501251E+03  0.00000000000E+00 0.  1.
         25    2    1    2    0    0  0.32275072457E+03  0.21897368905E+03 -0.86841506190E+02  0.41869664511E+03  0.12509167327E+03 0.  0.
          5    1    3    3  502    0  0.20797118407E+03  0.73007877583E+02 -0.20239014185E+02  0.22138033717E+03  0.41800000000E+01 0.  1.
         -5    1    3    3    0  502  0.11477954050E+03  0.14596581147E+03 -0.66602492005E+02  0.19731630793E+03  0.41800000000E+01 0.  1.
        -11    1    1    2    0    0 -0.17887228465E+03 -0.65605003546E+02  0.38840900085E+02  0.19444260393E+03  0.00000000000E+00 0.  1.
         11    1    1    2    0    0 -0.14387843992E+03 -0.15336868551E+03  0.56068639993E+02  0.21763880986E+03  0.00000000000E+00 0. -1.
</event>
<event>
 7    1  0.2749315E-009  0.7163380E+02  0.7561462E-02  0.1354624E+00
          1   -1    0    0  501    0  0.00000000000E+00  0.00000000000E+00  0.16871996512E+03  0.16871996512E+03  0.00000000000E+00 0. -1.
         -1   -1    0    0    0  501 -0.00000000000E+00 -0.00000000000E+00 -0.76175004018E+02  0.76175004018E+02  0.00000000000E+00 0.  1.
         25    2    1    2    0    0 -0.10670230067E+02  0.33937735725E+02  0.47895537685E+02  0.13858069717E+03  0.12507998794E+03 0.  0.
          5    1    3    3  502    0  0.45123707023E+01 -0.98978852386E+01 -0.38611064905E+02  0.40331332171E+02  0.41800000000E+01 0. -1.
         -5    1    3    3    0  502 -0.15182600769E+02  0.43835620963E+02  0.86506602590E+02  0.98249365001E+02  0.41800000000E+01 0. -1.
        -11    1    1    2    0    0  0.41289572839E+02 -0.35391643153E+02  0.51507384208E+02  0.74902655883E+02  0.00000000000E+00 0. -1.
         11    1    1    2    0    0 -0.30619342773E+02  0.14539074282E+01 -0.68579607933E+01  0.31411616082E+02  0.00000000000E+00 0.  1.
</event>
<event>
 7    1  0.2749315E-009  0.6172203E+02  0.7561462E-02  0.1390744E+00
          1   -1    0    0  501    0  0.00000000000E+00  0.00000000000E+00  0.70494545799E+03  0.70494545799E+03  0.00000000000E+00 0. -1.
         -1   -1    0    0    0  501 -0.00000000000E+00 -0.00000000000E+00 -0.30131239458E+02  0.30131239458E+02  0.00000000000E+00 0.  1.
         25    2    1    2    0    0 -0.21246746609E+01  0.19504661727E+02  0.60845311420E+03  0.62148831632E+03  0.12509032364E+03 0.  0.
          5    1    3    3  502    0  0.10391552650E+02  0.82060433533E+01  0.11454759745E+01  0.13932265760E+02  0.41800000000E+01 0.  1.
         -5    1    3    3    0  502 -0.12516227311E+02  0.11298618374E+02  0.60730763823E+03  0.60755605056E+03  0.41800000000E+01 0.  1.
        -11    1    1    2    0    0 -0.19865820745E+02  0.31160982423E+02  0.26419910665E+02  0.45427627486E+02  0.00000000000E+00 0.  1.
         11    1    1    2    0    0  0.21990495406E+02 -0.50665644151E+02  0.39941193664E+02  0.68160753640E+02  0.00000000000E+00 0. -1.
</event>
<event>
 7    1  0.2749315E-009  0.1658808E+03  0.7561462E-02  0.1182213E+00
          2   -1    0    0  501    0  0.00000000000E+00  0.00000000000E+00  0.11467788973E+04  0.11467788973E+04  0.00000000000E+00 0. -1.
         -2   -1    0    0    0  501 -0.00000000000E+00 -0.00000000000E+00 -0.27648895219E+02  0.27648895219E+02  0.00000000000E+00 0.  1.
         25    2    1    2    0    0 -0.12841830211E+03  0.52464000358E+02  0.61692135922E+03  0.64457986136E+03  0.12508997785E+03 0.  0.
          5    1    3    3  502    0 -0.66787480960E+02  0.87650364943E+02  0.29588919633E+03  0.31577055434E+03  0.41800000000E+01 0.  1.
         -5    1    3    3    0  502 -0.61630821149E+02 -0.35186364585E+02  0.32103216290E+03  0.32880930702E+03  0.41800000000E+01 0.  1.
        -11    1    1    2    0    0  0.22304318246E+02  0.12899390803E+02  0.22477621109E+02  0.34192401878E+02  0.00000000000E+00 0.  1.
         11    1    1    2    0    0  0.10611398386E+03 -0.65363391161E+02  0.47973102174E+03  0.49565552927E+03  0.00000000000E+00 0. -1.
</event>
<event>
 7    1  0.2749315E-009  0.1084230E+03  0.7561462E-02  0.1263518E+00
          2   -1    0    0  501    0  0.00000000000E+00  0.00000000000E+00  0.57613370518E+03  0.57613370518E+03  0.00000000000E+00 0. -1.
         -2   -1    0    0    0  501 -0.00000000000E+00 -0.00000000000E+00 -0.28315151822E+02  0.28315151822E+02  0.00000000000E+00 0.  1.
         25    2    1    2    0    0  0.74394143602E+01  0.74144134016E+02  0.27926728754E+03  0.31494475188E+03  0.12508909365E+03 0.  0.
          5    1    3    3  502    0 -0.55792567046E+02  0.38518272068E+02  0.17601805099E+03  0.18866980282E+03  0.41800000000E+01 0. -1.
         -5    1    3    3    0  502  0.63231981406E+02  0.35625861948E+02  0.10324923655E+03  0.12627494906E+03  0.41800000000E+01 0. -1.
        -11    1    1    2    0    0 -0.12558153382E+02 -0.52615414369E+02  0.26034081734E+03  0.26590116626E+03  0.00000000000E+00 0. -1.
         11    1    1    2    0    0  0.51187390215E+01 -0.21528719647E+02  0.82104484796E+01  0.23602938865E+02  0.00000000000E+00 0.  1.
</event>
<event>
 7    1  0.2749315E-009  0.1032173E+03  0.7561462E-02  0.1273672E+00
         -1   -1    0    0    0  501 -0.00000000000E+00  0.00000000000E+00  0.84123335170E+02  0.84123335170E+02  0.00000000000E+00 0.  1.
          1   -1    0    0  501    0  0.00000000000E+00 -0.00000000000E+00 -0.21068158363E+03  0.21068158363E+03  0.00000000000E+00 0. -1.
         25    2    1    2    0    0  0.40553464531E+02  0.33087600651E+02 -0.13218051021E+03  0.18936391956E+03  0.12509050303E+03 0.  0.
          5    1    3    3  502    0 -0.39415234984E+02  0.58661657692E+01 -0.81361439486E+02  0.90692496299E+02  0.41800000000E+01 0. -1.
         -5    1    3    3    0  502  0.79968699515E+02  0.27221434882E+02 -0.50819070727E+02  0.98671423263E+02  0.41800000000E+01 0. -1.
        -11    1    1    2    0    0 -0.19829508787E+02 -0.50795888498E+02 -0.28692026894E+02  0.61617076484E+02  0.00000000000E+00 0. -1.
         11    1    1    2    0    0 -0.20723955744E+02  0.17708287848E+02  0.34314288647E+02  0.43823922754E+02  0.00000000000E+00 0.  1.
</event>
<event>
 7    1  0.2749315E-009  0.2583747E+03  0.7561462E-02  0.1108124E+00
         -2   -1    0    0    0  501 -0.00000000000E+00  0.00000000000E+00  0.16372106373E+03  0.16372106373E+03  0.00000000000E+00 0.  1.
          2   -1    0    0  501    0  0.00000000000E+00 -0.00000000000E+00 -0.46749224002E+03  0.46749224002E+03  0.00000000000E+00 0. -1.
         25    2    1    2    0    0  0.23665696382E+03 -0.55600772160E+02 -0.16972910932E+03  0.32179311498E+03  0.12507947036E+03 0.  0.
          5    1    3    3  502    0 -0.36805204750E+01  0.16375433066E+02  0.24667307441E+01  0.17471639866E+02  0.41800000000E+01 0. -1.
         -5    1    3    3    0  502  0.24033748430E+03 -0.71976205226E+02 -0.17219584007E+03  0.30432147511E+03  0.41800000000E+01 0. -1.
        -11    1    1    2    0    0 -0.19450975656E+03  0.24271361320E+02 -0.15793236909E+03  0.25172559978E+03  0.00000000000E+00 0. -1.
         11    1    1    2    0    0 -0.42147207261E+02  0.31329410841E+02  0.23890302114E+02  0.57694588989E+02  0.00000000000E+00 0.  1.
</event>
<event>
 7    1  0.2749315E-009  0.9374113E+02  0.7561462E-02  0.1294037E+00
          1   -1    0    0  501    0  0.00000000000E+00  0.00000000000E+00  0.86613961381E+03  0.86613961381E+03  0.00000000000E+00 0. -1.
         -1   -1    0    0    0  501 -0.00000000000E+00 -0.00000000000E+00 -0.25396321841E+02  0.25396321841E+02  0.00000000000E+00 0.  1.
         25    2    1    2    0    0 -0.49348476813E+01 -0.41508742284E+02  0.72426128389E+03  0.73617202667E+03  0.12509003597E+03 0.  0.
          5    1    3    3  502    0 -0.23823538538E+02 -0.59342405570E+02  0.69001935521E+03  0.69298864713E+03  0.41800000000E+01 0. -1.
         -5    1    3    3    0  502  0.18888690857E+02  0.17833663286E+02  0.34241928678E+02  0.43183379535E+02  0.41800000000E+01 0. -1.
        -11    1    1    2    0    0  0.16123313461E+02  0.67178496595E+02  0.56795273136E+02  0.89434974659E+02  0.00000000000E+00 0.  1.
         11    1    1    2    0    0 -0.11188465779E+02 -0.25669754311E+02  0.59686734943E+02  0.65928934323E+02  0.00000000000E+00 0. -1.
</event>
<event>
 7    1  0.2749315E-009  0.9797715E+02  0.7561462E-02  0.1284608E+00
         -2   -1    0    0    0  501 -0.00000000000E+00  0.00000000000E+00  0.17528752783E+03  0.17528752783E+03  0.00000000000E+00 0.  1.
          2   -1    0    0  501    0  0.00000000000E+00 -0.00000000000E+00 -0.86230254462E+02  0.86230254462E+02  0.00000000000E+00 0. -1.
         25    2    1    2    0    0  0.57903306944E+02  0.58054823281E+01  0.54188275090E+02  0.14822419485E+03  0.12509015230E+03 0.  0.
          5    1    3    3  502    0  0.30997182961E+02  0.64839129425E+02  0.19718957119E+02  0.74640791300E+02  0.41800000000E+01 0. -1.
         -5    1    3    3    0  502  0.26906123982E+02 -0.59033647096E+02  0.34469317972E+02  0.73583403555E+02  0.41800000000E+01 0. -1.
        -11    1    1    2    0    0 -0.34400175560E+02 -0.80966115913E+01  0.65614188800E+02  0.74526162988E+02  0.00000000000E+00 0.  1.
         11    1    1    2    0    0 -0.23503131384E+02  0.22911292632E+01 -0.30745190523E+02  0.38767424449E+02  0.00000000000E+00 0. -1.
</event>
<event>
 7    1  0.2749315E-009  0.1695349E+03  0.7561462E-02  0.1178334E+00
         -1   -1    0    0    0  501 -0.00000000000E+00  0.00000000000E+00  0.60764041670E+02  0.60764041670E+02  0.00000000000E+00 0.  1.
          1   -1    0    0  501    0  0.00000000000E+00 -0.00000000000E+00 -0.57867448132E+03  0.57867448132E+03  0.00000000000E+00 0. -1.
         25    2    1    2    0    0 -0.28514440874E+02 -0.14552460676E+03 -0.33192631200E+03  0.38446102521E+03  0.12507885031E+03 0.  0.
          5    1    3    3  502    0  0.21973626703E+02 -0.72731755434E+02 -0.55574062523E+02  0.94226839830E+02  0.41800000000E+01 0. -1.
         -5    1    3    3    0  502 -0.50488067577E+02 -0.72792851330E+02 -0.27635224947E+03  0.29023418538E+03  0.41800000000E+01 0. -1.
        -11    1    1    2    0    0  0.44279157018E+02  0.21420517139E+02 -0.57041170642E+02  0.75320498199E+02  0.00000000000E+00 0.  1.
         11    1    1    2    0    0 -0.15764716144E+02  0.12410408963E+03 -0.12894295701E+03  0.17965699958E+03  0.00000000000E+00 0. -1.
</event>
<event>
 7    1  0.2749315E-009  0.6444755E+02  0.7561462E-02  0.1380062E+00
         -1   -1    0    0    0  501 -0.00000000000E+00  0.00000000000E+00  0.12335317909E+02  0.12335317909E+02  0.00000000000E+00 0.  1.
          1   -1    0    0  501    0  0.00000000000E+00 -0.00000000000E+00 -0.11727010950E+04  0.11727010950E+04  0.00000000000E+00 0. -1.
         25    2    1    2    0    0  0.73025533677E+01  0.23533816385E+02 -0.88953005148E+03  0.89861975138E+03  0.12508627936E+03 0.  0.
          5    1    3    3  502    0 -0.20345814288E+02  0.21314091134E+02 -0.47047129863E+02  0.55669987141E+02  0.41800000000E+01 0. -1.
         -5    1    3    3    0  502  0.27648367655E+02  0.22197252503E+01 -0.84248292162E+03  0.84294976424E+03  0.41800000000E+01 0. -1.
        -11    1    1    2    0    0 -0.28777142872E+02 -0.36128101033E+02 -0.24916750918E+03  0.25341233448E+03  0.00000000000E+00 0. -1.
         11    1    1    2    0    0  0.21474589504E+02  0.12594284648E+02 -0.21668216414E+02  0.33004327030E+02  0.00000000000E+00 0.  1.
</event>
<event>
 7    1  0.2749315E-009  0.1054303E+03  0.7561462E-02  0.1269274E+00
         -2   -1    0    0    0  501 -0.00000000000E+00  0.00000000000E+00  0.11548545883E+03  0.11548545883E+03  0.00000000000E+00 0.  1.
          2   -1    0    0  501    0  0.00000000000E+00 -0.00000000000E+00 -0.13227479885E+03  0.13227479885E+03  0.00000000000E+00 0. -1.
         25    2    1    2    0    0 -0.14278638152E+02 -0.60054584911E+02  0.99628096807E+00  0.13948226932E+03  0.12507549001E+03 0.  0.
          5    1    3    3  502    0 -0.32741663051E+02  0.31705117516E+02 -0.74658820732E+00  0.45774018504E+02  0.41800000000E+01 0. -1.
         -5    1    3    3    0  502  0.18463024899E+02 -0.91759702426E+02  0.17428691754E+01  0.93708250815E+02  0.41800000000E+01 0. -1.
        -11    1    1    2    0    0  0.16960334702E+02  0.71136584717E+01  0.31124392894E+02  0.36152246445E+02  0.00000000000E+00 0.  1.
         11    1    1    2    0    0 -0.26816965495E+01  0.52940926439E+02 -0.48910013881E+02  0.72125741912E+02  0.00000000000E+00 0. -1.
</event>
<event>
 7    1  0.2749315E-009  0.5686989E+02  0.7561462E-02  0.1411457E+00
         -1   -1    0    0    0  501 -0.00000000000E+00  0.00000000000E+00  0.25854452060E+02  0.25854452060E+02  0.00000000000E+00 0.  1.
          1   -1    0    0  501    0  0.00000000000E+00 -0.00000000000E+00 -0.54108858867E+03  0.54108858867E+03  0.00000000000E+00 0. -1.
         25    2    1    2    0    0 -0.39207838389E+02  0.26185101438E+02 -0.28776924136E+03  0.31730497197E+03  0.12509354433E+03 0.  0.
          5    1    3    3  502    0 -0.32867341495E+02  0.33553602270E+02 -0.23251674041E+02  0.52575841486E+02  0.41800000000E+01 0. -1.
         -5    1    3    3    0  502 -0.63404968936E+01 -0.73685008318E+01 -0.26451756732E+03  0.26472913048E+03  0.41800000000E+01 0. -1.
        -11    1    1    2    0    0  0.28549067886E+02 -0.32780072051E+02 -0.23220417005E+03  0.23623792877E+03  0.00000000000E+00 0. -1.
         11    1    1    2    0    0  0.10658770502E+02  0.65949706133E+01  0.47392748053E+01  0.13400139988E+02  0.00000000000E+00 0.  1.
</event>
<event>
 7    1  0.2749315E-009  0.1174592E+03  0.7561462E-02  0.1247348E+00
          1   -1    0    0  501    0  0.00000000000E+00  0.00000000000E+00  0.59223217391E+03  0.59223217391E+03  0.00000000000E+00 0. -1.
         -1   -1    0    0    0  501 -0.00000000000E+00 -0.00000000000E+00 -0.25924165287E+02  0.25924165287E+02  0.00000000000E+00 0.  1.
         25    2    1    2    0    0 -0.46873103628E+02  0.32515238942E+02  0.34383689293E+03  0.37030479122E+03  0.12508997104E+03 0.  0.
          5    1    3    3  502    0  0.37775379534E+02  0.32073996783E+02  0.91882466870E+02  0.10447765640E+03  0.41800000000E+01 0.  1.
         -5    1    3    3    0  502 -0.84648483161E+02  0.44124215925E+00  0.25195442606E+03  0.26582713482E+03  0.41800000000E+01 0.  1.
        -11    1    1    2    0    0  0.40125373484E+02  0.21824913551E+02  0.15135385948E+03  0.15809605697E+03  0.00000000000E+00 0. -1.
         11    1    1    2    0    0  0.67477301436E+01 -0.54340152493E+02  0.71117256206E+02  0.89755491004E+02  0.00000000000E+00 0.  1.
</event>
<event>
 7    1  0.2749315E-009  0.8933224E+02  0.7561462E-02  0.1304477E+00
         -2   -1    0    0    0  501 -0.00000000000E+00  0.00000000000E+00  0.98616336033E+02  0.98616336033E+02  0.00000000000E+00 0.  1.
          2   -1    0    0  501    0  0.00000000000E+00 -0.00000000000E+00 -0.22680478739E+03  0.22680478739E+03  0.00000000000E+00 0. -1.
         25    2    1    2    0    0 -0.44792039560E+02  0.23139703295E+02 -0.16619396000E+03  0.21403107535E+03  0.12508835357E+03 0.  0.
          5    1    3    3  502    0 -0.47657539395E+02  0.42934098025E+02 -0.21321613487E+02  0.67724895247E+02  0.41800000000E+01 0.  1.
         -5    1    3    3    0  502  0.28654998357E+01 -0.19794394730E+02 -0.14487234651E+03  0.14630618010E+03  0.41800000000E+01 0.  1.
        -11    1    1    2    0    0  0.47223537336E+02  0.19608911559E+02 -0.41526418969E+01  0.51301231230E+02  0.00000000000E+00 0. -1.
         11    1    1    2    0    0 -0.24314977759E+01 -0.42748614854E+02  0.42158150536E+02  0.60088816846E+02  0.00000000000E+00 0.  1.
</event>
<event>
 7    1  0.2749315E-009  0.1132644E+03  0.7561462E-02  0.1254641E+00
          1   -1    0    0  501    0  0.00000000000E+00  0.00000000000E+00  0.15263047370E+03  0.15263047370E+03  0.00000000000E+00 0. -1.
         -1   -1    0    0    0  501 -0.00000000000E+00 -0.00000000000E+00 -0.86202165910E+02  0.86202165910E+02  0.00000000000E+00 0.  1.
         25    2    1    2    0    0  0.39953450376E+02  0.20513455226E+02  0.39368191729E+02  0.13861728427E+03  0.12509123445E+03 0.  0.
          5    1    3    3  502    0  0.84227563483E+02  0.35194256134E+01  0.17371222970E+02  0.86173665319E+02  0.41800000000E+01 0.  1.
         -5    1    3    3    0  502 -0.44274113107E+02  0.16994029613E+02  0.21996968759E+02  0.52443618949E+02  0.41800000000E+01 0.  1.
        -11    1    1    2    0    0 -0.53172207783E+02 -0.43033093475E+02  0.28406711503E+02  0.74068023283E+02  0.00000000000E+00 0. -1.
         11    1    1    2    0    0  0.13218757407E+02  0.22519638249E+02 -0.13465954467E+01  0.26147332054E+02  0.00000000000E+00 0.  1.
</event>
<event>
 7    1  0.2749315E-009  0.1355728E+03  0.7561462E-02  0.1219413E+00
          1   -1    0    0  501    0  0.00000000000E+00  0.00000000000E+00  0.35089889343E+02  0.35089889343E+02  0.00000000000E+00 0. -1.
         -1   -1    0    0    0  501 -0.00000000000E+00 -0.00000000000E+00 -0.55131598176E+03  0.55131598176E+03  0.00000000000E+00 0.  1.
         25    2    1    2    0    0  0.68546816795E+02  0.48210547584E+02 -0.33906139124E+03  0.37098991114E+03  0.12509182286E+03 0.  0.
          5    1    3    3  502    0  0.10607567130E+02  0.81582098931E+02 -0.16345754530E+03  0.18304098138E+03  0.41800000000E+01 0.  1.
         -5    1    3    3    0  502  0.57939249665E+02 -0.33371551348E+02 -0.17560384594E+03  0.18794892977E+03  0.41800000000E+01 0.  1.
        -11    1    1    2    0    0 -0.90137863599E+02 -0.40892604114E+02 -0.15272159364E+03  0.18199155115E+03  0.00000000000E+00 0.  1.
         11    1    1    2    0    0  0.21591046803E+02 -0.73179434699E+01 -0.24443107536E+02  0.33424408816E+02  0.00000000000E+00 0. -1.
</event>
<event>
 7    1  0.2749315E-009  0.1061171E+03  0.7561462E-02  0.1267934E+00
          2   -1    0    0  501    0  0.00000000000E+00  0.00000000000E+00  0.38446248556E+03  0.38446248556E+03  0.00000000000E+00 0. -1.
         -2   -1    0    0    0  501 -0.00000000000E+00 -0.00000000000E+00 -0.43922782979E+02  0.43922782979E+02  0.00000000000E+00 0.  1.
         25    2    1    2    0    0 -0.32161911552E+02  0.40294795077E+02  0.10732331295E+03  0.17268475134E+03  0.12507466082E+03 0.  0.
          5    1    3    3  502    0  0.23459731063E+02  0.46673075012E+02  0.10398513431E+03  0.11644361499E+03  0.41800000000E+01 0. -1.
         -5    1    3    3    0  502 -0.55621642615E+02 -0.63782799351E+01  0.33381786383E+01  0.56241136357E+02  0.41800000000E+01 0. -1.
        -11    1    1    2    0    0  0.60705770923E+02 -0.90649956057E+01  0.15622402938E+03  0.16784907544E+03  0.00000000000E+00 0.  1.
         11    1    1    2    0    0 -0.28543859371E+02 -0.31229799471E+02  0.76992360250E+02  0.87851441762E+02  0.00000000000E+00 0. -1.
</event>
<event>
 7    1  0.2749315E-009  0.1185069E+03  0.7561462E-02  0.1245581E+00
          2   -1    0    0  501    0  0.00000000000E+00  0.00000000000E+00  0.12843136371E+03  0.12843136371E+03  0.00000000000E+00 0. -1.
         -2   -1    0    0    0  501 -0.00000000000E+00 -0.00000000000E+00 -0.33314954697E+03  0.33314954697E+03  0.00000000000E+00 0.  1.
         25    2    1    2    0    0 -0.63758112164E+02  0.76906411482E+02  0.54260151404E+02  0.16903332046E+03  0.12509359057E+03 0.  0.
          5    1    3    3  502    0 -0.66706613934E+02  0.79855579538E+02 -0.98974593830E+01  0.10460457938E+03  0.41800000000E+01 0.  1.
         -5    1    3    3    0  502  0.29485017703E+01 -0.29491680556E+01  0.64157610787E+02  0.64428741077E+02  0.41800000000E+01 0.  1.
        -11    1    1    2    0    0 -0.99662589145E+01 -0.45942862485E+02 -0.15123728427E+03  0.15837546869E+03  0.00000000000E+00 0.  1.
         11    1    1    2    0    0  0.73724371078E+02 -0.30963548998E+02 -0.10774105039E+03  0.13417212153E+03  0.00000000000E+00 0. -1.
</event>
<event>
 7    1  0.2749315E-009  0.1248786E+03  0.7561462E-02  0.1235259E+00
          2   -1    0    0  501    0  0.00000000000E+00  0.00000000000E+00  0.48386208787E+03  0.48386208787E+03  0.00000000000E+00 0. -1.
         -2   -1    0    0    0  501 -0.00000000000E+00 -0.00000000000E+00 -0.36403012746E+02  0.36403012746E+02  0.00000000000E+00 0.  1.
         25    2    1    2    0    0  0.71996188143E+02  0.17807579043E+02  0.28870094204E+03  0.32326032587E+03  0.12509373834E+03 0.  0.
          5    1    3    3  502    0 -0.29841468557E+02 -0.23618211696E+01  0.13076609143E+03  0.13421376425E+03  0.41800000000E+01 0.  1.
         -5    1    3    3    0  502  0.10183765670E+03  0.20169400212E+02  0.15793485060E+03  0.18904656162E+03  0.41800000000E+01 0.  1.
        -11    1    1    2    0    0 -0.24864571217E+02 -0.51842115732E+02  0.91919374686E+02  0.10842058526E+03  0.00000000000E+00 0. -1.
         11    1    1    2    0    0 -0.47131616926E+02  0.34034536689E+02  0.66838758400E+02  0.88584189482E+02  0.00000000000E+00 0.  1.
</event>
<event>
 7    1  0.2749315E-009  0.9302088E+02  0.7561462E-02  0.1295697E+00
         -2   -1    0    0    0  501 -0.00000000000E+00  0.00000000000E+00  0.70566951577E+03  0.70566951577E+03  0.00000000000E+00 0.  1.
          2   -1    0    0  501    0  0.00000000000E+00 -0.00000000000E+00 -0.27774033603E+02  0.27774033603E+02  0.00000000000E+00 0. -1.
         25    2    1    2    0    0  0.54639322245E+01  0.45505383809E+02  0.57111808831E+03  0.58645138757E+03  0.12509502256E+03 0.  0.
          5    1    3    3  502    0 -0.31705767560E+01  0.70260458306E+02  0.54384583582E+03  0.54839069111E+03  0.41800000000E+01 0. -1.
         -5    1    3    3    0  502  0.86345089805E+01 -0.24755074497E+02  0.27272252496E+02  0.38060696458E+02  0.41800000000E+01 0. -1.
        -11    1    1    2    0    0  0.30988085132E+02 -0.33122968911E+00  0.74238847113E+02  0.80447358900E+02  0.00000000000E+00 0.  1.
         11    1    1    2    0    0 -0.36452017357E+02 -0.45174154120E+02  0.32538546740E+02  0.66544802906E+02  0.00000000000E+00 0. -1.
</event>
<event>
 7    1  0.2749315E-009  0.2842475E+03  0.7561462E-02  0.1093391E+00
         -2   -1    0    0    0  501 -0.00000000000E+00  0.00000000000E+00  0.11217320220E+03  0.11217320220E+03  0.00000000000E+00 0.  1.
          2   -1    0    0  501    0  0.00000000000E+00 -0.00000000000E+00 -0.75830168014E+03  0.75830168014E+03  0.00000000000E+00 0. -1.
         25    2    1    2    0    0  0.25043121333E+03  0.10200367703E+03 -0.32800897555E+03  0.44312380548E+03  0.12509307014E+03 0.  0.
          5    1    3    3  502    0  0.17986647158E+03  0.12652836561E+03 -0.27118231659E+03  0.34916857839E+03  0.41800000000E+01 0. -1.
         -5    1    3    3    0  502  0.70564741751E+02 -0.24524688576E+02 -0.56826658959E+02  0.93955227085E+02  0.41800000000E+01 0. -1.
        -11    1    1    2    0    0 -0.16913570838E+03 -0.46925211591E+02 -0.25854132143E+03  0.31249396509E+03  0.00000000000E+00 0. -1.
         11    1    1    2    0    0 -0.81295504949E+02 -0.55078465444E+02 -0.59578180960E+02  0.11485711178E+03  0.00000000000E+00 0.  1.
</event>
<event>
 7    1  0.2749315E-009  0.7736755E+02  0.7561462E-02  0.1336692E+00
         -1   -1    0    0    0  501 -0.00000000000E+00  0.00000000000E+00  0.24037068555E+03  0.24037068555E+03  0.00000000000E+00 0.  1.
          1   -1    0    0  501    0  0.00000000000E+00 -0.00000000000E+00 -0.52087117969E+02  0.52087117969E+02  0.00000000000E+00 0. -1.
         25    2    1    2    0    0  0.63887795196E+01 -0.64817461496E+01  0.13399133753E+03  0.18353117302E+03  0.12508870212E+03 0.  0.
          5    1    3    3  502    0  0.33427549985E+02 -0.46019120695E+02  0.21069529144E+02  0.60799325867E+02  0.41800000000E+01 0.  1.
         -5    1    3    3    0  502 -0.27038770465E+02  0.39537374545E+02  0.11292180839E+03  0.12273184715E+03  0.41800000000E+01 0.  1.
        -11    1    1    2    0    0  0.15421401792E+02 -0.13158532195E+02 -0.20348160893E+02  0.28723061370E+02  0.00000000000E+00 0. -1.
         11    1    1    2    0    0 -0.21810181312E+02  0.19640278345E+02  0.74640390941E+02  0.80203569136E+02  0.00000000000E+00 0.  1.
</event>
<event>
 7    1  0.2749315E-009  0.1126822E+03  0.7561462E-02  0.1255682E+00
          3   -1    0    0  501    0  0.00000000000E+00  0.00000000000E+00  0.71075349459E+03  0.71075349459E+03  0.00000000000E+00 0. -1.
         -3   -1    0    0    0  501 -0.00000000000E+00 -0.00000000000E+00 -0.27563371559E+02  0.27563371559E+02  0.00000000000E+00 0.  1.
         25    2    1    2    0    0  0.43575974416E+02 -0.53213520265E+02  0.21667541300E+03  0.25947209529E+03  0.12508792647E+03 0.  0.
          5    1    3    3  502    0  0.33088679040E+02  0.22984062165E+02  0.15669211285E+03  0.16184257296E+03  0.41800000000E+01 0.  1.
         -5    1    3    3    0  502  0.10487295376E+02 -0.76197582429E+02  0.59983300150E+02  0.97629522324E+02  0.41800000000E+01 0.  1.
        -11    1    1    2    0    0 -0.56229131142E+02  0.32863254643E+01  0.23175082921E+03  0.23849729970E+03  0.00000000000E+00 0.  1.
         11    1    1    2    0    0  0.12653156727E+02  0.49927194800E+02  0.23476388082E+03  0.24034747116E+03  0.00000000000E+00 0. -1.
</event>
<event>
 7    1  0.2749315E-009  0.1768920E+03  0.7561462E-02  0.1170845E+00
         -3   -1    0    0    0  501 -0.00000000000E+00  0.00000000000E+00  0.73558578816E+03  0.73558578816E+03  0.00000000000E+00 0.  1.
          3   -1    0    0  501    0  0.00000000000E+00 -0.00000000000E+00 -0.73510212392E+02  0.73510212392E+02  0.00000000000E+00 0. -1.
         25    2    1    2    0    0 -0.39935630734E+02 -0.15064399946E+03  0.10964748686E+03  0.22794299801E+03  0.12508784829E+03 0.  0.
          5    1    3    3  502    0 -0.14992437087E+02 -0.15001430652E+03  0.12707942418E+03  0.19721997307E+03  0.41800000000E+01 0. -1.
         -5    1    3    3    0  502 -0.24943193647E+02 -0.62969294314E+00 -0.17431937316E+02  0.30723024934E+02  0.41800000000E+01 0. -1.
        -11    1    1    2    0    0  0.62233616138E+02  0.13946907589E+03  0.50469327057E+03  0.52729493025E+03  0.00000000000E+00 0. -1.
         11    1    1    2    0    0 -0.22297985404E+02  0.11174923574E+02  0.47734818336E+02  0.53858072297E+02  0.00000000000E+00 0.  1.
</event>
<event>
 7    1  0.2749315E-009  0.5846528E+02  0.7561462E-02  0.1404387E+00
         -1   -1    0    0    0  501 -0.00000000000E+00  0.00000000000E+00  0.70158965054E+02  0.70158965054E+02  0.00000000000E+00 0.  1.
          1   -1    0    0  501    0  0.00000000000E+00 -0.00000000000E+00 -0.19929375331E+03  0.19929375331E+03  0.00000000000E+00 0. -1.
         25    2    1    2    0    0  0.33710605957E+01 -0.12768049747E+02 -0.12497061905E+03  0.17731157582E+03  0.12508937664E+03 0.  0.
          5    1    3    3  502    0 -0.12684604570E+02  0.28998684659E+02 -0.12833303199E+03  0.13224470653E+03  0.41800000000E+01 0. -1.
         -5    1    3    3    0  502  0.16055665166E+02 -0.41766734406E+02  0.33624129382E+01  0.45066869291E+02  0.41800000000E+01 0. -1.
        -11    1    1    2    0    0  0.34424756051E+01 -0.12979917802E+02  0.39096766701E+02  0.41338675244E+02  0.00000000000E+00 0.  1.
         11    1    1    2    0    0 -0.68135362008E+01  0.25747967549E+02 -0.43260935904E+02  0.50802467300E+02  0.00000000000E+00 0. -1.
</event>
<event>
 7    1  0.2749315E-009  0.1331798E+03  0.7561462E-02  0.1222812E+00
         -2   -1    0    0    0  501 -0.00000000000E+00  0.00000000000E+00  0.34025173568E+02  0.34025173568E+02  0.00000000000E+00 0.  1.
          2   -1    0    0  501    0  0.00000000000E+00 -0.00000000000E+00 -0.84519759236E+03  0.84519759236E+03  0.00000000000E+00 0. -1.
         25    2    1    2    0    0 -0.10668088128E+03  0.40278773326E+02 -0.59447356464E+03  0.61810203423E+03  0.12509242845E+03 0.  0.
          5    1    3    3  502    0 -0.52378777646E+02  0.54078802173E+02 -0.51661434527E+03  0.52208802642E+03  0.41800000000E+01 0.  1.
         -5    1    3    3    0  502 -0.54302103638E+02 -0.13800028847E+02 -0.77859219369E+02  0.96014007813E+02  0.41800000000E+01 0.  1.
        -11    1    1    2    0    0 -0.10956135065E+02 -0.41072713648E+01  0.23956941659E+00  0.11703160561E+02  0.00000000000E+00 0.  1.
         11    1    1    2    0    0  0.11763701635E+03 -0.36171501961E+02 -0.21693842357E+03  0.24941757114E+03  0.00000000000E+00 0. -1.
</event>
<event>
 7    1  0.2749315E-009  0.1666311E+03  0.7561462E-02  0.1181407E+00
         -1   -1    0    0    0  501 -0.00000000000E+00  0.00000000000E+00  0.60801981614E+03  0.60801981614E+03  0.00000000000E+00 0.  1.
          1   -1    0    0  501    0  0.00000000000E+00 -0.00000000000E+00 -0.68907325250E+02  0.68907325250E+02  0.00000000000E+00 0. -1.
         25    2    1    2    0    0 -0.13861763916E+03  0.48885036525E+02  0.12798338801E+03  0.23158468400E+03  0.12508845500E+03 0.  0.
          5    1    3    3  502    0 -0.13531026262E+03  0.78294325806E+02  0.12736751557E+03  0.20168992302E+03  0.41800000000E+01 0.  1.
         -5    1    3    3    0  502 -0.33073765387E+01 -0.29409289281E+02  0.61587244711E+00  0.29894760987E+02  0.41800000000E+01 0.  1.
        -11    1    1    2    0    0  0.22011966977E+02 -0.73710744575E+01  0.95153121700E+01  0.25087857512E+02  0.00000000000E+00 0. -1.
         11    1    1    2    0    0  0.11660567218E+03 -0.41513962067E+02  0.40161379071E+03  0.42025459988E+03  0.00000000000E+00 0.  1.
</event>
<event>
 7    1  0.2749315E-009  0.3361744E+03  0.7561462E-02  0.1068437E+00
         -1   -1    0    0    0  501 -0.00000000000E+00  0.00000000000E+00  0.27157278096E+03  0.27157278096E+03  0.00000000000E+00 0.  1.
          1   -1    0    0  501    0  0.00000000000E+00 -0.00000000000E+00 -0.47218216143E+03  0.47218216143E+03  0.00000000000E+00 0. -1.
         25    2    1    2    0    0  0.28711729552E+03  0.16299170747E+03 -0.28991361781E+01  0.35306879601E+03  0.12508609689E+03 0.  0.
          5    1    3    3  502    0  0.24840390501E+03  0.11530722047E+03  0.41698112166E+02  0.27704956249E+03  0.41800000000E+01 0. -1.
         -5    1    3    3    0  502  0.38713390508E+02  0.47684487008E+02 -0.44597248344E+02  0.76019233525E+02  0.41800000000E+01 0. -1.
        -11    1    1    2    0    0 -0.15305852681E+03 -0.48391539553E+02 -0.90114141713E+02  0.18409022860E+03  0.00000000000E+00 0.  1.
         11    1    1    2    0    0 -0.13405876871E+03 -0.11460016792E+03 -0.10759610257E+03  0.20659591778E+03  0.00000000000E+00 0. -1.
</event>
<event>
 7    1  0.2749315E-009  0.1093662E+03  0.7561462E-02  0.1261748E+00
         -1   -1    0    0    0  501 -0.00000000000E+00  0.00000000000E+00  0.24455967759E+02  0.24455967759E+02  0.00000000000E+00 0.  1.
          1   -1    0    0  501    0  0.00000000000E+00 -0.00000000000E+00 -0.77613101018E+03  0.77613101018E+03  0.00000000000E+00 0. -1.
         25    2    1    2    0    0 -0.33900573371E+02 -0.68300757744E+02 -0.54783475199E+03  0.56708438921E+03  0.12509015398E+03 0.  0.
          5    1    3    3  502    0 -0.70263463232E+02 -0.11618813299E+02 -0.37136910747E+03  0.37815927527E+03  0.41800000000E+01 0. -1.
         -5    1    3    3    0  502  0.36362889861E+02 -0.56681944444E+02 -0.17646564451E+03  0.18892511394E+03  0.41800000000E+01 0. -1.
        -11    1    1    2    0    0  0.23934186714E+02  0.21838105168E+02 -0.99783027170E+01  0.33901543565E+02  0.00000000000E+00 0.  1.
         11    1    1    2    0    0  0.99663866573E+01  0.46462652575E+02 -0.19386198772E+03  0.19960104516E+03  0.00000000000E+00 0. -1.
</event>
<event>
 7    1  0.2749315E-009  0.1064919E+03  0.7561462E-02  0.1267208E+00
          1   -1    0    0  501    0  0.00000000000E+00  0.00000000000E+00  0.22441379425E+03  0.22441379425E+03  0.00000000000E+00 0. -1.
         -1   -1    0    0    0  501 -0.00000000000E+00 -0.00000000000E+00 -0.10660620618E+03  0.10660620618E+03  0.00000000000E+00 0.  1.
         25    2    1    2    0    0 -0.52586561066E+02 -0.62731932288E+02  0.14294706076E+03  0.20683557426E+03  0.12508577404E+03 0.  0.
          5    1    3    3  502    0 -0.31011102120E+02 -0.56551444212E+01  0.14215588394E+03  0.14566892892E+03  0.41800000000E+01 0. -1.
         -5    1    3    3    0  502 -0.21575458946E+02 -0.57076787867E+02  0.79117681997E+00  0.61166645345E+02  0.41800000000E+01 0. -1.
        -11    1    1    2    0    0  0.52645138305E+02 -0.44582464960E+01 -0.21041324995E+02  0.56869358239E+02  0.00000000000E+00 0. -1.
         11    1    1    2    0    0 -0.58577239473E-01  0.67190178784E+02 -0.40981476948E+01  0.67315067934E+02  0.00000000000E+00 0.  1.
</event>
<event>
 7    1  0.2749315E-009  0.1017015E+03  0.7561462E-02  0.1276758E+00
         -1   -1    0    0    0  501 -0.00000000000E+00  0.00000000000E+00  0.31060896040E+02  0.31060896040E+02  0.00000000000E+00 0.  1.
          1   -1    0    0  501    0  0.00000000000E+00 -0.00000000000E+00 -0.60393152898E+03  0.60393152898E+03  0.00000000000E+00 0. -1.
         25    2    1    2    0    0  0.28430300845E+02  0.61118007755E+02 -0.42194307995E+03  0.44522736674E+03  0.12509097690E+03 0.  0.
          5    1    3    3  502    0  0.16280901262E+02 -0.26061494707E+02 -0.28776385444E+02  0.42306288084E+02  0.41800000000E+01 0.  1.
         -5    1    3    3    0  502  0.12149399583E+02  0.87179502462E+02 -0.39316669450E+03  0.40292107866E+03  0.41800000000E+01 0.  1.
        -11    1    1    2    0    0  0.34712050826E+00 -0.54807438017E+02 -0.24650464829E+02  0.60096765062E+02  0.00000000000E+00 0.  1.
         11    1    1    2    0    0 -0.28777421353E+02 -0.63105697379E+01 -0.12627708816E+03  0.12966829321E+03  0.00000000000E+00 0. -1.
</event>
<event>
 7    1  0.2749315E-009  0.9168865E+02  0.7561462E-02  0.1298813E+00
          1   -1    0    0  501    0  0.00000000000E+00  0.00000000000E+00  0.12171687264E+03  0.12171687264E+03  0.00000000000E+00 0. -1.
         -1   -1    0    0    0  501 -0.00000000000E+00 -0.00000000000E+00 -0.10593963742E+03  0.10593963742E+03  0.00000000000E+00 0.  1.
         25    2    1    2    0    0  0.36857338740E+02  0.13418986563E+02  0.89741972501E+01  0.13140348950E+03  0.12509119960E+03 0.  0.
          5    1    3    3  502    0  0.17321043934E+01  0.49847498896E+02 -0.37521471072E+02  0.62554828136E+02  0.41800000000E+01 0.  1.
         -5    1    3    3    0  502  0.35125234347E+02 -0.36428512333E+02  0.46495668322E+02  0.68848661363E+02  0.41800000000E+01 0.  1.
        -11    1    1    2    0    0  0.22229321427E+02 -0.15677395544E+01 -0.20328452799E+02  0.30163662437E+02  0.00000000000E+00 0.  1.
         11    1    1    2    0    0 -0.59086660167E+02 -0.11851247008E+02  0.27131490775E+02  0.66089358122E+02  0.00000000000E+00 0. -1.
</event>
<event>
 7    1  0.2749315E-009  0.1692837E+03  0.7561462E-02  0.1178597E+00
          1   -1    0    0  501    0  0.00000000000E+00  0.00000000000E+00  0.12498478870E+04  0.12498478870E+04  0.00000000000E+00 0. -1.
         -1   -1    0    0    0  501 -0.00000000000E+00 -0.00000000000E+00 -0.54751868235E+02  0.54751868235E+02  0.00000000000E+00 0.  1.
         25    2    1    2    0    0 -0.11143523308E+03  0.11061840636E+03  0.10584743182E+04  0.10773438527E+04  0.12509057348E+03 0.  0.
          5    1    3    3  502    0 -0.88187442735E+02  0.89692145188E+02  0.10192993024E+04  0.10270395544E+04  0.41800000000E+01 0.  1.
         -5    1    3    3    0  502 -0.23247790347E+02  0.20926261170E+02  0.39175015758E+02  0.50304298248E+02  0.41800000000E+01 0.  1.
        -11    1    1    2    0    0  0.69980893532E+00  0.14245969513E+02  0.15355086844E+02  0.20957482480E+02  0.00000000000E+00 0. -1.
         11    1    1    2    0    0  0.11073542415E+03 -0.12486437587E+03  0.12126661367E+03  0.20629842005E+03  0.00000000000E+00 0.  1.
</event>
<event>
 7    1  0.2749315E-009  0.1106118E+03  0.7561462E-02  0.1259441E+00
          1   -1    0    0  501    0  0.00000000000E+00  0.00000000000E+00  0.12002791055E+04  0.12002791055E+04  0.00000000000E+00 0. -1.
         -1   -1    0    0    0  501 -0.00000000000E+00 -0.00000000000E+00 -0.13476499962E+02  0.13476499962E+02  0.00000000000E+00 0.  1.
         25    2    1    2    0    0  0.45755604312E+02 -0.27166683435E+02  0.85644168636E+03  0.86716263243E+03  0.12508822859E+03 0.  0.
          5    1    3    3  502    0  0.84940871924E+02 -0.17006634845E+02  0.70624600040E+03  0.71155116671E+03  0.41800000000E+01 0. -1.
         -5    1    3    3    0  502 -0.39185267612E+02 -0.10160048590E+02  0.15019568596E+03  0.15561146573E+03  0.41800000000E+01 0. -1.
        -11    1    1    2    0    0 -0.10985000905E+02  0.50659424927E+02  0.25612267962E+03  0.26131566083E+03  0.00000000000E+00 0. -1.
         11    1    1    2    0    0 -0.34770603407E+02 -0.23492741492E+02  0.74238239561E+02  0.85277312207E+02  0.00000000000E+00 0.  1.
</event>
<event>
 7    1  0.2749315E-009  0.8987745E+02  0.7561462E-02  0.1303149E+00
          2   -1    0    0  501    0  0.00000000000E+00  0.00000000000E+00  0.17258977866E+03  0.17258977866E+03  0.00000000000E+00 0. -1.
         -2   -1    0    0    0  501 -0.00000000000E+00 -0.00000000000E+00 -0.75356981472E+02  0.75356981472E+02  0.00000000000E+00 0.  1.
         25    2    1    2    0    0  0.88139575603E+01  0.17010396652E+02  0.86278101813E+02  0.15316272785E+03  0.12509145018E+03 0.  0.
          5    1    3    3  502    0  0.48168104887E+02 -0.26840360208E+02  0.92092837961E+01  0.56061168134E+02  0.41800000000E+01 0.  1.
         -5    1    3    3    0  502 -0.39354147327E+02  0.43850756860E+02  0.77068818017E+02  0.97101559717E+02  0.41800000000E+01 0.  1.
        -11    1    1    2    0    0 -0.30489673097E+02  0.87497445951E+01 -0.28692080467E+02  0.42771645720E+02  0.00000000000E+00 0.  1.
         11    1    1    2    0    0  0.21675715537E+02 -0.25760141247E+02  0.39646775839E+02  0.52012386558E+02  0.00000000000E+00 0. -1.
</event>
<event>
 7    1  0.2749315E-009  0.1197019E+03  0.7561462E-02  0.1243590E+00
         -1   -1    0    0    0  501 -0.00000000000E+00  0.00000000000E+00  0.22654609792E+02  0.22654609792E+02  0.00000000000E+00 0.  1.
          1   -1    0    0  501    0  0.00000000000E+00 -0.00000000000E+00 -0.91256933906E+03  0.91256933906E+03  0.00000000000E+00 0. -1.
         25    2    1    2    0    0  0.92384608161E+02  0.15867192802E+02 -0.47402891261E+03  0.49913855068E+03  0.12509675913E+03 0.  0.
          5    1    3    3  502    0  0.20667920019E+02  0.34581738652E+02 -0.36497328248E+03  0.36721387350E+03  0.41800000000E+01 0. -1.
         -5    1    3    3    0  502  0.71716688142E+02 -0.18714545850E+02 -0.10905563013E+03  0.13192467717E+03  0.41800000000E+01 0. -1.
        -11    1    1    2    0    0  0.22505143766E+00 -0.30849754596E+02 -0.53542647323E+02  0.61794604046E+02  0.00000000000E+00 0.  1.
         11    1    1    2    0    0 -0.92609659598E+02  0.14982561794E+02 -0.36234316933E+03  0.37429079413E+03  0.00000000000E+00 0. -1.
</event>
<event>
 7    1  0.2749315E-009  0.1370624E+03  0.7561462E-02  0.1217337E+00
         -2   -1    0    0    0  501 -0.00000000000E+00  0.00000000000E+00  0.17894596055E+02  0.17894596055E+02  0.00000000000E+00 0.  1.
          2   -1    0    0  501    0  0.00000000000E+00 -0.00000000000E+00 -0.12929911253E+04  0.12929911253E+04  0.00000000000E+00 0. -1.
         25    2    1    2    0    0  0.96086457044E+02  0.22970115167E+02 -0.88254736040E+03  0.89682642138E+03  0.12509018077E+03 0.  0.
          5    1    3    3  502    0  0.15852910508E+02  0.61057017578E+02 -0.24130049826E+03  0.24944473742E+03  0.41800000000E+01 0.  1.
         -5    1    3    3    0  502  0.80233546536E+02 -0.38086902412E+02 -0.64124686214E+03  0.64738168396E+03  0.41800000000E+01 0.  1.
        -11    1    1    2    0    0 -0.41410611775E+02 -0.46676385536E+02 -0.12207677069E+03  0.13709945906E+03  0.00000000000E+00 0.  1.
         11    1    1    2    0    0 -0.54675845270E+02  0.23706270369E+02 -0.27047239820E+03  0.27695984095E+03  0.00000000000E+00 0. -1.
</event>
<event>
 7    1  0.2749315E-009  0.2010858E+03  0.7561462E-02  0.1148826E+00
          2   -1    0    0  501    0  0.00000000000E+00  0.00000000000E+00  0.17342228583E+04  0.17342228583E+04  0.00000000000E+00 0. -1.
         -2   -1    0    0    0  501 -0.00000000000E+00 -0.00000000000E+00 -0.33328500737E+02  0.33328500737E+02  0.00000000000E+00 0.  1.
         25    2    1    2    0    0 -0.16710838198E+03 -0.85841010889E+02  0.12518262028E+04  0.12720101430E+04  0.12508825444E+03 0.  0.
          5    1    3    3  502    0 -0.47671772459E+02 -0.76066228920E+02  0.78105721706E+03  0.78621022493E+03  0.41800000000E+01 0. -1.
         -5    1    3    3    0  502 -0.11943660952E+03 -0.97747819692E+01  0.47076898576E+03  0.48579991808E+03  0.41800000000E+01 0. -1.
        -11    1    1    2    0    0  0.55438722366E+02  0.74034634559E+01  0.54711671394E+02  0.78240847359E+02  0.00000000000E+00 0.  1.
         11    1    1    2    0    0  0.11166965962E+03  0.78437547433E+02  0.39435648341E+03  0.41730036871E+03  0.00000000000E+00 0. -1.
</event>
<event>
 7    1  0.2749315E-009  0.1003227E+03  0.7561462E-02  0.1279619E+00
          2   -1    0    0  501    0  0.00000000000E+00  0.00000000000E+00  0.39871593942E+03  0.39871593942E+03  0.00000000000E+00 0. -1.
         -2   -1    0    0    0  501 -0.00000000000E+00 -0.00000000000E+00 -0.35086543516E+02  0.35086543516E+02  0.00000000000E+00 0.  1.
         25    2    1    2    0    0  0.15338410729E+02 -0.40568386171E+02  0.17341025924E+03  0.21817158373E+03  0.12508661453E+03 0.  0.
          5    1    3    3  502    0  0.45864510145E+02  0.13089797980E+02  0.18442567689E+02  0.51307862994E+02  0.41800000000E+01 0.  1.
         -5    1    3    3    0  502 -0.30526099416E+02 -0.53658184151E+02  0.15496769155E+03  0.16686372073E+03  0.41800000000E+01 0.  1.
        -11    1    1    2    0    0 -0.36727456942E+01  0.64322725764E+02  0.17153605087E+03  0.18323623784E+03  0.00000000000E+00 0. -1.
         11    1    1    2    0    0 -0.11665665035E+02 -0.23754339593E+02  0.18683085791E+02  0.32394661364E+02  0.00000000000E+00 0.  1.
</event>
<event>
 7    1  0.2749315E-009  0.1379928E+03  0.7561462E-02  0.1216056E+00
         -2   -1    0    0    0  501 -0.00000000000E+00  0.00000000000E+00  0.30636620459E+03  0.30636620459E+03  0.00000000000E+00 0.  1.
          2   -1    0    0  501    0  0.00000000000E+00 -0.00000000000E+00 -0.88237470875E+02  0.88237470875E+02  0.00000000000E+00 0. -1.
         25    2    1    2    0    0 -0.41882695074E+02 -0.11214063753E+03  0.15583486478E+03  0.23294572495E+03  0.12509805337E+03 0.  0.
          5    1    3    3  502    0 -0.28629195927E+02  0.61935478542E+01  0.94327006007E+02  0.98858724232E+02  0.41800000000E+01 0.  1.
         -5    1    3    3    0  502 -0.13253499147E+02 -0.11833418538E+03  0.61507858774E+02  0.13408700072E+03  0.41800000000E+01 0.  1.
        -11    1    1    2    0    0  0.81987638447E+01  0.80882496572E+02 -0.35380824349E+01  0.81373927075E+02  0.00000000000E+00 0. -1.
         11    1    1    2    0    0  0.33683931229E+02  0.31258140957E+02  0.65831951372E+02  0.80284023445E+02  0.00000000000E+00 0.  1.
</event>
<event>
 7    1  0.2749315E-009  0.1799516E+03  0.7561462E-02  0.1167850E+00
          2   -1    0    0  501    0  0.00000000000E+00  0.00000000000E+00  0.22800692823E+03  0.22800692823E+03  0.00000000000E+00 0. -1.
         -2   -1    0    0    0  501 -0.00000000000E+00 -0.00000000000E+00 -0.17131431895E+03  0.17131431895E+03  0.00000000000E+00 0.  1.
         25    2    1    2    0    0 -0.97794995718E+02  0.13162028995E+03  0.51267524692E+02  0.21251906616E+03  0.12509289540E+03 0.  0.
          5    1    3    3  502    0 -0.97479389381E+02  0.93629015199E+02 -0.14962398843E+02  0.13605134920E+03  0.41800000000E+01 0. -1.
         -5    1    3    3    0  502 -0.31560633688E+00  0.37991274754E+02  0.66229923536E+02  0.76467716955E+02  0.41800000000E+01 0. -1.
        -11    1    1    2    0    0  0.20432024136E+02 -0.10133718115E+03 -0.19664810777E+01  0.10339515918E+03  0.00000000000E+00 0.  1.
         11    1    1    2    0    0  0.77362971582E+02 -0.30283108805E+02  0.73915656646E+01  0.83407021850E+02  0.00000000000E+00 0. -1.
</event>
<event>
 7    1  0.2749315E-009  0.1152538E+03  0.7561462E-02  0.1251139E+00
         -1   -1    0    0    0  501 -0.00000000000E+00  0.00000000000E+00  0.20973907247E+02  0.20973907247E+02  0.00000000000E+00 0.  1.
          1   -1    0    0  501    0  0.00000000000E+00 -0.00000000000E+00 -0.69010959845E+03  0.69010959845E+03  0.00000000000E+00 0. -1.
         25    2    1    2    0    0  0.41371786846E+02 -0.71992329386E+01 -0.47392819802E+03  0.49195576251E+03  0.12509628967E+03 0.  0.
          5    1    3    3  502    0  0.38497593150E+02 -0.63673082207E+02 -0.24316423522E+03  0.25432782736E+03  0.41800000000E+01 0. -1.
         -5    1    3    3    0  502  0.28741936957E+01  0.56473849269E+02 -0.23076396279E+03  0.23762793515E+03  0.41800000000E+01 0. -1.
        -11    1    1    2    0    0 -0.86485790954E+01  0.46981630165E+02 -0.10202480341E+03  0.11265492446E+03  0.00000000000E+00 0.  1.
         11    1    1    2    0    0 -0.32723207751E+02 -0.39782397227E+02 -0.93182689771E+02  0.10647281873E+03  0.00000000000E+00 0. -1.
</event>
<event>
 7    1  0.2749315E-009  0.2481346E+03  0.7561462E-02  0.1114489E+00
         -1   -1    0    0    0  501 -0.00000000000E+00  0.00000000000E+00  0.24035607304E+03  0.24035607304E+03  0.00000000000E+00 0.  1.
          1   -1    0    0  501    0  0.00000000000E+00 -0.00000000000E+00 -0.25987481799E+03  0.25987481799E+03  0.00000000000E+00 0. -1.
         25    2    1    2    0    0  0.89591563104E+02 -0.20487355214E+03  0.14255776993E+02  0.25661418703E+03  0.12509113982E+03 0.  0.
          5    1    3    3  502    0  0.11757709385E+03 -0.18970141559E+03  0.53173339059E+01  0.22328624345E+03  0.41800000000E+01 0.  1.
         -5    1    3    3    0  502 -0.27985530745E+02 -0.15172136556E+02  0.89384430870E+01  0.33327943585E+02  0.41800000000E+01 0.  1.
        -11    1    1    2    0    0  0.31155882905E+01  0.10357590831E+03 -0.20788972355E+02  0.10568754441E+03  0.00000000000E+00 0.  1.
         11    1    1    2    0    0 -0.92707151394E+02  0.10129764383E+03 -0.12985549584E+02  0.13792915958E+03  0.00000000000E+00 0. -1.
</event>
<event>
 7    1  0.2749315E-009  0.2245614E+03  0.7561462E-02  0.1130527E+00
          1   -1    0    0  501    0  0.00000000000E+00  0.00000000000E+00  0.45043395964E+03  0.45043395964E+03  0.00000000000E+00 0. -1.
         -1   -1    0    0    0  501 -0.00000000000E+00 -0.00000000000E+00 -0.15676388766E+03  0.15676388766E+03  0.00000000000E+00 0.  1.
         25    2    1    2    0    0  0.16770742630E+03 -0.14912931308E+03  0.25129429841E+03  0.35939079236E+03  0.12509030483E+03 0.  0.
          5    1    3    3  502    0  0.11004906333E+03 -0.10035332752E+03  0.24060512301E+03  0.28300156237E+03  0.41800000000E+01 0. -1.
         -5    1    3    3    0  502  0.57658362968E+02 -0.48775985559E+02  0.10689175400E+02  0.76389229988E+02  0.41800000000E+01 0. -1.
        -11    1    1    2    0    0 -0.45612242800E+02  0.37272208655E+02 -0.31145543743E+02  0.66631367435E+02  0.00000000000E+00 0.  1.
         11    1    1    2    0    0 -0.12209518350E+03  0.11185710442E+03  0.73521317314E+02  0.18117568751E+03  0.00000000000E+00 0. -1.
</event>
<event>
 7    1  0.2749315E-009  0.1559633E+03  0.7561462E-02  0.1193331E+00
          1   -1    0    0  501    0  0.00000000000E+00  0.00000000000E+00  0.19486476188E+03  0.19486476188E+03  0.00000000000E+00 0. -1.
         -1   -1    0    0    0  501 -0.00000000000E+00 -0.00000000000E+00 -0.16931496033E+03  0.16931496033E+03  0.00000000000E+00 0.  1.
         25    2    1    2    0    0  0.10601013442E+03  0.91054137708E+02  0.49594879693E+02  0.19399915410E+03  0.12508802942E+03 0.  0.
          5    1    3    3  502    0  0.30265421816E+02  0.48445134086E+02  0.82962859286E+02  0.10081287217E+03  0.41800000000E+01 0. -1.
         -5    1    3    3    0  502  0.75744712601E+02  0.42609003623E+02 -0.33367979594E+02  0.93186281924E+02  0.41800000000E+01 0. -1.
        -11    1    1    2    0    0 -0.15660320061E+02 -0.74076039283E+02 -0.24801227351E+01  0.75753918902E+02  0.00000000000E+00 0.  1.
         11    1    1    2    0    0 -0.90349814356E+02 -0.16978098426E+02 -0.21564955399E+02  0.94426649214E+02  0.00000000000E+00 0. -1.
</event>
<event>
 7    1  0.2749315E-009  0.1790291E+03  0.7561462E-02  0.1168746E+00
         -1   -1    0    0    0  501 -0.00000000000E+00  0.00000000000E+00  0.35251654225E+03  0.35251654225E+03  0.00000000000E+00 0.  1.
          1   -1    0    0  501    0  0.00000000000E+00 -0.00000000000E+00 -0.11398297392E+03  0.11398297392E+03  0.00000000000E+00 0. -1.
         25    2    1    2    0    0  0.13305925712E+03 -0.49228161493E+02  0.22815903764E+03  0.29636540534E+03  0.12509088389E+03 0.  0.
          5    1    3    3  502    0  0.54695002531E+01 -0.59829319422E+02  0.60428219605E+02  0.85314154864E+02  0.41800000000E+01 0.  1.
         -5    1    3    3    0  502  0.12758975687E+03  0.10601157929E+02  0.16773081804E+03  0.21105125048E+03  0.41800000000E+01 0.  1.
        -11    1    1    2    0    0 -0.14612393447E+03  0.54065181002E+02  0.10962594478E+02  0.15619035341E+03  0.00000000000E+00 0.  1.
         11    1    1    2    0    0  0.13064677348E+02 -0.48370195093E+01 -0.58806379781E+00  0.13943757419E+02  0.00000000000E+00 0. -1.
</event>
<event>
 7    1  0.2749315E-009  0.2290608E+03  0.7561462E-02  0.1127303E+00
         -2   -1    0    0    0  501 -0.00000000000E+00  0.00000000000E+00  0.60953424483E+03  0.60953424483E+03  0.00000000000E+00 0.  1.
          2   -1    0    0  501    0  0.00000000000E+00 -0.00000000000E+00 -0.10057740950E+03  0.10057740950E+03  0.00000000000E+00 0. -1.
         25    2    1    2    0    0 -0.18302784511E+03 -0.12372355982E+03  0.29390316057E+03  0.38837093343E+03  0.12508478244E+03 0.  0.
          5    1    3    3  502    0 -0.13127263847E+03 -0.41808561705E+02  0.24167444285E+03  0.27821658859E+03  0.41800000000E+01 0.  1.
         -5    1    3    3    0  502 -0.51755206638E+02 -0.81914998119E+02  0.52228717723E+02  0.11015434483E+03  0.41800000000E+01 0.  1.
        -11    1    1    2    0    0  0.17076207526E+03  0.12399951162E+03  0.22307700455E+03  0.30708128434E+03  0.00000000000E+00 0.  1.
         11    1    1    2    0    0  0.12265769853E+02 -0.27595179896E+00 -0.80233297887E+01  0.14659436564E+02  0.00000000000E+00 0. -1.
</event>
<event>
 7    1  0.2749315E-009  0.1798255E+03  0.7561462E-02  0.1167972E+00
         -4   -1    0    0    0  501 -0.00000000000E+00  0.00000000000E+00  0.38663978700E+03  0.38663978700E+03  0.00000000000E+00 0. -1.
          4   -1    0    0  501    0  0.00000000000E+00 -0.00000000000E+00 -0.12923587374E+03  0.12923587374E+03  0.00000000000E+00 0.  1.
         25    2    1    2    0    0  0.77256221515E+01 -0.17376140297E+03  0.23565662847E+03  0.31848710765E+03  0.12508909143E+03 0.  0.
          5    1    3    3  502    0  0.29365877124E+02 -0.11064863507E+03  0.57449507906E+02  0.12815378863E+03  0.41800000000E+01 0. -1.
         -5    1    3    3    0  502 -0.21640254973E+02 -0.63112767904E+02  0.17820712056E+03  0.19033331902E+03  0.41800000000E+01 0. -1.
        -11    1    1    2    0    0 -0.23724759649E+02  0.10494120355E+03  0.53228957121E+02  0.12003683726E+03  0.00000000000E+00 0. -1.
         11    1    1    2    0    0  0.15999137498E+02  0.68820199420E+02 -0.31481672326E+02  0.77351715827E+02  0.00000000000E+00 0.  1.
</event>
<event>
 7    1  0.2749315E-009  0.1308394E+03  0.7561462E-02  0.1226216E+00
         -2   -1    0    0    0  501 -0.00000000000E+00  0.00000000000E+00  0.58966987307E+02  0.58966987307E+02  0.00000000000E+00 0.  1.
          2   -1    0    0  501    0  0.00000000000E+00 -0.00000000000E+00 -0.32502955107E+03  0.32502955107E+03  0.00000000000E+00 0. -1.
         25    2    1    2    0    0  0.72148902429E+02 -0.41136676300E+02 -0.17771565959E+03  0.23265588264E+03  0.12509282077E+03 0.  0.
          5    1    3    3  502    0  0.10098395382E+03 -0.71213642453E+01 -0.96569754450E+02  0.13997022052E+03  0.41800000000E+01 0. -1.
         -5    1    3    3    0  502 -0.28835051391E+02 -0.34015312055E+02 -0.81145905137E+02  0.92685662124E+02  0.41800000000E+01 0. -1.
        -11    1    1    2    0    0 -0.30939664384E+02 -0.23542456118E+02 -0.69295681466E+01  0.39490872198E+02  0.00000000000E+00 0. -1.
         11    1    1    2    0    0 -0.41209238045E+02  0.64679132418E+02 -0.81417336026E+02  0.11184978353E+03  0.00000000000E+00 0.  1.
</event>
<event>
 7    1  0.2749315E-009  0.9540593E+02  0.7561462E-02  0.1290264E+00
          1   -1    0    0  501    0  0.00000000000E+00  0.00000000000E+00  0.10553560684E+04  0.10553560684E+04  0.00000000000E+00 0. -1.
         -1   -1    0    0    0  501 -0.00000000000E+00 -0.00000000000E+00 -0.14843990732E+02  0.14843990732E+02  0.00000000000E+00 0.  1.
         25    2    1    2    0    0  0.55712439453E+01  0.10440739493E+02  0.86337911593E+03  0.87247348255E+03  0.12508569915E+03 0.  0.
          5    1    3    3  502    0  0.56033999473E+02  0.98154198420E+01  0.22604649124E+03  0.23313223751E+03  0.41800000000E+01 0.  1.
         -5    1    3    3    0  502 -0.50462755528E+02  0.62531965075E+00  0.63733262468E+03  0.63934124504E+03  0.41800000000E+01 0.  1.
        -11    1    1    2    0    0  0.22598314319E+02 -0.37686009904E+02  0.12505286617E+03  0.13254862689E+03  0.00000000000E+00 0.  1.
         11    1    1    2    0    0 -0.28169558264E+02  0.27245270411E+02  0.52080095604E+02  0.65177949728E+02  0.00000000000E+00 0. -1.
</event>
<event>
 7    1  0.2749315E-009  0.1808063E+03  0.7561462E-02  0.1167025E+00
         -1   -1    0    0    0  501 -0.00000000000E+00  0.00000000000E+00  0.43268273957E+02  0.43268273957E+02  0.00000000000E+00 0.  1.
          1   -1    0    0  501    0  0.00000000000E+00 -0.00000000000E+00 -0.96243029332E+03  0.96243029332E+03  0.00000000000E+00 0. -1.
         25    2    1    2    0    0  0.15320103965E+03  0.55355207139E+02 -0.61398084827E+03  0.64742196151E+03  0.12509179309E+03 0.  0.
          5    1    3    3  502    0  0.64532469732E+02 -0.33128917042E+02 -0.31425679293E+03  0.32254731295E+03  0.41800000000E+01 0. -1.
         -5    1    3    3    0  502  0.88668569917E+02  0.88484124181E+02 -0.29972405534E+03  0.32487464855E+03  0.41800000000E+01 0. -1.
        -11    1    1    2    0    0 -0.70764940385E+02 -0.17453680347E+02 -0.52572251958E+02  0.89867399102E+02  0.00000000000E+00 0.  1.
         11    1    1    2    0    0 -0.82436099264E+02 -0.37901526792E+02 -0.25260891914E+03  0.26840920667E+03  0.00000000000E+00 0. -1.
</event>
<event>
 7    1  0.2822568E-009  0.1588104E+03  0.7561462E-02  0.1190046E+00
          2   -1    0    0  501    0  0.00000000000E+00  0.00000000000E+00  0.77898540534E+03  0.77898540534E+03  0.00000000000E+00 0. -1.
         -2   -1    0    0    0  501 -0.00000000000E+00 -0.00000000000E+00 -0.36778631217E+02  0.36778631217E+02  0.00000000000E+00 0.  1.
         25    2    1    2    0    0  0.83731768844E+02 -0.97935148867E+02  0.42107505949E+03  0.45777102001E+03  0.12509116091E+03 0.  0.
          5    1    3    3  502    0  0.10492149473E+03 -0.31566431367E+02  0.24835815327E+03  0.27148518254E+03  0.41800000000E+01 0. -1.
         -5    1    3    3    0  502 -0.21189725884E+02 -0.66368717500E+02  0.17271690622E+03  0.18628583747E+03  0.41800000000E+01 0. -1.
        -11    1    1    2    0    0 -0.72163905843E+02  0.47403724946E+02  0.10605204226E+03  0.13675444458E+03  0.00000000000E+00 0.  1.
         11    1    1    2    0    0 -0.11567863001E+02  0.50531423921E+02  0.21507967238E+03  0.22123857197E+03  0.00000000000E+00 0. -1.
</event>
<event>
 7    1  0.2749315E-009  0.2426530E+03  0.7561462E-02  0.1118038E+00
         -1   -1    0    0    0  501 -0.00000000000E+00  0.00000000000E+00  0.23635863403E+03  0.23635863403E+03  0.00000000000E+00 0.  1.
          1   -1    0    0  501    0  0.00000000000E+00 -0.00000000000E+00 -0.56711210475E+03  0.56711210475E+03  0.00000000000E+00 0. -1.
         25    2    1    2    0    0  0.18441350083E+03  0.13876769042E+03  0.12045101002E+03  0.28882668831E+03  0.12509036283E+03 0.  0.
          5    1    3    3  502    0  0.19273187852E+03  0.10507158828E+03  0.12644170473E+03  0.25335862479E+03  0.41800000000E+01 0.  1.
         -5    1    3    3    0  502 -0.83183776879E+01  0.33696102143E+02 -0.59906947072E+01  0.35468063523E+02  0.41800000000E+01 0.  1.
        -11    1    1    2    0    0 -0.54753010310E+02 -0.40445548559E+02 -0.23111758120E+03  0.24093374790E+03  0.00000000000E+00 0. -1.
         11    1    1    2    0    0 -0.12966049052E+03 -0.98322141863E+02 -0.22008689955E+03  0.27371030257E+03  0.00000000000E+00 0.  1.
</event>
<event>
 7    1  0.2749315E-009  0.1529051E+03  0.7561462E-02  0.1196948E+00
          2   -1    0    0  501    0  0.00000000000E+00  0.00000000000E+00  0.68578647519E+03  0.68578647519E+03  0.00000000000E+00 0.  1.
         -2   -1    0    0    0  501 -0.00000000000E+00 -0.00000000000E+00 -0.35207281685E+02  0.35207281685E+02  0.00000000000E+00 0. -1.
         25    2    1    2    0    0  0.11161206602E+03 -0.29564980630E+00  0.35047686548E+03  0.38850941891E+03  0.12509274421E+03 0.  0.
          5    1    3    3  502    0  0.96408701654E+02  0.54334409185E+02  0.22740218073E+03  0.25293495207E+03  0.41800000000E+01 0. -1.
         -5    1    3    3    0  502  0.15203364366E+02 -0.54630058991E+02  0.12307468475E+03  0.13557446684E+03  0.41800000000E+01 0. -1.
        -11    1    1    2    0    0 -0.53249496194E+01  0.27890907699E+02  0.32093471967E+02  0.42851473296E+02  0.00000000000E+00 0. -1.
         11    1    1    2    0    0 -0.10628711640E+03 -0.27595257893E+02  0.26800885606E+03  0.28963286467E+03  0.00000000000E+00 0.  1.
</event>
<event>
 7    1  0.2749315E-009  0.3224028E+03  0.7561462E-02  0.1074549E+00
          1   -1    0    0  501    0  0.00000000000E+00  0.00000000000E+00  0.68542292630E+03  0.68542292630E+03  0.00000000000E+00 0. -1.
         -1   -1    0    0    0  501 -0.00000000000E+00 -0.00000000000E+00 -0.21476450162E+03  0.21476450162E+03  0.00000000000E+00 0.  1.
         25    2    1    2    0    0 -0.28068328873E+03  0.14428783951E+03  0.16750523455E+02  0.33989688674E+03  0.12508886595E+03 0.  0.
          5    1    3    3  502    0 -0.14144885649E+03  0.32854107458E+02  0.58634366833E+02  0.15666088457E+03  0.41800000000E+01 0.  1.
         -5    1    3    3    0  502 -0.13923443223E+03  0.11143373205E+03 -0.41883843378E+02  0.18323600218E+03  0.41800000000E+01 0.  1.
        -11    1    1    2    0    0  0.18506108503E+03 -0.62538095532E+02  0.33142723469E+03  0.38471110002E+03  0.00000000000E+00 0. -1.
         11    1    1    2    0    0  0.95622203696E+02 -0.81749743973E+02  0.12248066654E+03  0.17557944115E+03  0.00000000000E+00 0.  1.
</event>
<event>
 7    1  0.2749315E-009  0.9735334E+02  0.7561462E-02  0.1285962E+00
         -2   -1    0    0    0  501 -0.00000000000E+00  0.00000000000E+00  0.11625789203E+03  0.11625789203E+03  0.00000000000E+00 0.  1.
          2   -1    0    0  501    0  0.00000000000E+00 -0.00000000000E+00 -0.10982815315E+03  0.10982815315E+03  0.00000000000E+00 0. -1.
         25    2    1    2    0    0 -0.13485700727E+02  0.22024639896E+02 -0.43459584784E+00  0.12772726537E+03  0.12508843495E+03 0.  0.
          5    1    3    3  502    0  0.36989709426E+02  0.36524870471E+02 -0.36698643207E+02  0.63769644656E+02  0.41800000000E+01 0. -1.
         -5    1    3    3    0  502 -0.50475410153E+02 -0.14500230575E+02  0.36264047359E+02  0.63957620716E+02  0.41800000000E+01 0. -1.
        -11    1    1    2    0    0  0.34544620386E+02 -0.46279770289E+02 -0.14796672666E+02  0.59616184527E+02  0.00000000000E+00 0. -1.
         11    1    1    2    0    0 -0.21058919660E+02  0.24255130393E+02  0.21661007398E+02  0.38742595281E+02  0.00000000000E+00 0.  1.
</event>
<event>
 7    1  0.2749315E-009  0.1417552E+03  0.7561462E-02  0.1210987E+00
          2   -1    0    0  501    0  0.00000000000E+00  0.00000000000E+00  0.23880383341E+03  0.23880383341E+03  0.00000000000E+00 0. -1.
         -2   -1    0    0    0  501 -0.00000000000E+00 -0.00000000000E+00 -0.94961016332E+02  0.94961016332E+02  0.00000000000E+00 0.  1.
         25    2    1    2    0    0  0.31544435718E+02 -0.97703841387E+02  0.53232225284E+02  0.17035639956E+03  0.12508613439E+03 0.  0.
          5    1    3    3  502    0  0.14862527456E+02  0.25496131038E+02  0.32756829668E+02  0.44288031230E+02  0.41800000000E+01 0. -1.
         -5    1    3    3    0  502  0.16681908262E+02 -0.12319997243E+03  0.20475395616E+02  0.12606836833E+03  0.41800000000E+01 0. -1.
        -11    1    1    2    0    0  0.24854865689E+02  0.14448460394E+02  0.10826120481E+01  0.28769678570E+02  0.00000000000E+00 0. -1.
         11    1    1    2    0    0 -0.56399301406E+02  0.83255380992E+02  0.89527979748E+02  0.13463877161E+03  0.00000000000E+00 0.  1.
</event>
<event>
 7    1  0.2749315E-009  0.9753597E+02  0.7561462E-02  0.1285564E+00
          1   -1    0    0  501    0  0.00000000000E+00  0.00000000000E+00  0.78583559740E+03  0.78583559740E+03  0.00000000000E+00 0. -1.
         -1   -1    0    0    0  501 -0.00000000000E+00 -0.00000000000E+00 -0.25074137172E+02  0.25074137172E+02  0.00000000000E+00 0.  1.
         25    2    1    2    0    0  0.25223672493E+02 -0.80917261228E+02  0.50639398473E+03  0.52845617118E+03  0.12508884949E+03 0.  0.
          5    1    3    3  502    0  0.45406273902E+02 -0.50067320977E+02  0.47514958339E+03  0.47995110723E+03  0.41800000000E+01 0.  1.
         -5    1    3    3    0  502 -0.20182601409E+02 -0.30849940252E+02  0.31244401343E+02  0.48505063947E+02  0.41800000000E+01 0.  1.
        -11    1    1    2    0    0 -0.29202722914E+02  0.42138649511E+02  0.41257637047E+02  0.65807730723E+02  0.00000000000E+00 0.  1.
         11    1    1    2    0    0  0.39790504217E+01  0.38778611717E+02  0.21310983845E+03  0.21664583267E+03  0.00000000000E+00 0. -1.
</event>
<event>
 7    1  0.2749315E-009  0.1045578E+03  0.7561462E-02  0.1270993E+00
         -3   -1    0    0    0  501 -0.00000000000E+00  0.00000000000E+00  0.50263515894E+03  0.50263515894E+03  0.00000000000E+00 0.  1.
          3   -1    0    0  501    0  0.00000000000E+00 -0.00000000000E+00 -0.29854927589E+02  0.29854927589E+02  0.00000000000E+00 0. -1.
         25    2    1    2    0    0 -0.47573295767E+02  0.25507958697E+02  0.22994184762E+03  0.26727391271E+03  0.12509283233E+03 0.  0.
          5    1    3    3  502    0 -0.64044277237E+02 -0.18166643035E+02  0.20196398067E+03  0.21269371936E+03  0.41800000000E+01 0.  1.
         -5    1    3    3    0  502  0.16470981470E+02  0.43674601732E+02  0.27977866952E+02  0.54580193351E+02  0.41800000000E+01 0.  1.
        -11    1    1    2    0    0  0.26087516338E+02  0.27770389663E+02  0.15955533501E+03  0.16404163490E+03  0.00000000000E+00 0.  1.
         11    1    1    2    0    0  0.21485779429E+02 -0.53278348360E+02  0.83283048719E+02  0.10117453892E+03  0.00000000000E+00 0. -1.
</event>
<event>
 7    1  0.2749315E-009  0.1452762E+03  0.7561462E-02  0.1206401E+00
         -1   -1    0    0    0  501 -0.00000000000E+00  0.00000000000E+00  0.16270441015E+02  0.16270441015E+02  0.00000000000E+00 0.  1.
          1   -1    0    0  501    0  0.00000000000E+00 -0.00000000000E+00 -0.13807531038E+04  0.13807531038E+04  0.00000000000E+00 0. -1.
         25    2    1    2    0    0 -0.95692845604E+02  0.31710577537E+02 -0.81859410882E+03  0.83421028582E+03  0.12509118492E+03 0.  0.
          5    1    3    3  502    0  0.14946460830E+02 -0.25401285691E+02 -0.83798206963E+02  0.88928251396E+02  0.41800000000E+01 0.  1.
         -5    1    3    3    0  502 -0.11063930643E+03  0.57111863228E+02 -0.73479590186E+03  0.74528203443E+03  0.41800000000E+01 0.  1.
        -11    1    1    2    0    0  0.54424103374E+02  0.29864034411E+02 -0.21922868059E+03  0.22784876119E+03  0.00000000000E+00 0.  1.
         11    1    1    2    0    0  0.41268742229E+02 -0.61574611948E+02 -0.32665987342E+03  0.33496449785E+03  0.00000000000E+00 0. -1.
</event>
<event>
 7    1  0.2749315E-009  0.1110203E+03  0.7561462E-02  0.1258692E+00
          1   -1    0    0  501    0  0.00000000000E+00  0.00000000000E+00  0.65136986041E+03  0.65136986041E+03  0.00000000000E+00 0. -1.
         -1   -1    0    0    0  501 -0.00000000000E+00 -0.00000000000E+00 -0.27943826926E+02  0.27943826926E+02  0.00000000000E+00 0.  1.
         25    2    1    2    0    0 -0.73283724379E+02  0.31271783256E+02  0.36448498682E+03  0.39350393135E+03  0.12509040606E+03 0.  0.
          5    1    3    3  502    0  0.93127577381E+01 -0.76702772452E+01  0.23308749122E+03  0.23343695417E+03  0.41800000000E+01 0. -1.
         -5    1    3    3    0  502 -0.82596482117E+02  0.38942060502E+02  0.13139749559E+03  0.16006697718E+03  0.41800000000E+01 0. -1.
        -11    1    1    2    0    0  0.66819956920E+02 -0.59151987260E+02  0.22058512384E+03  0.23795306491E+03  0.00000000000E+00 0.  1.
         11    1    1    2    0    0  0.64637674591E+01  0.27880204003E+02  0.38355922831E+02  0.47856691081E+02  0.00000000000E+00 0. -1.
</event>
<event>
 7    1  0.2749315E-009  0.1121937E+03  0.7561462E-02  0.1256561E+00
          2   -1    0    0  501    0  0.00000000000E+00  0.00000000000E+00  0.21080960833E+03  0.21080960833E+03  0.00000000000E+00 0.  1.
         -2   -1    0    0    0  501 -0.00000000000E+00 -0.00000000000E+00 -0.92737110832E+02  0.92737110832E+02  0.00000000000E+00 0. -1.
         25    2    1    2    0    0 -0.77134922276E+02  0.38107100457E+02  0.47360796556E+02  0.15903621203E+03  0.12509006495E+03 0.  0.
          5    1    3    3  502    0 -0.63228713790E+02 -0.21937273918E+02  0.66424389818E+02  0.94386366585E+02  0.41800000000E+01 0. -1.
         -5    1    3    3    0  502 -0.13906208486E+02  0.60044374375E+02 -0.19063593262E+02  0.64649845449E+02  0.41800000000E+01 0. -1.
        -11    1    1    2    0    0  0.73905481782E+02 -0.19178282266E+02  0.89501113262E+02  0.11764470249E+03  0.00000000000E+00 0.  1.
         11    1    1    2    0    0  0.32294404941E+01 -0.18928818190E+02 -0.18789412316E+02  0.26865804644E+02  0.00000000000E+00 0. -1.
</event>
<event>
 7    1  0.2749315E-009  0.1377339E+03  0.7561462E-02  0.1216411E+00
          1   -1    0    0  501    0  0.00000000000E+00  0.00000000000E+00  0.26397121312E+02  0.26397121312E+02  0.00000000000E+00 0.  1.
         -1   -1    0    0    0  501 -0.00000000000E+00 -0.00000000000E+00 -0.88977515183E+03  0.88977515183E+03  0.00000000000E+00 0. -1.
         25    2    1    2    0    0  0.63909188459E+02 -0.77796518225E+02 -0.46927502527E+03  0.49598701242E+03  0.12508950609E+03 0.  0.
          5    1    3    3  502    0 -0.36390729338E+02 -0.19558238027E+02 -0.85546555886E+02  0.95092036892E+02  0.41800000000E+01 0. -1.
         -5    1    3    3    0  502  0.10029991780E+03 -0.58238280199E+02 -0.38372846938E+03  0.40089497553E+03  0.41800000000E+01 0. -1.
        -11    1    1    2    0    0 -0.24127874964E+02  0.74105131934E+02 -0.35784502680E+03  0.36623324280E+03  0.00000000000E+00 0. -1.
         11    1    1    2    0    0 -0.39781313495E+02  0.36913862909E+01 -0.36257978456E+02  0.53952017922E+02  0.00000000000E+00 0.  1.
</event>
<event>
 7    1  0.2749315E-009  0.1735592E+03  0.7561462E-02  0.1174186E+00
          1   -1    0    0  501    0  0.00000000000E+00  0.00000000000E+00  0.59601630819E+03  0.59601630819E+03  0.00000000000E+00 0. -1.
         -1   -1    0    0    0  501 -0.00000000000E+00 -0.00000000000E+00 -0.66990739578E+02  0.66990739578E+02  0.00000000000E+00 0.  1.
         25    2    1    2    0    0 -0.12145010446E+03 -0.11720564688E+03  0.27314840404E+03  0.34459340065E+03  0.12508904671E+03 0.  0.
          5    1    3    3  502    0 -0.69647358414E+00 -0.35396412152E+01  0.11586223870E+03  0.11599372781E+03  0.41800000000E+01 0.  1.
         -5    1    3    3    0  502 -0.12075363088E+03 -0.11366600566E+03  0.15728616534E+03  0.22859967283E+03  0.41800000000E+01 0.  1.
        -11    1    1    2    0    0  0.88788472497E+02  0.52296119322E+02  0.20582790926E+03  0.23018124419E+03  0.00000000000E+00 0.  1.
         11    1    1    2    0    0  0.32661631963E+02  0.64909527555E+02  0.50049255309E+02  0.88232402931E+02  0.00000000000E+00 0. -1.
</event>
<event>
 7    1  0.2749315E-009  0.1275489E+03  0.7561462E-02  0.1231139E+00
         -1   -1    0    0    0  501 -0.00000000000E+00  0.00000000000E+00  0.65754372922E+02  0.65754372922E+02  0.00000000000E+00 0. -1.
          1   -1    0    0  501    0  0.00000000000E+00 -0.00000000000E+00 -0.30193810637E+03  0.30193810637E+03  0.00000000000E+00 0.  1.
         25    2    1    2    0    0 -0.70223985496E+02  0.42641284132E+02 -0.19029438240E+03  0.24209305478E+03  0.12508959967E+03 0.  0.
          5    1    3    3  502    0 -0.53936093638E+02  0.84144307190E+02 -0.10075523034E+03  0.14198047567E+03  0.41800000000E+01 0.  1.
         -5    1    3    3    0  502 -0.16287891858E+02 -0.41503023058E+02 -0.89539152059E+02  0.10011257911E+03  0.41800000000E+01 0.  1.
        -11    1    1    2    0    0  0.38565248686E+02  0.17475568923E+02  0.21400765454E+01  0.42394030748E+02  0.00000000000E+00 0. -1.
         11    1    1    2    0    0  0.31658736809E+02 -0.60116853055E+02 -0.48029427592E+02  0.83205393770E+02  0.00000000000E+00 0.  1.
</event>
<event>
 7    1  0.2749315E-009  0.1323531E+03  0.7561462E-02  0.1224005E+00
          2   -1    0    0  501    0  0.00000000000E+00  0.00000000000E+00  0.65670333815E+03  0.65670333815E+03  0.00000000000E+00 0. -1.
         -2   -1    0    0    0  501 -0.00000000000E+00 -0.00000000000E+00 -0.29808768288E+02  0.29808768288E+02  0.00000000000E+00 0.  1.
         25    2    1    2    0    0  0.83726913911E+02  0.35094928473E+01  0.26995852188E+03  0.30910760334E+03  0.12508954495E+03 0.  0.
          5    1    3    3  502    0  0.50865971814E+02  0.63807607591E+02  0.15085892379E+03  0.17156527959E+03  0.41800000000E+01 0.  1.
         -5    1    3    3    0  502  0.32860942097E+02 -0.60298114744E+02  0.11909959809E+03  0.13754232375E+03  0.41800000000E+01 0.  1.
        -11    1    1    2    0    0 -0.66282565386E+02  0.32772553177E+02  0.29014807346E+03  0.29942164793E+03  0.00000000000E+00 0. -1.
         11    1    1    2    0    0 -0.17444348525E+02 -0.36282046025E+02  0.66787974527E+02  0.77982855171E+02  0.00000000000E+00 0.  1.
</event>
<event>
 7    1  0.2749315E-009  0.1080813E+03  0.7561462E-02  0.1264165E+00
         -2   -1    0    0    0  501 -0.00000000000E+00  0.00000000000E+00  0.29614572655E+02  0.29614572655E+02  0.00000000000E+00 0.  1.
          2   -1    0    0  501    0  0.00000000000E+00 -0.00000000000E+00 -0.51280517585E+03  0.51280517585E+03  0.00000000000E+00 0. -1.
         25    2    1    2    0    0 -0.21710811076E+02  0.18442095995E+02 -0.15698591365E+03  0.20274582945E+03  0.12509925681E+03 0.  0.
          5    1    3    3  502    0 -0.66803038836E+02  0.32204455669E+02 -0.62526139914E+02  0.97091521438E+02  0.41800000000E+01 0.  1.
         -5    1    3    3    0  502  0.45092227760E+02 -0.13762359674E+02 -0.94459773733E+02  0.10565430801E+03  0.41800000000E+01 0.  1.
        -11    1    1    2    0    0  0.36455553425E+02  0.27910192496E+02 -0.14884852385E+03  0.15576864021E+03  0.00000000000E+00 0.  1.
         11    1    1    2    0    0 -0.14744742349E+02 -0.46352288491E+02 -0.17735616570E+03  0.18390527884E+03  0.00000000000E+00 0. -1.
</event>
<event>
 7    1  0.2946332E-009  0.1629467E+03  0.7561462E-02  0.1185410E+00
          3   -1    0    0  501    0  0.00000000000E+00  0.00000000000E+00  0.10521164362E+04  0.10521164362E+04  0.00000000000E+00 0. -1.
         -3   -1    0    0    0  501 -0.00000000000E+00 -0.00000000000E+00 -0.31493173564E+02  0.31493173564E+02  0.00000000000E+00 0.  1.
         25    2    1    2    0    0 -0.92324188847E+02  0.10750131577E+03  0.63856907607E+03  0.66595637708E+03  0.12508853872E+03 0.  0.
          5    1    3    3  502    0 -0.10382835040E+03  0.86016402326E+02  0.33152436911E+03  0.35791762674E+03  0.41800000000E+01 0. -1.
         -5    1    3    3    0  502  0.11504161551E+02  0.21484913443E+02  0.30704470696E+03  0.30803875034E+03  0.41800000000E+01 0. -1.
        -11    1    1    2    0    0 -0.70526986773E+01 -0.51941304595E+02  0.89424273564E+02  0.10365491008E+03  0.00000000000E+00 0. -1.
         11    1    1    2    0    0  0.99376887524E+02 -0.55560011174E+02  0.29262991300E+03  0.31399832260E+03  0.00000000000E+00 0.  1.
</event>
<event>
 7    1  0.2749315E-009  0.1723941E+03  0.7561462E-02  0.1175374E+00
          2   -1    0    0  501    0  0.00000000000E+00  0.00000000000E+00  0.13191036371E+03  0.13191036371E+03  0.00000000000E+00 0. -1.
         -2   -1    0    0    0  501 -0.00000000000E+00 -0.00000000000E+00 -0.33325435891E+03  0.33325435891E+03  0.00000000000E+00 0.  1.
         25    2    1    2    0    0  0.51855054212E+02  0.12521671924E+03 -0.23470027144E+03  0.29849669107E+03  0.12509150147E+03 0.  0.
          5    1    3    3  502    0  0.90694944778E+02  0.10285772322E+03 -0.15526453634E+03  0.20719515650E+03  0.41800000000E+01 0. -1.
         -5    1    3    3    0  502 -0.38839890566E+02  0.22358996012E+02 -0.79435735109E+02  0.91301534567E+02  0.41800000000E+01 0. -1.
        -11    1    1    2    0    0  0.21353951026E+02 -0.62952188823E+02  0.60080322975E+01  0.66746278953E+02  0.00000000000E+00 0.  1.
         11    1    1    2    0    0 -0.73209005238E+02 -0.62264530413E+02  0.27348243942E+02  0.99921752598E+02  0.00000000000E+00 0. -1.
</event>
<event>
 7    1  0.2749315E-009  0.1247608E+03  0.7561462E-02  0.1235444E+00
         -2   -1    0    0    0  501 -0.00000000000E+00  0.00000000000E+00  0.35315028302E+02  0.35315028302E+02  0.00000000000E+00 0.  1.
          2   -1    0    0  501    0  0.00000000000E+00 -0.00000000000E+00 -0.81293143915E+03  0.81293143915E+03  0.00000000000E+00 0. -1.
         25    2    1    2    0    0 -0.26610105596E+02 -0.11847029854E+03 -0.53162127114E+03  0.55947587017E+03  0.12509501993E+03 0.  0.
          5    1    3    3  502    0  0.35150396504E+01 -0.92772635581E+01 -0.31328659300E+03  0.31347150568E+03  0.41800000000E+01 0. -1.
         -5    1    3    3    0  502 -0.30125145247E+02 -0.10919303498E+03 -0.21833467815E+03  0.24600436448E+03  0.41800000000E+01 0. -1.
        -11    1    1    2    0    0 -0.68705963904E+01  0.30890243803E+02 -0.15470246560E+03  0.15790587424E+03  0.00000000000E+00 0. -1.
         11    1    1    2    0    0  0.33480701987E+02  0.87580054732E+02 -0.91292674104E+02  0.13086472304E+03  0.00000000000E+00 0.  1.
</event>
<event>
 7    1  0.2749315E-009  0.7858885E+02  0.7561462E-02  0.1333104E+00
         -2   -1    0    0    0  501 -0.00000000000E+00  0.00000000000E+00  0.12801971139E+03  0.12801971139E+03  0.00000000000E+00 0.  1.
          2   -1    0    0  501    0  0.00000000000E+00 -0.00000000000E+00 -0.97191840918E+02  0.97191840918E+02  0.00000000000E+00 0. -1.
         25    2    1    2    0    0 -0.45482396757E+01  0.23745216647E+02  0.33869738314E+02  0.13183107523E+03  0.12509097259E+03 0.  0.
          5    1    3    3  502    0  0.16593519177E+02  0.65095888913E+02  0.48498919940E+02  0.82960456046E+02  0.41800000000E+01 0.  1.
         -5    1    3    3    0  502 -0.21141758852E+02 -0.41350672266E+02 -0.14629181626E+02  0.48870619182E+02  0.41800000000E+01 0.  1.
        -11    1    1    2    0    0  0.16570587944E+02  0.61235468348E-01 -0.42578584556E+02  0.45689429821E+02  0.00000000000E+00 0. -1.
         11    1    1    2    0    0 -0.12022348268E+02 -0.23806452115E+02  0.39536716719E+02  0.47691047263E+02  0.00000000000E+00 0.  1.
</event>
<event>
 7    1  0.2749315E-009  0.1231215E+03  0.7561462E-02  0.1238035E+00
          2   -1    0    0  501    0  0.00000000000E+00  0.00000000000E+00  0.20685451320E+03  0.20685451320E+03  0.00000000000E+00 0. -1.
         -2   -1    0    0    0  501 -0.00000000000E+00 -0.00000000000E+00 -0.10054805632E+03  0.10054805632E+03  0.00000000000E+00 0.  1.
         25    2    1    2    0    0  0.44310366756E+02 -0.48111605333E+02  0.13103004151E+03  0.19260866023E+03  0.12510431266E+03 0.  0.
          5    1    3    3  502    0 -0.43051805423E+02 -0.18157951149E+02  0.59205992374E+02  0.75538010783E+02  0.41800000000E+01 0. -1.
         -5    1    3    3    0  502  0.87362172179E+02 -0.29953654185E+02  0.71824049134E+02  0.11707064944E+03  0.41800000000E+01 0. -1.
        -11    1    1    2    0    0 -0.12326124936E+02 -0.24562558372E+02 -0.22240884802E+02  0.35354060396E+02  0.00000000000E+00 0.  1.
         11    1    1    2    0    0 -0.31984241820E+02  0.72674163705E+02 -0.24826998198E+01  0.79439848901E+02  0.00000000000E+00 0. -1.
</event>
<event>
 7    1  0.2749315E-009  0.1110455E+03  0.7561462E-02  0.1258646E+00
         -1   -1    0    0    0  501 -0.00000000000E+00  0.00000000000E+00  0.26678489393E+02  0.26678489393E+02  0.00000000000E+00 0.  1.
          1   -1    0    0  501    0  0.00000000000E+00 -0.00000000000E+00 -0.54885435837E+03  0.54885435837E+03  0.00000000000E+00 0. -1.
         25    2    1    2    0    0  0.34285368905E+02 -0.16600776961E+02 -0.20364896781E+03  0.24201467448E+03  0.12508848172E+03 0.  0.
          5    1    3    3  502    0 -0.12892759586E+02  0.47563517991E+02 -0.60432826058E+02  0.78090398634E+02  0.41800000000E+01 0.  1.
         -5    1    3    3    0  502  0.47178128491E+02 -0.64164294953E+02 -0.14321614175E+03  0.16392427585E+03  0.41800000000E+01 0.  1.
        -11    1    1    2    0    0 -0.16503668291E+02  0.51301705727E+02 -0.23830221171E+03  0.24431983175E+03  0.00000000000E+00 0. -1.
         11    1    1    2    0    0 -0.17781700614E+02 -0.34700928766E+02 -0.80224689460E+02  0.89198341536E+02  0.00000000000E+00 0.  1.
</event>
<event>
 7    1  0.2749315E-009  0.1721516E+03  0.7561462E-02  0.1175623E+00
          1   -1    0    0  501    0  0.00000000000E+00  0.00000000000E+00  0.32537062394E+03  0.32537062394E+03  0.00000000000E+00 0. -1.
         -1   -1    0    0    0  501 -0.00000000000E+00 -0.00000000000E+00 -0.12303485626E+03  0.12303485626E+03  0.00000000000E+00 0.  1.
         25    2    1    2    0    0 -0.13314103754E+03 -0.87022008727E+02  0.16567204762E+03  0.26152150180E+03  0.12508757996E+03 0.  0.
          5    1    3    3  502    0 -0.14446964451E+03 -0.67577392670E+02  0.91555813312E+02  0.18395141080E+03  0.41800000000E+01 0. -1.
         -5    1    3    3    0  502  0.11328606967E+02 -0.19444616057E+02  0.74116234311E+02  0.77570091001E+02  0.41800000000E+01 0. -1.
        -11    1    1    2    0    0  0.12156298111E+02  0.20409031739E+02  0.42457995585E+02  0.48651675710E+02  0.00000000000E+00 0. -1.
         11    1    1    2    0    0  0.12098473943E+03  0.66612976988E+02 -0.57942755277E+01  0.13823230269E+03  0.00000000000E+00 0.  1.
</event>
<event>
 7    1  0.2749315E-009  0.1368743E+03  0.7561462E-02  0.1217598E+00
          2   -1    0    0  501    0  0.00000000000E+00  0.00000000000E+00  0.82221572400E+03  0.82221572400E+03  0.00000000000E+00 0.  1.
         -2   -1    0    0    0  501 -0.00000000000E+00 -0.00000000000E+00 -0.40659007870E+02  0.40659007870E+02  0.00000000000E+00 0. -1.
         25    2    1    2    0    0  0.68137909707E+02  0.71869634205E+02  0.66809674652E+03  0.68688267162E+03  0.12508606154E+03 0.  0.
          5    1    3    3  502    0  0.80018538358E+02 -0.39574635692E+01  0.40096025683E+03  0.40890735865E+03  0.41800000000E+01 0.  1.
         -5    1    3    3    0  502 -0.11880628651E+02  0.75827097774E+02  0.26713648970E+03  0.27797531297E+03  0.41800000000E+01 0.  1.
        -11    1    1    2    0    0 -0.55227604818E+02 -0.13468521044E+02  0.99468222378E+02  0.11456621080E+03  0.00000000000E+00 0.  1.
         11    1    1    2    0    0 -0.12910304890E+02 -0.58401113162E+02  0.13991747225E+02  0.61425849455E+02  0.00000000000E+00 0. -1.
</event>
<event>
 7    1  0.2749315E-009  0.9395036E+02  0.7561462E-02  0.1293558E+00
          2   -1    0    0  501    0  0.00000000000E+00  0.00000000000E+00  0.41242576845E+03  0.41242576845E+03  0.00000000000E+00 0. -1.
         -2   -1    0    0    0  501 -0.00000000000E+00 -0.00000000000E+00 -0.27147033151E+02  0.27147033151E+02  0.00000000000E+00 0.  1.
         25    2    1    2    0    0 -0.23503402405E+02  0.19059715151E+02  0.25081143867E+03  0.28190203268E+03  0.12508675228E+03 0.  0.
          5    1    3    3  502    0 -0.64333759731E+02 -0.87576229115E+01  0.75264900932E+02  0.99487719405E+02  0.41800000000E+01 0.  1.
         -5    1    3    3    0  502  0.40830357326E+02  0.27817338063E+02  0.17554653774E+03  0.18241431327E+03  0.41800000000E+01 0.  1.
        -11    1    1    2    0    0 -0.12840819560E+02 -0.32156114894E+02  0.28384101988E+02  0.44772308603E+02  0.00000000000E+00 0.  1.
         11    1    1    2    0    0  0.36344221964E+02  0.13096399742E+02  0.10608319464E+03  0.11289846031E+03  0.00000000000E+00 0. -1.
</event>
<event>
 7    1  0.2749315E-009  0.2065078E+03  0.7561462E-02  0.1144362E+00
         -1   -1    0    0    0  501 -0.00000000000E+00  0.00000000000E+00  0.19168347520E+03  0.19168347520E+03  0.00000000000E+00 0.  1.
          1   -1    0    0  501    0  0.00000000000E+00 -0.00000000000E+00 -0.24330305282E+03  0.24330305282E+03  0.00000000000E+00 0. -1.
         25    2    1    2    0    0  0.17720394573E+03 -0.71741545587E+00 -0.89067128649E+02  0.23448321447E+03  0.12509065271E+03 0.  0.
          5    1    3    3  502    0  0.64727353881E+02 -0.60834410597E+02 -0.29787216002E+02  0.93782762224E+02  0.41800000000E+01 0. -1.
         -5    1    3    3    0  502  0.11247659185E+03  0.60116995141E+02 -0.59279912647E+02  0.14070045225E+03  0.41800000000E+01 0. -1.
        -11    1    1    2    0    0 -0.69482887432E+02 -0.41334304803E+02  0.22374929430E+02  0.83887030383E+02  0.00000000000E+00 0. -1.
         11    1    1    2    0    0 -0.10772105830E+03  0.42051720259E+02  0.15072621598E+02  0.11661628316E+03  0.00000000000E+00 0.  1.
</event>
<event>
 7    1  0.2749315E-009  0.1045873E+03  0.7561462E-02  0.1270935E+00
         -2   -1    0    0    0  501 -0.00000000000E+00  0.00000000000E+00  0.16988136140E+02  0.16988136140E+02  0.00000000000E+00 0.  1.
          2   -1    0    0  501    0  0.00000000000E+00 -0.00000000000E+00 -0.13882521443E+04  0.13882521443E+04  0.00000000000E+00 0. -1.
         25    2    1    2    0    0  0.40464180814E+02  0.55409963658E+02 -0.12120585288E+04  0.12204266539E+04  0.12509087294E+03 0.  0.
          5    1    3    3  502    0  0.69218073360E+02  0.63013241099E+02 -0.11124397234E+04  0.11163787085E+04  0.41800000000E+01 0. -1.
         -5    1    3    3    0  502 -0.28753892546E+02 -0.76032774417E+01 -0.99618805404E+02  0.10404794546E+03  0.41800000000E+01 0. -1.
        -11    1    1    2    0    0 -0.30425819162E+01 -0.46985795067E+02 -0.48256985757E+02  0.67421501891E+02  0.00000000000E+00 0.  1.
         11    1    1    2    0    0 -0.37421598898E+02 -0.84241685904E+01 -0.11094849368E+03  0.11739212465E+03  0.00000000000E+00 0. -1.
</event>
<event>
 7    1  0.2749315E-009  0.1227268E+03  0.7561462E-02  0.1238665E+00
         -3   -1    0    0    0  501 -0.00000000000E+00  0.00000000000E+00  0.13556578915E+03  0.13556578915E+03  0.00000000000E+00 0.  1.
          3   -1    0    0  501    0  0.00000000000E+00 -0.00000000000E+00 -0.13821382190E+03  0.13821382190E+03  0.00000000000E+00 0. -1.
         25    2    1    2    0    0 -0.54627477194E+02  0.56410797128E+02 -0.42933338626E+02  0.15380913164E+03  0.12509051968E+03 0.  0.
          5    1    3    3  502    0 -0.25302147970E+02  0.91322681875E+02 -0.61072093916E+01  0.95051571914E+02  0.41800000000E+01 0. -1.
         -5    1    3    3    0  502 -0.29325329224E+02 -0.34911884747E+02 -0.36826129234E+02  0.58757559727E+02  0.41800000000E+01 0. -1.
        -11    1    1    2    0    0  0.21549986244E+02  0.14903378716E+02  0.31342196500E+02  0.40851510202E+02  0.00000000000E+00 0.  1.
         11    1    1    2    0    0  0.33077490950E+02 -0.71314175844E+02  0.89431093784E+01  0.79118969212E+02  0.00000000000E+00 0. -1.
</event>
<event>
 7    1  0.2749315E-009  0.2080593E+03  0.7561462E-02  0.1143112E+00
         -1   -1    0    0    0  501 -0.00000000000E+00  0.00000000000E+00  0.25724609570E+03  0.25724609570E+03  0.00000000000E+00 0. -1.
          1   -1    0    0  501    0  0.00000000000E+00 -0.00000000000E+00 -0.19862223130E+03  0.19862223130E+03  0.00000000000E+00 0.  1.
         25    2    1    2    0    0 -0.23455545959E+02  0.18048760031E+03  0.10869522748E+03  0.24614817076E+03  0.12509329715E+03 0.  0.
          5    1    3    3  502    0  0.33739998206E+02  0.97581870837E+01 -0.78605511218E+00  0.35379372192E+02  0.41800000000E+01 0.  1.
         -5    1    3    3    0  502 -0.57195544164E+02  0.17072941322E+03  0.10948128259E+03  0.21076879857E+03  0.41800000000E+01 0.  1.
        -11    1    1    2    0    0 -0.18465794412E+02 -0.14366609986E+03 -0.19665131831E+02  0.14617678072E+03  0.00000000000E+00 0.  1.
         11    1    1    2    0    0  0.41921340371E+02 -0.36821500447E+02 -0.30406231247E+02  0.63543375518E+02  0.00000000000E+00 0. -1.
</event>
<event>
 7    1  0.2749315E-009  0.1235971E+03  0.7561462E-02  0.1237278E+00
          2   -1    0    0  501    0  0.00000000000E+00  0.00000000000E+00  0.71964393432E+03  0.71964393432E+03  0.00000000000E+00 0. -1.
         -2   -1    0    0    0  501 -0.00000000000E+00 -0.00000000000E+00 -0.27985651502E+02  0.27985651502E+02  0.00000000000E+00 0.  1.
         25    2    1    2    0    0 -0.98911912450E+01 -0.81314628439E+02  0.47924001115E+03  0.50202475203E+03  0.12509180192E+03 0.  0.
          5    1    3    3  502    0  0.39965457525E+02 -0.19720651811E+02  0.32979131503E+03  0.33281515256E+03  0.41800000000E+01 0.  1.
         -5    1    3    3    0  502 -0.49856648770E+02 -0.61593976628E+02  0.14944869612E+03  0.16920959948E+03  0.41800000000E+01 0.  1.
        -11    1    1    2    0    0  0.10124311308E+02  0.10194540221E+03  0.17120789963E+03  0.19951819869E+03  0.00000000000E+00 0.  1.
         11    1    1    2    0    0 -0.23312006275E+00 -0.20630773772E+02  0.41210372043E+02  0.46086635105E+02  0.00000000000E+00 0. -1.
</event>
<event>
 7    1  0.2749315E-009  0.8512726E+02  0.7561462E-02  0.1315100E+00
          2   -1    0    0  501    0  0.00000000000E+00  0.00000000000E+00  0.48736261250E+03  0.48736261250E+03  0.00000000000E+00 0.  1.
         -2   -1    0    0    0  501 -0.00000000000E+00 -0.00000000000E+00 -0.29755228311E+02  0.29755228311E+02  0.00000000000E+00 0. -1.
         25    2    1    2    0    0 -0.34709394944E+02 -0.26285593813E+01  0.34297217673E+03  0.36672681792E+03  0.12508794326E+03 0.  0.
          5    1    3    3  502    0  0.16302334585E+02 -0.21987101837E+02  0.28741590055E+03  0.28874655158E+03  0.41800000000E+01 0. -1.
         -5    1    3    3    0  502 -0.51011729529E+02  0.19358542455E+02  0.55556276177E+02  0.77980266339E+02  0.41800000000E+01 0. -1.
        -11    1    1    2    0    0  0.22019049751E+02  0.41485937768E+02  0.92892634052E+02  0.10409112856E+03  0.00000000000E+00 0.  1.
         11    1    1    2    0    0  0.12690345194E+02 -0.38857378386E+02  0.21742573403E+02  0.46299894324E+02  0.00000000000E+00 0. -1.
</event>
<event>
 7    1  0.2841793E-009  0.1453033E+03  0.7561462E-02  0.1206366E+00
          2   -1    0    0  501    0  0.00000000000E+00  0.00000000000E+00  0.49146853802E+03  0.49146853802E+03  0.00000000000E+00 0. -1.
         -2   -1    0    0    0  501 -0.00000000000E+00 -0.00000000000E+00 -0.43762002348E+02  0.43762002348E+02  0.00000000000E+00 0.  1.
         25    2    1    2    0    0 -0.34288047935E+02  0.91532598679E+02  0.25564018083E+03  0.30092096244E+03  0.12509051414E+03 0.  0.
          5    1    3    3  502    0  0.19695224525E+02 -0.23674161440E+02  0.58763221675E+02  0.66475231557E+02  0.41800000000E+01 0. -1.
         -5    1    3    3    0  502 -0.53983272460E+02  0.11520676012E+03  0.19687695915E+03  0.23444573088E+03  0.41800000000E+01 0. -1.
        -11    1    1    2    0    0 -0.29126454050E+02 -0.14748553287E+02  0.31487407001E+02  0.45357766140E+02  0.00000000000E+00 0. -1.
         11    1    1    2    0    0  0.63414501985E+02 -0.76784045392E+02  0.16057894784E+03  0.18895181179E+03  0.00000000000E+00 0.  1.
</event>
<event>
 7    1  0.2749315E-009  0.1799218E+03  0.7561462E-02  0.1167879E+00
          1   -1    0    0  501    0  0.00000000000E+00  0.00000000000E+00  0.50056049609E+03  0.50056049609E+03  0.00000000000E+00 0. -1.
         -1   -1    0    0    0  501 -0.00000000000E+00 -0.00000000000E+00 -0.86745667756E+02  0.86745667756E+02  0.00000000000E+00 0.  1.
         25    2    1    2    0    0 -0.17041595744E+03 -0.34566752386E+02  0.26914890210E+03  0.34398805080E+03  0.12510071411E+03 0.  0.
          5    1    3    3  502    0 -0.46878176431E+02 -0.39695041490E+02  0.18202332496E+02  0.64203247991E+02  0.41800000000E+01 0.  1.
         -5    1    3    3    0  502 -0.12353778101E+03  0.51282891047E+01  0.25094656960E+03  0.27978480280E+03  0.41800000000E+01 0.  1.
        -11    1    1    2    0    0  0.10153948954E+03  0.28239855678E+02  0.30298188878E+02  0.10966192427E+03  0.00000000000E+00 0.  1.
         11    1    1    2    0    0  0.68876467895E+02  0.63268967075E+01  0.11436773736E+03  0.13365618878E+03  0.00000000000E+00 0. -1.
</event>
<event>
 7    1  0.2749315E-009  0.7532500E+02  0.7561462E-02  0.1342868E+00
         -1   -1    0    0    0  501 -0.00000000000E+00  0.00000000000E+00  0.32409413195E+02  0.32409413195E+02  0.00000000000E+00 0.  1.
          1   -1    0    0  501    0  0.00000000000E+00 -0.00000000000E+00 -0.64029845964E+03  0.64029845964E+03  0.00000000000E+00 0. -1.
         25    2    1    2    0    0  0.32029200855E+02  0.53798478928E+02 -0.53146408961E+03  0.54956873950E+03  0.12510625420E+03 0.  0.
          5    1    3    3  502    0  0.16991444294E+02  0.45746647976E+02 -0.52965342122E+03  0.53191322976E+03  0.41800000000E+01 0.  1.
         -5    1    3    3    0  502  0.15037756561E+02  0.80518309513E+01 -0.18106683911E+01  0.17655509737E+02  0.41800000000E+01 0.  1.
        -11    1    1    2    0    0 -0.90646518459E+01  0.11642536771E+02 -0.44326603709E+02  0.46717923455E+02  0.00000000000E+00 0. -1.
         11    1    1    2    0    0 -0.22964549009E+02 -0.65441015698E+02 -0.32098353120E+02  0.76421209882E+02  0.00000000000E+00 0.  1.
</event>
<event>
 7    1  0.2749315E-009  0.1076918E+03  0.7561462E-02  0.1264905E+00
         -2   -1    0    0    0  501 -0.00000000000E+00  0.00000000000E+00  0.58231190288E+02  0.58231190288E+02  0.00000000000E+00 0.  1.
          2   -1    0    0  501    0  0.00000000000E+00 -0.00000000000E+00 -0.27840945988E+03  0.27840945988E+03  0.00000000000E+00 0. -1.
         25    2    1    2    0    0 -0.18814355486E+02  0.43256334123E+01 -0.20159954269E+03  0.23803791556E+03  0.12508789931E+03 0.  0.
          5    1    3    3  502    0 -0.11497632940E+02  0.62979961396E+02 -0.13099463547E+03  0.14586205134E+03  0.41800000000E+01 0. -1.
         -5    1    3    3    0  502 -0.73167225454E+01 -0.58654327984E+02 -0.70604907222E+02  0.92175864216E+02  0.41800000000E+01 0. -1.
        -11    1    1    2    0    0 -0.22656408618E+02 -0.34083883834E+02 -0.23716051314E+02  0.47301956393E+02  0.00000000000E+00 0. -1.
         11    1    1    2    0    0  0.41470764104E+02  0.29758250421E+02  0.51373244119E+01  0.51300778217E+02  0.00000000000E+00 0.  1.
</event>
<event>
 7    1  0.2749315E-009  0.7730902E+02  0.7561462E-02  0.1336866E+00
         -1   -1    0    0    0  501 -0.00000000000E+00  0.00000000000E+00  0.29293111984E+03  0.29293111984E+03  0.00000000000E+00 0.  1.
          1   -1    0    0  501    0  0.00000000000E+00 -0.00000000000E+00 -0.52825287949E+02  0.52825287949E+02  0.00000000000E+00 0. -1.
         25    2    1    2    0    0  0.14435242740E+02  0.54422300887E+02  0.11470212205E+03  0.17882418318E+03  0.12510535009E+03 0.  0.
          5    1    3    3  502    0 -0.15759201496E+02  0.59099475284E+02  0.13049326945E+03  0.14417720410E+03  0.41800000000E+01 0. -1.
         -5    1    3    3    0  502  0.30194444236E+02 -0.46771743967E+01 -0.15791147403E+02  0.34646979079E+02  0.41800000000E+01 0. -1.
        -11    1    1    2    0    0  0.47746388505E+01 -0.34380039473E+02 -0.36729867814E+01  0.34903798106E+02  0.00000000000E+00 0. -1.
         11    1    1    2    0    0 -0.19209881591E+02 -0.20042261414E+02  0.12907669663E+03  0.13202842650E+03  0.00000000000E+00 0.  1.
</event>
<event>
 7    1  0.2749315E-009  0.2130148E+03  0.7561462E-02  0.1139201E+00
          2   -1    0    0  501    0  0.00000000000E+00  0.00000000000E+00  0.36494227498E+03  0.36494227498E+03  0.00000000000E+00 0. -1.
         -2   -1    0    0    0  501 -0.00000000000E+00 -0.00000000000E+00 -0.15736776194E+03  0.15736776194E+03  0.00000000000E+00 0.  1.
         25    2    1    2    0    0  0.27614188003E+02 -0.18612434347E+03  0.21372396116E+03  0.31101404529E+03  0.12508792980E+03 0.  0.
          5    1    3    3  502    0  0.16315926337E+02  0.10158626610E+02  0.54637578051E+02  0.58070168608E+02  0.41800000000E+01 0. -1.
         -5    1    3    3    0  502  0.11298261666E+02 -0.19628297008E+03  0.15908638311E+03  0.25294387668E+03  0.41800000000E+01 0. -1.
        -11    1    1    2    0    0  0.34153212264E+02  0.78712704853E+02 -0.14880568936E+02  0.87083656016E+02  0.00000000000E+00 0.  1.
         11    1    1    2    0    0 -0.61767400267E+02  0.10741163862E+03  0.87311208190E+01  0.12421233561E+03  0.00000000000E+00 0. -1.
</event>
<event>
 7    1  0.2749315E-009  0.1121628E+03  0.7561462E-02  0.1256616E+00
         -2   -1    0    0    0  501 -0.00000000000E+00  0.00000000000E+00  0.67153984947E+02  0.67153984947E+02  0.00000000000E+00 0.  1.
          2   -1    0    0  501    0  0.00000000000E+00 -0.00000000000E+00 -0.26141348551E+03  0.26141348551E+03  0.00000000000E+00 0. -1.
         25    2    1    2    0    0 -0.29781207771E+02 -0.69466872283E+02 -0.90651943995E+02  0.17198315065E+03  0.12509141648E+03 0.  0.
          5    1    3    3  502    0 -0.50253037847E+02  0.42711523760E+01 -0.79918399851E+02  0.94594046272E+02  0.41800000000E+01 0. -1.
         -5    1    3    3    0  502  0.20471830076E+02 -0.73738024659E+02 -0.10733544145E+02  0.77389104383E+02  0.41800000000E+01 0. -1.
        -11    1    1    2    0    0  0.47607930980E+02  0.60896337443E+02 -0.11117525733E+03  0.13540611821E+03  0.00000000000E+00 0. -1.
         11    1    1    2    0    0 -0.17826723210E+02  0.85705348400E+01  0.75677007626E+01  0.21178201592E+02  0.00000000000E+00 0.  1.
</event>
<event>
 7    1  0.2749315E-009  0.7950459E+02  0.7561462E-02  0.1330463E+00
         -2   -1    0    0    0  501 -0.00000000000E+00  0.00000000000E+00  0.64415827982E+02  0.64415827982E+02  0.00000000000E+00 0. -1.
          2   -1    0    0  501    0  0.00000000000E+00 -0.00000000000E+00 -0.32319165526E+03  0.32319165526E+03  0.00000000000E+00 0.  1.
         25    2    1    2    0    0  0.42979699970E+02  0.61389571452E+01 -0.26941115196E+02  0.13511589994E+03  0.12508213831E+03 0.  0.
          5    1    3    3  502    0  0.53304043681E+02 -0.19228602719E+01 -0.71034088186E+02  0.88928806069E+02  0.41800000000E+01 0.  1.
         -5    1    3    3    0  502 -0.10324343711E+02  0.80618174171E+01  0.44092972990E+02  0.46187093871E+02  0.41800000000E+01 0.  1.
        -11    1    1    2    0    0 -0.17956438668E+01 -0.39017425812E+02 -0.15120126027E+03  0.15616467258E+03  0.00000000000E+00 0.  1.
         11    1    1    2    0    0 -0.41184056104E+02  0.32878468667E+02 -0.80633451817E+02  0.96326910731E+02  0.00000000000E+00 0. -1.
</event>
<event>
 7    1  0.2749315E-009  0.3406574E+03  0.7561462E-02  0.1066516E+00
         -1   -1    0    0    0  501 -0.00000000000E+00  0.00000000000E+00  0.24582185662E+03  0.24582185662E+03  0.00000000000E+00 0.  1.
          1   -1    0    0  501    0  0.00000000000E+00 -0.00000000000E+00 -0.50688923394E+03  0.50688923394E+03  0.00000000000E+00 0. -1.
         25    2    1    2    0    0 -0.32522154155E+03 -0.60007262960E+02 -0.18819221509E+03  0.40054174477E+03  0.12508979489E+03 0.  0.
          5    1    3    3  502    0 -0.59212539762E+00 -0.65638549044E+01  0.12793528140E+02  0.14986045708E+02  0.41800000000E+01 0.  1.
         -5    1    3    3    0  502 -0.32462941616E+03 -0.53443408055E+02 -0.20098574323E+03  0.38555569906E+03  0.41800000000E+01 0.  1.
        -11    1    1    2    0    0  0.15810029337E+03 -0.19710400675E+02 -0.37037202541E+02  0.16357248249E+03  0.00000000000E+00 0. -1.
         11    1    1    2    0    0  0.16712124819E+03  0.79717663635E+02 -0.35837959697E+02  0.18859686330E+03  0.00000000000E+00 0.  1.
</event>
<event>
 7    1  0.2749315E-009  0.1386887E+03  0.7561462E-02  0.1215104E+00
         -2   -1    0    0    0  501 -0.00000000000E+00  0.00000000000E+00  0.11565919261E+02  0.11565919261E+02  0.00000000000E+00 0.  1.
          2   -1    0    0  501    0  0.00000000000E+00 -0.00000000000E+00 -0.20013898191E+04  0.20013898191E+04  0.00000000000E+00 0. -1.
         25    2    1    2    0    0 -0.83580056208E+02  0.52731468997E+02 -0.13022481404E+04  0.13119686132E+04  0.12508073072E+03 0.  0.
          5    1    3    3  502    0  0.20725740603E+02 -0.50019222848E+01 -0.56685725064E+02  0.60706831379E+02  0.41800000000E+01 0.  1.
         -5    1    3    3    0  502 -0.10430579681E+03  0.57733391282E+02 -0.12455624153E+04  0.12512617818E+04  0.41800000000E+01 0.  1.
        -11    1    1    2    0    0  0.79325361776E+01  0.25995476014E+02 -0.14832808347E+03  0.15079758038E+03  0.00000000000E+00 0. -1.
         11    1    1    2    0    0  0.75647520030E+02 -0.78726945011E+02 -0.53924767595E+03  0.55018954477E+03  0.00000000000E+00 0.  1.
</event>
<event>
 7    1  0.2749315E-009  0.1175719E+03  0.7561462E-02  0.1247157E+00
         -1   -1    0    0    0  501 -0.00000000000E+00  0.00000000000E+00  0.39521037746E+02  0.39521037746E+02  0.00000000000E+00 0.  1.
          1   -1    0    0  501    0  0.00000000000E+00 -0.00000000000E+00 -0.51305150915E+03  0.51305150915E+03  0.00000000000E+00 0. -1.
         25    2    1    2    0    0  0.41449123944E+02  0.65571373236E+02 -0.34704976869E+03  0.37697215072E+03  0.12508727195E+03 0.  0.
          5    1    3    3  502    0  0.69530911680E+02  0.51066496033E+02 -0.32939125627E+03  0.34052666093E+03  0.41800000000E+01 0. -1.
         -5    1    3    3    0  502 -0.28081787736E+02  0.14504877203E+02 -0.17658512425E+02  0.36445489792E+02  0.41800000000E+01 0. -1.
        -11    1    1    2    0    0 -0.51641179997E+02 -0.11343558761E+01 -0.81020140898E+02  0.96085178180E+02  0.00000000000E+00 0. -1.
         11    1    1    2    0    0  0.10192056053E+02 -0.64437017360E+02 -0.45460561813E+02  0.79515217997E+02  0.00000000000E+00 0.  1.
</event>
<event>
 7    1  0.2749315E-009  0.1111391E+03  0.7561462E-02  0.1258475E+00
          2   -1    0    0  501    0  0.00000000000E+00  0.00000000000E+00  0.44360195032E+02  0.44360195032E+02  0.00000000000E+00 0. -1.
         -2   -1    0    0    0  501 -0.00000000000E+00 -0.00000000000E+00 -0.35486225118E+03  0.35486225118E+03  0.00000000000E+00 0.  1.
         25    2    1    2    0    0 -0.13024563281E+02 -0.45448966982E+02 -0.10645381893E+03  0.17092393544E+03  0.12508928128E+03 0.  0.
          5    1    3    3  502    0  0.22293673471E+02  0.37269019609E+02 -0.37113441546E+02  0.57278858603E+02  0.41800000000E+01 0. -1.
         -5    1    3    3    0  502 -0.35318236752E+02 -0.82717986591E+02 -0.69340377386E+02  0.11364507684E+03  0.41800000000E+01 0. -1.
        -11    1    1    2    0    0 -0.13230230495E+02  0.58013952679E+02 -0.18285685522E+03  0.19229479245E+03  0.00000000000E+00 0.  1.
         11    1    1    2    0    0  0.26254793776E+02 -0.12564985697E+02 -0.21191381994E+02  0.36003718317E+02  0.00000000000E+00 0. -1.
</event>
<event>
 7    1  0.2749315E-009  0.2508825E+03  0.7561462E-02  0.1112748E+00
          1   -1    0    0  501    0  0.00000000000E+00  0.00000000000E+00  0.10292974400E+04  0.10292974400E+04  0.00000000000E+00 0. -1.
         -1   -1    0    0    0  501 -0.00000000000E+00 -0.00000000000E+00 -0.69261371687E+02  0.69261371687E+02  0.00000000000E+00 0.  1.
         25    2    1    2    0    0  0.19797173082E+03  0.13517378544E+03  0.39874704670E+03  0.48177989989E+03  0.12509159131E+03 0.  0.
          5    1    3    3  502    0  0.14091037038E+03  0.52552884977E+02  0.32171598559E+03  0.35515656545E+03  0.41800000000E+01 0. -1.
         -5    1    3    3    0  502  0.57061360446E+02  0.82620900465E+02  0.77031061106E+02  0.12662333444E+03  0.41800000000E+01 0. -1.
        -11    1    1    2    0    0 -0.15070127277E+03 -0.13678355715E+03  0.49623106403E+03  0.53634493008E+03  0.00000000000E+00 0.  1.
         11    1    1    2    0    0 -0.47270458057E+02  0.16097717066E+01  0.65057957631E+02  0.80433981755E+02  0.00000000000E+00 0. -1.
</event>
<event>
 7    1  0.2749315E-009  0.9283405E+02  0.7561462E-02  0.1296130E+00
          1   -1    0    0  501    0  0.00000000000E+00  0.00000000000E+00  0.30620105397E+02  0.30620105397E+02  0.00000000000E+00 0. -1.
         -1   -1    0    0    0  501 -0.00000000000E+00 -0.00000000000E+00 -0.54944413960E+03  0.54944413960E+03  0.00000000000E+00 0.  1.
         25    2    1    2    0    0 -0.59127790486E+02  0.33963728167E+02 -0.31878973594E+03  0.34917421343E+03  0.12508439210E+03 0.  0.
          5    1    3    3  502    0 -0.48155328632E+02  0.19710645105E+02 -0.32539975322E+03  0.32956018722E+03  0.41800000000E+01 0.  1.
         -5    1    3    3    0  502 -0.10972461855E+02  0.14253083062E+02  0.66100172762E+01  0.19614026214E+02  0.41800000000E+01 0.  1.
        -11    1    1    2    0    0  0.67587925557E+02  0.11671168949E+02 -0.12749768149E+03  0.14477569772E+03  0.00000000000E+00 0. -1.
         11    1    1    2    0    0 -0.84601350709E+01 -0.45634897116E+02 -0.72536616774E+02  0.86114333843E+02  0.00000000000E+00 0.  1.
</event>
<event>
 7    1  0.2749315E-009  0.3652710E+03  0.7561462E-02  0.1056516E+00
          1   -1    0    0  501    0  0.00000000000E+00  0.00000000000E+00  0.34419272061E+03  0.34419272061E+03  0.00000000000E+00 0. -1.
         -1   -1    0    0    0  501 -0.00000000000E+00 -0.00000000000E+00 -0.40753656056E+03  0.40753656056E+03  0.00000000000E+00 0.  1.
         25    2    1    2    0    0 -0.24506221033E+03  0.26035094504E+03 -0.48763379938E+02  0.38192060112E+03  0.12508947526E+03 0.  0.
          5    1    3    3  502    0 -0.42371090731E+02  0.93970194551E+02 -0.60125798147E+02  0.11940808514E+03  0.41800000000E+01 0. -1.
         -5    1    3    3    0  502 -0.20269111960E+03  0.16638075049E+03  0.11362418209E+02  0.26251251598E+03  0.41800000000E+01 0. -1.
        -11    1    1    2    0    0  0.10096314020E+03 -0.57195891944E+02  0.21878773514E+02  0.11808304901E+03  0.00000000000E+00 0.  1.
         11    1    1    2    0    0  0.14409907014E+03 -0.20315505309E+03 -0.36459233530E+02  0.25172563104E+03  0.00000000000E+00 0. -1.
</event>
<event>
 7    1  0.2749315E-009  0.9048042E+02  0.7561462E-02  0.1301692E+00
          2   -1    0    0  501    0  0.00000000000E+00  0.00000000000E+00  0.14852292380E+03  0.14852292380E+03  0.00000000000E+00 0. -1.
         -2   -1    0    0    0  501 -0.00000000000E+00 -0.00000000000E+00 -0.14667714117E+03  0.14667714117E+03  0.00000000000E+00 0.  1.
         25    2    1    2    0    0  0.30505733994E+01 -0.64658477964E+02 -0.73932272230E+02  0.15907240749E+03  0.12509206680E+03 0.  0.
          5    1    3    3  502    0  0.40988234125E+02 -0.41182996919E+02  0.14415239614E+02  0.60011216494E+02  0.41800000000E+01 0. -1.
         -5    1    3    3    0  502 -0.37937660726E+02 -0.23475481046E+02 -0.88347511844E+02  0.99061190992E+02  0.41800000000E+01 0. -1.
        -11    1    1    2    0    0  0.17329340769E+02  0.11066164175E+02 -0.17257130124E+02  0.26843520282E+02  0.00000000000E+00 0.  1.
         11    1    1    2    0    0 -0.20379914168E+02  0.53592313790E+02  0.93035184987E+02  0.10928413720E+03  0.00000000000E+00 0. -1.
</event>
<event>
 7    1  0.2749315E-009  0.1205870E+03  0.7561462E-02  0.1242132E+00
          2   -1    0    0  501    0  0.00000000000E+00  0.00000000000E+00  0.56881658720E+03  0.56881658720E+03  0.00000000000E+00 0. -1.
         -2   -1    0    0    0  501 -0.00000000000E+00 -0.00000000000E+00 -0.34658690339E+02  0.34658690339E+02  0.00000000000E+00 0.  1.
         25    2    1    2    0    0 -0.88343534300E+02  0.13639955637E+01  0.29633758318E+03  0.33357141833E+03  0.12508991720E+03 0.  0.
          5    1    3    3  502    0  0.14074961016E+02 -0.14272698305E+02  0.16485748980E+03  0.16612428717E+03  0.41800000000E+01 0.  1.
         -5    1    3    3    0  502 -0.10241849532E+03  0.15636693869E+02  0.13148009338E+03  0.16744713116E+03  0.41800000000E+01 0.  1.
        -11    1    1    2    0    0  0.10947043393E+02 -0.31960355377E+02  0.12637411946E+03  0.13081177372E+03  0.00000000000E+00 0. -1.
         11    1    1    2    0    0  0.77396490907E+02  0.30596359813E+02  0.11144619421E+03  0.13909208548E+03  0.00000000000E+00 0.  1.
</event>
<event>
 7    1  0.2749315E-009  0.2625277E+03  0.7561462E-02  0.1105634E+00
          2   -1    0    0  501    0  0.00000000000E+00  0.00000000000E+00  0.91725893308E+03  0.91725893308E+03  0.00000000000E+00 0. -1.
         -2   -1    0    0    0  501 -0.00000000000E+00 -0.00000000000E+00 -0.22952023938E+03  0.22952023938E+03  0.00000000000E+00 0.  1.
         25    2    1    2    0    0 -0.22237713671E+03 -0.93583965291E+02  0.81472798528E+03  0.85885902135E+03  0.12509028366E+03 0.  0.
          5    1    3    3  502    0 -0.98286823333E+02 -0.10466986722E+03  0.36724501935E+03  0.39433799891E+03  0.41800000000E+01 0. -1.
         -5    1    3    3    0  502 -0.12409031338E+03  0.11085901927E+02  0.44748296593E+03  0.46452102244E+03  0.41800000000E+01 0. -1.
        -11    1    1    2    0    0  0.43557227671E+02 -0.16716842863E+02 -0.36151052996E+02  0.59021890435E+02  0.00000000000E+00 0.  1.
         11    1    1    2    0    0  0.17881990904E+03  0.11030080815E+03 -0.90838238585E+02  0.22889826067E+03  0.00000000000E+00 0. -1.
</event>
<event>
 7    1  0.2749315E-009  0.1037236E+03  0.7561462E-02  0.1272655E+00
         -2   -1    0    0    0  501 -0.00000000000E+00  0.00000000000E+00  0.49292534952E+02  0.49292534952E+02  0.00000000000E+00 0.  1.
          2   -1    0    0  501    0  0.00000000000E+00 -0.00000000000E+00 -0.28644698318E+03  0.28644698318E+03  0.00000000000E+00 0. -1.
         25    2    1    2    0    0 -0.17971116143E+02 -0.46417354931E+02 -0.11995302560E+03  0.18031534165E+03  0.12508941694E+03 0.  0.
          5    1    3    3  502    0 -0.21279871522E+01 -0.80909369462E+02 -0.11657646208E+03  0.14198027436E+03  0.41800000000E+01 0. -1.
         -5    1    3    3    0  502 -0.15843128991E+02  0.34492014531E+02 -0.33765635140E+01  0.38335067286E+02  0.41800000000E+01 0. -1.
        -11    1    1    2    0    0  0.16270578930E+02  0.66296640953E+02 -0.11701507940E+03  0.13547141820E+03  0.00000000000E+00 0. -1.
         11    1    1    2    0    0  0.17005372138E+01 -0.19879286021E+02 -0.18634322904E+00  0.19952758289E+02  0.00000000000E+00 0.  1.
</event>
<event>
 7    1  0.2749315E-009  0.1286072E+03  0.7561462E-02  0.1229537E+00
          1   -1    0    0  501    0  0.00000000000E+00  0.00000000000E+00  0.30737665499E+02  0.30737665499E+02  0.00000000000E+00 0. -1.
         -1   -1    0    0    0  501 -0.00000000000E+00 -0.00000000000E+00 -0.73186635190E+03  0.73186635190E+03  0.00000000000E+00 0.  1.
         25    2    1    2    0    0  0.61176227997E+02 -0.53575640971E+02 -0.54138318547E+03  0.56156562873E+03  0.12508925487E+03 0.  0.
          5    1    3    3  502    0  0.39374700437E+02 -0.88506307423E+02 -0.26662496658E+03  0.28370773464E+03  0.41800000000E+01 0. -1.
         -5    1    3    3    0  502  0.21801527560E+02  0.34930666451E+02 -0.27475821888E+03  0.27785789409E+03  0.41800000000E+01 0. -1.
        -11    1    1    2    0    0  0.21778451116E+02  0.37502819558E+01 -0.14227789699E+02  0.26282989698E+02  0.00000000000E+00 0. -1.
         11    1    1    2    0    0 -0.82954679113E+02  0.49825359015E+02 -0.14551771124E+03  0.17475539898E+03  0.00000000000E+00 0.  1.
</event>
<event>
 7    1  0.2749315E-009  0.1571429E+03  0.7561462E-02  0.1191961E+00
         -2   -1    0    0    0  501 -0.00000000000E+00  0.00000000000E+00  0.38414505108E+02  0.38414505108E+02  0.00000000000E+00 0. -1.
          2   -1    0    0  501    0  0.00000000000E+00 -0.00000000000E+00 -0.16526268866E+04  0.16526268866E+04  0.00000000000E+00 0.  1.
         25    2    1    2    0    0 -0.11317163357E+03 -0.27996150763E+02 -0.14831072068E+04  0.14929320968E+04  0.12509058931E+03 0.  0.
          5    1    3    3  502    0 -0.75000486959E+02 -0.74500903444E+02 -0.11040158002E+04  0.11090734048E+04  0.41800000000E+01 0.  1.
         -5    1    3    3    0  502 -0.38171146607E+02  0.46504752681E+02 -0.37909140661E+03  0.38385869200E+03  0.41800000000E+01 0.  1.
        -11    1    1    2    0    0  0.33045040772E+02  0.54541204753E+02 -0.49813366522E+02  0.80920264581E+02  0.00000000000E+00 0. -1.
         11    1    1    2    0    0  0.80126592794E+02 -0.26545053990E+02 -0.81291808144E+02  0.11718903035E+03  0.00000000000E+00 0.  1.
</event>
<event>
 7    1  0.2749315E-009  0.8130242E+02  0.7561462E-02  0.1325395E+00
         -2   -1    0    0    0  501 -0.00000000000E+00  0.00000000000E+00  0.29389735890E+02  0.29389735890E+02  0.00000000000E+00 0.  1.
          2   -1    0    0  501    0  0.00000000000E+00 -0.00000000000E+00 -0.61256294303E+03  0.61256294303E+03  0.00000000000E+00 0. -1.
         25    2    1    2    0    0  0.18626109946E+02 -0.48626279211E+02 -0.45968640582E+03  0.47924010912E+03  0.12509214001E+03 0.  0.
          5    1    3    3  502    0 -0.68600702618E+01  0.16888162447E+02 -0.33896311123E+03  0.33947862049E+03  0.41800000000E+01 0. -1.
         -5    1    3    3    0  502  0.25486180208E+02 -0.65514441659E+02 -0.12072329460E+03  0.13976148864E+03  0.41800000000E+01 0. -1.
        -11    1    1    2    0    0 -0.43264686929E+01  0.56831269795E+02 -0.13227371861E+03  0.14403071962E+03  0.00000000000E+00 0. -1.
         11    1    1    2    0    0 -0.14299641253E+02 -0.82049905841E+01  0.87869172987E+01  0.18681850178E+02  0.00000000000E+00 0.  1.
</event>
<event>
 7    1  0.2749315E-009  0.1004564E+03  0.7561462E-02  0.1279339E+00
          1   -1    0    0  501    0  0.00000000000E+00  0.00000000000E+00  0.20606776307E+03  0.20606776307E+03  0.00000000000E+00 0. -1.
         -1   -1    0    0    0  501 -0.00000000000E+00 -0.00000000000E+00 -0.74162852588E+02  0.74162852588E+02  0.00000000000E+00 0.  1.
         25    2    1    2    0    0  0.29493003839E+02 -0.52658624015E+02  0.73737610664E+02  0.15724161807E+03  0.12507966768E+03 0.  0.
          5    1    3    3  502    0  0.80556669868E+01  0.18954125695E+02 -0.25427295146E+02  0.32987458070E+02  0.41800000000E+01 0.  1.
         -5    1    3    3    0  502  0.21437336852E+02 -0.71612749709E+02  0.99164905810E+02  0.12425416000E+03  0.41800000000E+01 0.  1.
        -11    1    1    2    0    0 -0.10063766898E+02  0.74855760649E+02  0.27350186297E+02  0.80328681036E+02  0.00000000000E+00 0. -1.
         11    1    1    2    0    0 -0.19429236941E+02 -0.22197136634E+02  0.30817113520E+02  0.42660316555E+02  0.00000000000E+00 0.  1.
</event>
<event>
 7    1  0.2749315E-009  0.1061996E+03  0.7561462E-02  0.1267774E+00
         -2   -1    0    0    0  501 -0.00000000000E+00  0.00000000000E+00  0.13645031624E+03  0.13645031624E+03  0.00000000000E+00 0.  1.
          2   -1    0    0  501    0  0.00000000000E+00 -0.00000000000E+00 -0.34408106276E+03  0.34408106276E+03  0.00000000000E+00 0. -1.
         25    2    1    2    0    0  0.81081389708E+02  0.89801712998E+01  0.79193713486E+02  0.16903325443E+03  0.12508301888E+03 0.  0.
          5    1    3    3  502    0  0.18829515112E+02 -0.33323401332E+02  0.85116024962E+02  0.93419536614E+02  0.41800000000E+01 0.  1.
         -5    1    3    3    0  502  0.62251874596E+02  0.42303572632E+02 -0.59223114759E+01  0.75613717812E+02  0.41800000000E+01 0.  1.
        -11    1    1    2    0    0 -0.64776514692E+02 -0.30432917604E+02 -0.27090899260E+03  0.28020321483E+03  0.00000000000E+00 0. -1.
         11    1    1    2    0    0 -0.16304875016E+02  0.21452746304E+02 -0.15915467417E+02  0.31294909752E+02  0.00000000000E+00 0.  1.
</event>
<event>
 7    1  0.2749315E-009  0.1342509E+03  0.7561462E-02  0.1221281E+00
          2   -1    0    0  501    0  0.00000000000E+00  0.00000000000E+00  0.10709300918E+04  0.10709300918E+04  0.00000000000E+00 0. -1.
         -2   -1    0    0    0  501 -0.00000000000E+00 -0.00000000000E+00 -0.20572286674E+02  0.20572286674E+02  0.00000000000E+00 0.  1.
         25    2    1    2    0    0  0.93298136908E+02  0.12433561791E+02  0.43030636028E+03  0.45789736477E+03  0.12508915682E+03 0.  0.
          5    1    3    3  502    0  0.22112472024E+02 -0.43500171178E+02  0.26395919418E+03  0.26846443880E+03  0.41800000000E+01 0.  1.
         -5    1    3    3    0  502  0.71185664884E+02  0.55933732969E+02  0.16634716610E+03  0.18943292596E+03  0.41800000000E+01 0.  1.
        -11    1    1    2    0    0 -0.72247859932E+02  0.32542510155E+02  0.42555511167E+03  0.43286940444E+03  0.00000000000E+00 0.  1.
         11    1    1    2    0    0 -0.21050276976E+02 -0.44976071946E+02  0.19449633323E+03  0.20073560932E+03  0.00000000000E+00 0. -1.
</event>
<event>
 7    1  0.2749315E-009  0.1061673E+03  0.7561462E-02  0.1267837E+00
          2   -1    0    0  501    0  0.00000000000E+00  0.00000000000E+00  0.27381937731E+03  0.27381937731E+03  0.00000000000E+00 0. -1.
         -2   -1    0    0    0  501 -0.00000000000E+00 -0.00000000000E+00 -0.49493265345E+02  0.49493265345E+02  0.00000000000E+00 0.  1.
         25    2    1    2    0    0  0.67930237537E+01 -0.39437332878E+02  0.10472799997E+03  0.16797790044E+03  0.12508865921E+03 0.  0.
          5    1    3    3  502    0 -0.48723305695E+02  0.66230628914E+01  0.12670534081E+02  0.50949389730E+02  0.41800000000E+01 0. -1.
         -5    1    3    3    0  502  0.55516329449E+02 -0.46060395770E+02  0.92057465888E+02  0.11702851071E+03  0.41800000000E+01 0. -1.
        -11    1    1    2    0    0 -0.36110552449E+02 -0.60482116406E+01  0.19347920967E+02  0.41411289620E+02  0.00000000000E+00 0.  1.
         11    1    1    2    0    0  0.29317528695E+02  0.45485544519E+02  0.10025019103E+03  0.11392345259E+03  0.00000000000E+00 0. -1.
</event>
<event>
 7    1  0.2749315E-009  0.7693476E+02  0.7561462E-02  0.1337982E+00
         -3   -1    0    0    0  501 -0.00000000000E+00  0.00000000000E+00  0.18087195169E+03  0.18087195169E+03  0.00000000000E+00 0.  1.
          3   -1    0    0  501    0  0.00000000000E+00 -0.00000000000E+00 -0.86675373104E+02  0.86675373104E+02  0.00000000000E+00 0. -1.
         25    2    1    2    0    0 -0.20044489340E+02 -0.50028025028E+02  0.78301975836E+02  0.15709713278E+03  0.12507487705E+03 0.  0.
          5    1    3    3  502    0  0.73083558622E+01 -0.34517631096E+02  0.10796916915E+03  0.11366482661E+03  0.41800000000E+01 0. -1.
         -5    1    3    3    0  502 -0.27352845202E+02 -0.15510393932E+02 -0.29667193312E+02  0.43432306174E+02  0.41800000000E+01 0. -1.
        -11    1    1    2    0    0  0.44589740427E+01  0.64913814766E+02  0.41351766232E+02  0.77095099504E+02  0.00000000000E+00 0.  1.
         11    1    1    2    0    0  0.15585515297E+02 -0.14885789738E+02 -0.25457163484E+02  0.33355092503E+02  0.00000000000E+00 0. -1.
</event>
<event>
 7    1  0.2749315E-009  0.1196259E+03  0.7561462E-02  0.1243715E+00
         -1   -1    0    0    0  501 -0.00000000000E+00  0.00000000000E+00  0.15069305495E+02  0.15069305495E+02  0.00000000000E+00 0.  1.
          1   -1    0    0  501    0  0.00000000000E+00 -0.00000000000E+00 -0.96883647211E+03  0.96883647211E+03  0.00000000000E+00 0. -1.
         25    2    1    2    0    0 -0.43308112522E+02  0.30192535427E+02 -0.57874893079E+03  0.59446257766E+03  0.12509296360E+03 0.  0.
          5    1    3    3  502    0  0.31887870300E+02  0.48309855606E+02 -0.22915282748E+03  0.23638775172E+03  0.41800000000E+01 0.  1.
         -5    1    3    3    0  502 -0.75195982822E+02 -0.18117320180E+02 -0.34959610331E+03  0.35807482594E+03  0.41800000000E+01 0.  1.
        -11    1    1    2    0    0  0.63254892368E+02  0.48426012937E+01 -0.19902145886E+03  0.20888794432E+03  0.00000000000E+00 0.  1.
         11    1    1    2    0    0 -0.19946779846E+02 -0.35035136720E+02 -0.17599677696E+03  0.18055525562E+03  0.00000000000E+00 0. -1.
</event>
<event>
 7    1  0.2749315E-009  0.1377522E+03  0.7561462E-02  0.1216386E+00
          3   -1    0    0  501    0  0.00000000000E+00  0.00000000000E+00  0.79950308110E+02  0.79950308110E+02  0.00000000000E+00 0. -1.
         -3   -1    0    0    0  501 -0.00000000000E+00 -0.00000000000E+00 -0.43793079367E+03  0.43793079367E+03  0.00000000000E+00 0.  1.
         25    2    1    2    0    0 -0.36132532472E+02  0.11971293699E+03 -0.70690823598E+02  0.19047729721E+03  0.12509061126E+03 0.  0.
          5    1    3    3  502    0  0.20680162705E+02  0.50678717277E+02 -0.83636223457E+02  0.10004244993E+03  0.41800000000E+01 0. -1.
         -5    1    3    3    0  502 -0.56812695176E+02  0.69034219709E+02  0.12945399860E+02  0.90434847274E+02  0.41800000000E+01 0. -1.
        -11    1    1    2    0    0  0.36873455631E+02 -0.53998873490E+02 -0.53295101684E+02  0.84355781852E+02  0.00000000000E+00 0. -1.
         11    1    1    2    0    0 -0.74092315939E+00 -0.65714063496E+02 -0.23399456027E+03  0.24304802272E+03  0.00000000000E+00 0.  1.
</event>
<event>
 7    1  0.2749315E-009  0.1358654E+03  0.7561462E-02  0.1219003E+00
         -1   -1    0    0    0  501 -0.00000000000E+00  0.00000000000E+00  0.69568484123E+02  0.69568484123E+02  0.00000000000E+00 0.  1.
          1   -1    0    0  501    0  0.00000000000E+00 -0.00000000000E+00 -0.55242483145E+03  0.55242483145E+03  0.00000000000E+00 0. -1.
         25    2    1    2    0    0 -0.75801651037E+02 -0.11100200052E+03 -0.39700394369E+03  0.43740799382E+03  0.12508512034E+03 0.  0.
          5    1    3    3  502    0 -0.36582336018E+01 -0.21353514460E+02 -0.24856993861E+03  0.24954727414E+03  0.41800000000E+01 0.  1.
         -5    1    3    3    0  502 -0.72143417435E+02 -0.89648486059E+02 -0.14843400508E+03  0.18786071968E+03  0.41800000000E+01 0.  1.
        -11    1    1    2    0    0  0.57187470026E+02  0.87643515548E+02 -0.12511938382E+02  0.10539611543E+03  0.00000000000E+00 0.  1.
         11    1    1    2    0    0  0.18614181011E+02  0.23358484970E+02 -0.73340465253E+02  0.79189206325E+02  0.00000000000E+00 0. -1.
</event>
<event>
 7    1  0.2749315E-009  0.1381604E+03  0.7561462E-02  0.1215826E+00
          1   -1    0    0  501    0  0.00000000000E+00  0.00000000000E+00  0.10955323528E+04  0.10955323528E+04  0.00000000000E+00 0. -1.
         -1   -1    0    0    0  501 -0.00000000000E+00 -0.00000000000E+00 -0.26272287641E+02  0.26272287641E+02  0.00000000000E+00 0.  1.
         25    2    1    2    0    0 -0.66430441037E+02 -0.95763019071E+02  0.76195803975E+03  0.78090385990E+03  0.12508886740E+03 0.  0.
          5    1    3    3  502    0 -0.78429976327E+02 -0.92400401537E+02  0.38349434958E+03  0.40221198882E+03  0.41800000000E+01 0. -1.
         -5    1    3    3    0  502  0.11999535290E+02 -0.33626175336E+01  0.37846369017E+03  0.37869187108E+03  0.41800000000E+01 0. -1.
        -11    1    1    2    0    0  0.33020731563E+02  0.10261831645E+03  0.26797365106E+03  0.28884384232E+03  0.00000000000E+00 0.  1.
         11    1    1    2    0    0  0.33409709474E+02 -0.68552973783E+01  0.39328374396E+02  0.52056938269E+02  0.00000000000E+00 0. -1.
</event>
<event>
 7    1  0.2749315E-009  0.1347541E+03  0.7561462E-02  0.1220567E+00
         -1   -1    0    0    0  501 -0.00000000000E+00  0.00000000000E+00  0.57099296205E+03  0.57099296205E+03  0.00000000000E+00 0.  1.
          1   -1    0    0  501    0  0.00000000000E+00 -0.00000000000E+00 -0.47077712691E+02  0.47077712691E+02  0.00000000000E+00 0. -1.
         25    2    1    2    0    0 -0.19316103755E+02  0.10516160789E+03  0.16794982614E+03  0.23513092640E+03  0.12508929935E+03 0.  0.
          5    1    3    3  502    0  0.20599942231E+02  0.92014250414E+02  0.43910375025E+02  0.10409886327E+03  0.41800000000E+01 0. -1.
         -5    1    3    3    0  502 -0.39916045986E+02  0.13147357479E+02  0.12403945111E+03  0.13103206313E+03  0.41800000000E+01 0. -1.
        -11    1    1    2    0    0  0.25521717372E+02  0.19532145315E+01  0.28317677603E+02  0.38171507299E+02  0.00000000000E+00 0. -1.
         11    1    1    2    0    0 -0.62056136173E+01 -0.10711482243E+03  0.32764774562E+03  0.34476824105E+03  0.00000000000E+00 0.  1.
</event>
<event>
 7    1  0.2749315E-009  0.1078463E+03  0.7561462E-02  0.1264611E+00
         -2   -1    0    0    0  501 -0.00000000000E+00  0.00000000000E+00  0.35651845766E+02  0.35651845766E+02  0.00000000000E+00 0.  1.
          2   -1    0    0  501    0  0.00000000000E+00 -0.00000000000E+00 -0.48594204074E+03  0.48594204074E+03  0.00000000000E+00 0. -1.
         25    2    1    2    0    0  0.39096498320E+02  0.53436178549E+02 -0.18279673413E+03  0.23118592981E+03  0.12509327229E+03 0.  0.
          5    1    3    3  502    0  0.46257265819E+00 -0.27185062830E+02 -0.11677483007E+03  0.11997114217E+03  0.41800000000E+01 0. -1.
         -5    1    3    3    0  502  0.38633925661E+02  0.80621241378E+02 -0.66021904060E+02  0.11121478764E+03  0.41800000000E+01 0. -1.
        -11    1    1    2    0    0  0.20977274550E+02 -0.51187793431E+01 -0.14703288627E+02  0.26123450116E+02  0.00000000000E+00 0.  1.
         11    1    1    2    0    0 -0.60073772869E+02 -0.48317399206E+02 -0.25279017222E+03  0.26428450659E+03  0.00000000000E+00 0. -1.
</event>
<event>
 7    1  0.2749315E-009  0.1380731E+03  0.7561462E-02  0.1215946E+00
         -2   -1    0    0    0  501 -0.00000000000E+00  0.00000000000E+00  0.35747997412E+02  0.35747997412E+02  0.00000000000E+00 0.  1.
          2   -1    0    0  501    0  0.00000000000E+00 -0.00000000000E+00 -0.95576162417E+03  0.95576162417E+03  0.00000000000E+00 0. -1.
         25    2    1    2    0    0  0.24815520708E+02 -0.10210848752E+03 -0.76458847722E+03  0.78184696879E+03  0.12508872779E+03 0.  0.
          5    1    3    3  502    0  0.57426413251E+02 -0.10396386138E+03 -0.44604005527E+03  0.46160099731E+03  0.41800000000E+01 0. -1.
         -5    1    3    3    0  502 -0.32610892542E+02  0.18553738550E+01 -0.31854842195E+03  0.32024597148E+03  0.41800000000E+01 0. -1.
        -11    1    1    2    0    0 -0.47004842213E+02  0.55346993194E+02 -0.39395738233E+02  0.82612160352E+02  0.00000000000E+00 0.  1.
         11    1    1    2    0    0  0.22189321505E+02  0.46761494329E+02 -0.11602941131E+03  0.12705049244E+03  0.00000000000E+00 0. -1.
</event>
<event>
 7    1  0.2749315E-009  0.1203046E+03  0.7561462E-02  0.1242595E+00
         -2   -1    0    0    0  501 -0.00000000000E+00  0.00000000000E+00  0.16845584013E+03  0.16845584013E+03  0.00000000000E+00 0.  1.
          2   -1    0    0  501    0  0.00000000000E+00 -0.00000000000E+00 -0.87557389775E+02  0.87557389775E+02  0.00000000000E+00 0. -1.
         25    2    1    2    0    0 -0.41257192584E+02 -0.33534103516E+02  0.53933805118E+02  0.14622960441E+03  0.12509016681E+03 0.  0.
          5    1    3    3  502    0 -0.46509720644E+02 -0.78012181730E+02  0.37192305890E+02  0.98233368211E+02  0.41800000000E+01 0.  1.
         -5    1    3    3    0  502  0.52525280603E+01  0.44478078214E+02  0.16741499229E+02  0.47996236197E+02  0.41800000000E+01 0.  1.
        -11    1    1    2    0    0  0.69531035944E+02  0.15710041106E+02  0.90321645164E+01  0.71853673162E+02  0.00000000000E+00 0.  1.
         11    1    1    2    0    0 -0.28273843361E+02  0.17824062410E+02  0.17932480717E+02  0.37929952331E+02  0.00000000000E+00 0. -1.
</event>
<event>
 7    1  0.2749315E-009  0.8320016E+02  0.7561462E-02  0.1320208E+00
          1   -1    0    0  501    0  0.00000000000E+00  0.00000000000E+00  0.77036126941E+02  0.77036126941E+02  0.00000000000E+00 0. -1.
         -1   -1    0    0    0  501 -0.00000000000E+00 -0.00000000000E+00 -0.46369187578E+03  0.46369187578E+03  0.00000000000E+00 0.  1.
         25    2    1    2    0    0  0.57193692526E+02  0.67786350794E+01 -0.40782066152E+03  0.43044430277E+03  0.12509011739E+03 0.  0.
          5    1    3    3  502    0  0.17699411709E+02  0.57424133911E+01 -0.38326593507E+03  0.38374013847E+03  0.41800000000E+01 0. -1.
         -5    1    3    3    0  502  0.39494280817E+02  0.10362216883E+01 -0.24554726453E+02  0.46704164309E+02  0.41800000000E+01 0. -1.
        -11    1    1    2    0    0 -0.72711785461E+01  0.39117028590E+02  0.13610836633E+02  0.42050764999E+02  0.00000000000E+00 0.  1.
         11    1    1    2    0    0 -0.49922513979E+02 -0.45895663670E+02  0.75540760531E+01  0.68232934941E+02  0.00000000000E+00 0. -1.
</event>
<event>
 7    1  0.2749315E-009  0.1280047E+03  0.7561462E-02  0.1230447E+00
         -4   -1    0    0    0  501 -0.00000000000E+00  0.00000000000E+00  0.13757440028E+03  0.13757440028E+03  0.00000000000E+00 0.  1.
          4   -1    0    0  501    0  0.00000000000E+00 -0.00000000000E+00 -0.18586625475E+03  0.18586625475E+03  0.00000000000E+00 0. -1.
         25    2    1    2    0    0 -0.95664493945E+02  0.11871612183E+02  0.39644537470E+02  0.16282474707E+03  0.12509028071E+03 0.  0.
          5    1    3    3  502    0 -0.49051974948E+02 -0.51373959006E+02 -0.67722984353E+01  0.71475284794E+02  0.41800000000E+01 0. -1.
         -5    1    3    3    0  502 -0.46612518997E+02  0.63245571189E+02  0.46416835906E+02  0.91349462274E+02  0.41800000000E+01 0. -1.
        -11    1    1    2    0    0  0.65437787024E+02  0.13379559368E+02 -0.28461039144E+01  0.66852201811E+02  0.00000000000E+00 0.  1.
         11    1    1    2    0    0  0.30226706920E+02 -0.25251171550E+02 -0.85090288027E+02  0.93763706158E+02  0.00000000000E+00 0. -1.
</event>
<event>
 7    1  0.2749315E-009  0.1628153E+03  0.7561462E-02  0.1185555E+00
          1   -1    0    0  501    0  0.00000000000E+00  0.00000000000E+00  0.17006454078E+03  0.17006454078E+03  0.00000000000E+00 0. -1.
         -1   -1    0    0    0  501 -0.00000000000E+00 -0.00000000000E+00 -0.22439009182E+03  0.22439009182E+03  0.00000000000E+00 0.  1.
         25    2    1    2    0    0  0.12832661406E+03  0.54742358863E+02  0.55175504533E+02  0.19533269708E+03  0.12508429364E+03 0.  0.
          5    1    3    3  502    0  0.36030927417E+02  0.72449297929E+02 -0.89034692895E+01  0.81509954401E+02  0.41800000000E+01 0.  1.
         -5    1    3    3    0  502  0.92295686645E+02 -0.17706939066E+02  0.64078973822E+02  0.11382274268E+03  0.41800000000E+01 0.  1.
        -11    1    1    2    0    0 -0.79415453890E+02 -0.31987122055E+01 -0.99527664230E+02  0.12736876392E+03  0.00000000000E+00 0.  1.
         11    1    1    2    0    0 -0.48911160172E+02 -0.51543646658E+02 -0.99733913411E+01  0.71753171602E+02  0.00000000000E+00 0. -1.
</event>
<event>
 7    1  0.2749315E-009  0.9078281E+02  0.7561462E-02  0.1300967E+00
          2   -1    0    0  501    0  0.00000000000E+00  0.00000000000E+00  0.43332452342E+03  0.43332452342E+03  0.00000000000E+00 0. -1.
         -2   -1    0    0    0  501 -0.00000000000E+00 -0.00000000000E+00 -0.47529354810E+02  0.47529354810E+02  0.00000000000E+00 0.  1.
         25    2    1    2    0    0 -0.61245583709E+02 -0.21956785146E+02  0.30620953650E+03  0.33711395401E+03  0.12509362815E+03 0.  0.
          5    1    3    3  502    0 -0.22170364033E+02 -0.10313995872E+02  0.29300442533E+03  0.29405266402E+03  0.41800000000E+01 0. -1.
         -5    1    3    3    0  502 -0.39075219675E+02 -0.11642789273E+02  0.13205111172E+02  0.43061289992E+02  0.41800000000E+01 0. -1.
        -11    1    1    2    0    0 -0.20301029405E+02  0.27334424099E+02  0.77209090635E+01  0.34912962815E+02  0.00000000000E+00 0.  1.
         11    1    1    2    0    0  0.81546613114E+02 -0.53776389536E+01  0.71864723049E+02  0.10882696141E+03  0.00000000000E+00 0. -1.
</event>
<event>
 7    1  0.2749315E-009  0.1471012E+03  0.7561462E-02  0.1204081E+00
          1   -1    0    0  501    0  0.00000000000E+00  0.00000000000E+00  0.15252617292E+04  0.15252617292E+04  0.00000000000E+00 0. -1.
         -1   -1    0    0    0  501 -0.00000000000E+00 -0.00000000000E+00 -0.17684695681E+02  0.17684695681E+02  0.00000000000E+00 0.  1.
         25    2    1    2    0    0  0.75829465441E+02  0.95713892336E+02  0.72815345576E+03  0.74884272587E+03  0.12508683359E+03 0.  0.
          5    1    3    3  502    0 -0.88319409741E+01 -0.47268411614E+01  0.31717747921E+03  0.31736315465E+03  0.41800000000E+01 0. -1.
         -5    1    3    3    0  502  0.84661406416E+02  0.10044073350E+03  0.41097597655E+03  0.43147957122E+03  0.41800000000E+01 0. -1.
        -11    1    1    2    0    0 -0.91963682839E+02 -0.52731913534E+02  0.55447209064E+03  0.56451507772E+03  0.00000000000E+00 0. -1.
         11    1    1    2    0    0  0.16134217398E+02 -0.42981978802E+02  0.22495148710E+03  0.22958862128E+03  0.00000000000E+00 0.  1.
</event>
<event>
 7    1  0.2749315E-009  0.1092491E+03  0.7561462E-02  0.1261967E+00
          2   -1    0    0  501    0  0.00000000000E+00  0.00000000000E+00  0.18961957922E+04  0.18961957922E+04  0.00000000000E+00 0. -1.
         -2   -1    0    0    0  501 -0.00000000000E+00 -0.00000000000E+00 -0.10313797243E+02  0.10313797243E+02  0.00000000000E+00 0.  1.
         25    2    1    2    0    0  0.55176843351E+02  0.10370657421E+01  0.15111740024E+04  0.15173463184E+04  0.12508966749E+03 0.  0.
          5    1    3    3  502    0 -0.24717062864E+02  0.19252376273E+02  0.13191463177E+03  0.13564855202E+03  0.41800000000E+01 0.  1.
         -5    1    3    3    0  502  0.79893906215E+02 -0.18215310531E+02  0.13792593706E+04  0.13816977664E+04  0.41800000000E+01 0.  1.
        -11    1    1    2    0    0 -0.75298299664E+02  0.17694006454E+02  0.28764055857E+03  0.29785903164E+03  0.00000000000E+00 0.  1.
         11    1    1    2    0    0  0.20121456313E+02 -0.18731072196E+02  0.87067433988E+02  0.91304239393E+02  0.00000000000E+00 0. -1.
</event>
<event>
 7    1  0.2749315E-009  0.1131332E+03  0.7561462E-02  0.1254875E+00
          2   -1    0    0  501    0  0.00000000000E+00  0.00000000000E+00  0.30058850457E+03  0.30058850457E+03  0.00000000000E+00 0. -1.
         -2   -1    0    0    0  501 -0.00000000000E+00 -0.00000000000E+00 -0.59378175732E+02  0.59378175732E+02  0.00000000000E+00 0.  1.
         25    2    1    2    0    0 -0.51861198537E+02 -0.57510313990E+02  0.13779674805E+03  0.20156817810E+03  0.12507904108E+03 0.  0.
          5    1    3    3  502    0 -0.51422641223E+02  0.12795206177E+02  0.78088502277E+01  0.53725746839E+02  0.41800000000E+01 0.  1.
         -5    1    3    3    0  502 -0.43855731377E+00 -0.70305520167E+02  0.12998789783E+03  0.14784243126E+03  0.41800000000E+01 0.  1.
        -11    1    1    2    0    0  0.66969042529E+02  0.34982470215E+02  0.32083596917E+02  0.82085218345E+02  0.00000000000E+00 0. -1.
         11    1    1    2    0    0 -0.15107843992E+02  0.22527843775E+02  0.71329983866E+02  0.76313283861E+02  0.00000000000E+00 0.  1.
</event>
<event>
 7    1  0.2749315E-009  0.3694423E+03  0.7561462E-02  0.1054906E+00
          1   -1    0    0  501    0  0.00000000000E+00  0.00000000000E+00  0.31811992173E+03  0.31811992173E+03  0.00000000000E+00 0. -1.
         -1   -1    0    0    0  501 -0.00000000000E+00 -0.00000000000E+00 -0.65501058222E+03  0.65501058222E+03  0.00000000000E+00 0.  1.
         25    2    1    2    0    0 -0.20635851591E+03  0.29156923148E+03  0.10958934305E+03  0.39402249999E+03  0.12508977796E+03 0.  0.
          5    1    3    3  502    0 -0.73832492400E+02  0.20426977918E+03  0.40956242316E+02  0.22107072579E+03  0.41800000000E+01 0.  1.
         -5    1    3    3    0  502 -0.13252602351E+03  0.87299452306E+02  0.68633100733E+02  0.17295177419E+03  0.41800000000E+01 0.  1.
        -11    1    1    2    0    0  0.11812418851E+03 -0.21826045274E+03 -0.25455136461E+03  0.35550998068E+03  0.00000000000E+00 0.  1.
         11    1    1    2    0    0  0.88234327394E+02 -0.73308778746E+02 -0.19192863893E+03  0.22359802328E+03  0.00000000000E+00 0. -1.
</event>
<event>
 7    1  0.2749315E-009  0.9522002E+02  0.7561462E-02  0.1290681E+00
         -1   -1    0    0    0  501 -0.00000000000E+00  0.00000000000E+00  0.91973102024E+02  0.91973102024E+02  0.00000000000E+00 0.  1.
          1   -1    0    0  501    0  0.00000000000E+00 -0.00000000000E+00 -0.14755860570E+03  0.14755860570E+03  0.00000000000E+00 0. -1.
         25    2    1    2    0    0 -0.32728961194E+02  0.19151332940E+02 -0.12957174116E+02  0.13135908404E+03  0.12509741062E+03 0.  0.
          5    1    3    3  502    0  0.29213102640E+02  0.49585364140E+02 -0.21740159109E+02  0.61662149012E+02  0.41800000000E+01 0. -1.
         -5    1    3    3    0  502 -0.61942063834E+02 -0.30434031199E+02  0.87829849924E+01  0.69696935029E+02  0.41800000000E+01 0. -1.
        -11    1    1    2    0    0  0.23507284630E+02 -0.36809354753E+02 -0.64940766765E+02  0.78261256161E+02  0.00000000000E+00 0. -1.
         11    1    1    2    0    0  0.92216765647E+01  0.17658021812E+02  0.22312437204E+02  0.29911367521E+02  0.00000000000E+00 0.  1.
</event>
<event>
 7    1  0.2749315E-009  0.5574853E+02  0.7561462E-02  0.1416592E+00
         -2   -1    0    0    0  501 -0.00000000000E+00  0.00000000000E+00  0.46419801649E+03  0.46419801649E+03  0.00000000000E+00 0. -1.
          2   -1    0    0  501    0  0.00000000000E+00 -0.00000000000E+00 -0.28687105618E+02  0.28687105618E+02  0.00000000000E+00 0.  1.
         25    2    1    2    0    0 -0.32588936762E+00  0.40376066009E+02  0.22973578139E+03  0.26467973520E+03  0.12508597070E+03 0.  0.
          5    1    3    3  502    0 -0.13916718246E+02  0.37943195106E+02  0.67014895308E+01  0.41179405818E+02  0.41800000000E+01 0.  1.
         -5    1    3    3    0  502  0.13590828878E+02  0.24328709029E+01  0.22303429186E+03  0.22350032939E+03  0.41800000000E+01 0.  1.
        -11    1    1    2    0    0 -0.12444858058E+02  0.16164383740E+01 -0.45504232368E+01  0.13348921931E+02  0.00000000000E+00 0.  1.
         11    1    1    2    0    0  0.12770747425E+02 -0.41992504383E+02  0.21032555272E+03  0.21485646498E+03  0.00000000000E+00 0. -1.
</event>
<event>
 7    1  0.2749315E-009  0.9482693E+02  0.7561462E-02  0.1291566E+00
         -2   -1    0    0    0  501 -0.00000000000E+00  0.00000000000E+00  0.30373478711E+02  0.30373478711E+02  0.00000000000E+00 0.  1.
          2   -1    0    0  501    0  0.00000000000E+00 -0.00000000000E+00 -0.49823812727E+03  0.49823812727E+03  0.00000000000E+00 0. -1.
         25    2    1    2    0    0 -0.40250856943E+02  0.39715163317E+02 -0.29613474275E+03  0.32640767120E+03  0.12509498899E+03 0.  0.
          5    1    3    3  502    0  0.26084334719E+01 -0.13942885456E+02  0.64254831107E+01  0.16123498790E+02  0.41800000000E+01 0. -1.
         -5    1    3    3    0  502 -0.42859290415E+02  0.53658048773E+02 -0.30256022586E+03  0.31028417241E+03  0.41800000000E+01 0. -1.
        -11    1    1    2    0    0 -0.62758420332E+01 -0.56316603375E+02 -0.10306863219E+03  0.11761840397E+03  0.00000000000E+00 0. -1.
         11    1    1    2    0    0  0.46526698977E+02  0.16601440058E+02 -0.68661273615E+02  0.84585530820E+02  0.00000000000E+00 0.  1.
</event>
<event>
 7    1  0.2749315E-009  0.1016996E+03  0.7561462E-02  0.1276762E+00
         -2   -1    0    0    0  501 -0.00000000000E+00  0.00000000000E+00  0.18407362013E+03  0.18407362013E+03  0.00000000000E+00 0. -1.
          2   -1    0    0  501    0  0.00000000000E+00 -0.00000000000E+00 -0.10480629688E+03  0.10480629688E+03  0.00000000000E+00 0.  1.
         25    2    1    2    0    0 -0.66936329266E+02 -0.17650937249E+02  0.98570071928E+02  0.17365184484E+03  0.12508747490E+03 0.  0.
          5    1    3    3  502    0 -0.39086707771E+02  0.34282060731E+02  0.10190815795E+03  0.11448045890E+03  0.41800000000E+01 0.  1.
         -5    1    3    3    0  502 -0.27849621496E+02 -0.51932997981E+02 -0.33380860208E+01  0.59171385948E+02  0.41800000000E+01 0.  1.
        -11    1    1    2    0    0  0.59530189685E+00  0.25368318837E+02  0.24567948061E+02  0.35319825267E+02  0.00000000000E+00 0. -1.
         11    1    1    2    0    0  0.66341027370E+02 -0.77173815873E+01 -0.43870696737E+02  0.79908246903E+02  0.00000000000E+00 0.  1.
</event>
<event>
 7    1  0.2749315E-009  0.9319862E+02  0.7561462E-02  0.1295286E+00
         -2   -1    0    0    0  501 -0.00000000000E+00  0.00000000000E+00  0.10043572014E+03  0.10043572014E+03  0.00000000000E+00 0.  1.
          2   -1    0    0  501    0  0.00000000000E+00 -0.00000000000E+00 -0.17727394622E+03  0.17727394622E+03  0.00000000000E+00 0. -1.
         25    2    1    2    0    0 -0.20507415771E+02  0.16890140299E+02 -0.98468249928E+02  0.16139814303E+03  0.12509010108E+03 0.  0.
          5    1    3    3  502    0 -0.43897926129E+02  0.45075948295E+02 -0.78210626539E+01  0.63541407398E+02  0.41800000000E+01 0.  1.
         -5    1    3    3    0  502  0.23390510358E+02 -0.28185807996E+02 -0.90647187274E+02  0.97856735629E+02  0.41800000000E+01 0.  1.
        -11    1    1    2    0    0  0.53726614159E+01 -0.49885042132E+02  0.49549410480E+02  0.70516147074E+02  0.00000000000E+00 0.  1.
         11    1    1    2    0    0  0.15134754355E+02  0.32994901833E+02 -0.27919386630E+02  0.45795376253E+02  0.00000000000E+00 0. -1.
</event>
<event>
 7    1  0.2749315E-009  0.1138855E+03  0.7561462E-02  0.1253539E+00
         -1   -1    0    0    0  501 -0.00000000000E+00  0.00000000000E+00  0.30475898275E+02  0.30475898275E+02  0.00000000000E+00 0.  1.
          1   -1    0    0  501    0  0.00000000000E+00 -0.00000000000E+00 -0.71633737759E+03  0.71633737759E+03  0.00000000000E+00 0. -1.
         25    2    1    2    0    0  0.14295014395E+02 -0.54609184891E+02 -0.57685885067E+03  0.59295765067E+03  0.12508449695E+03 0.  0.
          5    1    3    3  502    0 -0.94680330806E+01 -0.82212560716E+02 -0.51017335640E+03  0.51685866035E+03  0.41800000000E+01 0. -1.
         -5    1    3    3    0  502  0.23763047476E+02  0.27603375825E+02 -0.66685494267E+02  0.76098990321E+02  0.41800000000E+01 0. -1.
        -11    1    1    2    0    0  0.33813624014E+02  0.49391035271E+02 -0.54242649968E+02  0.80778094863E+02  0.00000000000E+00 0.  1.
         11    1    1    2    0    0 -0.48108638409E+02  0.52181496193E+01 -0.54759978674E+02  0.73077530332E+02  0.00000000000E+00 0. -1.
</event>
<event>
 7    1  0.2749315E-009  0.1039219E+03  0.7561462E-02  0.1272259E+00
         -1   -1    0    0    0  501 -0.00000000000E+00  0.00000000000E+00  0.30753986115E+03  0.30753986115E+03  0.00000000000E+00 0.  1.
          1   -1    0    0  501    0  0.00000000000E+00 -0.00000000000E+00 -0.51873975634E+02  0.51873975634E+02  0.00000000000E+00 0. -1.
         25    2    1    2    0    0  0.16547908318E+02  0.42099583306E+02  0.77605676825E+02  0.15400186100E+03  0.12509086271E+03 0.  0.
          5    1    3    3  502    0  0.63146896918E+02 -0.47018526649E+01  0.20779470498E+02  0.66774971382E+02  0.41800000000E+01 0.  1.
         -5    1    3    3    0  502 -0.46598988600E+02  0.46801435971E+02  0.56826206326E+02  0.87226889621E+02  0.41800000000E+01 0.  1.
        -11    1    1    2    0    0 -0.72750025768E+01 -0.58723566219E+02  0.17668130475E+03  0.18632677300E+03  0.00000000000E+00 0.  1.
         11    1    1    2    0    0 -0.92729057412E+01  0.16623982913E+02  0.13789039425E+01  0.19085202772E+02  0.00000000000E+00 0. -1.
</event>
<event>
 7    1  0.2749315E-009  0.1340004E+03  0.7561462E-02  0.1221638E+00
         -1   -1    0    0    0  501 -0.00000000000E+00  0.00000000000E+00  0.41950467130E+02  0.41950467130E+02  0.00000000000E+00 0.  1.
          1   -1    0    0  501    0  0.00000000000E+00 -0.00000000000E+00 -0.63655157510E+03  0.63655157510E+03  0.00000000000E+00 0. -1.
         25    2    1    2    0    0  0.37425720001E+01 -0.11399280507E+03 -0.22267715498E+03  0.27971583602E+03  0.12508983619E+03 0.  0.
          5    1    3    3  502    0  0.29733923270E+02 -0.96896603869E+02 -0.22641808460E+03  0.24810417060E+03  0.41800000000E+01 0.  1.
         -5    1    3    3    0  502 -0.25991351270E+02 -0.17096201200E+02  0.37409296206E+01  0.31611665422E+02  0.41800000000E+01 0. -1.
        -11    1    1    2    0    0 -0.26811532979E+02  0.99482534673E+01 -0.33851798607E+02  0.44314448171E+02  0.00000000000E+00 0. -1.
         11    1    1    2    0    0  0.23068960979E+02  0.10404455160E+03 -0.33807215438E+03  0.35447175804E+03  0.00000000000E+00 0.  1.
</event>
<event>
 7    1  0.2749315E-009  0.6260374E+02  0.7561462E-02  0.1387219E+00
          1   -1    0    0  501    0  0.00000000000E+00  0.00000000000E+00  0.60730150360E+02  0.60730150360E+02  0.00000000000E+00 0. -1.
         -1   -1    0    0    0  501 -0.00000000000E+00 -0.00000000000E+00 -0.22174752755E+03  0.22174752755E+03  0.00000000000E+00 0.  1.
         25    2    1    2    0    0  0.95947696542E+01 -0.25559438957E+01 -0.13383338518E+03  0.18345995846E+03  0.12509032303E+03 0.  0.
          5    1    3    3  502    0  0.42716423813E+01  0.14753476905E+02  0.21648698372E+02  0.26870998319E+02  0.41800000000E+01 0.  1.
         -5    1    3    3    0  502  0.53231272729E+01 -0.17309420801E+02 -0.15548208355E+03  0.15658896014E+03  0.41800000000E+01 0.  1.
        -11    1    1    2    0    0  0.39826916805E+02  0.90928449486E+01 -0.27356233013E+02  0.49165298901E+02  0.00000000000E+00 0. -1.
         11    1    1    2    0    0 -0.49421686459E+02 -0.65369010529E+01  0.17224099994E+00  0.49852420551E+02  0.00000000000E+00 0.  1.
</event>
<event>
 7    1  0.2749315E-009  0.1346053E+03  0.7561462E-02  0.1220778E+00
          1   -1    0    0  501    0  0.00000000000E+00  0.00000000000E+00  0.39703927934E+03  0.39703927934E+03  0.00000000000E+00 0. -1.
         -1   -1    0    0    0  501 -0.00000000000E+00 -0.00000000000E+00 -0.52567649867E+02  0.52567649867E+02  0.00000000000E+00 0.  1.
         25    2    1    2    0    0 -0.69896280557E+02  0.63729297395E+02  0.19222022871E+03  0.24808163737E+03  0.12509583962E+03 0.  0.
          5    1    3    3  502    0 -0.63834426171E+02 -0.11960146639E+02  0.14403264379E+03  0.15805300994E+03  0.41800000000E+01 0.  1.
         -5    1    3    3    0  502 -0.60618543859E+01  0.75689444035E+02  0.48187584919E+02  0.90028627431E+02  0.41800000000E+01 0.  1.
        -11    1    1    2    0    0 -0.10258150391E+02  0.13380902858E+02  0.62431073142E+01  0.17979282513E+02  0.00000000000E+00 0.  1.
         11    1    1    2    0    0  0.80154430948E+02 -0.77110200254E+02  0.14600829344E+03  0.18354600932E+03  0.00000000000E+00 0. -1.
</event>
<event>
 7    1  0.2749315E-009  0.6846055E+02  0.7561462E-02  0.1365408E+00
          1   -1    0    0  501    0  0.00000000000E+00  0.00000000000E+00  0.13082642702E+04  0.13082642702E+04  0.00000000000E+00 0. -1.
         -1   -1    0    0    0  501 -0.00000000000E+00 -0.00000000000E+00 -0.16257233344E+02  0.16257233344E+02  0.00000000000E+00 0.  1.
         25    2    1    2    0    0 -0.32882086108E+01 -0.42899042031E+02  0.10916744932E+04  0.10996597110E+04  0.12508853197E+03 0.  0.
          5    1    3    3  502    0 -0.66653433774E+00 -0.41152606231E+02  0.10933741977E+04  0.10941565656E+04  0.41800000000E+01 0. -1.
         -5    1    3    3    0  502 -0.26216742731E+01 -0.17464358001E+01 -0.16997045784E+01  0.55031454325E+01  0.41800000000E+01 0. -1.
        -11    1    1    2    0    0  0.24378636686E+02 -0.15049789557E+02  0.21864406998E+02  0.36039788925E+02  0.00000000000E+00 0.  1.
         11    1    1    2    0    0 -0.21090428075E+02  0.57948831588E+02  0.17846813669E+03  0.18882200363E+03  0.00000000000E+00 0. -1.
</event>
<event>
 7    1  0.2749315E-009  0.7871229E+02  0.7561462E-02  0.1332746E+00
         -2   -1    0    0    0  501 -0.00000000000E+00  0.00000000000E+00  0.16821921066E+03  0.16821921066E+03  0.00000000000E+00 0.  1.
          2   -1    0    0  501    0  0.00000000000E+00 -0.00000000000E+00 -0.77966639276E+02  0.77966639276E+02  0.00000000000E+00 0. -1.
         25    2    1    2    0    0  0.91683243424E+00  0.20464689878E+02  0.57912742378E+02  0.13935933973E+03  0.12508995054E+03 0.  0.
          5    1    3    3  502    0  0.50987918852E+02 -0.18132330161E+02  0.11448923928E+01  0.54289340064E+02  0.41800000000E+01 0. -1.
         -5    1    3    3    0  502 -0.50071086418E+02  0.38597020038E+02  0.56767849985E+02  0.85069999664E+02  0.41800000000E+01 0. -1.
        -11    1    1    2    0    0 -0.11470456423E+02 -0.25599759713E+02 -0.31347695375E+02  0.42066579053E+02  0.00000000000E+00 0. -1.
         11    1    1    2    0    0  0.10553623989E+02  0.51350698357E+01  0.63687524380E+02  0.64759931155E+02  0.00000000000E+00 0.  1.
</event>
<event>
 7    1  0.2749315E-009  0.1084424E+03  0.7561462E-02  0.1263482E+00
          2   -1    0    0  501    0  0.00000000000E+00  0.00000000000E+00  0.65134447695E+03  0.65134447695E+03  0.00000000000E+00 0. -1.
         -2   -1    0    0    0  501 -0.00000000000E+00 -0.00000000000E+00 -0.28328420945E+02  0.28328420945E+02  0.00000000000E+00 0.  1.
         25    2    1    2    0    0  0.43234540284E+02  0.66672681483E+02  0.38244473140E+03  0.41015362369E+03  0.12509016954E+03 0.  0.
          5    1    3    3  502    0  0.54827853805E+02  0.67832427290E+01  0.31196954170E+03  0.31685102696E+03  0.41800000000E+01 0.  1.
         -5    1    3    3    0  502 -0.11593313521E+02  0.59889438754E+02  0.70475189702E+02  0.93302596729E+02  0.41800000000E+01 0.  1.
        -11    1    1    2    0    0 -0.21654555383E+02  0.76333581621E+01  0.78397131770E+01  0.24262090354E+02  0.00000000000E+00 0.  1.
         11    1    1    2    0    0 -0.21579984902E+02 -0.74306039645E+02  0.23273161143E+03  0.24525718386E+03  0.00000000000E+00 0. -1.
</event>
<event>
 7    1  0.2749315E-009  0.2365533E+03  0.7561462E-02  0.1122110E+00
         -1   -1    0    0    0  501 -0.00000000000E+00  0.00000000000E+00  0.69781906657E+03  0.69781906657E+03  0.00000000000E+00 0.  1.
          1   -1    0    0  501    0  0.00000000000E+00 -0.00000000000E+00 -0.12530091206E+03  0.12530091206E+03  0.00000000000E+00 0. -1.
         25    2    1    2    0    0 -0.17802459151E+03 -0.15095702687E+03  0.90998368116E+02  0.28001299505E+03  0.12508315336E+03 0.  0.
          5    1    3    3  502    0 -0.17636472339E+03 -0.15295303490E+03  0.11163133624E+03  0.25880141841E+03  0.41800000000E+01 0.  1.
         -5    1    3    3    0  502 -0.16598681194E+01  0.19960080224E+01 -0.20632968121E+02  0.21211576643E+02  0.41800000000E+01 0.  1.
        -11    1    1    2    0    0  0.54855383792E+02  0.32231418317E+02  0.23205358097E+03  0.24061762591E+03  0.00000000000E+00 0.  1.
         11    1    1    2    0    0  0.12316920772E+03  0.11872560856E+03  0.24946620543E+03  0.30248935768E+03  0.00000000000E+00 0. -1.
</event>
<event>
 7    1  0.2749315E-009  0.1705263E+03  0.7561462E-02  0.1177300E+00
         -1   -1    0    0    0  501 -0.00000000000E+00  0.00000000000E+00  0.40142013556E+03  0.40142013556E+03  0.00000000000E+00 0.  1.
          1   -1    0    0  501    0  0.00000000000E+00 -0.00000000000E+00 -0.14858665504E+03  0.14858665504E+03  0.00000000000E+00 0. -1.
         25    2    1    2    0    0  0.83371527334E+02  0.12448458708E+03 -0.48805082244E+02  0.20119815277E+03  0.12510610151E+03 0.  0.
          5    1    3    3  502    0  0.16775416196E+02  0.90275246990E+02 -0.78177082689E+02  0.12066550238E+03  0.41800000000E+01 0. -1.
         -5    1    3    3    0  502  0.66596111138E+02  0.34209340088E+02  0.29372000445E+02  0.80532650386E+02  0.41800000000E+01 0. -1.
        -11    1    1    2    0    0  0.16408794318E+02 -0.40617008708E+02  0.92998488709E+02  0.10279936201E+03  0.00000000000E+00 0.  1.
         11    1    1    2    0    0 -0.99780321652E+02 -0.83867578370E+02  0.20864007405E+03  0.24600927582E+03  0.00000000000E+00 0. -1.
</event>
<event>
 7    1  0.2749315E-009  0.1036270E+03  0.7561462E-02  0.1272849E+00
         -2   -1    0    0    0  501 -0.00000000000E+00  0.00000000000E+00  0.46327323624E+02  0.46327323624E+02  0.00000000000E+00 0.  1.
          2   -1    0    0  501    0  0.00000000000E+00 -0.00000000000E+00 -0.25990929867E+03  0.25990929867E+03  0.00000000000E+00 0. -1.
         25    2    1    2    0    0 -0.30173850413E+01 -0.20491234559E+02 -0.12636511061E+03  0.17901124114E+03  0.12509151836E+03 0.  0.
          5    1    3    3  502    0  0.45319680537E+02 -0.45233824168E+02 -0.99214545074E+02  0.11815655144E+03  0.41800000000E+01 0. -1.
         -5    1    3    3    0  502 -0.48337065579E+02  0.24742589609E+02 -0.27150565541E+02  0.60854689700E+02  0.41800000000E+01 0. -1.
        -11    1    1    2    0    0 -0.37496270830E+02  0.28784542210E+02 -0.64730669389E+02  0.80153476256E+02  0.00000000000E+00 0. -1.
         11    1    1    2    0    0  0.40513655871E+02 -0.82933076514E+01 -0.22486195046E+02  0.47071904907E+02  0.00000000000E+00 0.  1.
</event>
<event>
 7    1  0.2749315E-009  0.2894858E+03  0.7561462E-02  0.1090618E+00
          2   -1    0    0  501    0  0.00000000000E+00  0.00000000000E+00  0.17136070767E+03  0.17136070767E+03  0.00000000000E+00 0. -1.
         -2   -1    0    0    0  501 -0.00000000000E+00 -0.00000000000E+00 -0.56515672746E+03  0.56515672746E+03  0.00000000000E+00 0.  1.
         25    2    1    2    0    0 -0.10499256903E+03  0.26277449761E+03 -0.11863233079E+03  0.33135300239E+03  0.12508919273E+03 0.  0.
          5    1    3    3  502    0 -0.94559226811E+02  0.12068873777E+03 -0.10964875820E+03  0.18854055631E+03  0.41800000000E+01 0.  1.
         -5    1    3    3    0  502 -0.10433342224E+02  0.14208575984E+03 -0.89835725902E+01  0.14281244608E+03  0.41800000000E+01 0.  1.
        -11    1    1    2    0    0  0.72038044663E+02 -0.18903749696E+03 -0.13439543485E+03  0.24287195813E+03  0.00000000000E+00 0. -1.
         11    1    1    2    0    0  0.32954524372E+02 -0.73737000649E+02 -0.14076825414E+03  0.16229247461E+03  0.00000000000E+00 0.  1.
</event>
<event>
 7    1  0.2749315E-009  0.9204579E+02  0.7561462E-02  0.1297972E+00
         -2   -1    0    0    0  501 -0.00000000000E+00  0.00000000000E+00  0.22492949348E+02  0.22492949348E+02  0.00000000000E+00 0.  1.
          2   -1    0    0  501    0  0.00000000000E+00 -0.00000000000E+00 -0.56612544002E+03  0.56612544002E+03  0.00000000000E+00 0. -1.
         25    2    1    2    0    0  0.99858068116E+01 -0.55711956651E+01 -0.38804018371E+03  0.40786437321E+03  0.12508960068E+03 0.  0.
          5    1    3    3  502    0  0.51401438409E+02 -0.31909600068E+02 -0.11106852593E+03  0.12654651437E+03  0.41800000000E+01 0. -1.
         -5    1    3    3    0  502 -0.41415631597E+02  0.26338404403E+02 -0.27697165778E+03  0.28131785883E+03  0.41800000000E+01 0. -1.
        -11    1    1    2    0    0  0.22045773737E+01 -0.33339450606E+02 -0.12604524050E+03  0.13039854976E+03  0.00000000000E+00 0. -1.
         11    1    1    2    0    0 -0.12190384185E+02  0.38910646271E+02 -0.29547066469E+02  0.50355466404E+02  0.00000000000E+00 0.  1.
</event>
<event>
 7    1  0.2749315E-009  0.1502750E+03  0.7561462E-02  0.1200136E+00
         -2   -1    0    0    0  501 -0.00000000000E+00  0.00000000000E+00  0.18371702501E+02  0.18371702501E+02  0.00000000000E+00 0. -1.
          2   -1    0    0  501    0  0.00000000000E+00 -0.00000000000E+00 -0.16969860886E+04  0.16969860886E+04  0.00000000000E+00 0.  1.
         25    2    1    2    0    0 -0.61092753147E+02 -0.12056170923E+03 -0.10110635682E+04  0.10276986413E+04  0.12509000080E+03 0.  0.
          5    1    3    3  502    0 -0.42716633716E+02 -0.39487651797E+02 -0.77862588197E+03  0.78080709648E+03  0.41800000000E+01 0.  1.
         -5    1    3    3    0  502 -0.18376119430E+02 -0.81074057435E+02 -0.23243768619E+03  0.24689154485E+03  0.41800000000E+01 0.  1.
        -11    1    1    2    0    0  0.74871010415E+02  0.12394629700E+03 -0.64470001155E+03  0.66076202799E+03  0.00000000000E+00 0.  1.
         11    1    1    2    0    0 -0.13778257268E+02 -0.33845877698E+01 -0.22850806385E+02  0.26897121782E+02  0.00000000000E+00 0. -1.
</event>
<event>
 7    1  0.2749315E-009  0.7485263E+02  0.7561462E-02  0.1344328E+00
         -2   -1    0    0    0  501 -0.00000000000E+00  0.00000000000E+00  0.78178371183E+02  0.78178371183E+02  0.00000000000E+00 0.  1.
          2   -1    0    0  501    0  0.00000000000E+00 -0.00000000000E+00 -0.16975530346E+03  0.16975530346E+03  0.00000000000E+00 0. -1.
         25    2    1    2    0    0  0.15179669764E+02 -0.37707217111E+02 -0.52420727114E+02  0.14158701858E+03  0.12508674831E+03 0.  0.
          5    1    3    3  502    0 -0.17927967553E+02 -0.23191698348E+02 -0.86685721090E+02  0.91603239755E+02  0.41800000000E+01 0.  1.
         -5    1    3    3    0  502  0.33107637317E+02 -0.14515518764E+02  0.34264993976E+02  0.49983778827E+02  0.41800000000E+01 0.  1.
        -11    1    1    2    0    0 -0.39405969423E+02  0.62591336210E+00  0.95092410952E+01  0.40541927185E+02  0.00000000000E+00 0.  1.
         11    1    1    2    0    0  0.24226299659E+02  0.37081303749E+02 -0.48665446258E+02  0.65804728875E+02  0.00000000000E+00 0. -1.
</event>
<event>
 7    1  0.2749315E-009  0.1033733E+03  0.7561462E-02  0.1273358E+00
         -1   -1    0    0    0  501 -0.00000000000E+00  0.00000000000E+00  0.33000055852E+03  0.33000055852E+03  0.00000000000E+00 0.  1.
          1   -1    0    0  501    0  0.00000000000E+00 -0.00000000000E+00 -0.85993617860E+02  0.85993617860E+02  0.00000000000E+00 0. -1.
         25    2    1    2    0    0  0.21586773015E+01  0.66901070274E+02  0.26678794641E+03  0.30216412077E+03  0.12508770698E+03 0.  0.
          5    1    3    3  502    0  0.20784600469E+02  0.97670162980E+02  0.22883598708E+03  0.24970951471E+03  0.41800000000E+01 0. -1.
         -5    1    3    3    0  502 -0.18625923168E+02 -0.30769092706E+02  0.37951959324E+02  0.52454606054E+02  0.41800000000E+01 0. -1.
        -11    1    1    2    0    0  0.96143210757E+01 -0.19368731091E+02  0.33094959603E+02  0.39533014873E+02  0.00000000000E+00 0.  1.
         11    1    1    2    0    0 -0.11772998377E+02 -0.47532339183E+02 -0.55875965351E+02  0.74297040741E+02  0.00000000000E+00 0. -1.
</event>
<event>
 7    1  0.2749315E-009  0.1402234E+03  0.7561462E-02  0.1213029E+00
          1   -1    0    0  501    0  0.00000000000E+00  0.00000000000E+00  0.30471858306E+03  0.30471858306E+03  0.00000000000E+00 0. -1.
         -1   -1    0    0    0  501 -0.00000000000E+00 -0.00000000000E+00 -0.72148817708E+02  0.72148817708E+02  0.00000000000E+00 0.  1.
         25    2    1    2    0    0  0.50373015227E+02  0.74321609361E+02  0.18317263683E+03  0.23929367224E+03  0.12509238351E+03 0.  0.
          5    1    3    3  502    0 -0.40106846595E+02  0.34662709090E+02  0.46730409877E+02  0.70790297022E+02  0.41800000000E+01 0.  1.
         -5    1    3    3    0  502  0.90479861823E+02  0.39658900271E+02  0.13644222695E+03  0.16850337522E+03  0.41800000000E+01 0.  1.
        -11    1    1    2    0    0  0.64643609643E+01  0.18475623939E+02  0.70697237379E+01  0.20811478476E+02  0.00000000000E+00 0.  1.
         11    1    1    2    0    0 -0.56837376192E+02 -0.92797233300E+02  0.42327404787E+02  0.11676225005E+03  0.00000000000E+00 0. -1.
</event>
<event>
 7    1  0.2749315E-009  0.1046189E+03  0.7561462E-02  0.1270872E+00
         -2   -1    0    0    0  501 -0.00000000000E+00  0.00000000000E+00  0.12472228493E+02  0.12472228493E+02  0.00000000000E+00 0. -1.
          2   -1    0    0  501    0  0.00000000000E+00 -0.00000000000E+00 -0.13544682322E+04  0.13544682322E+04  0.00000000000E+00 0.  1.
         25    2    1    2    0    0  0.32156481161E+01  0.50090710920E+02 -0.10104079044E+04  0.10193579505E+04  0.12508828176E+03 0.  0.
          5    1    3    3  502    0 -0.29333835471E+02 -0.26373069833E+02 -0.55464372918E+03  0.55606038470E+03  0.41800000000E+01 0. -1.
         -5    1    3    3    0  502  0.32549483587E+02  0.76463780752E+02 -0.45576417526E+03  0.46329756582E+03  0.41800000000E+01 0. -1.
        -11    1    1    2    0    0 -0.32876146273E+02 -0.63037987574E+01 -0.44616497242E+02  0.55778227819E+02  0.00000000000E+00 0. -1.
         11    1    1    2    0    0  0.29660498156E+02 -0.43786912162E+02 -0.28697160204E+03  0.29180428236E+03  0.00000000000E+00 0.  1.
</event>
<event>
 7    1  0.2749315E-009  0.1026421E+03  0.7561462E-02  0.1274836E+00
         -2   -1    0    0    0  501 -0.00000000000E+00  0.00000000000E+00  0.25239137955E+03  0.25239137955E+03  0.00000000000E+00 0.  1.
          2   -1    0    0  501    0  0.00000000000E+00 -0.00000000000E+00 -0.90132694355E+02  0.90132694355E+02  0.00000000000E+00 0. -1.
         25    2    1    2    0    0 -0.47191699985E+02  0.23336329852E+00  0.19306597446E+03  0.23483947065E+03  0.12509194809E+03 0.  0.
          5    1    3    3  502    0  0.34274823702E+02 -0.28322620393E+01  0.12767743614E+02  0.36922525984E+02  0.41800000000E+01 0. -1.
         -5    1    3    3    0  502 -0.81466523686E+02  0.30656253378E+01  0.18029823085E+03  0.19791694467E+03  0.41800000000E+01 0. -1.
        -11    1    1    2    0    0  0.29865937397E+02  0.37232077321E+02 -0.43417773242E+02  0.64523676519E+02  0.00000000000E+00 0. -1.
         11    1    1    2    0    0  0.17325762587E+02 -0.37465440619E+02  0.12610483971E+02  0.43160926728E+02  0.00000000000E+00 0.  1.
</event>
<event>
 7    1  0.2749315E-009  0.9685379E+02  0.7561462E-02  0.1287055E+00
          2   -1    0    0  501    0  0.00000000000E+00  0.00000000000E+00  0.86264359089E+02  0.86264359089E+02  0.00000000000E+00 0. -1.
         -2   -1    0    0    0  501 -0.00000000000E+00 -0.00000000000E+00 -0.19360664043E+03  0.19360664043E+03  0.00000000000E+00 0.  1.
         25    2    1    2    0    0  0.41792073337E+02 -0.41316323257E+02 -0.97676178216E+02  0.16923801559E+03  0.12508898500E+03 0.  0.
          5    1    3    3  502    0  0.47730454820E+02  0.30311083808E+02 -0.74469532605E+02  0.93595629200E+02  0.41800000000E+01 0.  1.
         -5    1    3    3    0  502 -0.59383814834E+01 -0.71627407065E+02 -0.23206645610E+02  0.75642386385E+02  0.41800000000E+01 0.  1.
        -11    1    1    2    0    0 -0.12371289292E+02  0.31757980117E+02 -0.49561479466E+02  0.60149466720E+02  0.00000000000E+00 0.  1.
         11    1    1    2    0    0 -0.29420784045E+02  0.95583431402E+01  0.39895376338E+02  0.50483517217E+02  0.00000000000E+00 0. -1.
</event>
<event>
 7    1  0.2749315E-009  0.1620672E+03  0.7561462E-02  0.1186383E+00
          3   -1    0    0  501    0  0.00000000000E+00  0.00000000000E+00  0.93467860196E+02  0.93467860196E+02  0.00000000000E+00 0. -1.
         -3   -1    0    0    0  501 -0.00000000000E+00 -0.00000000000E+00 -0.36882890220E+03  0.36882890220E+03  0.00000000000E+00 0.  1.
         25    2    1    2    0    0  0.10552313281E+02  0.13682952393E+03 -0.68598595563E+02  0.19795598786E+03  0.12508851219E+03 0.  0.
          5    1    3    3  502    0 -0.79621812223E+01 -0.19981567949E+02  0.67791350558E+01  0.22936618313E+02  0.41800000000E+01 0.  1.
         -5    1    3    3    0  502  0.18514494503E+02  0.15681109188E+03 -0.75377730618E+02  0.17501936954E+03  0.41800000000E+01 0.  1.
        -11    1    1    2    0    0 -0.27048090650E+02 -0.62042489116E+02 -0.16215256587E+03  0.17571091111E+03  0.00000000000E+00 0.  1.
         11    1    1    2    0    0  0.16495777369E+02 -0.74787034811E+02 -0.44609880564E+02  0.88629863425E+02  0.00000000000E+00 0. -1.
</event>
<event>
 7    1  0.2749315E-009  0.1003554E+03  0.7561462E-02  0.1279550E+00
          4   -1    0    0  501    0  0.00000000000E+00  0.00000000000E+00  0.57990557332E+03  0.57990557332E+03  0.00000000000E+00 0. -1.
         -4   -1    0    0    0  501 -0.00000000000E+00 -0.00000000000E+00 -0.29824749590E+02  0.29824749590E+02  0.00000000000E+00 0.  1.
         25    2    1    2    0    0 -0.26606609641E+02 -0.43694398862E+02  0.42863232708E+03  0.44942982772E+03  0.12507752021E+03 0.  0.
          5    1    3    3  502    0  0.29800077180E+02  0.17500405249E+02  0.24886414480E+03  0.25128697490E+03  0.41800000000E+01 0. -1.
         -5    1    3    3    0  502 -0.56406686821E+02 -0.61194804111E+02  0.17976818228E+03  0.19814285283E+03  0.41800000000E+01 0. -1.
        -11    1    1    2    0    0  0.47521789557E+02  0.21776578146E+02  0.11891693805E+03  0.12989910698E+03  0.00000000000E+00 0. -1.
         11    1    1    2    0    0 -0.20915179916E+02  0.21917820717E+02  0.25315586000E+01  0.30401388206E+02  0.00000000000E+00 0.  1.
</event>
<event>
 7    1  0.2749315E-009  0.1227313E+03  0.7561462E-02  0.1238658E+00
          2   -1    0    0  501    0  0.00000000000E+00  0.00000000000E+00  0.74326637451E+03  0.74326637451E+03  0.00000000000E+00 0. -1.
         -2   -1    0    0    0  501 -0.00000000000E+00 -0.00000000000E+00 -0.22998916026E+02  0.22998916026E+02  0.00000000000E+00 0.  1.
         25    2    1    2    0    0 -0.54202252316E+02  0.43280375906E+02  0.37368590631E+03  0.40012344467E+03  0.12508612754E+03 0.  0.
          5    1    3    3  502    0 -0.92109970886E+02  0.46182958214E+02  0.29768065152E+03  0.31503706934E+03  0.41800000000E+01 0.  1.
         -5    1    3    3    0  502  0.37907718570E+02 -0.29025823079E+01  0.76005254792E+02  0.85086375332E+02  0.41800000000E+01 0.  1.
        -11    1    1    2    0    0  0.11301904973E+00  0.20478919069E+02  0.18581578135E+02  0.27652738482E+02  0.00000000000E+00 0.  1.
         11    1    1    2    0    0  0.54089233266E+02 -0.63759294976E+02  0.32799997403E+03  0.33848910738E+03  0.00000000000E+00 0. -1.
</event>
<event>
 7    1  0.2749315E-009  0.1490931E+03  0.7561462E-02  0.1201592E+00
         -3   -1    0    0    0  501 -0.00000000000E+00  0.00000000000E+00  0.34120413058E+02  0.34120413058E+02  0.00000000000E+00 0.  1.
          3   -1    0    0  501    0  0.00000000000E+00 -0.00000000000E+00 -0.91238059926E+03  0.91238059926E+03  0.00000000000E+00 0. -1.
         25    2    1    2    0    0  0.12197829551E+03 -0.58388761525E+02 -0.55163431035E+03  0.58158052664E+03  0.12509014575E+03 0.  0.
          5    1    3    3  502    0  0.11933225814E+03 -0.39480729103E+02 -0.54729681872E+03  0.56156050073E+03  0.41800000000E+01 0.  1.
         -5    1    3    3    0  502  0.26460373624E+01 -0.18908032422E+02 -0.43374916355E+01  0.20020025911E+02  0.41800000000E+01 0.  1.
        -11    1    1    2    0    0 -0.10444202289E+03  0.75111916694E+02 -0.21378775341E+03  0.24950979877E+03  0.00000000000E+00 0.  1.
         11    1    1    2    0    0 -0.17536272620E+02 -0.16723155169E+02 -0.11283812244E+03  0.11541068691E+03  0.00000000000E+00 0. -1.
</event>
<event>
 7    1  0.2749315E-009  0.1065584E+03  0.7561462E-02  0.1267079E+00
          1   -1    0    0  501    0  0.00000000000E+00  0.00000000000E+00  0.33035472903E+03  0.33035472903E+03  0.00000000000E+00 0. -1.
         -1   -1    0    0    0  501 -0.00000000000E+00 -0.00000000000E+00 -0.40397207914E+02  0.40397207914E+02  0.00000000000E+00 0.  1.
         25    2    1    2    0    0  0.75391466036E+01  0.27990520691E+02  0.12023700532E+03  0.17590523702E+03  0.12508160130E+03 0.  0.
          5    1    3    3  502    0 -0.54522771239E+02  0.19183156180E+02  0.87806557666E+02  0.10520546580E+03  0.41800000000E+01 0.  1.
         -5    1    3    3    0  502  0.62061917843E+02  0.88073645112E+01  0.32430447655E+02  0.70699771224E+02  0.41800000000E+01 0.  1.
        -11    1    1    2    0    0 -0.38946855300E+02 -0.42586512760E+02  0.79751034905E+02  0.98441333672E+02  0.00000000000E+00 0.  1.
         11    1    1    2    0    0  0.31407708696E+02  0.14595992069E+02  0.89969480888E+02  0.96405366247E+02  0.00000000000E+00 0. -1.
</event>
<event>
 7    1  0.2749315E-009  0.1190099E+03  0.7561462E-02  0.1244739E+00
         -1   -1    0    0    0  501 -0.00000000000E+00  0.00000000000E+00  0.65538547688E+03  0.65538547688E+03  0.00000000000E+00 0.  1.
          1   -1    0    0  501    0  0.00000000000E+00 -0.00000000000E+00 -0.28400135367E+02  0.28400135367E+02  0.00000000000E+00 0. -1.
         25    2    1    2    0    0 -0.52866165618E+02  0.55426161633E+02  0.25837496055E+03  0.29710570322E+03  0.12508911938E+03 0.  0.
          5    1    3    3  502    0 -0.62642966107E+02 -0.76425976532E+01  0.20260453284E+03  0.21224660099E+03  0.41800000000E+01 0.  1.
         -5    1    3    3    0  502  0.97768004883E+01  0.63068759286E+02  0.55770427709E+02  0.84859102237E+02  0.41800000000E+01 0.  1.
        -11    1    1    2    0    0  0.72204814715E+02 -0.56142860160E+02  0.34037319931E+03  0.35244782709E+03  0.00000000000E+00 0.  1.
         11    1    1    2    0    0 -0.19338649096E+02  0.71669852785E+00  0.28237181652E+02  0.34232081930E+02  0.00000000000E+00 0. -1.
</event>
<event>
 7    1  0.2749315E-009  0.2434310E+03  0.7561462E-02  0.1117528E+00
         -2   -1    0    0    0  501 -0.00000000000E+00  0.00000000000E+00  0.96972621039E+02  0.96972621039E+02  0.00000000000E+00 0.  1.
          2   -1    0    0  501    0  0.00000000000E+00 -0.00000000000E+00 -0.69680855767E+03  0.69680855767E+03  0.00000000000E+00 0. -1.
         25    2    1    2    0    0 -0.15289928046E+03  0.16606638526E+03 -0.40989434894E+03  0.48437326985E+03  0.12509137852E+03 0.  0.
          5    1    3    3  502    0 -0.16211688106E+03  0.10036572451E+03 -0.28569789736E+03  0.34350534601E+03  0.41800000000E+01 0.  1.
         -5    1    3    3    0  502  0.92176005989E+01  0.65700660745E+02 -0.12419645158E+03  0.14086792385E+03  0.41800000000E+01 0.  1.
        -11    1    1    2    0    0  0.60732485415E+02 -0.37143016136E+02 -0.11221880113E+03  0.13289506296E+03  0.00000000000E+00 0. -1.
         11    1    1    2    0    0  0.92166795049E+02 -0.12892336912E+03 -0.77722786566E+02  0.17651284590E+03  0.00000000000E+00 0.  1.
</event>
<event>
 7    1  0.2749315E-009  0.1555621E+03  0.7561462E-02  0.1193800E+00
         -1   -1    0    0    0  501 -0.00000000000E+00  0.00000000000E+00  0.32574843027E+03  0.32574843027E+03  0.00000000000E+00 0.  1.
          1   -1    0    0  501    0  0.00000000000E+00 -0.00000000000E+00 -0.83606549482E+02  0.83606549482E+02  0.00000000000E+00 0. -1.
         25    2    1    2    0    0  0.98679273522E+02  0.54714773325E+02  0.66660773740E+02  0.18116696358E+03  0.12508598840E+03 0.  0.
          5    1    3    3  502    0 -0.25224797676E+02  0.29777060756E+02  0.24085391821E+01  0.39322223056E+02  0.41800000000E+01 0.  1.
         -5    1    3    3    0  502  0.12390407120E+03  0.24937712569E+02  0.64252234558E+02  0.14184474052E+03  0.41800000000E+01 0.  1.
        -11    1    1    2    0    0 -0.11101413100E+03 -0.25786445761E+02  0.12988014920E+03  0.17279447683E+03  0.00000000000E+00 0. -1.
         11    1    1    2    0    0  0.12334857477E+02 -0.28928327564E+02  0.45600957851E+02  0.55393539349E+02  0.00000000000E+00 0.  1.
</event>
<event>
 7    1  0.2749315E-009  0.8907816E+02  0.7561462E-02  0.1305100E+00
         -2   -1    0    0    0  501 -0.00000000000E+00  0.00000000000E+00  0.83740587082E+02  0.83740587082E+02  0.00000000000E+00 0. -1.
          2   -1    0    0  501    0  0.00000000000E+00 -0.00000000000E+00 -0.15388926494E+03  0.15388926494E+03  0.00000000000E+00 0.  1.
         25    2    1    2    0    0 -0.14639934828E+01  0.43374563994E+01 -0.50319922979E+02  0.13491559979E+03  0.12509663310E+03 0.  0.
          5    1    3    3  502    0 -0.19504949009E+01  0.40723465144E+02  0.27192518799E+02  0.49184454072E+02  0.41800000000E+01 0. -1.
         -5    1    3    3    0  502  0.48650141804E+00 -0.36386008745E+02 -0.77512441778E+02  0.85731145720E+02  0.41800000000E+01 0. -1.
        -11    1    1    2    0    0  0.23828541599E+02 -0.46819573941E+02 -0.68328490110E+01  0.52976973530E+02  0.00000000000E+00 0.  1.
         11    1    1    2    0    0 -0.22364548116E+02  0.42482117542E+02 -0.12995905869E+02  0.49737278702E+02  0.00000000000E+00 0. -1.
</event>
<event>
 7    1  0.2749315E-009  0.9191125E+02  0.7561462E-02  0.1298288E+00
          2   -1    0    0  501    0  0.00000000000E+00  0.00000000000E+00  0.10398203887E+03  0.10398203887E+03  0.00000000000E+00 0. -1.
         -2   -1    0    0    0  501 -0.00000000000E+00 -0.00000000000E+00 -0.31472455697E+03  0.31472455697E+03  0.00000000000E+00 0.  1.
         25    2    1    2    0    0 -0.30135577229E+02  0.38343839207E+02  0.45725147008E+02  0.14183410317E+03  0.12509084991E+03 0.  0.
          5    1    3    3  502    0  0.39017273197E+02 -0.10856772913E+02 -0.77357131283E+01  0.41443102966E+02  0.41800000000E+01 0. -1.
         -5    1    3    3    0  502 -0.69152850426E+02  0.49200612120E+02  0.53460860136E+02  0.10039100020E+03  0.41800000000E+01 0. -1.
        -11    1    1    2    0    0  0.16787235953E+02 -0.41196671194E+02 -0.25916794246E+03  0.26295817045E+03  0.00000000000E+00 0.  1.
         11    1    1    2    0    0  0.13348341275E+02  0.28528319871E+01  0.27002773537E+01  0.13914322223E+02  0.00000000000E+00 0. -1.
</event>
<event>
 7    1  0.2749315E-009  0.1639715E+03  0.7561462E-02  0.1184285E+00
          2   -1    0    0  501    0  0.00000000000E+00  0.00000000000E+00  0.51657521388E+03  0.51657521388E+03  0.00000000000E+00 0.  1.
         -2   -1    0    0    0  501 -0.00000000000E+00 -0.00000000000E+00 -0.62853703906E+02  0.62853703906E+02  0.00000000000E+00 0. -1.
         25    2    1    2    0    0  0.11594224030E+03 -0.61208964625E+02  0.32788792714E+03  0.37463178597E+03  0.12509732952E+03 0.  0.
          5    1    3    3  502    0  0.12315714883E+03 -0.81373358685E+02  0.22274938418E+03  0.26725281545E+03  0.41800000000E+01 0. -1.
         -5    1    3    3    0  502 -0.72149085335E+01  0.20164394061E+02  0.10513854296E+03  0.10737897052E+03  0.41800000000E+01 0. -1.
        -11    1    1    2    0    0 -0.13678559134E+02  0.54253700300E+02  0.25942462978E+02  0.61673157545E+02  0.00000000000E+00 0. -1.
         11    1    1    2    0    0 -0.10226368117E+03  0.69552643254E+01  0.99891119857E+02  0.14312397428E+03  0.00000000000E+00 0.  1.
</event>
<event>
 7    1  0.2749315E-009  0.1562410E+03  0.7561462E-02  0.1193007E+00
         -1   -1    0    0    0  501 -0.00000000000E+00  0.00000000000E+00  0.52164381669E+02  0.52164381669E+02  0.00000000000E+00 0.  1.
          1   -1    0    0  501    0  0.00000000000E+00 -0.00000000000E+00 -0.56531453939E+03  0.56531453939E+03  0.00000000000E+00 0. -1.
         25    2    1    2    0    0 -0.41662420614E+02 -0.11711120039E+03 -0.35779614790E+03  0.39889553999E+03  0.12509507514E+03 0.  0.
          5    1    3    3  502    0 -0.40113142340E+02  0.12616583997E+02 -0.13019686164E+03  0.13688293378E+03  0.41800000000E+01 0.  1.
         -5    1    3    3    0  502 -0.15492782740E+01 -0.12972778439E+03 -0.22759928626E+03  0.26201260621E+03  0.41800000000E+01 0.  1.
        -11    1    1    2    0    0  0.54399011330E+02  0.11538677671E+03 -0.16025377936E+03  0.20482830486E+03  0.00000000000E+00 0. -1.
         11    1    1    2    0    0 -0.12736590716E+02  0.17244236786E+01  0.48997695335E+01  0.13755076211E+02  0.00000000000E+00 0.  1.
</event>
<event>
 7    1  0.2749315E-009  0.2208728E+03  0.7561462E-02  0.1133234E+00
         -2   -1    0    0    0  501 -0.00000000000E+00  0.00000000000E+00  0.64043575632E+02  0.64043575632E+02  0.00000000000E+00 0.  1.
          2   -1    0    0  501    0  0.00000000000E+00 -0.00000000000E+00 -0.87198444608E+03  0.87198444608E+03  0.00000000000E+00 0. -1.
         25    2    1    2    0    0  0.16701887632E+03  0.11558134141E+03 -0.54583622319E+03  0.59568358346E+03  0.12508955805E+03 0.  0.
          5    1    3    3  502    0 -0.43881129640E+01 -0.12236792663E+02 -0.57848605872E+01  0.14830092450E+02  0.41800000000E+01 0.  1.
         -5    1    3    3    0  502  0.17140698928E+03  0.12781813407E+03 -0.54005136260E+03  0.58085349101E+03  0.41800000000E+01 0.  1.
        -11    1    1    2    0    0 -0.16913667120E+03 -0.95890733250E+02 -0.21866381166E+03  0.29260230484E+03  0.00000000000E+00 0.  1.
         11    1    1    2    0    0  0.21177948833E+01 -0.19690608159E+02 -0.43440835602E+02  0.47742133411E+02  0.00000000000E+00 0. -1.
</event>
<event>
 7    1  0.4226783E-009  0.9409600E+02  0.7561462E-02  0.1293225E+00
          2   -1    0    0  501    0  0.00000000000E+00  0.00000000000E+00  0.15961537735E+04  0.15961537735E+04  0.00000000000E+00 0. -1.
         -2   -1    0    0    0  501 -0.00000000000E+00 -0.00000000000E+00 -0.10927818871E+02  0.10927818871E+02  0.00000000000E+00 0.  1.
         25    2    1    2    0    0 -0.13839339179E+02  0.48894342613E+02  0.12135244941E+04  0.12210122600E+04  0.12508819851E+03 0.  0.
          5    1    3    3  502    0  0.12839426187E+02 -0.14039466275E+02  0.31708172747E+02  0.37213412865E+02  0.41800000000E+01 0. -1.
         -5    1    3    3    0  502 -0.26678765366E+02  0.62933808888E+02  0.11818163213E+04  0.11837988472E+04  0.41800000000E+01 0. -1.
        -11    1    1    2    0    0  0.50559475169E+02 -0.24831215613E+02  0.15382822348E+03  0.16381688600E+03  0.00000000000E+00 0. -1.
         11    1    1    2    0    0 -0.36720135990E+02 -0.24063127000E+02  0.21787323707E+03  0.22225244633E+03  0.00000000000E+00 0.  1.
</event>
<event>
 7    1  0.2749315E-009  0.1124345E+03  0.7561462E-02  0.1256127E+00
          4   -1    0    0  501    0  0.00000000000E+00  0.00000000000E+00  0.10697066080E+03  0.10697066080E+03  0.00000000000E+00 0. -1.
         -4   -1    0    0    0  501 -0.00000000000E+00 -0.00000000000E+00 -0.14918364105E+03  0.14918364105E+03  0.00000000000E+00 0.  1.
         25    2    1    2    0    0 -0.63342756350E+02  0.70747955886E+01 -0.24895013034E+02  0.14259534896E+03  0.12510521315E+03 0.  0.
          5    1    3    3  502    0 -0.35366069257E+02 -0.53941569950E+02  0.12216342702E+02  0.65781177037E+02  0.41800000000E+01 0.  1.
         -5    1    3    3    0  502 -0.27976687093E+02  0.61016365538E+02 -0.37111355736E+02  0.76814171926E+02  0.41800000000E+01 0.  1.
        -11    1    1    2    0    0 -0.13387802258E+02  0.67793913201E+01  0.21689429529E+02  0.26374699036E+02  0.00000000000E+00 0. -1.
         11    1    1    2    0    0  0.76730558609E+02 -0.13854186909E+02 -0.39007396746E+02  0.87184253855E+02  0.00000000000E+00 0.  1.
</event>
<event>
 7    1  0.2749315E-009  0.9780946E+02  0.7561462E-02  0.1284971E+00
         -1   -1    0    0    0  501 -0.00000000000E+00  0.00000000000E+00  0.46661510495E+02  0.46661510495E+02  0.00000000000E+00 0.  1.
          1   -1    0    0  501    0  0.00000000000E+00 -0.00000000000E+00 -0.28473988516E+03  0.28473988516E+03  0.00000000000E+00 0. -1.
         25    2    1    2    0    0  0.17431873842E+02 -0.23669462089E+02 -0.17173146035E+03  0.21448990141E+03  0.12510039837E+03 0.  0.
          5    1    3    3  502    0 -0.40367105777E+02 -0.15292345883E+02 -0.12956394807E+02  0.45262563314E+02  0.41800000000E+01 0.  1.
         -5    1    3    3    0  502  0.57798979618E+02 -0.83771162058E+01 -0.15877506554E+03  0.16922733810E+03  0.41800000000E+01 0.  1.
        -11    1    1    2    0    0  0.55244013377E+01 -0.32527425980E+02 -0.11043557693E+02  0.34792421841E+02  0.00000000000E+00 0. -1.
         11    1    1    2    0    0 -0.22956275179E+02  0.56196888069E+02 -0.55303356623E+02  0.82119072405E+02  0.00000000000E+00 0.  1.
</event>
<event>
 7    1  0.2749315E-009  0.1661501E+03  0.7561462E-02  0.1181923E+00
         -3   -1    0    0    0  501 -0.00000000000E+00  0.00000000000E+00  0.59584478213E+03  0.59584478213E+03  0.00000000000E+00 0.  1.
          3   -1    0    0  501    0  0.00000000000E+00 -0.00000000000E+00 -0.72850861513E+02  0.72850861513E+02  0.00000000000E+00 0. -1.
         25    2    1    2    0    0 -0.13625117761E+03  0.55747073429E+02  0.11227426059E+03  0.22343897941E+03  0.12508936139E+03 0.  0.
          5    1    3    3  502    0  0.42988099410E+01  0.21711962141E+02 -0.17940012568E+02  0.28795928842E+02  0.41800000000E+01 0. -1.
         -5    1    3    3    0  502 -0.14054998755E+03  0.34035111287E+02  0.13021427316E+03  0.19464305057E+03  0.41800000000E+01 0. -1.
        -11    1    1    2    0    0  0.12712653006E+03 -0.20592644180E+02  0.36380421996E+03  0.38592579870E+03  0.00000000000E+00 0.  1.
         11    1    1    2    0    0  0.91246475521E+01 -0.35154429249E+02  0.46915440065E+02  0.59330865536E+02  0.00000000000E+00 0. -1.
</event>
<event>
 7    1  0.2749315E-009  0.1585067E+03  0.7561462E-02  0.1190393E+00
          1   -1    0    0  501    0  0.00000000000E+00  0.00000000000E+00  0.10788153822E+04  0.10788153822E+04  0.00000000000E+00 0. -1.
         -1   -1    0    0    0  501 -0.00000000000E+00 -0.00000000000E+00 -0.29751654785E+02  0.29751654785E+02  0.00000000000E+00 0.  1.
         25    2    1    2    0    0 -0.92556227031E+02  0.86892364832E+02  0.75261127717E+03  0.77342605435E+03  0.12508872368E+03 0.  0.
          5    1    3    3  502    0 -0.12090440762E+03  0.81271145612E+02  0.56193318024E+03  0.58052497479E+03  0.41800000000E+01 0. -1.
         -5    1    3    3    0  502  0.28348180592E+02  0.56212192193E+01  0.19067809693E+03  0.19290107956E+03  0.41800000000E+01 0. -1.
        -11    1    1    2    0    0  0.98958290608E+02 -0.62939089720E+02  0.17158177033E+03  0.20783256772E+03  0.00000000000E+00 0.  1.
         11    1    1    2    0    0 -0.64020635772E+01 -0.23953275112E+02  0.12487067993E+03  0.12730841493E+03  0.00000000000E+00 0. -1.
</event>
<event>
 7    1  0.2749315E-009  0.9712397E+02  0.7561462E-02  0.1286463E+00
          2   -1    0    0  501    0  0.00000000000E+00  0.00000000000E+00  0.68814566791E+02  0.68814566791E+02  0.00000000000E+00 0.  1.
         -2   -1    0    0    0  501 -0.00000000000E+00 -0.00000000000E+00 -0.20944987120E+03  0.20944987120E+03  0.00000000000E+00 0. -1.
         25    2    1    2    0    0 -0.26155438743E+02 -0.45126302339E+02 -0.92351227286E+02  0.16401054476E+03  0.12510083722E+03 0.  0.
          5    1    3    3  502    0  0.39891032875E+02 -0.11774624146E+02 -0.78044614170E+02  0.88534572222E+02  0.41800000000E+01 0.  1.
         -5    1    3    3    0  502 -0.66046471617E+02 -0.33351678194E+02 -0.14306613116E+02  0.75475972536E+02  0.41800000000E+01 0.  1.
        -11    1    1    2    0    0 -0.96592966190E+01 -0.91535693583E+01 -0.47383683187E+02  0.49216900304E+02  0.00000000000E+00 0. -1.
         11    1    1    2    0    0  0.35814735362E+02  0.54279871698E+02 -0.90039393958E+00  0.65036992933E+02  0.00000000000E+00 0.  1.
</event>
<event>
 7    1  0.2749315E-009  0.9300859E+02  0.7561462E-02  0.1295725E+00
          1   -1    0    0  501    0  0.00000000000E+00  0.00000000000E+00  0.61945324749E+03  0.61945324749E+03  0.00000000000E+00 0. -1.
         -1   -1    0    0    0  501 -0.00000000000E+00 -0.00000000000E+00 -0.20565954344E+02  0.20565954344E+02  0.00000000000E+00 0.  1.
         25    2    1    2    0    0 -0.13710204344E+02 -0.19765824306E+02  0.42265692667E+03  0.44143491677E+03  0.12508897060E+03 0.  0.
          5    1    3    3  502    0 -0.13655313417E+02 -0.65949380047E+02  0.14499780122E+03  0.15993005681E+03  0.41800000000E+01 0.  1.
         -5    1    3    3    0  502 -0.54890927497E-01  0.46183555741E+02  0.27765912545E+03  0.28150485996E+03  0.41800000000E+01 0.  1.
        -11    1    1    2    0    0  0.51157518016E+01  0.45113117495E+02  0.42460542486E+02  0.62163188101E+02  0.00000000000E+00 0.  1.
         11    1    1    2    0    0  0.85944525428E+01 -0.25347293189E+02  0.13376982399E+03  0.13642109696E+03  0.00000000000E+00 0. -1.
</event>
<event>
 7    1  0.2749315E-009  0.2972355E+03  0.7561462E-02  0.1086631E+00
          1   -1    0    0  501    0  0.00000000000E+00  0.00000000000E+00  0.14019863523E+04  0.14019863523E+04  0.00000000000E+00 0. -1.
         -1   -1    0    0    0  501 -0.00000000000E+00 -0.00000000000E+00 -0.95219212848E+02  0.95219212848E+02  0.00000000000E+00 0.  1.
         25    2    1    2    0    0 -0.14023627715E+03  0.25723990383E+03  0.27469110577E+03  0.42064387313E+03  0.12508989913E+03 0.  0.
          5    1    3    3  502    0 -0.11997585055E+03  0.24517532361E+03  0.18991770598E+03  0.33255277997E+03  0.41800000000E+01 0. -1.
         -5    1    3    3    0  502 -0.20260426598E+02  0.12064580221E+02  0.84773399796E+02  0.88091093164E+02  0.41800000000E+01 0. -1.
        -11    1    1    2    0    0  0.65766820260E+02 -0.70096500015E+02  0.46357922615E+03  0.47343900650E+03  0.00000000000E+00 0. -1.
         11    1    1    2    0    0  0.74469456888E+02 -0.18714340382E+03  0.56849680749E+03  0.60312268547E+03  0.00000000000E+00 0.  1.
</event>
<event>
 7    1  0.2749315E-009  0.1570542E+03  0.7561462E-02  0.1192063E+00
          1   -1    0    0  501    0  0.00000000000E+00  0.00000000000E+00  0.11221915608E+03  0.11221915608E+03  0.00000000000E+00 0. -1.
         -1   -1    0    0    0  501 -0.00000000000E+00 -0.00000000000E+00 -0.27299619162E+03  0.27299619162E+03  0.00000000000E+00 0.  1.
         25    2    1    2    0    0  0.10037087967E+03  0.93254412031E+02 -0.95162477161E+02  0.20850429825E+03  0.12508975370E+03 0.  0.
          5    1    3    3  502    0  0.35108335747E+02  0.10340283676E+03 -0.25096117818E+02  0.11212506151E+03  0.41800000000E+01 0. -1.
         -5    1    3    3    0  502  0.65262543928E+02 -0.10148424728E+02 -0.70066359343E+02  0.96379236747E+02  0.41800000000E+01 0. -1.
        -11    1    1    2    0    0 -0.61502616102E+02 -0.70713155216E+02  0.40599611781E+01  0.93805145875E+02  0.00000000000E+00 0. -1.
         11    1    1    2    0    0 -0.38868263573E+02 -0.22541256815E+02 -0.69674519557E+02  0.82905903574E+02  0.00000000000E+00 0.  1.
</event>
<event>
 7    1  0.2749315E-009  0.9643742E+02  0.7561462E-02  0.1287971E+00
         -1   -1    0    0    0  501 -0.00000000000E+00  0.00000000000E+00  0.17763367195E+03  0.17763367195E+03  0.00000000000E+00 0.  1.
          1   -1    0    0  501    0  0.00000000000E+00 -0.00000000000E+00 -0.78578730397E+02  0.78578730397E+02  0.00000000000E+00 0. -1.
         25    2    1    2    0    0 -0.13410983062E+02 -0.35344915857E+02  0.31367107284E+02  0.13438716754E+03  0.12508756068E+03 0.  0.
          5    1    3    3  502    0  0.31897845393E+02 -0.45853896721E+02 -0.24871667403E+02  0.61287230519E+02  0.41800000000E+01 0.  1.
         -5    1    3    3    0  502 -0.45308828456E+02  0.10508980864E+02  0.56238774687E+02  0.73099937026E+02  0.41800000000E+01 0.  1.
        -11    1    1    2    0    0  0.48178182650E+02  0.20456503287E+02  0.10691587471E+02  0.53422053993E+02  0.00000000000E+00 0. -1.
         11    1    1    2    0    0 -0.34767199588E+02  0.14888412569E+02  0.56996246802E+02  0.68403180815E+02  0.00000000000E+00 0.  1.
</event>
<event>
 7    1  0.2749315E-009  0.2609078E+03  0.7561462E-02  0.1106599E+00
         -2   -1    0    0    0  501 -0.00000000000E+00  0.00000000000E+00  0.17135850549E+03  0.17135850549E+03  0.00000000000E+00 0.  1.
          2   -1    0    0  501    0  0.00000000000E+00 -0.00000000000E+00 -0.72365379123E+03  0.72365379123E+03  0.00000000000E+00 0. -1.
         25    2    1    2    0    0 -0.17356730856E+03  0.17267438191E+03  0.99393847098E+01  0.27511429644E+03  0.12508809683E+03 0.  0.
          5    1    3    3  502    0 -0.10232625959E+03  0.17111511524E+03  0.28278551008E+02  0.20141547833E+03  0.41800000000E+01 0.  1.
         -5    1    3    3    0  502 -0.71241048966E+02  0.15592666761E+01 -0.18339166298E+02  0.73698818110E+02  0.41800000000E+01 0.  1.
        -11    1    1    2    0    0  0.12062730308E+03 -0.81480258040E+02 -0.40689338208E+03  0.43214835772E+03  0.00000000000E+00 0. -1.
         11    1    1    2    0    0  0.52940005471E+02 -0.91194123874E+02 -0.15534128836E+03  0.18774964255E+03  0.00000000000E+00 0.  1.
</event>
<event>
 7    1  0.2749315E-009  0.2130081E+03  0.7561462E-02  0.1139206E+00
          2   -1    0    0  501    0  0.00000000000E+00  0.00000000000E+00  0.18661440448E+04  0.18661440448E+04  0.00000000000E+00 0. -1.
         -2   -1    0    0    0  501 -0.00000000000E+00 -0.00000000000E+00 -0.25103041352E+02  0.25103041352E+02  0.00000000000E+00 0.  1.
         25    2    1    2    0    0 -0.10653727074E+03  0.14535541134E+03  0.10290855030E+04  0.10522090046E+04  0.12509368973E+03 0.  0.
          5    1    3    3  502    0  0.35324250486E+01  0.10017291803E+03  0.46986969322E+03  0.48046029236E+03  0.41800000000E+01 0.  1.
         -5    1    3    3    0  502 -0.11006969579E+03  0.45182493315E+02  0.55921580977E+03  0.57174871223E+03  0.41800000000E+01 0.  1.
        -11    1    1    2    0    0  0.57105348732E+02 -0.14645467105E+03  0.53153230206E+03  0.55428925630E+03  0.00000000000E+00 0.  1.
         11    1    1    2    0    0  0.49431922008E+02  0.10992597047E+01  0.28042319843E+03  0.28474882528E+03  0.00000000000E+00 0. -1.
</event>
<event>
 7    1  0.2749315E-009  0.1109548E+03  0.7561462E-02  0.1258812E+00
          1   -1    0    0  501    0  0.00000000000E+00  0.00000000000E+00  0.27142026247E+03  0.27142026247E+03  0.00000000000E+00 0. -1.
         -1   -1    0    0    0  501 -0.00000000000E+00 -0.00000000000E+00 -0.81350408075E+02  0.81350408075E+02  0.00000000000E+00 0.  1.
         25    2    1    2    0    0  0.50718819128E+02 -0.40358989986E+02  0.19556567903E+03  0.24102745276E+03  0.12508817483E+03 0.  0.
          5    1    3    3  502    0  0.16039182627E+02 -0.65729778806E+02  0.18435619830E+03  0.19642387699E+03  0.41800000000E+01 0.  1.
         -5    1    3    3    0  502  0.34679636502E+02  0.25370788820E+02  0.11209480737E+02  0.44603575772E+02  0.41800000000E+01 0.  1.
        -11    1    1    2    0    0 -0.14989643510E+02 -0.29160033825E+02  0.38963945605E+01  0.33017856923E+02  0.00000000000E+00 0.  1.
         11    1    1    2    0    0 -0.35729175618E+02  0.69519023811E+02 -0.93922191947E+01  0.78725360865E+02  0.00000000000E+00 0. -1.
</event>
<event>
 7    1  0.2749315E-009  0.1014554E+03  0.7561462E-02  0.1277265E+00
         -1   -1    0    0    0  501 -0.00000000000E+00  0.00000000000E+00  0.26376743476E+03  0.26376743476E+03  0.00000000000E+00 0. -1.
          1   -1    0    0  501    0  0.00000000000E+00 -0.00000000000E+00 -0.62857540404E+02  0.62857540404E+02  0.00000000000E+00 0.  1.
         25    2    1    2    0    0 -0.12182031169E+02 -0.46581275861E+02  0.48997029567E+02  0.14271966751E+03  0.12509986988E+03 0.  0.
          5    1    3    3  502    0  0.31916864184E+02  0.13132078588E+02  0.58210105989E+02  0.67801375698E+02  0.41800000000E+01 0. -1.
         -5    1    3    3    0  502 -0.44098895353E+02 -0.59713354449E+02 -0.92130764217E+01  0.74918291813E+02  0.41800000000E+01 0. -1.
        -11    1    1    2    0    0  0.21235586466E+02  0.67628597121E+02  0.14245837429E+03  0.15911934416E+03  0.00000000000E+00 0. -1.
         11    1    1    2    0    0 -0.90535552972E+01 -0.21047321260E+02  0.94544905047E+01  0.24785963496E+02  0.00000000000E+00 0.  1.
</event>
<event>
 7    1  0.2749315E-009  0.1134796E+03  0.7561462E-02  0.1254259E+00
         -2   -1    0    0    0  501 -0.00000000000E+00  0.00000000000E+00  0.83894711608E+02  0.83894711608E+02  0.00000000000E+00 0.  1.
          2   -1    0    0  501    0  0.00000000000E+00 -0.00000000000E+00 -0.42026126995E+03  0.42026126995E+03  0.00000000000E+00 0. -1.
         25    2    1    2    0    0 -0.10901508818E+02  0.99779653637E+02 -0.33195623728E+03  0.36867024027E+03  0.12509188792E+03 0.  0.
          5    1    3    3  502    0 -0.32135290911E+02  0.88922820871E+02 -0.33118836909E+03  0.34444615430E+03  0.41800000000E+01 0.  1.
         -5    1    3    3    0  502  0.21233782093E+02  0.10856832765E+02 -0.76786818733E+00  0.24224085972E+02  0.41800000000E+01 0.  1.
        -11    1    1    2    0    0  0.26034230036E+02 -0.55337697649E+02  0.38182012312E+02  0.72096518493E+02  0.00000000000E+00 0.  1.
         11    1    1    2    0    0 -0.15132721218E+02 -0.44441955988E+02 -0.42592333378E+02  0.63389222791E+02  0.00000000000E+00 0. -1.
</event>
<event>
 7    1  0.2749315E-009  0.8417994E+02  0.7561462E-02  0.1317591E+00
         -3   -1    0    0    0  501 -0.00000000000E+00  0.00000000000E+00  0.47026187194E+03  0.47026187194E+03  0.00000000000E+00 0.  1.
          3   -1    0    0  501    0  0.00000000000E+00 -0.00000000000E+00 -0.59121014972E+02  0.59121014972E+02  0.00000000000E+00 0. -1.
         25    2    1    2    0    0  0.65216298570E+02  0.10760852685E+02  0.38862871878E+03  0.41357935472E+03  0.12508653024E+03 0.  0.
          5    1    3    3  502    0  0.96934597897E+01  0.24838400952E+02  0.73115853590E+01  0.27961419939E+02  0.41800000000E+01 0. -1.
         -5    1    3    3    0  502  0.55522838780E+02 -0.14077548267E+02  0.38131713342E+03  0.38561793479E+03  0.41800000000E+01 0. -1.
        -11    1    1    2    0    0 -0.11689244861E+02 -0.25812830184E+02 -0.28612430553E+02  0.40269241732E+02  0.00000000000E+00 0.  1.
         11    1    1    2    0    0 -0.53527053709E+02  0.15051977499E+02  0.51124568748E+02  0.75534290459E+02  0.00000000000E+00 0. -1.
</event>
<event>
 7    1  0.2749315E-009  0.1456786E+03  0.7561462E-02  0.1205886E+00
         -1   -1    0    0    0  501 -0.00000000000E+00  0.00000000000E+00  0.40363814904E+02  0.40363814904E+02  0.00000000000E+00 0.  1.
          1   -1    0    0  501    0  0.00000000000E+00 -0.00000000000E+00 -0.85683052452E+03  0.85683052452E+03  0.00000000000E+00 0. -1.
         25    2    1    2    0    0 -0.27746683664E+02  0.12546760446E+03 -0.24261725567E+03  0.30169922909E+03  0.12508914367E+03 0.  0.
          5    1    3    3  502    0 -0.36092046166E+02  0.10924121971E+03 -0.25463739240E+03  0.27945295470E+03  0.41800000000E+01 0. -1.
         -5    1    3    3    0  502  0.83453625010E+01  0.16226384741E+02  0.12020136737E+02  0.22246274389E+02  0.41800000000E+01 0. -1.
        -11    1    1    2    0    0  0.46897100214E+02 -0.12968467288E+03 -0.52615299063E+03  0.54392501500E+03  0.00000000000E+00 0.  1.
         11    1    1    2    0    0 -0.19150416550E+02  0.42170684197E+01 -0.47696463320E+02  0.51570095339E+02  0.00000000000E+00 0. -1.
</event>
<event>
 7    1  0.2749315E-009  0.1812155E+03  0.7561462E-02  0.1166632E+00
         -3   -1    0    0    0  501 -0.00000000000E+00  0.00000000000E+00  0.58529112770E+03  0.58529112770E+03  0.00000000000E+00 0.  1.
          3   -1    0    0  501    0  0.00000000000E+00 -0.00000000000E+00 -0.72337779456E+02  0.72337779456E+02  0.00000000000E+00 0. -1.
         25    2    1    2    0    0 -0.17041455017E+03  0.30078974604E+02  0.23438529434E+03  0.31706438834E+03  0.12508995376E+03 0.  0.
          5    1    3    3  502    0 -0.13197501884E+03  0.25129718139E+02  0.24248886789E+03  0.27724940357E+03  0.41800000000E+01 0. -1.
         -5    1    3    3    0  502 -0.38439531327E+02  0.49492564648E+01 -0.81035735468E+01  0.39814984772E+02  0.41800000000E+01 0. -1.
        -11    1    1    2    0    0  0.27062932838E+02 -0.36622955547E+02  0.33347643621E+02  0.56442081304E+02  0.00000000000E+00 0.  1.
         11    1    1    2    0    0  0.14335161733E+03  0.65439809430E+01  0.24522041028E+03  0.28412243751E+03  0.00000000000E+00 0. -1.
</event>
<event>
 7    1  0.2749315E-009  0.9501764E+02  0.7561462E-02  0.1291136E+00
          2   -1    0    0  501    0  0.00000000000E+00  0.00000000000E+00  0.87385245060E+02  0.87385245060E+02  0.00000000000E+00 0. -1.
         -2   -1    0    0    0  501 -0.00000000000E+00 -0.00000000000E+00 -0.15585315621E+03  0.15585315621E+03  0.00000000000E+00 0.  1.
         25    2    1    2    0    0  0.38082822967E+02 -0.96105852672E+00 -0.16650397452E+02  0.13181348771E+03  0.12508530996E+03 0.  0.
          5    1    3    3  502    0  0.74414374294E+02 -0.32738311129E+02 -0.17896821284E+02  0.83349053559E+02  0.41800000000E+01 0.  1.
         -5    1    3    3    0  502 -0.36331551328E+02  0.31777252602E+02  0.12464238328E+01  0.48464434147E+02  0.41800000000E+01 0.  1.
        -11    1    1    2    0    0 -0.19936818665E+02 -0.22798120067E+02 -0.70113305573E+02  0.76374777482E+02  0.00000000000E+00 0.  1.
         11    1    1    2    0    0 -0.18146004302E+02  0.23759178593E+02  0.18295791869E+02  0.35050136087E+02  0.00000000000E+00 0. -1.
</event>
<event>
 7    1  0.2749315E-009  0.1071274E+03  0.7561462E-02  0.1265984E+00
         -4   -1    0    0    0  501 -0.00000000000E+00  0.00000000000E+00  0.52591004262E+02  0.52591004262E+02  0.00000000000E+00 0.  1.
          4   -1    0    0  501    0  0.00000000000E+00 -0.00000000000E+00 -0.29964857576E+03  0.29964857576E+03  0.00000000000E+00 0. -1.
         25    2    1    2    0    0 -0.59182530326E+02  0.12065373195E+02 -0.15493644559E+03  0.20808327773E+03  0.12508078658E+03 0.  0.
          5    1    3    3  502    0  0.45313520035E+01  0.46665371953E+02 -0.13300138833E+02  0.48913762720E+02  0.41800000000E+01 0.  1.
         -5    1    3    3    0  502 -0.63713882329E+02 -0.34599998758E+02 -0.14163630676E+03  0.15916951501E+03  0.41800000000E+01 0.  1.
        -11    1    1    2    0    0  0.43301539787E+02 -0.42221513979E+02 -0.91970361903E+02  0.11007373465E+03  0.00000000000E+00 0. -1.
         11    1    1    2    0    0  0.15880990539E+02  0.30156140784E+02 -0.15076400168E+00  0.34082567645E+02  0.00000000000E+00 0.  1.
</event>
<event>
 7    1  0.2749315E-009  0.1297190E+03  0.7561462E-02  0.1227873E+00
          2   -1    0    0  501    0  0.00000000000E+00  0.00000000000E+00  0.11300438664E+04  0.11300438664E+04  0.00000000000E+00 0. -1.
         -2   -1    0    0    0  501 -0.00000000000E+00 -0.00000000000E+00 -0.17995074292E+02  0.17995074292E+02  0.00000000000E+00 0.  1.
         25    2    1    2    0    0 -0.72334351706E+02 -0.16277100416E+02  0.82289489871E+03  0.83564393430E+03  0.12509024015E+03 0.  0.
          5    1    3    3  502    0 -0.44634275396E+02  0.53273857540E+02  0.44027155073E+03  0.44574301253E+03  0.41800000000E+01 0.  1.
         -5    1    3    3    0  502 -0.27700076310E+02 -0.69550957956E+02  0.38262334797E+03  0.38990092177E+03  0.41800000000E+01 0.  1.
        -11    1    1    2    0    0  0.12830348170E+02 -0.34372806061E+02  0.60480701465E+02  0.70739118460E+02  0.00000000000E+00 0.  1.
         11    1    1    2    0    0  0.59504003536E+02  0.50649906477E+02  0.22867319197E+03  0.24165588797E+03  0.00000000000E+00 0. -1.
</event>
<event>
 7    1  0.2749315E-009  0.2698780E+03  0.7561462E-02  0.1101349E+00
         -1   -1    0    0    0  501 -0.00000000000E+00  0.00000000000E+00  0.35200508283E+03  0.35200508283E+03  0.00000000000E+00 0.  1.
          1   -1    0    0  501    0  0.00000000000E+00 -0.00000000000E+00 -0.20737361014E+03  0.20737361014E+03  0.00000000000E+00 0. -1.
         25    2    1    2    0    0  0.21618974308E+03 -0.12162662099E+03  0.62978287987E+02  0.28485872684E+03  0.12508872672E+03 0.  0.
          5    1    3    3  502    0  0.33732648796E+02 -0.85116425303E+02  0.22944185693E+02  0.94480715007E+02  0.41800000000E+01 0. -1.
         -5    1    3    3    0  502  0.18245709429E+03 -0.36510195689E+02  0.40034102295E+02  0.19037801184E+03  0.41800000000E+01 0. -1.
        -11    1    1    2    0    0 -0.15928846368E+03  0.43116606523E+02  0.55312624108E+02  0.17404408294E+03  0.00000000000E+00 0. -1.
         11    1    1    2    0    0 -0.56901279400E+02  0.78510014470E+02  0.26340560598E+02  0.10047588319E+03  0.00000000000E+00 0.  1.
</event>
<event>
 7    1  0.2749315E-009  0.1555621E+03  0.7561462E-02  0.1193800E+00
         -1   -1    0    0    0  501 -0.00000000000E+00  0.00000000000E+00  0.67289846835E+02  0.67289846835E+02  0.00000000000E+00 0.  1.
          1   -1    0    0  501    0  0.00000000000E+00 -0.00000000000E+00 -0.52860777756E+03  0.52860777756E+03  0.00000000000E+00 0. -1.
         25    2    1    2    0    0 -0.83788086246E+02  0.12806199872E+03 -0.22593298153E+03  0.30019026454E+03  0.12509262116E+03 0.  0.
          5    1    3    3  502    0 -0.10445429002E+01  0.16444572089E+02 -0.13044382046E+03  0.13154686510E+03  0.41800000000E+01 0.  1.
         -5    1    3    3    0  502 -0.82743543345E+02  0.11161742663E+03 -0.95489161069E+02  0.16864339944E+03  0.41800000000E+01 0.  1.
        -11    1    1    2    0    0  0.74655705912E+01 -0.29675953424E+02 -0.12696910108E+03  0.13060455422E+03  0.00000000000E+00 0. -1.
         11    1    1    2    0    0  0.76322515654E+02 -0.98386045295E+02 -0.10841584812E+03  0.16510280563E+03  0.00000000000E+00 0.  1.
</event>
<event>
 7    1  0.2749315E-009  0.9736228E+02  0.7561462E-02  0.1285943E+00
         -2   -1    0    0    0  501 -0.00000000000E+00  0.00000000000E+00  0.86766026617E+02  0.86766026617E+02  0.00000000000E+00 0. -1.
          2   -1    0    0  501    0  0.00000000000E+00 -0.00000000000E+00 -0.15448303080E+03  0.15448303080E+03  0.00000000000E+00 0.  1.
         25    2    1    2    0    0 -0.57661399010E+01  0.32602734676E+02 -0.10453760551E+02  0.12980102465E+03  0.12507133250E+03 0.  0.
          5    1    3    3  502    0 -0.61695138826E+02  0.20487383035E+02  0.15289017893E+02  0.66912252141E+02  0.41800000000E+01 0. -1.
         -5    1    3    3    0  502  0.55928998925E+02  0.12115351641E+02 -0.25742778444E+02  0.62888772513E+02  0.41800000000E+01 0. -1.
        -11    1    1    2    0    0  0.34796213457E+02 -0.22633483341E+02  0.52162583285E+01  0.41836113467E+02  0.00000000000E+00 0. -1.
         11    1    1    2    0    0 -0.29030073556E+02 -0.99692513345E+01 -0.62479501958E+02  0.69611919294E+02  0.00000000000E+00 0.  1.
</event>
<event>
 7    1  0.2749315E-009  0.6769937E+02  0.7561462E-02  0.1368096E+00
          1   -1    0    0  501    0  0.00000000000E+00  0.00000000000E+00  0.68239290933E+03  0.68239290933E+03  0.00000000000E+00 0. -1.
         -1   -1    0    0    0  501 -0.00000000000E+00 -0.00000000000E+00 -0.22869463636E+02  0.22869463636E+02  0.00000000000E+00 0.  1.
         25    2    1    2    0    0  0.51030834282E+02  0.28268470422E+02  0.41379386046E+03  0.43620606058E+03  0.12508843216E+03 0.  0.
          5    1    3    3  502    0  0.15320539265E+02 -0.86673259451E+01  0.36428912855E+03  0.36473810198E+03  0.41800000000E+01 0.  1.
         -5    1    3    3    0  502  0.35710295018E+02  0.36935796367E+02  0.49504731919E+02  0.71467958596E+02  0.41800000000E+01 0.  1.
        -11    1    1    2    0    0 -0.42427330366E+02 -0.72396370423E+01  0.24228222186E+03  0.24607552851E+03  0.00000000000E+00 0. -1.
         11    1    1    2    0    0 -0.86035039164E+01 -0.21028833380E+02  0.34473633707E+01  0.22980783868E+02  0.00000000000E+00 0.  1.
</event>
<event>
 7    1  0.2749315E-009  0.1268470E+03  0.7561462E-02  0.1232211E+00
         -2   -1    0    0    0  501 -0.00000000000E+00  0.00000000000E+00  0.30400770723E+02  0.30400770723E+02  0.00000000000E+00 0. -1.
          2   -1    0    0  501    0  0.00000000000E+00 -0.00000000000E+00 -0.77776331083E+03  0.77776331083E+03  0.00000000000E+00 0.  1.
         25    2    1    2    0    0 -0.88733082677E+02 -0.64179981178E+02 -0.38448028890E+03  0.41888836851E+03  0.12509893197E+03 0.  0.
          5    1    3    3  502    0 -0.54426019023E+02 -0.54382190795E+02 -0.37344150658E+03  0.38130780934E+03  0.41800000000E+01 0. -1.
         -5    1    3    3    0  502 -0.34307063654E+02 -0.97977903827E+01 -0.11038782312E+02  0.37580559175E+02  0.41800000000E+01 0. -1.
        -11    1    1    2    0    0  0.69052501280E+02 -0.45736041765E+01 -0.18826485522E+03  0.20058120923E+03  0.00000000000E+00 0.  1.
         11    1    1    2    0    0  0.19680581397E+02  0.68753585354E+02 -0.17461739600E+03  0.18869450381E+03  0.00000000000E+00 0. -1.
</event>
<event>
 7    1  0.2749315E-009  0.6827701E+02  0.7561462E-02  0.1366052E+00
          2   -1    0    0  501    0  0.00000000000E+00  0.00000000000E+00  0.24466907917E+02  0.24466907917E+02  0.00000000000E+00 0.  1.
         -2   -1    0    0    0  501 -0.00000000000E+00 -0.00000000000E+00 -0.69979450044E+03  0.69979450044E+03  0.00000000000E+00 0. -1.
         25    2    1    2    0    0 -0.31554851375E+02 -0.33985871632E+02 -0.59363473679E+03  0.60844080460E+03  0.12508902377E+03 0.  0.
          5    1    3    3  502    0 -0.36698538813E+02 -0.35828184771E+02 -0.59805444691E+03  0.60026413806E+03  0.41800000000E+01 0. -1.
         -5    1    3    3    0  502  0.51436874381E+01  0.18423131387E+01  0.44197101209E+01  0.81766665405E+01  0.41800000000E+01 0. -1.
        -11    1    1    2    0    0  0.39812239166E+02 -0.33743773500E+01 -0.59247933337E+02  0.71461307116E+02  0.00000000000E+00 0. -1.
         11    1    1    2    0    0 -0.82573877913E+01  0.37360248982E+02 -0.22444922403E+02  0.44359296645E+02  0.00000000000E+00 0.  1.
</event>
<event>
 7    1  0.3462362E-009  0.1786291E+03  0.7561462E-02  0.1169136E+00
          2   -1    0    0  501    0  0.00000000000E+00  0.00000000000E+00  0.62862775950E+03  0.62862775950E+03  0.00000000000E+00 0. -1.
         -2   -1    0    0    0  501 -0.00000000000E+00 -0.00000000000E+00 -0.66432522657E+02  0.66432522657E+02  0.00000000000E+00 0.  1.
         25    2    1    2    0    0 -0.87069243267E+02 -0.14550772837E+03  0.34917952782E+03  0.40783194540E+03  0.12508797267E+03 0.  0.
          5    1    3    3  502    0 -0.67260246373E+01 -0.86535378667E+02  0.25961577760E+03  0.27377259824E+03  0.41800000000E+01 0. -1.
         -5    1    3    3    0  502 -0.80343218630E+02 -0.58972349704E+02  0.89563750220E+02  0.13405934717E+03  0.41800000000E+01 0. -1.
        -11    1    1    2    0    0  0.70076096389E+02  0.10065305179E+03  0.81541387152E+02  0.14727760841E+03  0.00000000000E+00 0.  1.
         11    1    1    2    0    0  0.16993146878E+02  0.44854676582E+02  0.13147432188E+03  0.13995072835E+03  0.00000000000E+00 0. -1.
</event>
<event>
 7    1  0.2749315E-009  0.1948355E+03  0.7561462E-02  0.1154171E+00
          1   -1    0    0  501    0  0.00000000000E+00  0.00000000000E+00  0.34300977494E+03  0.34300977494E+03  0.00000000000E+00 0. -1.
         -1   -1    0    0    0  501 -0.00000000000E+00 -0.00000000000E+00 -0.15317772376E+03  0.15317772376E+03  0.00000000000E+00 0.  1.
         25    2    1    2    0    0  0.17945662625E+03  0.35526875655E+02  0.72173261376E+01  0.22173455888E+03  0.12508910907E+03 0.  0.
          5    1    3    3  502    0  0.61788287129E+02  0.56269217431E+02  0.46704200760E+02  0.95826781357E+02  0.41800000000E+01 0.  1.
         -5    1    3    3    0  502  0.11766833912E+03 -0.20742341776E+02 -0.39486874622E+02  0.12590777753E+03  0.41800000000E+01 0.  1.
        -11    1    1    2    0    0 -0.73419813784E+02  0.33635247788E+01  0.13114246476E+03  0.15033339090E+03  0.00000000000E+00 0.  1.
         11    1    1    2    0    0 -0.10603681247E+03 -0.38890400433E+02  0.51472260283E+02  0.12411954891E+03  0.00000000000E+00 0. -1.
</event>
<event>
 7    1  0.2749315E-009  0.8643835E+02  0.7561462E-02  0.1311713E+00
         -4   -1    0    0    0  501 -0.00000000000E+00  0.00000000000E+00  0.31973995790E+02  0.31973995790E+02  0.00000000000E+00 0.  1.
          4   -1    0    0  501    0  0.00000000000E+00 -0.00000000000E+00 -0.49174288201E+03  0.49174288201E+03  0.00000000000E+00 0. -1.
         25    2    1    2    0    0 -0.24100547513E+02  0.10345250790E+02 -0.36410454225E+03  0.38588508381E+03  0.12508924658E+03 0.  0.
          5    1    3    3  502    0 -0.52027731058E+02  0.31365272827E+02 -0.33417777094E+03  0.33968061488E+03  0.41800000000E+01 0. -1.
         -5    1    3    3    0  502  0.27927183545E+02 -0.21020022038E+02 -0.29926771317E+02  0.46204468926E+02  0.41800000000E+01 0. -1.
        -11    1    1    2    0    0  0.12208031976E+02  0.31232811419E+02 -0.76407259498E+00  0.33542634971E+02  0.00000000000E+00 0.  1.
         11    1    1    2    0    0  0.11892515537E+02 -0.41578062209E+02 -0.94900271367E+02  0.10428915902E+03  0.00000000000E+00 0. -1.
</event>
<event>
 7    1  0.2749315E-009  0.1099907E+03  0.7561462E-02  0.1260587E+00
         -2   -1    0    0    0  501 -0.00000000000E+00  0.00000000000E+00  0.24833905887E+02  0.24833905887E+02  0.00000000000E+00 0.  1.
          2   -1    0    0  501    0  0.00000000000E+00 -0.00000000000E+00 -0.77774616584E+03  0.77774616584E+03  0.00000000000E+00 0. -1.
         25    2    1    2    0    0  0.60677567886E+02 -0.48070370150E+01 -0.23472282955E+03  0.27285162060E+03  0.12509326641E+03 0.  0.
          5    1    3    3  502    0  0.22391121731E+02 -0.48451415744E+02 -0.19541021086E+03  0.20261175911E+03  0.41800000000E+01 0. -1.
         -5    1    3    3    0  502  0.38286446155E+02  0.43644378729E+02 -0.39312618689E+02  0.70239861489E+02  0.41800000000E+01 0. -1.
        -11    1    1    2    0    0 -0.60863734526E+02 -0.33805568607E+02 -0.37588700422E+03  0.38228032985E+03  0.00000000000E+00 0.  1.
         11    1    1    2    0    0  0.18616664008E+00  0.38612605622E+02 -0.14230242618E+03  0.14744812128E+03  0.00000000000E+00 0. -1.
</event>
<event>
 7    1  0.2749315E-009  0.1141121E+03  0.7561462E-02  0.1253139E+00
         -2   -1    0    0    0  501 -0.00000000000E+00  0.00000000000E+00  0.38960365060E+02  0.38960365060E+02  0.00000000000E+00 0.  1.
          2   -1    0    0  501    0  0.00000000000E+00 -0.00000000000E+00 -0.50501650210E+03  0.50501650210E+03  0.00000000000E+00 0. -1.
         25    2    1    2    0    0 -0.74768303039E+02  0.16410133860E+02 -0.29096096991E+03  0.32583016653E+03  0.12508964696E+03 0.  0.
          5    1    3    3  502    0 -0.97814329158E+01  0.57223338774E+02 -0.19141837819E+03  0.20007162427E+03  0.41800000000E+01 0. -1.
         -5    1    3    3    0  502 -0.64986870123E+02 -0.40813204914E+02 -0.99542591725E+02  0.12575854226E+03  0.41800000000E+01 0. -1.
        -11    1    1    2    0    0  0.75843322111E+02  0.87507553340E+00 -0.18374779855E+03  0.19878689277E+03  0.00000000000E+00 0. -1.
         11    1    1    2    0    0 -0.10750190724E+01 -0.17285209393E+02  0.86526314226E+01  0.19359807858E+02  0.00000000000E+00 0.  1.
</event>
<event>
 7    1  0.2749315E-009  0.1254687E+03  0.7561462E-02  0.1234339E+00
          1   -1    0    0  501    0  0.00000000000E+00  0.00000000000E+00  0.35151452751E+03  0.35151452751E+03  0.00000000000E+00 0. -1.
         -1   -1    0    0    0  501 -0.00000000000E+00 -0.00000000000E+00 -0.59870807035E+02  0.59870807035E+02  0.00000000000E+00 0.  1.
         25    2    1    2    0    0  0.12085009389E+01 -0.94593170948E+02  0.19151751218E+03  0.24753661873E+03  0.12508433825E+03 0.  0.
          5    1    3    3  502    0 -0.38308721991E+02 -0.10778118876E+03  0.14867267451E+03  0.18763096594E+03  0.41800000000E+01 0. -1.
         -5    1    3    3    0  502  0.39517222930E+02  0.13188017813E+02  0.42844837664E+02  0.59905652792E+02  0.41800000000E+01 0. -1.
        -11    1    1    2    0    0 -0.30664260828E-03  0.34914063905E+02  0.98094698481E+02  0.10412282040E+03  0.00000000000E+00 0. -1.
         11    1    1    2    0    0 -0.12081942963E+01  0.59679107043E+02  0.20315098169E+01  0.59725895414E+02  0.00000000000E+00 0.  1.
</event>
<event>
 7    1  0.2749315E-009  0.1340116E+03  0.7561462E-02  0.1221622E+00
          2   -1    0    0  501    0  0.00000000000E+00  0.00000000000E+00  0.74466513245E+03  0.74466513245E+03  0.00000000000E+00 0. -1.
         -2   -1    0    0    0  501 -0.00000000000E+00 -0.00000000000E+00 -0.26986443629E+02  0.26986443629E+02  0.00000000000E+00 0.  1.
         25    2    1    2    0    0  0.46358772300E+01 -0.82831827670E+02  0.48417954738E+03  0.50691197237E+03  0.12508921058E+03 0.  0.
          5    1    3    3  502    0 -0.21273570815E+02 -0.10923000063E+03  0.39168527841E+03  0.40720828525E+03  0.41800000000E+01 0.  1.
         -5    1    3    3    0  502  0.25909448045E+02  0.26398172964E+02  0.92494268970E+02  0.99703687124E+02  0.41800000000E+01 0.  1.
        -11    1    1    2    0    0 -0.44616129893E+02  0.54519380804E+02  0.98293066221E+02  0.12093175264E+03  0.00000000000E+00 0.  1.
         11    1    1    2    0    0  0.39980252663E+02  0.28312446866E+02  0.13520607523E+03  0.14380785107E+03  0.00000000000E+00 0. -1.
</event>
<event>
 7    1  0.2749315E-009  0.7025476E+02  0.7561462E-02  0.1359229E+00
          2   -1    0    0  501    0  0.00000000000E+00  0.00000000000E+00  0.83732871678E+02  0.83732871678E+02  0.00000000000E+00 0. -1.
         -2   -1    0    0    0  501 -0.00000000000E+00 -0.00000000000E+00 -0.18443739934E+03  0.18443739934E+03  0.00000000000E+00 0.  1.
         25    2    1    2    0    0 -0.27188606759E+02 -0.51034147426E+02 -0.69427772384E+02  0.15430991410E+03  0.12509048513E+03 0.  0.
          5    1    3    3  502    0  0.53521513102E+01 -0.61948493286E+01 -0.93362255370E+02  0.93813670697E+02  0.41800000000E+01 0. -1.
         -5    1    3    3    0  502 -0.32540758069E+02 -0.44839298097E+02  0.23934482986E+02  0.60496243399E+02  0.41800000000E+01 0. -1.
        -11    1    1    2    0    0  0.41344094783E+02  0.42165388760E+02  0.18075802563E+02  0.61757500120E+02  0.00000000000E+00 0. -1.
         11    1    1    2    0    0 -0.14155488024E+02  0.88687586657E+01 -0.49352557846E+02  0.52102856807E+02  0.00000000000E+00 0.  1.
</event>
<event>
 7    1  0.2749315E-009  0.8152208E+02  0.7561462E-02  0.1324787E+00
         -2   -1    0    0    0  501 -0.00000000000E+00  0.00000000000E+00  0.43350716091E+02  0.43350716091E+02  0.00000000000E+00 0.  1.
          2   -1    0    0  501    0  0.00000000000E+00 -0.00000000000E+00 -0.31187102892E+03  0.31187102892E+03  0.00000000000E+00 0. -1.
         25    2    1    2    0    0 -0.46252322581E+01  0.31996362735E+02 -0.19363625490E+03  0.23278279964E+03  0.12509065750E+03 0.  0.
          5    1    3    3  502    0 -0.13411650672E+02  0.64609366380E+02 -0.44228791564E+02  0.79548104949E+02  0.41800000000E+01 0.  1.
         -5    1    3    3    0  502  0.87864184135E+01 -0.32613003645E+02 -0.14940746334E+03  0.15323469469E+03  0.41800000000E+01 0.  1.
        -11    1    1    2    0    0  0.25074333541E+02 -0.18546227765E+00  0.11913292534E+02  0.27761180411E+02  0.00000000000E+00 0.  1.
         11    1    1    2    0    0 -0.20449101283E+02 -0.31810900458E+02 -0.86797350460E+02  0.94677764961E+02  0.00000000000E+00 0. -1.
</event>
<event>
 7    1  0.2749315E-009  0.1065772E+03  0.7561462E-02  0.1267043E+00
          1   -1    0    0  501    0  0.00000000000E+00  0.00000000000E+00  0.17708401690E+03  0.17708401690E+03  0.00000000000E+00 0. -1.
         -1   -1    0    0    0  501 -0.00000000000E+00 -0.00000000000E+00 -0.72025095831E+02  0.72025095831E+02  0.00000000000E+00 0.  1.
         25    2    1    2    0    0 -0.24562178416E+02  0.30600873893E+01  0.47747765461E+02  0.13616345599E+03  0.12509185784E+03 0.  0.
          5    1    3    3  502    0  0.32840421023E+01 -0.57189370258E+02  0.62528310217E+01  0.57775248150E+02  0.41800000000E+01 0.  1.
         -5    1    3    3    0  502 -0.27846220518E+02  0.60249457647E+02  0.41494934439E+02  0.78388207838E+02  0.41800000000E+01 0.  1.
        -11    1    1    2    0    0 -0.68554945617E+01 -0.40078418138E+02  0.49021474639E+02  0.63689735295E+02  0.00000000000E+00 0. -1.
         11    1    1    2    0    0  0.31417672978E+02  0.37018330749E+02  0.82896809661E+01  0.49255921444E+02  0.00000000000E+00 0.  1.
</event>
<event>
 7    1  0.2749315E-009  0.1088681E+03  0.7561462E-02  0.1262680E+00
         -2   -1    0    0    0  501 -0.00000000000E+00  0.00000000000E+00  0.43614653825E+02  0.43614653825E+02  0.00000000000E+00 0.  1.
          2   -1    0    0  501    0  0.00000000000E+00 -0.00000000000E+00 -0.43129438650E+03  0.43129438650E+03  0.00000000000E+00 0. -1.
         25    2    1    2    0    0  0.79788022102E+02 -0.20806753609E+02 -0.23777718078E+03  0.28104652851E+03  0.12510041576E+03 0.  0.
          5    1    3    3  502    0  0.26471669619E+02  0.18784384975E+02  0.14286056622E+01  0.32758445101E+02  0.41800000000E+01 0.  1.
         -5    1    3    3    0  502  0.53316352483E+02 -0.39591138583E+02 -0.23920578644E+03  0.24828808341E+03  0.41800000000E+01 0.  1.
        -11    1    1    2    0    0 -0.95740489869E+02  0.47853583405E+01 -0.97210754434E+02  0.13652498611E+03  0.00000000000E+00 0.  1.
         11    1    1    2    0    0  0.15952467767E+02  0.16021395268E+02 -0.52691797459E+02  0.57337525702E+02  0.00000000000E+00 0. -1.
</event>
<event>
 7    1  0.2749315E-009  0.1656400E+03  0.7561462E-02  0.1182472E+00
         -4   -1    0    0    0  501 -0.00000000000E+00  0.00000000000E+00  0.52005115175E+03  0.52005115175E+03  0.00000000000E+00 0.  1.
          4   -1    0    0  501    0  0.00000000000E+00 -0.00000000000E+00 -0.68552770313E+02  0.68552770313E+02  0.00000000000E+00 0. -1.
         25    2    1    2    0    0  0.10153478719E+03  0.10983337996E+03  0.18174298743E+03  0.26655250648E+03  0.12508813240E+03 0.  0.
          5    1    3    3  502    0  0.35764057535E+02  0.10952360287E+03  0.15988701811E+03  0.19711879250E+03  0.41800000000E+01 0.  1.
         -5    1    3    3    0  502  0.65770729656E+02  0.30977708699E+00  0.21855969313E+02  0.69433713972E+02  0.41800000000E+01 0.  1.
        -11    1    1    2    0    0 -0.74836325969E+02 -0.72569419990E+02  0.25232119649E+03  0.27300692775E+03  0.00000000000E+00 0.  1.
         11    1    1    2    0    0 -0.26698461221E+02 -0.37263959967E+02  0.17434197522E+02  0.49044487838E+02  0.00000000000E+00 0. -1.
</event>
<event>
 7    1  0.2749315E-009  0.9709687E+02  0.7561462E-02  0.1286522E+00
          2   -1    0    0  501    0  0.00000000000E+00  0.00000000000E+00  0.40953685180E+02  0.40953685180E+02  0.00000000000E+00 0. -1.
         -2   -1    0    0    0  501 -0.00000000000E+00 -0.00000000000E+00 -0.39076102817E+03  0.39076102817E+03  0.00000000000E+00 0.  1.
         25    2    1    2    0    0 -0.39899421899E+02 -0.47655949603E+02 -0.22941647546E+03  0.26859446916E+03  0.12509203112E+03 0.  0.
          5    1    3    3  502    0 -0.34323159616E+01 -0.81290218529E+02 -0.94415869545E+02  0.12470649239E+03  0.41800000000E+01 0.  1.
         -5    1    3    3    0  502 -0.36467105938E+02  0.33634268926E+02 -0.13500060592E+03  0.14388797677E+03  0.41800000000E+01 0.  1.
        -11    1    1    2    0    0  0.24004454794E+02  0.35825486564E+02 -0.20933394136E+01  0.43174777445E+02  0.00000000000E+00 0. -1.
         11    1    1    2    0    0  0.15894967106E+02  0.11830463038E+02 -0.11829752811E+03  0.11994546675E+03  0.00000000000E+00 0.  1.
</event>
<event>
 7    1  0.2749315E-009  0.8682228E+02  0.7561462E-02  0.1310735E+00
         -2   -1    0    0    0  501 -0.00000000000E+00  0.00000000000E+00  0.49565061192E+03  0.49565061192E+03  0.00000000000E+00 0.  1.
          2   -1    0    0  501    0  0.00000000000E+00 -0.00000000000E+00 -0.38058427562E+02  0.38058427562E+02  0.00000000000E+00 0. -1.
         25    2    1    2    0    0  0.29663291215E+02  0.15806758352E+02  0.40037091470E+03  0.42080333042E+03  0.12509520014E+03 0.  0.
          5    1    3    3  502    0  0.54176887154E+02  0.97483271825E+01  0.68636261092E+02  0.88082766312E+02  0.41800000000E+01 0. -1.
         -5    1    3    3    0  502 -0.24513595940E+02  0.60584311697E+01  0.33173465361E+03  0.33272056411E+03  0.41800000000E+01 0. -1.
        -11    1    1    2    0    0  0.10958679113E+02 -0.42728330698E+02  0.10390565552E+02  0.45318503336E+02  0.00000000000E+00 0.  1.
         11    1    1    2    0    0 -0.40621970327E+02  0.26921572346E+02  0.46830704103E+02  0.67587205724E+02  0.00000000000E+00 0. -1.
</event>
<event>
 7    1  0.2749315E-009  0.1153415E+03  0.7561462E-02  0.1250986E+00
         -1   -1    0    0    0  501 -0.00000000000E+00  0.00000000000E+00  0.64813217201E+02  0.64813217201E+02  0.00000000000E+00 0.  1.
          1   -1    0    0  501    0  0.00000000000E+00 -0.00000000000E+00 -0.35239966266E+03  0.35239966266E+03  0.00000000000E+00 0. -1.
         25    2    1    2    0    0 -0.38755598578E+02  0.75877965073E+02 -0.88780028687E+02  0.17546923860E+03  0.12509235867E+03 0.  0.
          5    1    3    3  502    0 -0.99282740317E+01 -0.27167628062E+01  0.28916210918E+02  0.30976944318E+02  0.41800000000E+01 0. -1.
         -5    1    3    3    0  502 -0.28827324546E+02  0.78594727880E+02 -0.11769623961E+03  0.14449229429E+03  0.41800000000E+01 0. -1.
        -11    1    1    2    0    0  0.38806257654E+02 -0.10225825161E+03 -0.17407113940E+03  0.20558073165E+03  0.00000000000E+00 0. -1.
         11    1    1    2    0    0 -0.50659075866E-01  0.26380286538E+02 -0.24735277368E+02  0.36162909598E+02  0.00000000000E+00 0.  1.
</event>
<event>
 7    1  0.2749315E-009  0.1225569E+03  0.7561462E-02  0.1238938E+00
          2   -1    0    0  501    0  0.00000000000E+00  0.00000000000E+00  0.29680111336E+03  0.29680111336E+03  0.00000000000E+00 0. -1.
         -2   -1    0    0    0  501 -0.00000000000E+00 -0.00000000000E+00 -0.10507821171E+03  0.10507821171E+03  0.00000000000E+00 0.  1.
         25    2    1    2    0    0  0.70428493252E+02  0.98221778093E+02  0.17797612540E+03  0.24885818533E+03  0.12508878783E+03 0.  0.
          5    1    3    3  502    0  0.42609201162E+02  0.55270713979E+02  0.69110514695E+01  0.70254045291E+02  0.41800000000E+01 0.  1.
         -5    1    3    3    0  502  0.27819292090E+02  0.42951064115E+02  0.17106507393E+03  0.17860414004E+03  0.41800000000E+01 0.  1.
        -11    1    1    2    0    0 -0.66894375591E+02 -0.75541444693E+02 -0.28578867498E+02  0.10487191721E+03  0.00000000000E+00 0.  1.
         11    1    1    2    0    0 -0.35341176610E+01 -0.22680333400E+02  0.42325643753E+02  0.48149222527E+02  0.00000000000E+00 0. -1.
</event>
<event>
 7    1  0.2749315E-009  0.1936466E+03  0.7561462E-02  0.1155213E+00
         -2   -1    0    0    0  501 -0.00000000000E+00  0.00000000000E+00  0.36740277365E+02  0.36740277365E+02  0.00000000000E+00 0.  1.
          2   -1    0    0  501    0  0.00000000000E+00 -0.00000000000E+00 -0.11319620558E+04  0.11319620558E+04  0.00000000000E+00 0. -1.
         25    2    1    2    0    0 -0.17059940053E+03 -0.55239933271E+01 -0.63790672782E+03  0.67209141631E+03  0.12508880249E+03 0.  0.
          5    1    3    3  502    0 -0.18101250184E+03 -0.23092290123E+02 -0.61307570492E+03  0.63967028385E+03  0.41800000000E+01 0.  1.
         -5    1    3    3    0  502  0.10413101305E+02  0.17568296796E+02 -0.24831022907E+02  0.32421132455E+02  0.41800000000E+01 0.  1.
        -11    1    1    2    0    0  0.23546133961E+02 -0.24339630456E+02 -0.36251004410E+02  0.49608198476E+02  0.00000000000E+00 0.  1.
         11    1    1    2    0    0  0.14705326657E+03  0.29863623783E+02 -0.42106404618E+03  0.44700271836E+03  0.00000000000E+00 0. -1.
</event>
<event>
 7    1  0.2749315E-009  0.1378028E+03  0.7561462E-02  0.1216316E+00
         -3   -1    0    0    0  501 -0.00000000000E+00  0.00000000000E+00  0.46218624352E+02  0.46218624352E+02  0.00000000000E+00 0.  1.
          3   -1    0    0  501    0  0.00000000000E+00 -0.00000000000E+00 -0.51808282071E+03  0.51808282071E+03  0.00000000000E+00 0. -1.
         25    2    1    2    0    0  0.10077017838E+03 -0.42996571016E+02 -0.25550743379E+03  0.30485194069E+03  0.12508926034E+03 0.  0.
          5    1    3    3  502    0  0.32458767604E+02 -0.66278145856E+02 -0.20145473967E+03  0.21458762487E+03  0.41800000000E+01 0.  1.
         -5    1    3    3    0  502  0.68311410772E+02  0.23281574840E+02 -0.54052694122E+02  0.90264315821E+02  0.41800000000E+01 0.  1.
        -11    1    1    2    0    0 -0.44166361814E+02  0.55998029826E+02 -0.61903110295E+02  0.94437502744E+02  0.00000000000E+00 0.  1.
         11    1    1    2    0    0 -0.56603816562E+02 -0.13001458810E+02 -0.15445365227E+03  0.16501200162E+03  0.00000000000E+00 0. -1.
</event>
<event>
 7    1  0.2749315E-009  0.9101275E+02  0.7561462E-02  0.1300418E+00
         -4   -1    0    0    0  501 -0.00000000000E+00  0.00000000000E+00  0.10642297382E+04  0.10642297382E+04  0.00000000000E+00 0.  1.
          4   -1    0    0  501    0  0.00000000000E+00 -0.00000000000E+00 -0.19238187528E+02  0.19238187528E+02  0.00000000000E+00 0. -1.
         25    2    1    2    0    0  0.60613541364E+01 -0.11388414369E+02  0.90090222639E+03  0.90963676101E+03  0.12509108472E+03 0.  0.
          5    1    3    3  502    0  0.33214678194E+02  0.25149170415E+02  0.11464650317E+03  0.12205322081E+03  0.41800000000E+01 0. -1.
         -5    1    3    3    0  502 -0.27153324058E+02 -0.36537584784E+02  0.78625572322E+03  0.78758354020E+03  0.41800000000E+01 0. -1.
        -11    1    1    2    0    0 -0.49701785969E+02  0.16626159374E+01  0.96331663291E+02  0.10841042926E+03  0.00000000000E+00 0.  1.
         11    1    1    2    0    0  0.43640431832E+02  0.97257984316E+01  0.47757661042E+02  0.65420735504E+02  0.00000000000E+00 0. -1.
</event>
<event>
 7    1  0.2749315E-009  0.8999877E+02  0.7561462E-02  0.1302855E+00
          2   -1    0    0  501    0  0.00000000000E+00  0.00000000000E+00  0.12725180190E+04  0.12725180190E+04  0.00000000000E+00 0. -1.
         -2   -1    0    0    0  501 -0.00000000000E+00 -0.00000000000E+00 -0.92323762457E+01  0.92323762457E+01  0.00000000000E+00 0.  1.
         25    2    1    2    0    0 -0.59510584988E+01 -0.19254358174E+02  0.98649600635E+03  0.99459908338E+03  0.12508725243E+03 0.  0.
          5    1    3    3  502    0 -0.26819710855E+02 -0.58572547653E+02  0.80852753199E+03  0.81110066121E+03  0.41800000000E+01 0. -1.
         -5    1    3    3    0  502  0.20868652356E+02  0.39318189478E+02  0.17796847436E+03  0.18349842217E+03  0.41800000000E+01 0. -1.
        -11    1    1    2    0    0  0.17447249950E+02  0.41871497273E+02  0.22443441469E+03  0.22897256454E+03  0.00000000000E+00 0. -1.
         11    1    1    2    0    0 -0.11496191451E+02 -0.22617139099E+02  0.52355221705E+02  0.58178747311E+02  0.00000000000E+00 0.  1.
</event>
<event>
 7    1  0.4666397E-009  0.1214516E+03  0.7561462E-02  0.1240721E+00
         -1   -1    0    0    0  501 -0.00000000000E+00  0.00000000000E+00  0.36098431603E+02  0.36098431603E+02  0.00000000000E+00 0.  1.
          1   -1    0    0  501    0  0.00000000000E+00 -0.00000000000E+00 -0.63292196482E+03  0.63292196482E+03  0.00000000000E+00 0. -1.
         25    2    1    2    0    0 -0.16059428206E+02 -0.96872666752E+02 -0.40263579585E+03  0.43290456972E+03  0.12509421882E+03 0.  0.
          5    1    3    3  502    0 -0.42005864151E+02 -0.47760924366E+02 -0.35168614845E+03  0.35741602920E+03  0.41800000000E+01 0.  1.
         -5    1    3    3    0  502  0.25946435945E+02 -0.49111742386E+02 -0.50949647400E+02  0.75488540512E+02  0.41800000000E+01 0.  1.
        -11    1    1    2    0    0  0.40713215916E+02  0.25720286171E+02 -0.33512794306E+02  0.58670320036E+02  0.00000000000E+00 0.  1.
         11    1    1    2    0    0 -0.24653787710E+02  0.71152380581E+02 -0.16067494306E+03  0.17744550667E+03  0.00000000000E+00 0. -1.
</event>
<event>
 7    1  0.2749315E-009  0.1025154E+03  0.7561462E-02  0.1275094E+00
         -2   -1    0    0    0  501 -0.00000000000E+00  0.00000000000E+00  0.36823991195E+03  0.36823991195E+03  0.00000000000E+00 0.  1.
          2   -1    0    0  501    0  0.00000000000E+00 -0.00000000000E+00 -0.42126358735E+02  0.42126358735E+02  0.00000000000E+00 0. -1.
         25    2    1    2    0    0 -0.15658725934E+02  0.35448704855E+02  0.11471396471E+03  0.17409064152E+03  0.12508577614E+03 0.  0.
          5    1    3    3  502    0 -0.31758023114E+02 -0.23985781635E+02  0.10402141359E+03  0.11145320381E+03  0.41800000000E+01 0.  1.
         -5    1    3    3    0  502  0.16099297180E+02  0.59434486490E+02  0.10692551112E+02  0.62637437713E+02  0.41800000000E+01 0.  1.
        -11    1    1    2    0    0  0.53803111383E+02 -0.36704486615E+02  0.10876338348E+03  0.12677329261E+03  0.00000000000E+00 0. -1.
         11    1    1    2    0    0 -0.38144385449E+02  0.12557817599E+01  0.10263620503E+03  0.10950233656E+03  0.00000000000E+00 0.  1.
</event>
<event>
 7    1  0.2749315E-009  0.1507770E+03  0.7561462E-02  0.1199521E+00
          2   -1    0    0  501    0  0.00000000000E+00  0.00000000000E+00  0.98919676900E+03  0.98919676900E+03  0.00000000000E+00 0. -1.
         -2   -1    0    0    0  501 -0.00000000000E+00 -0.00000000000E+00 -0.31050573925E+02  0.31050573925E+02  0.00000000000E+00 0.  1.
         25    2    1    2    0    0  0.11698996430E+03 -0.30722471507E+02  0.67624591487E+03  0.69827346163E+03  0.12508704107E+03 0.  0.
          5    1    3    3  502    0  0.46461341718E+02 -0.76522388779E+02  0.33256649608E+03  0.34443036883E+03  0.41800000000E+01 0.  1.
         -5    1    3    3    0  502  0.70528622585E+02  0.45799917271E+02  0.34367941879E+03  0.35384309281E+03  0.41800000000E+01 0.  1.
        -11    1    1    2    0    0 -0.42912755582E+02 -0.87528946614E+01  0.19985574326E+03  0.20459823037E+03  0.00000000000E+00 0. -1.
         11    1    1    2    0    0 -0.74077208720E+02  0.39475366169E+02  0.82044536944E+02  0.11737565092E+03  0.00000000000E+00 0.  1.
</event>
<event>
 7    1  0.2749315E-009  0.5158185E+02  0.7561462E-02  0.1436992E+00
         -1   -1    0    0    0  501 -0.00000000000E+00  0.00000000000E+00  0.12681765511E+03  0.12681765511E+03  0.00000000000E+00 0.  1.
          1   -1    0    0  501    0  0.00000000000E+00 -0.00000000000E+00 -0.10453617070E+03  0.10453617070E+03  0.00000000000E+00 0. -1.
         25    2    1    2    0    0 -0.13423448089E+02 -0.26552039848E+02  0.36731441025E+02  0.13372348495E+03  0.12509025497E+03 0.  0.
          5    1    3    3  502    0 -0.31184666952E+01  0.52864982991E+01  0.79169479792E+02  0.79516984534E+02  0.41800000000E+01 0.  1.
         -5    1    3    3    0  502 -0.10304981393E+02 -0.31838538147E+02 -0.42438038767E+02  0.54206500415E+02  0.41800000000E+01 0.  1.
        -11    1    1    2    0    0  0.34447718204E+02  0.12144309946E+02  0.29415582277E+02  0.46897825474E+02  0.00000000000E+00 0. -1.
         11    1    1    2    0    0 -0.21024270115E+02  0.14407729902E+02 -0.43865538895E+02  0.50732515386E+02  0.00000000000E+00 0.  1.
</event>
<event>
 7    1  0.2749315E-009  0.1032688E+03  0.7561462E-02  0.1273569E+00
          2   -1    0    0  501    0  0.00000000000E+00  0.00000000000E+00  0.29400059830E+02  0.29400059830E+02  0.00000000000E+00 0.  1.
         -2   -1    0    0    0  501 -0.00000000000E+00 -0.00000000000E+00 -0.51362834318E+03  0.51362834318E+03  0.00000000000E+00 0. -1.
         25    2    1    2    0    0  0.20348951579E+01 -0.41839639208E+02 -0.34723319344E+03  0.37144708436E+03  0.12508936666E+03 0.  0.
          5    1    3    3  502    0  0.61207658096E+02 -0.27042169844E+02 -0.13734528946E+03  0.15283604711E+03  0.41800000000E+01 0. -1.
         -5    1    3    3    0  502 -0.59172762938E+02 -0.14797469364E+02 -0.20988790398E+03  0.21861103726E+03  0.41800000000E+01 0. -1.
        -11    1    1    2    0    0 -0.34122929834E+02  0.22868012216E+02 -0.14534062615E+02  0.43572460331E+02  0.00000000000E+00 0.  1.
         11    1    1    2    0    0  0.32088034676E+02  0.18971626991E+02 -0.12246102729E+03  0.12800885831E+03  0.00000000000E+00 0. -1.
</event>
<event>
 7    1  0.2749315E-009  0.9904779E+02  0.7561462E-02  0.1282311E+00
          2   -1    0    0  501    0  0.00000000000E+00  0.00000000000E+00  0.73714493368E+03  0.73714493368E+03  0.00000000000E+00 0. -1.
         -2   -1    0    0    0  501 -0.00000000000E+00 -0.00000000000E+00 -0.21316678387E+02  0.21316678387E+02  0.00000000000E+00 0.  1.
         25    2    1    2    0    0  0.22747845594E+02 -0.37660558524E+02  0.53933080005E+03  0.55539235859E+03  0.12508868036E+03 0.  0.
          5    1    3    3  502    0  0.40448649931E+02 -0.58622863868E+02  0.51017594907E+03  0.51514047100E+03  0.41800000000E+01 0.  1.
         -5    1    3    3    0  502 -0.17700804337E+02  0.20962305344E+02  0.29154850979E+02  0.40251887597E+02  0.41800000000E+01 0.  1.
        -11    1    1    2    0    0  0.15107867809E+02  0.55232908967E+02  0.11856991959E+03  0.13167288155E+03  0.00000000000E+00 0. -1.
         11    1    1    2    0    0 -0.37855713403E+02 -0.17572350443E+02  0.57927535647E+02  0.71396371921E+02  0.00000000000E+00 0.  1.
</event>
<event>
 7    1  0.2749315E-009  0.9941094E+02  0.7561462E-02  0.1281540E+00
         -2   -1    0    0    0  501 -0.00000000000E+00  0.00000000000E+00  0.11856081662E+02  0.11856081662E+02  0.00000000000E+00 0.  1.
          2   -1    0    0  501    0  0.00000000000E+00 -0.00000000000E+00 -0.98849022216E+03  0.98849022216E+03  0.00000000000E+00 0. -1.
         25    2    1    2    0    0 -0.10451455426E+01 -0.67711485269E+01 -0.55944905338E+03  0.57330566930E+03  0.12509678791E+03 0.  0.
          5    1    3    3  502    0 -0.21704722156E+02 -0.53328790874E+02 -0.43435707289E+03  0.43817644171E+03  0.41800000000E+01 0.  1.
         -5    1    3    3    0  502  0.20659576613E+02  0.46557642347E+02 -0.12509198049E+03  0.13512922759E+03  0.41800000000E+01 0.  1.
        -11    1    1    2    0    0 -0.48616198788E+01 -0.41284481111E+02 -0.22797380951E+03  0.23173282364E+03  0.00000000000E+00 0. -1.
         11    1    1    2    0    0  0.59067654213E+01  0.48055629638E+02 -0.18921127761E+03  0.19530781089E+03  0.00000000000E+00 0.  1.
</event>
<event>
 7    1  0.2749315E-009  0.1542355E+03  0.7561462E-02  0.1195363E+00
         -2   -1    0    0    0  501 -0.00000000000E+00  0.00000000000E+00  0.75133891917E+02  0.75133891917E+02  0.00000000000E+00 0.  1.
          2   -1    0    0  501    0  0.00000000000E+00 -0.00000000000E+00 -0.34914779864E+03  0.34914779864E+03  0.00000000000E+00 0. -1.
         25    2    1    2    0    0  0.11327082655E+03  0.33324026846E+02 -0.11719372567E+03  0.20814284345E+03  0.12509317740E+03 0.  0.
          5    1    3    3  502    0  0.61648442238E+02 -0.38022110725E+02 -0.90574899423E+02  0.11604954175E+03  0.41800000000E+01 0. -1.
         -5    1    3    3    0  502  0.51622384314E+02  0.71346137571E+02 -0.26618826247E+02  0.92093301707E+02  0.41800000000E+01 0. -1.
        -11    1    1    2    0    0 -0.86499733199E+02  0.19379664549E+02 -0.81722854145E+02  0.12056699437E+03  0.00000000000E+00 0. -1.
         11    1    1    2    0    0 -0.26771093353E+02 -0.52703691395E+02 -0.75097326904E+02  0.95571852730E+02  0.00000000000E+00 0.  1.
</event>
<event>
 7    1  0.2749315E-009  0.1019464E+03  0.7561462E-02  0.1276255E+00
         -3   -1    0    0    0  501 -0.00000000000E+00  0.00000000000E+00  0.90686760796E+02  0.90686760796E+02  0.00000000000E+00 0.  1.
          3   -1    0    0  501    0  0.00000000000E+00 -0.00000000000E+00 -0.12353257763E+03  0.12353257763E+03  0.00000000000E+00 0. -1.
         25    2    1    2    0    0 -0.73898974519E+01 -0.18879314931E+02 -0.23041763240E+02  0.12880246851E+03  0.12509242153E+03 0.  0.
          5    1    3    3  502    0  0.47029449578E+02  0.21449863051E+02  0.10796885253E+02  0.52970849377E+02  0.41800000000E+01 0. -1.
         -5    1    3    3    0  502 -0.54419347030E+02 -0.40329177982E+02 -0.33838648493E+02  0.75831619129E+02  0.41800000000E+01 0. -1.
        -11    1    1    2    0    0  0.19328841879E+02  0.48513497965E+02 -0.81888359157E+00  0.52228672044E+02  0.00000000000E+00 0.  1.
         11    1    1    2    0    0 -0.11938944427E+02 -0.29634183034E+02 -0.89851699982E+01  0.33188197872E+02  0.00000000000E+00 0. -1.
</event>
<event>
 7    1  0.2749315E-009  0.1083398E+03  0.7561462E-02  0.1263676E+00
          2   -1    0    0  501    0  0.00000000000E+00  0.00000000000E+00  0.45664698130E+03  0.45664698130E+03  0.00000000000E+00 0. -1.
         -2   -1    0    0    0  501 -0.00000000000E+00 -0.00000000000E+00 -0.42701147876E+02  0.42701147876E+02  0.00000000000E+00 0.  1.
         25    2    1    2    0    0 -0.49194539741E+02 -0.47751643517E+02  0.12638578215E+03  0.19059005835E+03  0.12510348601E+03 0.  0.
          5    1    3    3  502    0 -0.60179059283E+02 -0.66434597689E+02  0.13878846706E+03  0.16527185464E+03  0.41800000000E+01 0.  1.
         -5    1    3    3    0  502  0.10984519543E+02  0.18682954172E+02 -0.12402684910E+02  0.25318203711E+02  0.41800000000E+01 0.  1.
        -11    1    1    2    0    0  0.50813669960E+02  0.67816439353E+02  0.26639641023E+03  0.27954989874E+03  0.00000000000E+00 0. -1.
         11    1    1    2    0    0 -0.16191302197E+01 -0.20064795836E+02  0.21163641043E+02  0.29208172090E+02  0.00000000000E+00 0.  1.
</event>
<event>
 7    1  0.2749315E-009  0.1450679E+03  0.7561462E-02  0.1206668E+00
          1   -1    0    0  501    0  0.00000000000E+00  0.00000000000E+00  0.87221294246E+02  0.87221294246E+02  0.00000000000E+00 0. -1.
         -1   -1    0    0    0  501 -0.00000000000E+00 -0.00000000000E+00 -0.28741457572E+03  0.28741457572E+03  0.00000000000E+00 0.  1.
         25    2    1    2    0    0  0.78779767818E+02 -0.81558737307E+02 -0.85869777590E+02  0.18941930413E+03  0.12509186474E+03 0.  0.
          5    1    3    3  502    0 -0.33662081704E+01 -0.85570700387E+02 -0.52699082609E+02  0.10063966330E+03  0.41800000000E+01 0. -1.
         -5    1    3    3    0  502  0.82145975988E+02  0.40119630799E+01 -0.33170694981E+02  0.88779640821E+02  0.41800000000E+01 0. -1.
        -11    1    1    2    0    0 -0.66608158853E+02  0.37713996707E+02 -0.11679950728E+03  0.13964640086E+03  0.00000000000E+00 0.  1.
         11    1    1    2    0    0 -0.12171608965E+02  0.43844740600E+02  0.24760033960E+01  0.45570164976E+02  0.00000000000E+00 0. -1.
</event>
<event>
 7    1  0.2749315E-009  0.9462876E+02  0.7561462E-02  0.1292014E+00
         -2   -1    0    0    0  501 -0.00000000000E+00  0.00000000000E+00  0.11143137122E+03  0.11143137122E+03  0.00000000000E+00 0.  1.
          2   -1    0    0  501    0  0.00000000000E+00 -0.00000000000E+00 -0.14603461496E+03  0.14603461496E+03  0.00000000000E+00 0. -1.
         25    2    1    2    0    0  0.46604758174E+02  0.24850507921E+02 -0.61129639711E+02  0.14890736379E+03  0.12508804464E+03 0.  0.
          5    1    3    3  502    0  0.85536660880E+02  0.52081753962E+01 -0.60701638023E+02  0.10509903284E+03  0.41800000000E+01 0. -1.
         -5    1    3    3    0  502 -0.38931902706E+02  0.19642332524E+02 -0.42800168755E+00  0.43808330952E+02  0.41800000000E+01 0. -1.
        -11    1    1    2    0    0 -0.44243105357E+02 -0.10981369340E+02 -0.27157422891E+02  0.53061930442E+02  0.00000000000E+00 0. -1.
         11    1    1    2    0    0 -0.23616528167E+01 -0.13869138581E+02  0.53683818860E+02  0.55496691941E+02  0.00000000000E+00 0.  1.
</event>
<event>
 7    1  0.2749315E-009  0.1670674E+03  0.7561462E-02  0.1180941E+00
         -1   -1    0    0    0  501 -0.00000000000E+00  0.00000000000E+00  0.95642320453E+02  0.95642320453E+02  0.00000000000E+00 0.  1.
          1   -1    0    0  501    0  0.00000000000E+00 -0.00000000000E+00 -0.32267927587E+03  0.32267927587E+03  0.00000000000E+00 0. -1.
         25    2    1    2    0    0  0.10107157966E+03 -0.91225037413E+02 -0.14355854737E+03  0.23408124647E+03  0.12508997466E+03 0.  0.
          5    1    3    3  502    0  0.17335524643E+02 -0.83940688809E+02 -0.26309204659E+02  0.89756371931E+02  0.41800000000E+01 0.  1.
         -5    1    3    3    0  502  0.83736055019E+02 -0.72843486035E+01 -0.11724934271E+03  0.14432487454E+03  0.41800000000E+01 0.  1.
        -11    1    1    2    0    0  0.17771547793E+01 -0.15702279881E+02 -0.63846889767E+01  0.17043594865E+02  0.00000000000E+00 0.  1.
         11    1    1    2    0    0 -0.10284873444E+03  0.10692731729E+03 -0.77093719078E+02  0.16719675500E+03  0.00000000000E+00 0. -1.
</event>
<event>
 7    1  0.2749315E-009  0.1092343E+03  0.7561462E-02  0.1261995E+00
          1   -1    0    0  501    0  0.00000000000E+00  0.00000000000E+00  0.24724260451E+03  0.24724260451E+03  0.00000000000E+00 0. -1.
         -1   -1    0    0    0  501 -0.00000000000E+00 -0.00000000000E+00 -0.69207501964E+02  0.69207501964E+02  0.00000000000E+00 0.  1.
         25    2    1    2    0    0 -0.50849945930E+02 -0.44643191663E+02  0.13532056890E+03  0.19630765718E+03  0.12508520431E+03 0.  0.
          5    1    3    3  502    0 -0.87535600791E+02 -0.39050945434E+02  0.62599430205E+02  0.11455836420E+03  0.41800000000E+01 0.  1.
         -5    1    3    3    0  502  0.36685654861E+02 -0.55922462289E+01  0.72721138695E+02  0.81749292985E+02  0.41800000000E+01 0.  1.
        -11    1    1    2    0    0  0.40802897301E+02  0.56466848580E+02 -0.51203205986E+01  0.69854127292E+02  0.00000000000E+00 0.  1.
         11    1    1    2    0    0  0.10047048630E+02 -0.11823656918E+02  0.47834854240E+02  0.50288321997E+02  0.00000000000E+00 0. -1.
</event>
<event>
 7    1  0.2749315E-009  0.1068571E+03  0.7561462E-02  0.1266503E+00
         -4   -1    0    0    0  501 -0.00000000000E+00  0.00000000000E+00  0.11774936689E+03  0.11774936689E+03  0.00000000000E+00 0.  1.
          4   -1    0    0  501    0  0.00000000000E+00 -0.00000000000E+00 -0.14028894489E+03  0.14028894489E+03  0.00000000000E+00 0. -1.
         25    2    1    2    0    0  0.57091968674E+02 -0.39956531444E+02 -0.49004851474E+01  0.14327356992E+03  0.12508910340E+03 0.  0.
          5    1    3    3  502    0  0.42621263141E+02 -0.85258792043E+02 -0.48402153990E+01  0.95532893694E+02  0.41800000000E+01 0.  1.
         -5    1    3    3    0  502  0.14470705534E+02  0.45302260599E+02 -0.60269748442E-01  0.47740676225E+02  0.41800000000E+01 0.  1.
        -11    1    1    2    0    0 -0.29162950100E+02  0.27125074635E+02  0.35516033164E+02  0.53363245256E+02  0.00000000000E+00 0.  1.
         11    1    1    2    0    0 -0.27929018574E+02  0.12831456809E+02 -0.53155126017E+02  0.61401496597E+02  0.00000000000E+00 0. -1.
</event>
<event>
 7    1  0.2749315E-009  0.8585214E+02  0.7561462E-02  0.1313219E+00
         -2   -1    0    0    0  501 -0.00000000000E+00  0.00000000000E+00  0.56286651638E+02  0.56286651638E+02  0.00000000000E+00 0. -1.
          2   -1    0    0  501    0  0.00000000000E+00 -0.00000000000E+00 -0.22921352101E+03  0.22921352101E+03  0.00000000000E+00 0.  1.
         25    2    1    2    0    0 -0.65922468828E+01  0.30178302948E+02 -0.92190454797E+02  0.15843544330E+03  0.12509405282E+03 0.  0.
          5    1    3    3  502    0  0.10364396944E+02 -0.45084170909E+02 -0.14001756189E+02  0.48513140148E+02  0.41800000000E+01 0.  1.
         -5    1    3    3    0  502 -0.16956643827E+02  0.75262473858E+02 -0.78188698608E+02  0.10992230316E+03  0.41800000000E+01 0.  1.
        -11    1    1    2    0    0  0.21768119288E+02 -0.14391650710E+02 -0.96575367936E+02  0.10003885405E+03  0.00000000000E+00 0.  1.
         11    1    1    2    0    0 -0.15175872405E+02 -0.15786652238E+02  0.15838953358E+02  0.27025875298E+02  0.00000000000E+00 0. -1.
</event>
<event>
 7    1  0.2749315E-009  0.2127875E+03  0.7561462E-02  0.1139377E+00
         -2   -1    0    0    0  501 -0.00000000000E+00  0.00000000000E+00  0.66519255087E+02  0.66519255087E+02  0.00000000000E+00 0.  1.
          2   -1    0    0  501    0  0.00000000000E+00 -0.00000000000E+00 -0.79623224441E+03  0.79623224441E+03  0.00000000000E+00 0. -1.
         25    2    1    2    0    0 -0.14265921170E+03  0.13890810556E+03 -0.44847950398E+03  0.50638859626E+03  0.12509369471E+03 0.  0.
          5    1    3    3  502    0  0.15955593581E+02  0.13871550102E+02 -0.10307044399E+02  0.23889504662E+02  0.41800000000E+01 0. -1.
         -5    1    3    3    0  502 -0.15861480528E+03  0.12503655546E+03 -0.43817245958E+03  0.48249909159E+03  0.41800000000E+01 0. -1.
        -11    1    1    2    0    0  0.65159812084E+02 -0.40398133604E+02 -0.44896155910E+02  0.88845231302E+02  0.00000000000E+00 0.  1.
         11    1    1    2    0    0  0.77499399614E+02 -0.98509971957E+02 -0.23633732943E+03  0.26751767193E+03  0.00000000000E+00 0. -1.
</event>
<event>
 7    1  0.2749315E-009  0.7663791E+02  0.7561462E-02  0.1338873E+00
         -1   -1    0    0    0  501 -0.00000000000E+00  0.00000000000E+00  0.82153547967E+02  0.82153547967E+02  0.00000000000E+00 0.  1.
          1   -1    0    0  501    0  0.00000000000E+00 -0.00000000000E+00 -0.15104246367E+03  0.15104246367E+03  0.00000000000E+00 0. -1.
         25    2    1    2    0    0  0.10467521372E+02 -0.19718654069E+02 -0.31732383673E+02  0.13096776591E+03  0.12508883728E+03 0.  0.
          5    1    3    3  502    0  0.19832758290E+02  0.47786252896E+02  0.71440786241E+01  0.52396321690E+02  0.41800000000E+01 0. -1.
         -5    1    3    3    0  502 -0.93652369185E+01 -0.67504906965E+02 -0.38876462297E+02  0.78571444225E+02  0.41800000000E+01 0. -1.
        -11    1    1    2    0    0  0.75300885047E+01  0.10349600304E+02  0.29710726414E+02  0.32350328026E+02  0.00000000000E+00 0.  1.
         11    1    1    2    0    0 -0.17997609876E+02  0.93690537649E+01 -0.66867258444E+02  0.69877917696E+02  0.00000000000E+00 0. -1.
</event>
<event>
 7    1  0.2749315E-009  0.9296457E+02  0.7561462E-02  0.1295827E+00
         -1   -1    0    0    0  501 -0.00000000000E+00  0.00000000000E+00  0.13265230011E+03  0.13265230011E+03  0.00000000000E+00 0.  1.
          1   -1    0    0  501    0  0.00000000000E+00 -0.00000000000E+00 -0.15917165259E+03  0.15917165259E+03  0.00000000000E+00 0. -1.
         25    2    1    2    0    0 -0.69859299723E+01 -0.88584022133E+02 -0.54413295162E+02  0.16280065325E+03  0.12508922341E+03 0.  0.
          5    1    3    3  502    0  0.36292354424E+01 -0.82900359128E+02  0.21502486888E+02  0.85822317819E+02  0.41800000000E+01 0. -1.
         -5    1    3    3    0  502 -0.10615165415E+02 -0.56836630059E+01 -0.75915782050E+02  0.76978335434E+02  0.41800000000E+01 0. -1.
        -11    1    1    2    0    0  0.92418354790E+01  0.28274874191E+02  0.55259570502E+02  0.62757470994E+02  0.00000000000E+00 0.  1.
         11    1    1    2    0    0 -0.22559055067E+01  0.60309147943E+02 -0.27365627816E+02  0.66265828456E+02  0.00000000000E+00 0. -1.
</event>
<event>
 7    1  0.2749315E-009  0.1243312E+03  0.7561462E-02  0.1236118E+00
         -2   -1    0    0    0  501 -0.00000000000E+00  0.00000000000E+00  0.62192294605E+02  0.62192294605E+02  0.00000000000E+00 0.  1.
          2   -1    0    0  501    0  0.00000000000E+00 -0.00000000000E+00 -0.31952669951E+03  0.31952669951E+03  0.00000000000E+00 0. -1.
         25    2    1    2    0    0  0.71698821183E+02  0.39164832895E+02 -0.90028947727E+02  0.17443448810E+03  0.12509026387E+03 0.  0.
          5    1    3    3  502    0  0.10124326379E+03  0.43778948199E+02 -0.42821985916E+02  0.11839759139E+03  0.41800000000E+01 0.  1.
         -5    1    3    3    0  502 -0.29544442611E+02 -0.46141153042E+01 -0.47206961812E+02  0.56036896709E+02  0.41800000000E+01 0.  1.
        -11    1    1    2    0    0 -0.68614367494E+01 -0.42609038719E+02 -0.22683376055E+02  0.48755974445E+02  0.00000000000E+00 0.  1.
         11    1    1    2    0    0 -0.64837384434E+02  0.34442058238E+01 -0.14462208112E+03  0.15852853157E+03  0.00000000000E+00 0. -1.
</event>
<event>
 7    1  0.2749315E-009  0.1127090E+03  0.7561462E-02  0.1255634E+00
          1   -1    0    0  501    0  0.00000000000E+00  0.00000000000E+00  0.21157193264E+02  0.21157193264E+02  0.00000000000E+00 0. -1.
         -1   -1    0    0    0  501 -0.00000000000E+00 -0.00000000000E+00 -0.76054955266E+03  0.76054955266E+03  0.00000000000E+00 0.  1.
         25    2    1    2    0    0  0.49422112727E+02  0.36934349671E+02 -0.34489390888E+03  0.37202977054E+03  0.12509056870E+03 0.  0.
          5    1    3    3  502    0  0.77703260271E+02  0.52852404854E+01 -0.30054748607E+03  0.31050280869E+03  0.41800000000E+01 0. -1.
         -5    1    3    3    0  502 -0.28281147544E+02  0.31649109185E+02 -0.44346422809E+02  0.61526961850E+02  0.41800000000E+01 0. -1.
        -11    1    1    2    0    0  0.23604656844E+02 -0.16297500024E+01 -0.44465950259E+02  0.50369203311E+02  0.00000000000E+00 0. -1.
         11    1    1    2    0    0 -0.73026769571E+02 -0.35304599668E+02 -0.35003250026E+03  0.35930777207E+03  0.00000000000E+00 0.  1.
</event>
<event>
 7    1  0.2749315E-009  0.1773292E+03  0.7561462E-02  0.1170413E+00
         -1   -1    0    0    0  501 -0.00000000000E+00  0.00000000000E+00  0.18029460385E+03  0.18029460385E+03  0.00000000000E+00 0.  1.
          1   -1    0    0  501    0  0.00000000000E+00 -0.00000000000E+00 -0.22959797933E+03  0.22959797933E+03  0.00000000000E+00 0. -1.
         25    2    1    2    0    0 -0.13843353428E+03 -0.74174697144E+02 -0.95151807554E+02  0.22218878318E+03  0.12509300453E+03 0.  0.
          5    1    3    3  502    0 -0.15465732831E+03 -0.53569949598E+02 -0.10427183697E+03  0.19411006436E+03  0.41800000000E+01 0.  1.
         -5    1    3    3    0  502  0.16223794035E+02 -0.20604747546E+02  0.91200294139E+01  0.28078718824E+02  0.41800000000E+01 0.  1.
        -11    1    1    2    0    0  0.19078241793E+02 -0.66786767248E+01  0.38344007263E+02  0.43345667900E+02  0.00000000000E+00 0.  1.
         11    1    1    2    0    0  0.11935529249E+03  0.80853373869E+02  0.75044248076E+01  0.14435813210E+03  0.00000000000E+00 0. -1.
</event>
<event>
 7    1  0.2749315E-009  0.1287553E+03  0.7561462E-02  0.1229314E+00
          2   -1    0    0  501    0  0.00000000000E+00  0.00000000000E+00  0.16742770896E+03  0.16742770896E+03  0.00000000000E+00 0. -1.
         -2   -1    0    0    0  501 -0.00000000000E+00 -0.00000000000E+00 -0.14162538898E+03  0.14162538898E+03  0.00000000000E+00 0.  1.
         25    2    1    2    0    0 -0.57246001332E+02  0.87118755287E+02 -0.16354115927E+02  0.16365289268E+03  0.12509208601E+03 0.  0.
          5    1    3    3  502    0 -0.73193916856E+02  0.96806746795E+01 -0.35750578586E+02  0.82137940053E+02  0.41800000000E+01 0.  1.
         -5    1    3    3    0  502  0.15947915524E+02  0.77438080608E+02  0.19396462659E+02  0.81514952625E+02  0.41800000000E+01 0.  1.
        -11    1    1    2    0    0  0.23654686185E+02 -0.40960135968E+02 -0.27988811326E+02  0.54960444653E+02  0.00000000000E+00 0.  1.
         11    1    1    2    0    0  0.33591315147E+02 -0.46158619319E+02  0.70145247234E+02  0.90439760616E+02  0.00000000000E+00 0. -1.
</event>
<event>
 7    1  0.2749315E-009  0.1308860E+03  0.7561462E-02  0.1226147E+00
          2   -1    0    0  501    0  0.00000000000E+00  0.00000000000E+00  0.21708366535E+04  0.21708366535E+04  0.00000000000E+00 0. -1.
         -2   -1    0    0    0  501 -0.00000000000E+00 -0.00000000000E+00 -0.10795583090E+02  0.10795583090E+02  0.00000000000E+00 0.  1.
         25    2    1    2    0    0  0.68965168815E+02  0.64540297026E+02  0.15185708339E+04  0.15266385105E+04  0.12508444963E+03 0.  0.
          5    1    3    3  502    0  0.78601524231E+02  0.11066145506E+02  0.47170812605E+03  0.47835832570E+03  0.41800000000E+01 0. -1.
         -5    1    3    3    0  502 -0.96363554161E+01  0.53474151520E+02  0.10468627079E+04  0.10482801848E+04  0.41800000000E+01 0. -1.
        -11    1    1    2    0    0 -0.89240040124E+02 -0.58220131541E+02  0.58577221882E+03  0.59538429675E+03  0.00000000000E+00 0.  1.
         11    1    1    2    0    0  0.20274871309E+02 -0.63201654851E+01  0.55698017668E+02  0.59609429376E+02  0.00000000000E+00 0. -1.
</event>
<event>
 7    1  0.2749315E-009  0.1463806E+03  0.7561462E-02  0.1204992E+00
          2   -1    0    0  501    0  0.00000000000E+00  0.00000000000E+00  0.74248812438E+03  0.74248812438E+03  0.00000000000E+00 0. -1.
         -2   -1    0    0    0  501 -0.00000000000E+00 -0.00000000000E+00 -0.40322930702E+02  0.40322930702E+02  0.00000000000E+00 0.  1.
         25    2    1    2    0    0  0.11140574480E+03 -0.29891472561E+02  0.20144453264E+03  0.26369087930E+03  0.12509292541E+03 0.  0.
          5    1    3    3  502    0  0.25877236952E+02 -0.70614968912E+02  0.87645105172E+02  0.11556488259E+03  0.41800000000E+01 0. -1.
         -5    1    3    3    0  502  0.85528507844E+02  0.40723496351E+02  0.11379942747E+03  0.14812599671E+03  0.41800000000E+01 0. -1.
        -11    1    1    2    0    0 -0.34512449343E+02  0.29992733530E+02  0.86685612977E+02  0.98005452509E+02  0.00000000000E+00 0.  1.
         11    1    1    2    0    0 -0.76893295452E+02 -0.10126096872E+00  0.41403504806E+03  0.42111472328E+03  0.00000000000E+00 0. -1.
</event>
<event>
 7    1  0.2749315E-009  0.1165722E+03  0.7561462E-02  0.1248861E+00
         -2   -1    0    0    0  501 -0.00000000000E+00  0.00000000000E+00  0.32103738570E+02  0.32103738570E+02  0.00000000000E+00 0.  1.
          2   -1    0    0  501    0  0.00000000000E+00 -0.00000000000E+00 -0.90343888058E+03  0.90343888058E+03  0.00000000000E+00 0. -1.
         25    2    1    2    0    0 -0.95495726043E+01 -0.61739566358E+02 -0.78384068364E+03  0.79621416345E+03  0.12509120018E+03 0.  0.
          5    1    3    3  502    0  0.25000140080E+02 -0.85786561270E+02 -0.64193820626E+03  0.64814078266E+03  0.41800000000E+01 0.  1.
         -5    1    3    3    0  502 -0.34549712684E+02  0.24046994912E+02 -0.14190247738E+03  0.14807338079E+03  0.41800000000E+01 0.  1.
        -11    1    1    2    0    0  0.23630581354E+02 -0.11871015607E+02 -0.47535107471E+02  0.54395880625E+02  0.00000000000E+00 0. -1.
         11    1    1    2    0    0 -0.14081008749E+02  0.73610581965E+02 -0.39959350903E+02  0.84932575078E+02  0.00000000000E+00 0.  1.
</event>
<event>
 7    1  0.2749315E-009  0.8602873E+02  0.7561462E-02  0.1312764E+00
         -2   -1    0    0    0  501 -0.00000000000E+00  0.00000000000E+00  0.11611659304E+02  0.11611659304E+02  0.00000000000E+00 0.  1.
          2   -1    0    0  501    0  0.00000000000E+00 -0.00000000000E+00 -0.95980661585E+03  0.95980661585E+03  0.00000000000E+00 0. -1.
         25    2    1    2    0    0 -0.21859515223E+02 -0.25975569601E+02 -0.66334962129E+03  0.67589411491E+03  0.12509023097E+03 0.  0.
          5    1    3    3  502    0 -0.45337776014E+02  0.16126191168E+02 -0.10644375604E+03  0.11689017741E+03  0.41800000000E+01 0. -1.
         -5    1    3    3    0  502  0.23478260791E+02 -0.42101760769E+02 -0.55690586525E+03  0.55900393750E+03  0.41800000000E+01 0. -1.
        -11    1    1    2    0    0  0.38278301584E+02 -0.66440549926E+01 -0.10379804822E+03  0.11083053123E+03  0.00000000000E+00 0.  1.
         11    1    1    2    0    0 -0.16418786361E+02  0.32619624593E+02 -0.18104728704E+03  0.18469362901E+03  0.00000000000E+00 0. -1.
</event>
<event>
 7    1  0.2749315E-009  0.1940698E+03  0.7561462E-02  0.1154841E+00
          1   -1    0    0  501    0  0.00000000000E+00  0.00000000000E+00  0.17437092769E+04  0.17437092769E+04  0.00000000000E+00 0. -1.
         -1   -1    0    0    0  501 -0.00000000000E+00 -0.00000000000E+00 -0.25016814608E+02  0.25016814608E+02  0.00000000000E+00 0.  1.
         25    2    1    2    0    0 -0.97783254121E+02 -0.13535251074E+03  0.11430233293E+04  0.11619088281E+04  0.12509167243E+03 0.  0.
          5    1    3    3  502    0 -0.10783978095E+03 -0.66368465291E+02  0.53059919953E+03  0.54551551259E+03  0.41800000000E+01 0. -1.
         -5    1    3    3    0  502  0.10056526826E+02 -0.68984045451E+02  0.61242412975E+03  0.61639331547E+03  0.41800000000E+01 0. -1.
        -11    1    1    2    0    0  0.31800226685E+02  0.11961799625E+03  0.38811966912E+03  0.40737770804E+03  0.00000000000E+00 0. -1.
         11    1    1    2    0    0  0.65983027435E+02  0.15734514489E+02  0.18754946394E+03  0.19943955545E+03  0.00000000000E+00 0.  1.
</event>
<event>
 7    1  0.2749315E-009  0.9610655E+02  0.7561462E-02  0.1288703E+00
         -2   -1    0    0    0  501 -0.00000000000E+00  0.00000000000E+00  0.29494416547E+02  0.29494416547E+02  0.00000000000E+00 0. -1.
          2   -1    0    0  501    0  0.00000000000E+00 -0.00000000000E+00 -0.61688788456E+03  0.61688788456E+03  0.00000000000E+00 0.  1.
         25    2    1    2    0    0 -0.80576790276E+02 -0.18534558468E+02 -0.32943780010E+03  0.36195608259E+03  0.12508714001E+03 0.  0.
          5    1    3    3  502    0 -0.84676482150E+01 -0.31115074194E+02 -0.25644666103E+03  0.25849992507E+03  0.41800000000E+01 0.  1.
         -5    1    3    3    0  502 -0.72109142061E+02  0.12580515726E+02 -0.72991139078E+02  0.10345615752E+03  0.41800000000E+01 0.  1.
        -11    1    1    2    0    0  0.39613879371E+02  0.21924108146E+02 -0.23071584432E+03  0.23511641111E+03  0.00000000000E+00 0.  1.
         11    1    1    2    0    0  0.40962910905E+02 -0.33895496780E+01 -0.27239823590E+02  0.49309807403E+02  0.00000000000E+00 0. -1.
</event>
<event>
 7    1  0.2749315E-009  0.9704146E+02  0.7561462E-02  0.1286643E+00
         -1   -1    0    0    0  501 -0.00000000000E+00  0.00000000000E+00  0.11221900883E+03  0.11221900883E+03  0.00000000000E+00 0.  1.
          1   -1    0    0  501    0  0.00000000000E+00 -0.00000000000E+00 -0.13115319130E+03  0.13115319130E+03  0.00000000000E+00 0. -1.
         25    2    1    2    0    0  0.16813285438E+02 -0.31695790840E+02  0.32226990886E+02  0.13406250568E+03  0.12508743647E+03 0.  0.
          5    1    3    3  502    0  0.45675362790E+01 -0.79089307046E+02  0.30223403362E+02  0.84893506156E+02  0.41800000000E+01 0. -1.
         -5    1    3    3    0  502  0.12245749159E+02  0.47393516206E+02  0.20035875239E+01  0.49168999520E+02  0.41800000000E+01 0. -1.
        -11    1    1    2    0    0  0.18997290676E+02  0.20849528051E+02  0.16000354086E+02  0.32428555378E+02  0.00000000000E+00 0.  1.
         11    1    1    2    0    0 -0.35810576114E+02  0.10846262789E+02 -0.67161527443E+02  0.76881139083E+02  0.00000000000E+00 0. -1.
</event>
<event>
 7    1  0.2749315E-009  0.2510316E+03  0.7561462E-02  0.1112655E+00
         -2   -1    0    0    0  501 -0.00000000000E+00  0.00000000000E+00  0.94660526982E+02  0.94660526982E+02  0.00000000000E+00 0.  1.
          2   -1    0    0  501    0  0.00000000000E+00 -0.00000000000E+00 -0.80933800927E+03  0.80933800927E+03  0.00000000000E+00 0. -1.
         25    2    1    2    0    0 -0.15464962218E+03  0.18719142232E+03 -0.24215889361E+03  0.36502817396E+03  0.12508998282E+03 0.  0.
          5    1    3    3  502    0 -0.12561004306E+03  0.15758553362E+03 -0.11688777693E+03  0.23300495299E+03  0.41800000000E+01 0. -1.
         -5    1    3    3    0  502 -0.29039579118E+02  0.29605888701E+02 -0.12527111668E+03  0.13202322097E+03  0.41800000000E+01 0. -1.
        -11    1    1    2    0    0  0.14861495565E+03 -0.11907582412E+03 -0.36116716623E+03  0.40829790460E+03  0.00000000000E+00 0. -1.
         11    1    1    2    0    0  0.60346665318E+01 -0.68115598202E+02 -0.11135142244E+03  0.13067245769E+03  0.00000000000E+00 0.  1.
</event>
<event>
 7    1  0.2749315E-009  0.1888805E+03  0.7561462E-02  0.1159475E+00
         -2   -1    0    0    0  501 -0.00000000000E+00  0.00000000000E+00  0.64297294833E+02  0.64297294833E+02  0.00000000000E+00 0.  1.
          2   -1    0    0  501    0  0.00000000000E+00 -0.00000000000E+00 -0.75493754126E+03  0.75493754126E+03  0.00000000000E+00 0. -1.
         25    2    1    2    0    0  0.90740340484E+02 -0.16314020735E+03 -0.28201628317E+03  0.36059283883E+03  0.12508187239E+03 0.  0.
          5    1    3    3  502    0  0.62202726072E+02 -0.13206579905E+03 -0.10840077871E+03  0.18187565982E+03  0.41800000000E+01 0.  1.
         -5    1    3    3    0  502  0.28537614412E+02 -0.31074408302E+02 -0.17361550446E+03  0.17871717902E+03  0.41800000000E+01 0.  1.
        -11    1    1    2    0    0 -0.69661584696E+02  0.93725567803E+02 -0.15035584116E+03  0.19037882606E+03  0.00000000000E+00 0.  1.
         11    1    1    2    0    0 -0.21078755788E+02  0.69414639545E+02 -0.25826812210E+03  0.26826317119E+03  0.00000000000E+00 0. -1.
</event>
<event>
 7    1  0.2749315E-009  0.1698516E+03  0.7561462E-02  0.1178003E+00
          1   -1    0    0  501    0  0.00000000000E+00  0.00000000000E+00  0.11317074233E+04  0.11317074233E+04  0.00000000000E+00 0. -1.
         -1   -1    0    0    0  501 -0.00000000000E+00 -0.00000000000E+00 -0.35153795220E+02  0.35153795220E+02  0.00000000000E+00 0.  1.
         25    2    1    2    0    0 -0.13266555424E+03  0.22175720615E+02  0.28863329270E+03  0.34212441040E+03  0.12509205678E+03 0.  0.
          5    1    3    3  502    0 -0.14207093015E+03 -0.14065854351E+02  0.19950307444E+03  0.24535881187E+03  0.41800000000E+01 0.  1.
         -5    1    3    3    0  502  0.94053759033E+01  0.36241574965E+02  0.89130218260E+02  0.96765598530E+02  0.41800000000E+01 0.  1.
        -11    1    1    2    0    0  0.82187069799E+01  0.24844231400E+02  0.66270478845E+02  0.71249977856E+02  0.00000000000E+00 0.  1.
         11    1    1    2    0    0  0.12444684726E+03 -0.47019952014E+02  0.74164985657E+03  0.75348683030E+03  0.00000000000E+00 0. -1.
</event>
<event>
 7    1  0.2749315E-009  0.1211376E+03  0.7561462E-02  0.1241232E+00
          1   -1    0    0  501    0  0.00000000000E+00  0.00000000000E+00  0.29984619189E+02  0.29984619189E+02  0.00000000000E+00 0. -1.
         -1   -1    0    0    0  501 -0.00000000000E+00 -0.00000000000E+00 -0.50261494820E+03  0.50261494820E+03  0.00000000000E+00 0.  1.
         25    2    1    2    0    0  0.45400431991E+02 -0.28075372035E+02 -0.28266729361E+03  0.31368305484E+03  0.12508730662E+03 0.  0.
          5    1    3    3  502    0  0.66179623636E+01  0.47802439214E+02 -0.76326265715E+02  0.90399346561E+02  0.41800000000E+01 0.  1.
         -5    1    3    3    0  502  0.38782469627E+02 -0.75877811249E+02 -0.20634102789E+03  0.22328370828E+03  0.41800000000E+01 0.  1.
        -11    1    1    2    0    0  0.29690938761E+02  0.93464640068E+01 -0.47525631800E+02  0.56811916988E+02  0.00000000000E+00 0.  1.
         11    1    1    2    0    0 -0.75091370751E+02  0.18728908028E+02 -0.14243740361E+03  0.16210459556E+03  0.00000000000E+00 0. -1.
</event>
<event>
 7    1  0.2749315E-009  0.1129747E+03  0.7561462E-02  0.1255158E+00
         -1   -1    0    0    0  501 -0.00000000000E+00  0.00000000000E+00  0.68172251298E+02  0.68172251298E+02  0.00000000000E+00 0.  1.
          1   -1    0    0  501    0  0.00000000000E+00 -0.00000000000E+00 -0.21440739564E+03  0.21440739564E+03  0.00000000000E+00 0. -1.
         25    2    1    2    0    0 -0.23483625353E+02 -0.34672446710E+02 -0.62602820852E+02  0.14601740713E+03  0.12509320839E+03 0.  0.
          5    1    3    3  502    0 -0.32842042241E+02 -0.75574944476E+02 -0.17635276297E+02  0.84372076786E+02  0.41800000000E+01 0.  1.
         -5    1    3    3    0  502  0.93584168882E+01  0.40902497766E+02 -0.44967544556E+02  0.61645330347E+02  0.41800000000E+01 0.  1.
        -11    1    1    2    0    0  0.15007059653E+02  0.66584750873E+02 -0.76976561157E+02  0.10287921003E+03  0.00000000000E+00 0. -1.
         11    1    1    2    0    0  0.84765657004E+01 -0.31912304163E+02 -0.66557623366E+01  0.33683029783E+02  0.00000000000E+00 0.  1.
</event>
<event>
 7    1  0.2749315E-009  0.1110103E+03  0.7561462E-02  0.1258710E+00
         -2   -1    0    0    0  501 -0.00000000000E+00  0.00000000000E+00  0.29929241992E+03  0.29929241992E+03  0.00000000000E+00 0.  1.
          2   -1    0    0  501    0  0.00000000000E+00 -0.00000000000E+00 -0.58749842507E+02  0.58749842507E+02  0.00000000000E+00 0. -1.
         25    2    1    2    0    0 -0.31998561532E+02 -0.40834625170E+02  0.20716529251E+03  0.24750251485E+03  0.12509461172E+03 0.  0.
          5    1    3    3  502    0 -0.53569330877E+02 -0.64768314634E+02  0.79502025529E+02  0.11576982446E+03  0.41800000000E+01 0.  1.
         -5    1    3    3    0  502  0.21570769346E+02  0.23933689464E+02  0.12766326698E+03  0.13173269039E+03  0.41800000000E+01 0.  1.
        -11    1    1    2    0    0  0.31812586967E+02  0.69643931717E+02  0.24708904493E+02  0.80454010936E+02  0.00000000000E+00 0. -1.
         11    1    1    2    0    0  0.18597456500E+00 -0.28809306547E+02  0.86683804040E+01  0.30085736638E+02  0.00000000000E+00 0.  1.
</event>
<event>
 7    1  0.2749315E-009  0.1067675E+03  0.7561462E-02  0.1266676E+00
         -2   -1    0    0    0  501 -0.00000000000E+00  0.00000000000E+00  0.21489841319E+02  0.21489841319E+02  0.00000000000E+00 0.  1.
          2   -1    0    0  501    0  0.00000000000E+00 -0.00000000000E+00 -0.83097322076E+03  0.83097322076E+03  0.00000000000E+00 0. -1.
         25    2    1    2    0    0 -0.56450069530E+02  0.37944312547E+02 -0.54944903366E+03  0.56759560042E+03  0.12507655185E+03 0.  0.
          5    1    3    3  502    0 -0.53352761200E+02  0.79062994359E+02 -0.44696815107E+03  0.45705084474E+03  0.41800000000E+01 0. -1.
         -5    1    3    3    0  502 -0.30973083295E+01 -0.41118681812E+02 -0.10248088259E+03  0.11054475568E+03  0.41800000000E+01 0. -1.
        -11    1    1    2    0    0  0.25125572281E+02  0.27349151990E+01 -0.63767769756E+01  0.26066020566E+02  0.00000000000E+00 0.  1.
         11    1    1    2    0    0  0.31324497249E+02 -0.40679227746E+02 -0.25365756881E+03  0.25880144110E+03  0.00000000000E+00 0. -1.
</event>
<event>
 7    1  0.2749315E-009  0.9680960E+02  0.7561462E-02  0.1287152E+00
          1   -1    0    0  501    0  0.00000000000E+00  0.00000000000E+00  0.48875046909E+03  0.48875046909E+03  0.00000000000E+00 0. -1.
         -1   -1    0    0    0  501 -0.00000000000E+00 -0.00000000000E+00 -0.28752124785E+02  0.28752124785E+02  0.00000000000E+00 0.  1.
         25    2    1    2    0    0 -0.26585212310E+02  0.37281875499E+02  0.27722322236E+03  0.30756677018E+03  0.12509153189E+03 0.  0.
          5    1    3    3  502    0 -0.16414063293E+02  0.78094765011E+02  0.11576210685E+03  0.14066467779E+03  0.41800000000E+01 0.  1.
         -5    1    3    3    0  502 -0.10171149018E+02 -0.40812889511E+02  0.16146111550E+03  0.16690209239E+03  0.41800000000E+01 0.  1.
        -11    1    1    2    0    0 -0.69797872368E+01  0.10765446513E+02 -0.45831417485E+01  0.13624149764E+02  0.00000000000E+00 0.  1.
         11    1    1    2    0    0  0.33564999547E+02 -0.48047322012E+02  0.18735826370E+03  0.19631167393E+03  0.00000000000E+00 0. -1.
</event>
<event>
 7    1  0.2749315E-009  0.1217373E+03  0.7561462E-02  0.1240258E+00
         -1   -1    0    0    0  501 -0.00000000000E+00  0.00000000000E+00  0.47401655484E+02  0.47401655484E+02  0.00000000000E+00 0.  1.
          1   -1    0    0  501    0  0.00000000000E+00 -0.00000000000E+00 -0.34257419430E+03  0.34257419430E+03  0.00000000000E+00 0. -1.
         25    2    1    2    0    0 -0.29246597382E+01  0.59098751932E+02 -0.11270857882E+03  0.17846766348E+03  0.12508503929E+03 0.  0.
          5    1    3    3  502    0  0.26809185301E+02 -0.31832230758E+02 -0.25761098563E+02  0.49123618868E+02  0.41800000000E+01 0.  1.
         -5    1    3    3    0  502 -0.29733845039E+02  0.90930982690E+02 -0.86947480262E+02  0.12934404462E+03  0.41800000000E+01 0.  1.
        -11    1    1    2    0    0  0.35350859409E+02 -0.63979276810E+02 -0.11135655623E+03  0.13320403049E+03  0.00000000000E+00 0.  1.
         11    1    1    2    0    0 -0.32426199671E+02  0.48805248781E+01 -0.71107403762E+02  0.78304155815E+02  0.00000000000E+00 0. -1.
</event>
<event>
 7    1  0.2749315E-009  0.2012698E+03  0.7561462E-02  0.1148672E+00
         -1   -1    0    0    0  501 -0.00000000000E+00  0.00000000000E+00  0.70062835832E+03  0.70062835832E+03  0.00000000000E+00 0.  1.
          1   -1    0    0  501    0  0.00000000000E+00 -0.00000000000E+00 -0.70947861299E+02  0.70947861299E+02  0.00000000000E+00 0. -1.
         25    2    1    2    0    0 -0.15758468698E+03  0.11638803680E+03  0.29582016795E+03  0.37621521669E+03  0.12509679781E+03 0.  0.
          5    1    3    3  502    0 -0.79545897878E+02  0.92964557385E+02  0.25946473846E+03  0.28689611657E+03  0.41800000000E+01 0.  1.
         -5    1    3    3    0  502 -0.78038789099E+02  0.23423479418E+02  0.36355429484E+02  0.89319100113E+02  0.41800000000E+01 0.  1.
        -11    1    1    2    0    0  0.63615038374E+02 -0.27930367874E+02  0.56878520833E+02  0.89789446424E+02  0.00000000000E+00 0. -1.
         11    1    1    2    0    0  0.93969648603E+02 -0.88457668929E+02  0.27698180825E+03  0.30557155651E+03  0.00000000000E+00 0.  1.
</event>
<event>
 7    1  0.2749315E-009  0.2070602E+03  0.7561462E-02  0.1143915E+00
          2   -1    0    0  501    0  0.00000000000E+00  0.00000000000E+00  0.23121602290E+03  0.23121602290E+03  0.00000000000E+00 0. -1.
         -2   -1    0    0    0  501 -0.00000000000E+00 -0.00000000000E+00 -0.22903418371E+03  0.22903418371E+03  0.00000000000E+00 0.  1.
         25    2    1    2    0    0  0.11563878832E+03  0.15612856566E+03 -0.56266567424E+02  0.23782315620E+03  0.12508184775E+03 0.  0.
          5    1    3    3  502    0 -0.21910935880E+01  0.57084244264E+02 -0.61116997791E+02  0.83762591014E+02  0.41800000000E+01 0. -1.
         -5    1    3    3    0  502  0.11782988191E+03  0.99044321391E+02  0.48504303670E+01  0.15406056519E+03  0.41800000000E+01 0. -1.
        -11    1    1    2    0    0 -0.97911322043E+02 -0.85340230077E+02  0.71548657950E+02  0.14828618381E+03  0.00000000000E+00 0.  1.
         11    1    1    2    0    0 -0.17727466282E+02 -0.70788335579E+02 -0.13100251343E+02  0.74140866599E+02  0.00000000000E+00 0. -1.
</event>
<event>
 7    1  0.2749315E-009  0.1409761E+03  0.7561462E-02  0.1212021E+00
         -2   -1    0    0    0  501 -0.00000000000E+00  0.00000000000E+00  0.14274387079E+03  0.14274387079E+03  0.00000000000E+00 0. -1.
          2   -1    0    0  501    0  0.00000000000E+00 -0.00000000000E+00 -0.30256185123E+03  0.30256185123E+03  0.00000000000E+00 0.  1.
         25    2    1    2    0    0  0.12847180786E+03 -0.49456807959E+02  0.37601041665E+02  0.18976921090E+03  0.12509010274E+03 0.  0.
          5    1    3    3  502    0  0.65904724468E+02 -0.20234056771E+02 -0.44687419673E+02  0.82263525561E+02  0.41800000000E+01 0.  1.
         -5    1    3    3    0  502  0.62567083394E+02 -0.29222751187E+02  0.82288461339E+02  0.10750568534E+03  0.41800000000E+01 0.  1.
        -11    1    1    2    0    0 -0.49948381651E+02 -0.17147904636E+01 -0.13225743076E+03  0.14138532217E+03  0.00000000000E+00 0.  1.
         11    1    1    2    0    0 -0.78523426211E+02  0.51171598422E+02 -0.65161591346E+02  0.11415118894E+03  0.00000000000E+00 0. -1.
</event>
<event>
 7    1  0.2749315E-009  0.1162706E+03  0.7561462E-02  0.1249379E+00
          2   -1    0    0  501    0  0.00000000000E+00  0.00000000000E+00  0.12650511415E+03  0.12650511415E+03  0.00000000000E+00 0. -1.
         -2   -1    0    0    0  501 -0.00000000000E+00 -0.00000000000E+00 -0.23616499167E+03  0.23616499167E+03  0.00000000000E+00 0.  1.
         25    2    1    2    0    0 -0.62761388596E+02 -0.74766934766E+02  0.38228414950E+02  0.16321021275E+03  0.12508827045E+03 0.  0.
          5    1    3    3  502    0 -0.12213632969E+02 -0.36602048795E+02 -0.44427962497E+02  0.58993211965E+02  0.41800000000E+01 0.  1.
         -5    1    3    3    0  502 -0.50547755627E+02 -0.38164885971E+02  0.82656377448E+02  0.10421700079E+03  0.41800000000E+01 0.  1.
        -11    1    1    2    0    0  0.42268423758E+02 -0.96745669026E+01 -0.28852857563E+02  0.52083627766E+02  0.00000000000E+00 0. -1.
         11    1    1    2    0    0  0.20492964838E+02  0.84441501669E+02 -0.11903543490E+03  0.14737626530E+03  0.00000000000E+00 0.  1.
</event>
<event>
 7    1  0.2749315E-009  0.1026784E+03  0.7561462E-02  0.1274762E+00
         -1   -1    0    0    0  501 -0.00000000000E+00  0.00000000000E+00  0.23587599750E+02  0.23587599750E+02  0.00000000000E+00 0.  1.
          1   -1    0    0  501    0  0.00000000000E+00 -0.00000000000E+00 -0.79120860899E+03  0.79120860899E+03  0.00000000000E+00 0. -1.
         25    2    1    2    0    0  0.35277909427E+02  0.50032565617E+02 -0.58794452782E+03  0.60421558217E+03  0.12509961399E+03 0.  0.
          5    1    3    3  502    0  0.45592575870E+02  0.15492097292E+01 -0.50797816352E+03  0.51003957693E+03  0.41800000000E+01 0. -1.
         -5    1    3    3    0  502 -0.10314666443E+02  0.48483355888E+02 -0.79966364304E+02  0.94176005235E+02  0.41800000000E+01 0. -1.
        -11    1    1    2    0    0  0.26176166986E+02  0.57573367933E+01 -0.42232641377E+02  0.50019342685E+02  0.00000000000E+00 0. -1.
         11    1    1    2    0    0 -0.61454076412E+02 -0.55789902411E+02 -0.13744384004E+03  0.16056128389E+03  0.00000000000E+00 0.  1.
</event>
<event>
 7    1  0.2749315E-009  0.2628186E+03  0.7561462E-02  0.1105461E+00
          2   -1    0    0  501    0  0.00000000000E+00  0.00000000000E+00  0.10631445466E+03  0.10631445466E+03  0.00000000000E+00 0. -1.
         -2   -1    0    0    0  501 -0.00000000000E+00 -0.00000000000E+00 -0.88235040514E+03  0.88235040514E+03  0.00000000000E+00 0.  1.
         25    2    1    2    0    0 -0.94589856600E+02 -0.24234911879E+03 -0.20397518643E+03  0.35345665116E+03  0.12508153828E+03 0.  0.
          5    1    3    3  502    0 -0.59040427323E+02 -0.19737677921E+03 -0.21173955076E+03  0.29545638390E+03  0.41800000000E+01 0. -1.
         -5    1    3    3    0  502 -0.35549429276E+02 -0.44972339573E+02  0.77643643249E+01  0.58000267257E+02  0.41800000000E+01 0. -1.
        -11    1    1    2    0    0  0.25945254890E+02  0.34233102540E+02 -0.18967441034E+03  0.19447735986E+03  0.00000000000E+00 0. -1.
         11    1    1    2    0    0  0.68644601710E+02  0.20811601625E+03 -0.38238635371E+03  0.44073084878E+03  0.00000000000E+00 0.  1.
</event>
<event>
 7    1  0.2749315E-009  0.4029560E+02  0.7561462E-02  0.1506047E+00
         -1   -1    0    0    0  501 -0.00000000000E+00  0.00000000000E+00  0.11359123423E+03  0.11359123423E+03  0.00000000000E+00 0.  1.
          1   -1    0    0  501    0  0.00000000000E+00 -0.00000000000E+00 -0.10976246285E+03  0.10976246285E+03  0.00000000000E+00 0. -1.
         25    2    1    2    0    0  0.60164856406E+01 -0.22559793508E+02  0.19650934660E+02  0.12877488339E+03  0.12510663043E+03 0.  0.
          5    1    3    3  502    0  0.91912392620E+01 -0.12456568719E+02  0.72736056177E+02  0.74482556693E+02  0.41800000000E+01 0.  1.
         -5    1    3    3    0  502 -0.31747536215E+01 -0.10103224789E+02 -0.53085121517E+02  0.54292326697E+02  0.41800000000E+01 0.  1.
        -11    1    1    2    0    0 -0.25161121400E+02  0.22519089158E+01 -0.46615119120E+02  0.53020019374E+02  0.00000000000E+00 0. -1.
         11    1    1    2    0    0  0.19144635759E+02  0.20307884592E+02  0.30792955844E+02  0.41558794311E+02  0.00000000000E+00 0.  1.
</event>
<event>
 7    1  0.2749315E-009  0.8289785E+02  0.7561462E-02  0.1321023E+00
         -3   -1    0    0    0  501 -0.00000000000E+00  0.00000000000E+00  0.16736379567E+03  0.16736379567E+03  0.00000000000E+00 0. -1.
          3   -1    0    0  501    0  0.00000000000E+00 -0.00000000000E+00 -0.12615244698E+03  0.12615244698E+03  0.00000000000E+00 0.  1.
         25    2    1    2    0    0  0.39656399327E+01 -0.80155206866E+02  0.77533748958E+02  0.16762877540E+03  0.12508933058E+03 0.  0.
          5    1    3    3  502    0  0.15694259801E+02 -0.37889972719E+02 -0.30286066381E+02  0.51153475348E+02  0.41800000000E+01 0.  1.
         -5    1    3    3    0  502 -0.11728619868E+02 -0.42265234147E+02  0.10781981534E+03  0.11647530005E+03  0.41800000000E+01 0.  1.
        -11    1    1    2    0    0 -0.48587622907E+01  0.33884872434E+02  0.29659819544E+02  0.45293454783E+02  0.00000000000E+00 0. -1.
         11    1    1    2    0    0  0.89312235799E+00  0.46270334432E+02 -0.65982219808E+02  0.80594012475E+02  0.00000000000E+00 0.  1.
</event>
<event>
 7    1  0.2749315E-009  0.8978498E+02  0.7561462E-02  0.1303373E+00
         -1   -1    0    0    0  501 -0.00000000000E+00  0.00000000000E+00  0.72489055328E+02  0.72489055328E+02  0.00000000000E+00 0.  1.
          1   -1    0    0  501    0  0.00000000000E+00 -0.00000000000E+00 -0.17803676290E+03  0.17803676290E+03  0.00000000000E+00 0. -1.
         25    2    1    2    0    0  0.28725292904E+01 -0.30778162154E+02 -0.71877250239E+02  0.14754363425E+03  0.12508892123E+03 0.  0.
          5    1    3    3  502    0  0.17035590597E+02  0.33485565487E+02 -0.72319994156E+02  0.81603605298E+02  0.41800000000E+01 0.  1.
         -5    1    3    3    0  502 -0.14163061307E+02 -0.64263727641E+02  0.44274391669E+00  0.65940028951E+02  0.41800000000E+01 0.  1.
        -11    1    1    2    0    0  0.24387449795E+02 -0.10345843416E+02  0.17618043989E+02  0.31814771059E+02  0.00000000000E+00 0.  1.
         11    1    1    2    0    0 -0.27259979086E+02  0.41124005570E+02 -0.51288501321E+02  0.71167412919E+02  0.00000000000E+00 0. -1.
</event>
<event>
 7    1  0.2749315E-009  0.1787173E+03  0.7561462E-02  0.1169050E+00
          1   -1    0    0  501    0  0.00000000000E+00  0.00000000000E+00  0.31537104843E+03  0.31537104843E+03  0.00000000000E+00 0. -1.
         -1   -1    0    0    0  501 -0.00000000000E+00 -0.00000000000E+00 -0.13455074999E+03  0.13455074999E+03  0.00000000000E+00 0.  1.
         25    2    1    2    0    0 -0.40360906090E+02 -0.14504539254E+03 -0.27709529394E+01  0.19576066078E+03  0.12508952590E+03 0.  0.
          5    1    3    3  502    0 -0.85655213821E+02 -0.98835575397E+02  0.14040911227E+00  0.13085403599E+03  0.41800000000E+01 0.  1.
         -5    1    3    3    0  502  0.45294307731E+02 -0.46209817140E+02 -0.29113620517E+01  0.64906624792E+02  0.41800000000E+01 0.  1.
        -11    1    1    2    0    0  0.17828931555E+02  0.13647167157E+03  0.18432810593E+03  0.23004181919E+03  0.00000000000E+00 0. -1.
         11    1    1    2    0    0  0.22531974535E+02  0.85737209642E+01 -0.73685455735E+00  0.24119318445E+02  0.00000000000E+00 0.  1.
</event>
<event>
 7    1  0.2749315E-009  0.3676950E+03  0.7561462E-02  0.1055578E+00
          1   -1    0    0  501    0  0.00000000000E+00  0.00000000000E+00  0.10921428281E+04  0.10921428281E+04  0.00000000000E+00 0. -1.
         -1   -1    0    0    0  501 -0.00000000000E+00 -0.00000000000E+00 -0.17039049093E+03  0.17039049093E+03  0.00000000000E+00 0.  1.
         25    2    1    2    0    0  0.61648692454E+02 -0.35832635241E+03  0.16588274751E+03  0.41876461066E+03  0.12509347348E+03 0.  0.
          5    1    3    3  502    0  0.22286522037E+02 -0.29183889616E+03  0.17469679232E+03  0.34088571696E+03  0.41800000000E+01 0.  1.
         -5    1    3    3    0  502  0.39362170418E+02 -0.66487456249E+02 -0.88140448124E+01  0.77878893703E+02  0.41800000000E+01 0.  1.
        -11    1    1    2    0    0 -0.43699405091E+02  0.15114157261E+03  0.42260610949E+03  0.45094272004E+03  0.00000000000E+00 0.  1.
         11    1    1    2    0    0 -0.17949287363E+02  0.20718477980E+03  0.33326348022E+03  0.39282598838E+03  0.00000000000E+00 0. -1.
</event>
<event>
 7    1  0.2749315E-009  0.9572054E+02  0.7561462E-02  0.1289561E+00
         -2   -1    0    0    0  501 -0.00000000000E+00  0.00000000000E+00  0.62738286566E+02  0.62738286566E+02  0.00000000000E+00 0.  1.
          2   -1    0    0  501    0  0.00000000000E+00 -0.00000000000E+00 -0.20499569118E+03  0.20499569118E+03  0.00000000000E+00 0. -1.
         25    2    1    2    0    0 -0.29594691091E+02  0.10214379866E+02 -0.64248599170E+02  0.14407006393E+03  0.12509245193E+03 0.  0.
          5    1    3    3  502    0 -0.26761260343E+02  0.62531340849E+02 -0.10599537564E+02  0.68964891359E+02  0.41800000000E+01 0.  1.
         -5    1    3    3    0  502 -0.28334307484E+01 -0.52316960983E+02 -0.53649061606E+02  0.75105172575E+02  0.41800000000E+01 0.  1.
        -11    1    1    2    0    0 -0.15410950886E+01  0.24244580476E+02  0.82843087959E+01  0.25667185837E+02  0.00000000000E+00 0.  1.
         11    1    1    2    0    0  0.31135786180E+02 -0.34458960343E+02 -0.86293114244E+02  0.97996727980E+02  0.00000000000E+00 0. -1.
</event>
<event>
 7    1  0.2749315E-009  0.1391000E+03  0.7561462E-02  0.1214545E+00
         -2   -1    0    0    0  501 -0.00000000000E+00  0.00000000000E+00  0.10253622202E+03  0.10253622202E+03  0.00000000000E+00 0.  1.
          2   -1    0    0  501    0  0.00000000000E+00 -0.00000000000E+00 -0.21267490555E+03  0.21267490555E+03  0.00000000000E+00 0. -1.
         25    2    1    2    0    0  0.61487430545E+02 -0.46565050634E+02 -0.48771433035E+02  0.15484017176E+03  0.12509123892E+03 0.  0.
          5    1    3    3  502    0 -0.32915704952E+02  0.11840964608E+02 -0.18036083720E+02  0.39578084735E+02  0.41800000000E+01 0. -1.
         -5    1    3    3    0  502  0.94403135497E+02 -0.58406015242E+02 -0.30735349315E+02  0.11526208703E+03  0.41800000000E+01 0. -1.
        -11    1    1    2    0    0  0.29329428169E+02 -0.10327956003E+01 -0.48969159099E+02  0.57089934019E+02  0.00000000000E+00 0. -1.
         11    1    1    2    0    0 -0.90816858713E+02  0.47597846234E+02 -0.12398091392E+02  0.10328102179E+03  0.00000000000E+00 0.  1.
</event>
<event>
 7    1  0.2749315E-009  0.1599384E+03  0.7561462E-02  0.1188766E+00
         -2   -1    0    0    0  501 -0.00000000000E+00  0.00000000000E+00  0.59710362078E+02  0.59710362078E+02  0.00000000000E+00 0.  1.
          2   -1    0    0  501    0  0.00000000000E+00 -0.00000000000E+00 -0.91115807885E+03  0.91115807885E+03  0.00000000000E+00 0. -1.
         25    2    1    2    0    0  0.10136384969E+03 -0.11898160441E+03 -0.16076582973E+03  0.25675828542E+03  0.12509161807E+03 0.  0.
          5    1    3    3  502    0  0.82134206657E+02 -0.91863619158E+02 -0.37284793669E+02  0.12881219145E+03  0.41800000000E+01 0.  1.
         -5    1    3    3    0  502  0.19229643035E+02 -0.27117985247E+02 -0.12348103606E+03  0.12794609397E+03  0.41800000000E+01 0.  1.
        -11    1    1    2    0    0 -0.30046651320E+02  0.78996235908E+01 -0.42624880674E+02  0.52745480952E+02  0.00000000000E+00 0.  1.
         11    1    1    2    0    0 -0.71317198373E+02  0.11108198081E+03 -0.64805700637E+03  0.66136467456E+03  0.00000000000E+00 0. -1.
</event>
<event>
 7    1  0.2749315E-009  0.1075464E+03  0.7561462E-02  0.1265182E+00
         -1   -1    0    0    0  501 -0.00000000000E+00  0.00000000000E+00  0.16832616683E+03  0.16832616683E+03  0.00000000000E+00 0.  1.
          1   -1    0    0  501    0  0.00000000000E+00 -0.00000000000E+00 -0.86258631041E+02  0.86258631041E+02  0.00000000000E+00 0. -1.
         25    2    1    2    0    0  0.21152404459E+02 -0.43993763580E+02  0.55016154466E+02  0.14511443830E+03  0.12509415455E+03 0.  0.
          5    1    3    3  502    0  0.52470444098E+02 -0.66660346062E+02  0.98351133156E+01  0.85504099872E+02  0.41800000000E+01 0.  1.
         -5    1    3    3    0  502 -0.31318039638E+02  0.22666582482E+02  0.45181041151E+02  0.59610338429E+02  0.41800000000E+01 0.  1.
        -11    1    1    2    0    0 -0.50522623687E+02  0.29720883874E+02 -0.10668624206E+02  0.59579241224E+02  0.00000000000E+00 0. -1.
         11    1    1    2    0    0  0.29370219227E+02  0.14272879706E+02  0.37720005524E+02  0.49891118341E+02  0.00000000000E+00 0.  1.
</event>
<event>
 7    1  0.2749315E-009  0.7450843E+02  0.7561462E-02  0.1345400E+00
          1   -1    0    0  501    0  0.00000000000E+00  0.00000000000E+00  0.31084644238E+03  0.31084644238E+03  0.00000000000E+00 0. -1.
         -1   -1    0    0    0  501 -0.00000000000E+00 -0.00000000000E+00 -0.43335138917E+02  0.43335138917E+02  0.00000000000E+00 0.  1.
         25    2    1    2    0    0  0.16129669800E+02 -0.30395847074E+02  0.11733825355E+03  0.17492882173E+03  0.12509097953E+03 0.  0.
          5    1    3    3  502    0  0.28146898272E+02  0.59555753030E+01 -0.18015998023E+02  0.34201832469E+02  0.41800000000E+01 0. -1.
         -5    1    3    3    0  502 -0.12017228471E+02 -0.36351422377E+02  0.13535425157E+03  0.14072698926E+03  0.41800000000E+01 0. -1.
        -11    1    1    2    0    0 -0.41187538866E+02 -0.10764066607E+01  0.12542915917E+03  0.13202289945E+03  0.00000000000E+00 0.  1.
         11    1    1    2    0    0  0.25057869066E+02  0.31472253735E+02  0.24743890748E+02  0.47229860117E+02  0.00000000000E+00 0. -1.
</event>
<event>
 7    1  0.2749315E-009  0.1609807E+03  0.7561462E-02  0.1187594E+00
         -2   -1    0    0    0  501 -0.00000000000E+00  0.00000000000E+00  0.27412982441E+02  0.27412982441E+02  0.00000000000E+00 0.  1.
          2   -1    0    0  501    0  0.00000000000E+00 -0.00000000000E+00 -0.10132951021E+04  0.10132951021E+04  0.00000000000E+00 0. -1.
         25    2    1    2    0    0 -0.12207226624E+03  0.26497007428E+02 -0.46138810323E+03  0.49409611551E+03  0.12509300530E+03 0.  0.
          5    1    3    3  502    0 -0.14289638991E+03  0.31181144684E+02 -0.33088176146E+03  0.36178979325E+03  0.41800000000E+01 0. -1.
         -5    1    3    3    0  502  0.20824123669E+02 -0.46841372559E+01 -0.13050634177E+03  0.13230632227E+03  0.41800000000E+01 0. -1.
        -11    1    1    2    0    0  0.17062880623E+02 -0.44220707801E+02 -0.15705440845E+03  0.16405090706E+03  0.00000000000E+00 0.  1.
         11    1    1    2    0    0  0.10500938562E+03  0.17723700372E+02 -0.36743960800E+03  0.38256106199E+03  0.00000000000E+00 0. -1.
</event>
<event>
 7    1  0.2749315E-009  0.9924577E+02  0.7561462E-02  0.1281890E+00
          2   -1    0    0  501    0  0.00000000000E+00  0.00000000000E+00  0.24005963897E+03  0.24005963897E+03  0.00000000000E+00 0. -1.
         -2   -1    0    0    0  501 -0.00000000000E+00 -0.00000000000E+00 -0.59393305534E+02  0.59393305534E+02  0.00000000000E+00 0.  1.
         25    2    1    2    0    0 -0.27135928137E+02  0.35427017967E+02  0.13383597153E+03  0.18854957410E+03  0.12508973747E+03 0.  0.
          5    1    3    3  502    0  0.21580381556E+01 -0.38191415201E+02  0.90049236165E+02  0.97926394081E+02  0.41800000000E+01 0.  1.
         -5    1    3    3    0  502 -0.29293966292E+02  0.73618433168E+02  0.43786735364E+02  0.90623180021E+02  0.41800000000E+01 0.  1.
        -11    1    1    2    0    0  0.45129476332E+02 -0.41865380712E+02  0.13519421894E+01  0.61572782005E+02  0.00000000000E+00 0.  1.
         11    1    1    2    0    0 -0.17993548195E+02  0.64383627454E+01  0.45478419716E+02  0.49330588395E+02  0.00000000000E+00 0. -1.
</event>
<event>
 7    1  0.2749315E-009  0.9761290E+02  0.7561462E-02  0.1285397E+00
         -1   -1    0    0    0  501 -0.00000000000E+00  0.00000000000E+00  0.25274970978E+03  0.25274970978E+03  0.00000000000E+00 0.  1.
          1   -1    0    0  501    0  0.00000000000E+00 -0.00000000000E+00 -0.50218195735E+02  0.50218195735E+02  0.00000000000E+00 0. -1.
         25    2    1    2    0    0  0.24496444518E+02 -0.25016171631E+02  0.10819436420E+03  0.16905780644E+03  0.12509451161E+03 0.  0.
          5    1    3    3  502    0 -0.92206294546E+01 -0.65517330263E+02  0.25749421150E+02  0.71119938568E+02  0.41800000000E+01 0.  1.
         -5    1    3    3    0  502  0.33717073973E+02  0.40501158632E+02  0.82444943053E+02  0.97937867870E+02  0.41800000000E+01 0.  1.
        -11    1    1    2    0    0 -0.69850001020E+01  0.47250584125E+02  0.94188739286E+02  0.10560741704E+03  0.00000000000E+00 0.  1.
         11    1    1    2    0    0 -0.17511444416E+02 -0.22234412494E+02  0.14841055607E+00  0.28302682032E+02  0.00000000000E+00 0. -1.
</event>
<event>
 7    1  0.2749315E-009  0.1500932E+03  0.7561462E-02  0.1200359E+00
         -1   -1    0    0    0  501 -0.00000000000E+00  0.00000000000E+00  0.88377671965E+02  0.88377671965E+02  0.00000000000E+00 0.  1.
          1   -1    0    0  501    0  0.00000000000E+00 -0.00000000000E+00 -0.30484354526E+03  0.30484354526E+03  0.00000000000E+00 0. -1.
         25    2    1    2    0    0  0.10515974650E+03  0.63701756408E+02 -0.11260558369E+03  0.20843010980E+03  0.12508639869E+03 0.  0.
          5    1    3    3  502    0  0.11542579520E+03  0.71287227395E+02 -0.12898895522E+03  0.18724477551E+03  0.41800000000E+01 0.  1.
         -5    1    3    3    0  502 -0.10266048698E+02 -0.75854709866E+01  0.16383371533E+02  0.21185334285E+02  0.41800000000E+01 0.  1.
        -11    1    1    2    0    0 -0.42780068889E+02 -0.76217509811E+02 -0.45882998510E+02  0.98714196791E+02  0.00000000000E+00 0. -1.
         11    1    1    2    0    0 -0.62379677611E+02  0.12515753403E+02 -0.57977291095E+02  0.86076910637E+02  0.00000000000E+00 0.  1.
</event>
<event>
 7    1  0.2749315E-009  0.1150420E+03  0.7561462E-02  0.1251508E+00
          2   -1    0    0  501    0  0.00000000000E+00  0.00000000000E+00  0.89133374374E+03  0.89133374374E+03  0.00000000000E+00 0. -1.
         -2   -1    0    0    0  501 -0.00000000000E+00 -0.00000000000E+00 -0.25153661891E+02  0.25153661891E+02  0.00000000000E+00 0.  1.
         25    2    1    2    0    0  0.63030637756E+02 -0.73592219516E+02  0.55361809934E+03  0.57578290418E+03  0.12507708327E+03 0.  0.
          5    1    3    3  502    0 -0.22817784245E+02 -0.69686306894E+01  0.20637954187E+02  0.31821543718E+02  0.41800000000E+01 0. -1.
         -5    1    3    3    0  502  0.85848422001E+02 -0.66623588827E+02  0.53298014515E+03  0.54396136046E+03  0.41800000000E+01 0. -1.
        -11    1    1    2    0    0 -0.25325878024E+02  0.24744175801E+02  0.17945818620E+02  0.39695424669E+02  0.00000000000E+00 0.  1.
         11    1    1    2    0    0 -0.37704759732E+02  0.48848043715E+02  0.29461616389E+03  0.30100907679E+03  0.00000000000E+00 0. -1.
</event>
<event>
 7    1  0.2749315E-009  0.8924787E+02  0.7561462E-02  0.1304683E+00
         -1   -1    0    0    0  501 -0.00000000000E+00  0.00000000000E+00  0.53808484359E+02  0.53808484359E+02  0.00000000000E+00 0.  1.
          1   -1    0    0  501    0  0.00000000000E+00 -0.00000000000E+00 -0.30650200165E+03  0.30650200165E+03  0.00000000000E+00 0. -1.
         25    2    1    2    0    0 -0.35607674325E+02 -0.51817258113E+01 -0.60135887674E+02  0.14337875841E+03  0.12508551725E+03 0.  0.
          5    1    3    3  502    0  0.12133937312E+02 -0.41034281479E+02 -0.70559738155E+02  0.82626834259E+02  0.41800000000E+01 0. -1.
         -5    1    3    3    0  502 -0.47741611637E+02  0.35852555668E+02  0.10423850481E+02  0.60751924155E+02  0.41800000000E+01 0. -1.
        -11    1    1    2    0    0  0.14738176627E+02 -0.30748980785E+02 -0.16148725149E+03  0.16504801139E+03  0.00000000000E+00 0. -1.
         11    1    1    2    0    0  0.20869497698E+02  0.35930706596E+02 -0.31070378133E+02  0.51883716212E+02  0.00000000000E+00 0.  1.
</event>
<event>
 7    1  0.2749315E-009  0.1139409E+03  0.7561462E-02  0.1253441E+00
          2   -1    0    0  501    0  0.00000000000E+00  0.00000000000E+00  0.26321057980E+03  0.26321057980E+03  0.00000000000E+00 0. -1.
         -2   -1    0    0    0  501 -0.00000000000E+00 -0.00000000000E+00 -0.70025580798E+02  0.70025580798E+02  0.00000000000E+00 0.  1.
         25    2    1    2    0    0 -0.63465954961E+02 -0.14332365380E+02  0.16803744362E+03  0.21935565397E+03  0.12508787444E+03 0.  0.
          5    1    3    3  502    0  0.26084618021E+02 -0.77200571654E+01 -0.13911333115E+01  0.27557471433E+02  0.41800000000E+01 0. -1.
         -5    1    3    3    0  502 -0.89550572982E+02 -0.66123082144E+01  0.16942857693E+03  0.19179818253E+03  0.41800000000E+01 0. -1.
        -11    1    1    2    0    0  0.55332342738E+02  0.49578915352E+02  0.22424162154E+02  0.77605283639E+02  0.00000000000E+00 0. -1.
         11    1    1    2    0    0  0.81336122235E+01 -0.35246549972E+02  0.27233932300E+01  0.36275222996E+02  0.00000000000E+00 0.  1.
</event>
<event>
 7    1  0.2749315E-009  0.1207933E+03  0.7561462E-02  0.1241794E+00
          3   -1    0    0  501    0  0.00000000000E+00  0.00000000000E+00  0.25219345974E+03  0.25219345974E+03  0.00000000000E+00 0. -1.
         -3   -1    0    0    0  501 -0.00000000000E+00 -0.00000000000E+00 -0.68781387419E+02  0.68781387419E+02  0.00000000000E+00 0.  1.
         25    2    1    2    0    0 -0.56248854945E+02  0.25849051758E+02  0.50359946344E+02  0.14836864936E+03  0.12508007338E+03 0.  0.
          5    1    3    3  502    0  0.31878190618E+02 -0.22226626982E+02  0.14152490793E+02  0.41569308146E+02  0.41800000000E+01 0.  1.
         -5    1    3    3    0  502 -0.88127045563E+02  0.48075678740E+02  0.36207455551E+02  0.10679934121E+03  0.41800000000E+01 0.  1.
        -11    1    1    2    0    0  0.22036685651E+02  0.29581632903E+02  0.19568047562E+02  0.41756400768E+02  0.00000000000E+00 0. -1.
         11    1    1    2    0    0  0.34212169294E+02 -0.55430684661E+02  0.11348407841E+03  0.13084979703E+03  0.00000000000E+00 0.  1.
</event>
<event>
 7    1  0.2749315E-009  0.5582009E+02  0.7561462E-02  0.1416260E+00
         -1   -1    0    0    0  501 -0.00000000000E+00  0.00000000000E+00  0.26293454837E+03  0.26293454837E+03  0.00000000000E+00 0.  1.
          1   -1    0    0  501    0  0.00000000000E+00 -0.00000000000E+00 -0.58246533776E+02  0.58246533776E+02  0.00000000000E+00 0. -1.
         25    2    1    2    0    0  0.79214179259E+01  0.12328008814E+02  0.37937822773E+02  0.13153478849E+03  0.12508954202E+03 0.  0.
          5    1    3    3  502    0  0.14406961281E+02  0.23960847518E+02  0.81250683344E+02  0.86028069204E+02  0.41800000000E+01 0. -1.
         -5    1    3    3    0  502 -0.64855433551E+01 -0.11632838704E+02 -0.43312860571E+02  0.45506719281E+02  0.41800000000E+01 0. -1.
        -11    1    1    2    0    0  0.25773391119E+02 -0.22502262163E+02  0.21997097681E+02  0.40675444664E+02  0.00000000000E+00 0. -1.
         11    1    1    2    0    0 -0.33694809044E+02  0.10174253348E+02  0.14475309414E+03  0.14897084899E+03  0.00000000000E+00 0.  1.
</event>
<event>
 7    1  0.2749315E-009  0.1045685E+03  0.7561462E-02  0.1270972E+00
         -1   -1    0    0    0  501 -0.00000000000E+00  0.00000000000E+00  0.13155649976E+03  0.13155649976E+03  0.00000000000E+00 0.  1.
          1   -1    0    0  501    0  0.00000000000E+00 -0.00000000000E+00 -0.10201131813E+03  0.10201131813E+03  0.00000000000E+00 0. -1.
         25    2    1    2    0    0  0.35119291071E+02  0.18556446177E+02 -0.10736273949E+02  0.13167074758E+03  0.12507682396E+03 0.  0.
          5    1    3    3  502    0  0.73512363822E+02  0.27785813358E+02  0.20297304072E+02  0.81274670170E+02  0.41800000000E+01 0.  1.
         -5    1    3    3    0  502 -0.38393072751E+02 -0.92293671810E+01 -0.31033578021E+02  0.50396077413E+02  0.41800000000E+01 0.  1.
        -11    1    1    2    0    0 -0.57987161894E+01 -0.48486178181E+02  0.91080782157E+01  0.49673853010E+02  0.00000000000E+00 0.  1.
         11    1    1    2    0    0 -0.29320574881E+02  0.29929732004E+02  0.31173377363E+02  0.52223217303E+02  0.00000000000E+00 0. -1.
</event>
<event>
 7    1  0.2749315E-009  0.8757556E+02  0.7561462E-02  0.1308831E+00
          1   -1    0    0  501    0  0.00000000000E+00  0.00000000000E+00  0.26758249630E+03  0.26758249630E+03  0.00000000000E+00 0. -1.
         -1   -1    0    0    0  501 -0.00000000000E+00 -0.00000000000E+00 -0.49196438828E+02  0.49196438828E+02  0.00000000000E+00 0.  1.
         25    2    1    2    0    0 -0.47279791478E+02  0.31871690475E+01  0.11089554353E+03  0.17376876962E+03  0.12510886056E+03 0.  0.
          5    1    3    3  502    0 -0.44566781161E+02 -0.48542883442E+02  0.10130046113E+03  0.12092090531E+03  0.41800000000E+01 0.  1.
         -5    1    3    3    0  502 -0.27130103172E+01  0.51730052490E+02  0.95950824005E+01  0.52847864307E+02  0.41800000000E+01 0.  1.
        -11    1    1    2    0    0  0.10032040688E+02 -0.15025640287E+02 -0.89666226915E+01  0.20169581773E+02  0.00000000000E+00 0.  1.
         11    1    1    2    0    0  0.37247750790E+02  0.11838471239E+02  0.11645713663E+03  0.12284058374E+03  0.00000000000E+00 0. -1.
</event>
<event>
 7    1  0.4512680E-009  0.1280504E+03  0.7561462E-02  0.1230378E+00
          2   -1    0    0  501    0  0.00000000000E+00  0.00000000000E+00  0.10625357419E+04  0.10625357419E+04  0.00000000000E+00 0. -1.
         -2   -1    0    0    0  501 -0.00000000000E+00 -0.00000000000E+00 -0.17136244239E+02  0.17136244239E+02  0.00000000000E+00 0.  1.
         25    2    1    2    0    0  0.21070747757E+02 -0.76914626467E+02  0.60048692866E+03  0.61853928727E+03  0.12508581946E+03 0.  0.
          5    1    3    3  502    0  0.17993259551E+02  0.32664165967E+02  0.18837121119E+03  0.19207261839E+03  0.41800000000E+01 0.  1.
         -5    1    3    3    0  502  0.30774882056E+01 -0.10957879243E+03  0.41211571746E+03  0.42646666888E+03  0.41800000000E+01 0.  1.
        -11    1    1    2    0    0 -0.18905232837E+02 -0.10369545651E+02  0.28905129852E+02  0.36061639416E+02  0.00000000000E+00 0.  1.
         11    1    1    2    0    0 -0.21655149200E+01  0.87284172119E+02  0.41600743917E+03  0.42507105947E+03  0.00000000000E+00 0. -1.
</event>
<event>
 7    1  0.2749315E-009  0.1180854E+03  0.7561462E-02  0.1246289E+00
          1   -1    0    0  501    0  0.00000000000E+00  0.00000000000E+00  0.18054691980E+03  0.18054691980E+03  0.00000000000E+00 0. -1.
         -1   -1    0    0    0  501 -0.00000000000E+00 -0.00000000000E+00 -0.11079856271E+03  0.11079856271E+03  0.00000000000E+00 0.  1.
         25    2    1    2    0    0  0.34686360258E+02 -0.50118799966E+02  0.10525529858E+03  0.17447405768E+03  0.12508989258E+03 0.  0.
          5    1    3    3  502    0 -0.43642363198E+01  0.37850567323E+02  0.11433355023E+02  0.39998825138E+02  0.41800000000E+01 0.  1.
         -5    1    3    3    0  502  0.39050596578E+02 -0.87969367289E+02  0.93821943553E+02  0.13447523254E+03  0.41800000000E+01 0.  1.
        -11    1    1    2    0    0  0.17168466445E+02  0.46446550977E+02 -0.41412235651E+02  0.64552394219E+02  0.00000000000E+00 0.  1.
         11    1    1    2    0    0 -0.51854826703E+02  0.36722489889E+01  0.59052941674E+01  0.52319030613E+02  0.00000000000E+00 0. -1.
</event>
<event>
 7    1  0.2749315E-009  0.1276589E+03  0.7561462E-02  0.1230971E+00
         -1   -1    0    0    0  501 -0.00000000000E+00  0.00000000000E+00  0.32417552252E+02  0.32417552252E+02  0.00000000000E+00 0.  1.
          1   -1    0    0  501    0  0.00000000000E+00 -0.00000000000E+00 -0.73270189957E+03  0.73270189957E+03  0.00000000000E+00 0. -1.
         25    2    1    2    0    0  0.19098456041E+02 -0.10215221494E+03 -0.40966954793E+03  0.44076495851E+03  0.12507911140E+03 0.  0.
          5    1    3    3  502    0 -0.31600630463E+02  0.52708634718E+01 -0.17226087823E+03  0.17526455551E+03  0.41800000000E+01 0. -1.
         -5    1    3    3    0  502  0.50699086503E+02 -0.10742307841E+03 -0.23740866969E+03  0.26550040300E+03  0.41800000000E+01 0. -1.
        -11    1    1    2    0    0 -0.57408070012E+01  0.49394731381E+02 -0.29908722801E+02  0.58028683018E+02  0.00000000000E+00 0.  1.
         11    1    1    2    0    0 -0.13357649039E+02  0.52757483559E+02 -0.26070607659E+03  0.26632581029E+03  0.00000000000E+00 0. -1.
</event>
<event>
 7    1  0.2749315E-009  0.1182780E+03  0.7561462E-02  0.1245965E+00
         -1   -1    0    0    0  501 -0.00000000000E+00  0.00000000000E+00  0.13173941623E+03  0.13173941623E+03  0.00000000000E+00 0.  1.
          1   -1    0    0  501    0  0.00000000000E+00 -0.00000000000E+00 -0.12062298643E+03  0.12062298643E+03  0.00000000000E+00 0. -1.
         25    2    1    2    0    0 -0.23896084471E+01 -0.56252324440E+02 -0.27994398584E+02  0.13999703228E+03  0.12508176710E+03 0.  0.
          5    1    3    3  502    0 -0.49490107210E+02  0.91782223066E+01  0.88182667700E+01  0.51271285386E+02  0.41800000000E+01 0.  1.
         -5    1    3    3    0  502  0.47100498763E+02 -0.65430546747E+02 -0.36812665354E+02  0.88725746893E+02  0.41800000000E+01 0.  1.
        -11    1    1    2    0    0 -0.28813267609E+02  0.66503117124E+02  0.25926996025E+02  0.76974528907E+02  0.00000000000E+00 0.  1.
         11    1    1    2    0    0  0.31202876056E+02 -0.10250792684E+02  0.13183832360E+02  0.35390841478E+02  0.00000000000E+00 0. -1.
</event>
<event>
 7    1  0.2749315E-009  0.1143269E+03  0.7561462E-02  0.1252761E+00
          2   -1    0    0  501    0  0.00000000000E+00  0.00000000000E+00  0.14891619637E+04  0.14891619637E+04  0.00000000000E+00 0. -1.
         -2   -1    0    0    0  501 -0.00000000000E+00 -0.00000000000E+00 -0.94810309396E+01  0.94810309396E+01  0.00000000000E+00 0.  1.
         25    2    1    2    0    0 -0.21153278390E+02 -0.54206849617E+02  0.97433555739E+03  0.98405634673E+03  0.12510504149E+03 0.  0.
          5    1    3    3  502    0 -0.69894698290E+02 -0.40556034922E+02  0.44562135109E+03  0.45290829289E+03  0.41800000000E+01 0.  1.
         -5    1    3    3    0  502  0.48741419900E+02 -0.13650814695E+02  0.52871420630E+03  0.53114805384E+03  0.41800000000E+01 0.  1.
        -11    1    1    2    0    0  0.50367122095E+02  0.27599546505E+02  0.28581022543E+03  0.29152369872E+03  0.00000000000E+00 0.  1.
         11    1    1    2    0    0 -0.29213843704E+02  0.26607303112E+02  0.21953514995E+03  0.22306294920E+03  0.00000000000E+00 0. -1.
</event>
<event>
 7    1  0.2749315E-009  0.1166202E+03  0.7561462E-02  0.1248779E+00
         -2   -1    0    0    0  501 -0.00000000000E+00  0.00000000000E+00  0.16930135856E+02  0.16930135856E+02  0.00000000000E+00 0.  1.
          2   -1    0    0  501    0  0.00000000000E+00 -0.00000000000E+00 -0.94482242731E+03  0.94482242731E+03  0.00000000000E+00 0. -1.
         25    2    1    2    0    0 -0.57525652243E+02 -0.73470243181E+01 -0.61642959365E+03  0.63166164596E+03  0.12509121321E+03 0.  0.
          5    1    3    3  502    0 -0.73156327861E+02 -0.43219114834E+02 -0.52882936932E+03  0.53562833611E+03  0.41800000000E+01 0. -1.
         -5    1    3    3    0  502  0.15630675617E+02  0.35872090516E+02 -0.87600224333E+02  0.96033309853E+02  0.41800000000E+01 0. -1.
        -11    1    1    2    0    0 -0.15232134752E+01  0.40881300832E+02 -0.10210629734E+03  0.10999680401E+03  0.00000000000E+00 0.  1.
         11    1    1    2    0    0  0.59048865718E+02 -0.33534276514E+02 -0.20935640047E+03  0.22009411319E+03  0.00000000000E+00 0. -1.
</event>
<event>
 7    1  0.2749315E-009  0.1198837E+03  0.7561462E-02  0.1243289E+00
         -1   -1    0    0    0  501 -0.00000000000E+00  0.00000000000E+00  0.21171889605E+02  0.21171889605E+02  0.00000000000E+00 0.  1.
          1   -1    0    0  501    0  0.00000000000E+00 -0.00000000000E+00 -0.84513452033E+03  0.84513452033E+03  0.00000000000E+00 0. -1.
         25    2    1    2    0    0  0.75350142811E+02 -0.99711865949E+01 -0.53159107717E+03  0.55137773305E+03  0.12510500628E+03 0.  0.
          5    1    3    3  502    0  0.63786637187E+00 -0.54460514633E+02 -0.14119631590E+03  0.15139427516E+03  0.41800000000E+01 0.  1.
         -5    1    3    3    0  502  0.74712276439E+02  0.44489328038E+02 -0.39039476127E+03  0.39998345789E+03  0.41800000000E+01 0.  1.
        -11    1    1    2    0    0 -0.56103177146E+02 -0.22413586105E+02 -0.85715853410E+02  0.10486726302E+03  0.00000000000E+00 0.  1.
         11    1    1    2    0    0 -0.19246965665E+02  0.32384772700E+02 -0.20665570014E+03  0.21006141386E+03  0.00000000000E+00 0. -1.
</event>
<event>
 7    1  0.2749315E-009  0.6979715E+02  0.7561462E-02  0.1360784E+00
          2   -1    0    0  501    0  0.00000000000E+00  0.00000000000E+00  0.55106747061E+03  0.55106747061E+03  0.00000000000E+00 0. -1.
         -2   -1    0    0    0  501 -0.00000000000E+00 -0.00000000000E+00 -0.35800752923E+02  0.35800752923E+02  0.00000000000E+00 0.  1.
         25    2    1    2    0    0 -0.27639545306E+02 -0.42486495140E+02  0.43176126763E+03  0.45236611520E+03  0.12509301830E+03 0.  0.
          5    1    3    3  502    0  0.20730075609E+02 -0.19434749338E+02  0.15475382060E+02  0.32625225923E+02  0.41800000000E+01 0. -1.
         -5    1    3    3    0  502 -0.48369620915E+02 -0.23051745802E+02  0.41628588557E+03  0.41974088928E+03  0.41800000000E+01 0. -1.
        -11    1    1    2    0    0  0.18808675706E+02  0.62325733373E+01 -0.17742514151E+02  0.26597143843E+02  0.00000000000E+00 0.  1.
         11    1    1    2    0    0  0.88308695994E+01  0.36253921802E+02  0.10124796421E+03  0.10790496449E+03  0.00000000000E+00 0. -1.
</event>
<event>
 7    1  0.2749315E-009  0.8738862E+02  0.7561462E-02  0.1309302E+00
          1   -1    0    0  501    0  0.00000000000E+00  0.00000000000E+00  0.43490929859E+03  0.43490929859E+03  0.00000000000E+00 0. -1.
         -1   -1    0    0    0  501 -0.00000000000E+00 -0.00000000000E+00 -0.32952201800E+02  0.32952201800E+02  0.00000000000E+00 0.  1.
         25    2    1    2    0    0  0.39639710634E+02 -0.85406482399E+01  0.16292198543E+03  0.20936573719E+03  0.12508472825E+03 0.  0.
          5    1    3    3  502    0  0.10697405575E+02 -0.44526456100E+02  0.67761479428E+01  0.46480408344E+02  0.41800000000E+01 0.  1.
         -5    1    3    3    0  502  0.28942305058E+02  0.35985807860E+02  0.15614583749E+03  0.16288532885E+03  0.41800000000E+01 0.  1.
        -11    1    1    2    0    0  0.20769612817E+02  0.72578471951E+01  0.15434969325E+02  0.26875480285E+02  0.00000000000E+00 0.  1.
         11    1    1    2    0    0 -0.60409323451E+02  0.12828010448E+01  0.22360014204E+03  0.23162028292E+03  0.00000000000E+00 0. -1.
</event>
<event>
 7    1  0.2749315E-009  0.1307123E+03  0.7561462E-02  0.1226403E+00
         -3   -1    0    0    0  501 -0.00000000000E+00  0.00000000000E+00  0.36012337876E+03  0.36012337876E+03  0.00000000000E+00 0.  1.
          3   -1    0    0  501    0  0.00000000000E+00 -0.00000000000E+00 -0.47722120236E+02  0.47722120236E+02  0.00000000000E+00 0. -1.
         25    2    1    2    0    0  0.67436554936E+02  0.27737977528E+02  0.17098875654E+03  0.22405470101E+03  0.12508505044E+03 0.  0.
          5    1    3    3  502    0  0.98747368796E+02 -0.51850333392E+01  0.12227528562E+03  0.15731066489E+03  0.41800000000E+01 0. -1.
         -5    1    3    3    0  502 -0.31310813859E+02  0.32923010867E+02  0.48713470912E+02  0.66744036118E+02  0.41800000000E+01 0. -1.
        -11    1    1    2    0    0 -0.18761062911E+02  0.33623362270E+02  0.55335588259E+02  0.67413168594E+02  0.00000000000E+00 0.  1.
         11    1    1    2    0    0 -0.48675492026E+02 -0.61361339798E+02  0.86076913732E+02  0.11637762939E+03  0.00000000000E+00 0. -1.
</event>
<event>
 7    1  0.2749315E-009  0.2459850E+03  0.7561462E-02  0.1115869E+00
         -1   -1    0    0    0  501 -0.00000000000E+00  0.00000000000E+00  0.22199503975E+03  0.22199503975E+03  0.00000000000E+00 0.  1.
          1   -1    0    0  501    0  0.00000000000E+00 -0.00000000000E+00 -0.30159809626E+03  0.30159809626E+03  0.00000000000E+00 0. -1.
         25    2    1    2    0    0 -0.22925879492E+03  0.47314767659E+02 -0.41856974073E+02  0.26870036962E+03  0.12509836158E+03 0.  0.
          5    1    3    3  502    0 -0.13863416518E+03  0.64910555817E+02  0.24297346031E+02  0.15505046094E+03  0.41800000000E+01 0. -1.
         -5    1    3    3    0  502 -0.90624629738E+02 -0.17595788158E+02 -0.66154320104E+02  0.11364990869E+03  0.41800000000E+01 0. -1.
        -11    1    1    2    0    0  0.52719147570E+02 -0.45865121287E+02  0.13263958021E+02  0.71125596332E+02  0.00000000000E+00 0.  1.
         11    1    1    2    0    0  0.17653964735E+03 -0.14496463727E+01 -0.51010040455E+02  0.18376717005E+03  0.00000000000E+00 0. -1.
</event>
<event>
 7    1  0.2749315E-009  0.7313882E+02  0.7561462E-02  0.1349733E+00
         -2   -1    0    0    0  501 -0.00000000000E+00  0.00000000000E+00  0.56113432924E+02  0.56113432924E+02  0.00000000000E+00 0.  1.
          2   -1    0    0  501    0  0.00000000000E+00 -0.00000000000E+00 -0.26529001677E+03  0.26529001677E+03  0.00000000000E+00 0. -1.
         25    2    1    2    0    0  0.11774422582E+02  0.37898078237E+01 -0.18896712967E+03  0.22695793848E+03  0.12509328547E+03 0.  0.
          5    1    3    3  502    0 -0.22352874096E+02  0.11473228694E+02  0.81301068845E+01  0.26736809738E+02  0.41800000000E+01 0. -1.
         -5    1    3    3    0  502  0.34127296677E+02 -0.76834208705E+01 -0.19709723656E+03  0.20022112874E+03  0.41800000000E+01 0. -1.
        -11    1    1    2    0    0  0.21903362607E+02 -0.33926977725E+02 -0.27235779133E+02  0.48709185746E+02  0.00000000000E+00 0. -1.
         11    1    1    2    0    0 -0.33677785189E+02  0.30137169902E+02  0.70263249630E+01  0.45736325469E+02  0.00000000000E+00 0.  1.
</event>
<event>
 7    1  0.2749315E-009  0.1194261E+03  0.7561462E-02  0.1244047E+00
          1   -1    0    0  501    0  0.00000000000E+00  0.00000000000E+00  0.23033434198E+03  0.23033434198E+03  0.00000000000E+00 0. -1.
         -1   -1    0    0    0  501 -0.00000000000E+00 -0.00000000000E+00 -0.24483412179E+03  0.24483412179E+03  0.00000000000E+00 0.  1.
         25    2    1    2    0    0  0.53746084271E+02 -0.95080741307E+02 -0.19318748454E+03  0.25475092422E+03  0.12509052828E+03 0.  0.
          5    1    3    3  502    0  0.37308663671E+02 -0.28440033808E+02  0.26686455572E+01  0.47173784849E+02  0.41800000000E+01 0. -1.
         -5    1    3    3    0  502  0.16437420601E+02 -0.66640707499E+02 -0.19585613009E+03  0.20757713937E+03  0.41800000000E+01 0. -1.
        -11    1    1    2    0    0  0.12115402010E+02  0.16142066068E+02  0.91847656387E+01  0.22174516515E+02  0.00000000000E+00 0.  1.
         11    1    1    2    0    0 -0.65861486282E+02  0.78938675239E+02  0.16950293909E+03  0.19824302304E+03  0.00000000000E+00 0. -1.
</event>
<event>
 7    1  0.2749315E-009  0.1684312E+03  0.7561462E-02  0.1179494E+00
         -2   -1    0    0    0  501 -0.00000000000E+00  0.00000000000E+00  0.53722349677E+02  0.53722349677E+02  0.00000000000E+00 0.  1.
          2   -1    0    0  501    0  0.00000000000E+00 -0.00000000000E+00 -0.64060503940E+03  0.64060503940E+03  0.00000000000E+00 0. -1.
         25    2    1    2    0    0  0.72631219340E+02 -0.12431738073E+03 -0.21588587087E+03  0.28807021501E+03  0.12509050467E+03 0.  0.
          5    1    3    3  502    0 -0.32292877887E+02 -0.57963358496E+02 -0.72804292485E+02  0.98592688849E+02  0.41800000000E+01 0.  1.
         -5    1    3    3    0  502  0.10492409723E+03 -0.66354022235E+02 -0.14308157838E+03  0.18947752616E+03  0.41800000000E+01 0.  1.
        -11    1    1    2    0    0 -0.26351461649E+02  0.23817417048E+02 -0.19617069376E+03  0.19936050254E+03  0.00000000000E+00 0. -1.
         11    1    1    2    0    0 -0.46279757691E+02  0.10049996368E+03 -0.17482612510E+03  0.20689667153E+03  0.00000000000E+00 0.  1.
</event>
<event>
 7    1  0.2749315E-009  0.7700752E+02  0.7561462E-02  0.1337765E+00
         -2   -1    0    0    0  501 -0.00000000000E+00  0.00000000000E+00  0.80030713381E+02  0.80030713381E+02  0.00000000000E+00 0.  1.
          2   -1    0    0  501    0  0.00000000000E+00 -0.00000000000E+00 -0.20685918682E+03  0.20685918682E+03  0.00000000000E+00 0. -1.
         25    2    1    2    0    0  0.28163017495E+02 -0.66878390821E+01 -0.13835509995E+03  0.18875353312E+03  0.12509148587E+03 0.  0.
          5    1    3    3  502    0  0.34317166766E+02  0.22872875769E+02  0.53994655252E+01  0.41802667484E+02  0.41800000000E+01 0.  1.
         -5    1    3    3    0  502 -0.61541492705E+01 -0.29560714851E+02 -0.14375456548E+03  0.14695086563E+03  0.41800000000E+01 0.  1.
        -11    1    1    2    0    0 -0.48476976981E+02  0.25165280232E+02  0.32522516504E+02  0.63569038896E+02  0.00000000000E+00 0.  1.
         11    1    1    2    0    0  0.20313959486E+02 -0.18477441150E+02 -0.20995889990E+02  0.34567328186E+02  0.00000000000E+00 0. -1.
</event>
<event>
 7    1  0.2749315E-009  0.1542585E+03  0.7561462E-02  0.1195336E+00
          2   -1    0    0  501    0  0.00000000000E+00  0.00000000000E+00  0.33271676582E+03  0.33271676582E+03  0.00000000000E+00 0. -1.
         -2   -1    0    0    0  501 -0.00000000000E+00 -0.00000000000E+00 -0.77147781902E+02  0.77147781902E+02  0.00000000000E+00 0.  1.
         25    2    1    2    0    0 -0.70183501211E+02 -0.90795231803E+02  0.10423604657E+03  0.19920422598E+03  0.12509065626E+03 0.  0.
          5    1    3    3  502    0 -0.50970050213E+02  0.18864818977E+02  0.15203287184E+02  0.56590102977E+02  0.41800000000E+01 0.  1.
         -5    1    3    3    0  502 -0.19213450997E+02 -0.10966005078E+03  0.89032759381E+02  0.14261412300E+03  0.41800000000E+01 0.  1.
        -11    1    1    2    0    0  0.42961490042E+02  0.10386649590E+03  0.96860415041E+02  0.14837748684E+03  0.00000000000E+00 0.  1.
         11    1    1    2    0    0  0.27222011169E+02 -0.13071264100E+02  0.54472522309E+02  0.62282834907E+02  0.00000000000E+00 0. -1.
</event>
<event>
 7    1  0.2749315E-009  0.1511847E+03  0.7561462E-02  0.1199025E+00
          3   -1    0    0  501    0  0.00000000000E+00  0.00000000000E+00  0.10372103890E+03  0.10372103890E+03  0.00000000000E+00 0. -1.
         -3   -1    0    0    0  501 -0.00000000000E+00 -0.00000000000E+00 -0.26598087078E+03  0.26598087078E+03  0.00000000000E+00 0.  1.
         25    2    1    2    0    0 -0.91820447367E+02  0.63335079411E+02 -0.24197697870E+02  0.16933843547E+03  0.12509056842E+03 0.  0.
          5    1    3    3  502    0 -0.69754861834E+02  0.96795282705E+02 -0.40212596459E+02  0.12597457211E+03  0.41800000000E+01 0. -1.
         -5    1    3    3    0  502 -0.22065585532E+02 -0.33460203294E+02  0.16014898589E+02  0.43363863368E+02  0.41800000000E+01 0. -1.
        -11    1    1    2    0    0  0.52807256248E+02 -0.83479852798E+02 -0.77469340628E+02  0.12553481937E+03  0.00000000000E+00 0. -1.
         11    1    1    2    0    0  0.39013191119E+02  0.20144773387E+02 -0.60592793378E+02  0.74828654842E+02  0.00000000000E+00 0.  1.
</event>
<event>
 7    1  0.2749315E-009  0.2086454E+03  0.7561462E-02  0.1142643E+00
          2   -1    0    0  501    0  0.00000000000E+00  0.00000000000E+00  0.74087298099E+03  0.74087298099E+03  0.00000000000E+00 0. -1.
         -2   -1    0    0    0  501 -0.00000000000E+00 -0.00000000000E+00 -0.94718073696E+02  0.94718073696E+02  0.00000000000E+00 0.  1.
         25    2    1    2    0    0  0.18452281749E+03 -0.76262682094E+02  0.11733921984E+03  0.26321219697E+03  0.12508997269E+03 0.  0.
          5    1    3    3  502    0  0.68608761914E+02 -0.67574488690E+02 -0.22112223570E+01  0.96414913978E+02  0.41800000000E+01 0.  1.
         -5    1    3    3    0  502  0.11591405557E+03 -0.86881934031E+01  0.11955044220E+03  0.16679728299E+03  0.41800000000E+01 0.  1.
        -11    1    1    2    0    0 -0.91962038811E+02  0.13970543174E+02  0.34530470219E+03  0.35761366028E+03  0.00000000000E+00 0.  1.
         11    1    1    2    0    0 -0.92560778676E+02  0.62292138920E+02  0.18351098526E+03  0.21476519744E+03  0.00000000000E+00 0. -1.
</event>
<event>
 7    1  0.2845893E-009  0.9981228E+02  0.7561462E-02  0.1280691E+00
          2   -1    0    0  501    0  0.00000000000E+00  0.00000000000E+00  0.47684557248E+03  0.47684557248E+03  0.00000000000E+00 0. -1.
         -2   -1    0    0    0  501 -0.00000000000E+00 -0.00000000000E+00 -0.31729618226E+02  0.31729618226E+02  0.00000000000E+00 0.  1.
         25    2    1    2    0    0  0.14333389222E+02 -0.50663742992E+02  0.20189970355E+03  0.24327512894E+03  0.12508811762E+03 0.  0.
          5    1    3    3  502    0  0.24366360833E+02  0.17582981499E+02  0.15914750511E+03  0.16201321416E+03  0.41800000000E+01 0.  1.
         -5    1    3    3    0  502 -0.10032971611E+02 -0.68246724492E+02  0.42752198435E+02  0.81261914783E+02  0.41800000000E+01 0.  1.
        -11    1    1    2    0    0 -0.43293601165E+02  0.17409607181E+01  0.14983472147E+03  0.15597374973E+03  0.00000000000E+00 0. -1.
         11    1    1    2    0    0  0.28960211943E+02  0.48922782274E+02  0.93381529241E+02  0.10932631204E+03  0.00000000000E+00 0.  1.
</event>
<event>
 7    1  0.2749315E-009  0.9074569E+02  0.7561462E-02  0.1301056E+00
          1   -1    0    0  501    0  0.00000000000E+00  0.00000000000E+00  0.23606704706E+02  0.23606704706E+02  0.00000000000E+00 0. -1.
         -1   -1    0    0    0  501 -0.00000000000E+00 -0.00000000000E+00 -0.53806308564E+03  0.53806308564E+03  0.00000000000E+00 0.  1.
         25    2    1    2    0    0  0.24006263868E+02  0.91296537775E+01 -0.34171402785E+03  0.36479693706E+03  0.12509467286E+03 0.  0.
          5    1    3    3  502    0 -0.16242273892E+02  0.42143158143E+02 -0.28132787380E+03  0.28496087840E+03  0.41800000000E+01 0. -1.
         -5    1    3    3    0  502  0.40248537760E+02 -0.33013504366E+02 -0.60386154044E+02  0.79836058661E+02  0.41800000000E+01 0. -1.
        -11    1    1    2    0    0 -0.10430977835E+02  0.35635966686E+02 -0.12346648024E+03  0.12892904701E+03  0.00000000000E+00 0.  1.
         11    1    1    2    0    0 -0.13575286033E+02 -0.44765620464E+02 -0.49275872846E+02  0.67943806275E+02  0.00000000000E+00 0. -1.
</event>
<event>
 7    1  0.2749315E-009  0.1472518E+03  0.7561462E-02  0.1203891E+00
          1   -1    0    0  501    0  0.00000000000E+00  0.00000000000E+00  0.70176571025E+03  0.70176571025E+03  0.00000000000E+00 0. -1.
         -1   -1    0    0    0  501 -0.00000000000E+00 -0.00000000000E+00 -0.59468110066E+02  0.59468110066E+02  0.00000000000E+00 0.  1.
         25    2    1    2    0    0  0.10671374924E+03 -0.18433329779E+02  0.58564422595E+03  0.60856889056E+03  0.12509725518E+03 0.  0.
          5    1    3    3  502    0  0.12585724578E+03 -0.30723554096E+02  0.55631726095E+03  0.57121830356E+03  0.41800000000E+01 0.  1.
         -5    1    3    3    0  502 -0.19143496540E+02  0.12290224317E+02  0.29326964996E+02  0.37350587002E+02  0.41800000000E+01 0.  1.
        -11    1    1    2    0    0 -0.12138243396E+03  0.44141810836E+01  0.47887973354E+02  0.13056200926E+03  0.00000000000E+00 0.  1.
         11    1    1    2    0    0  0.14668684723E+02  0.14019148695E+02  0.87654008804E+01  0.22102920491E+02  0.00000000000E+00 0. -1.
</event>
<event>
 7    1  0.2749315E-009  0.3622452E+03  0.7561462E-02  0.1057698E+00
         -1   -1    0    0    0  501 -0.00000000000E+00  0.00000000000E+00  0.22761865039E+03  0.22761865039E+03  0.00000000000E+00 0.  1.
          1   -1    0    0  501    0  0.00000000000E+00 -0.00000000000E+00 -0.66538749008E+03  0.66538749008E+03  0.00000000000E+00 0. -1.
         25    2    1    2    0    0 -0.35153815182E+03 -0.69846719885E+01 -0.36591145958E+03  0.52265325442E+03  0.12508944911E+03 0.  0.
          5    1    3    3  502    0  0.68603041843E+01  0.20698324800E+01  0.24112457034E+01  0.86391252936E+01  0.41800000000E+01 0. -1.
         -5    1    3    3    0  502 -0.35839845600E+03 -0.90545044685E+01 -0.36832270528E+03  0.51401412913E+03  0.41800000000E+01 0. -1.
        -11    1    1    2    0    0  0.24472051670E+03  0.35041148079E+02 -0.19086707033E+02  0.24795224488E+03  0.00000000000E+00 0.  1.
         11    1    1    2    0    0  0.10681763512E+03 -0.28056476090E+02 -0.52770673079E+02  0.12240064117E+03  0.00000000000E+00 0. -1.
</event>
<event>
 7    1  0.2749315E-009  0.7014747E+02  0.7561462E-02  0.1359592E+00
          1   -1    0    0  501    0  0.00000000000E+00  0.00000000000E+00  0.12459798345E+03  0.12459798345E+03  0.00000000000E+00 0. -1.
         -1   -1    0    0    0  501 -0.00000000000E+00 -0.00000000000E+00 -0.12164510319E+03  0.12164510319E+03  0.00000000000E+00 0.  1.
         25    2    1    2    0    0  0.47428280586E+02 -0.25086211280E+02  0.56451209590E+01  0.13622879284E+03  0.12509059442E+03 0.  0.
          5    1    3    3  502    0  0.61265842860E+02 -0.19534219023E+02 -0.48026195341E+02  0.80368383418E+02  0.41800000000E+01 0. -1.
         -5    1    3    3    0  502 -0.13837562275E+02 -0.55519922570E+01  0.53671316300E+02  0.55860409425E+02  0.41800000000E+01 0. -1.
        -11    1    1    2    0    0 -0.14501982417E+02  0.23237911182E+02 -0.47228682857E+02  0.54597220576E+02  0.00000000000E+00 0.  1.
         11    1    1    2    0    0 -0.32926298169E+02  0.18483000976E+01  0.44536442157E+02  0.55417073221E+02  0.00000000000E+00 0. -1.
</event>
<event>
 7    1  0.2749315E-009  0.1847267E+03  0.7561462E-02  0.1163305E+00
         -1   -1    0    0    0  501 -0.00000000000E+00  0.00000000000E+00  0.40739208543E+02  0.40739208543E+02  0.00000000000E+00 0.  1.
          1   -1    0    0  501    0  0.00000000000E+00 -0.00000000000E+00 -0.92444705244E+03  0.92444705244E+03  0.00000000000E+00 0. -1.
         25    2    1    2    0    0  0.72630215026E+02 -0.13169129280E+03 -0.59698393850E+03  0.62821562570E+03  0.12508918742E+03 0.  0.
          5    1    3    3  502    0  0.97237500040E+00 -0.12319457478E+03 -0.36848693833E+03  0.38855880493E+03  0.41800000000E+01 0. -1.
         -5    1    3    3    0  502  0.71657840025E+02 -0.84967180218E+01 -0.22849700017E+03  0.23965682077E+03  0.41800000000E+01 0. -1.
        -11    1    1    2    0    0 -0.92509062500E+02  0.97862786328E+02 -0.24582116083E+03  0.28029108924E+03  0.00000000000E+00 0. -1.
         11    1    1    2    0    0  0.19878847474E+02  0.33828506475E+02 -0.40902744559E+02  0.56679546044E+02  0.00000000000E+00 0.  1.
</event>
<event>
 7    1  0.2749315E-009  0.1197475E+03  0.7561462E-02  0.1243514E+00
         -2   -1    0    0    0  501 -0.00000000000E+00  0.00000000000E+00  0.18362110429E+02  0.18362110429E+02  0.00000000000E+00 0.  1.
          2   -1    0    0  501    0  0.00000000000E+00 -0.00000000000E+00 -0.10210832753E+04  0.10210832753E+04  0.00000000000E+00 0. -1.
         25    2    1    2    0    0 -0.18256879037E+02  0.60069190950E+02 -0.75822792631E+03  0.77103772400E+03  0.12509181534E+03 0.  0.
          5    1    3    3  502    0 -0.71236162901E+02  0.33509175776E+02 -0.49069213912E+03  0.49698461099E+03  0.41800000000E+01 0. -1.
         -5    1    3    3    0  502  0.52979283864E+02  0.26560015173E+02 -0.26753578720E+03  0.27405311302E+03  0.41800000000E+01 0. -1.
        -11    1    1    2    0    0  0.21345365317E+02 -0.79120306242E+02 -0.14061743204E+03  0.16275413873E+03  0.00000000000E+00 0.  1.
         11    1    1    2    0    0 -0.30884862801E+01  0.19051115292E+02 -0.10387580653E+03  0.10565352300E+03  0.00000000000E+00 0. -1.
</event>
<event>
 7    1  0.2809191E-009  0.1298964E+03  0.7561462E-02  0.1227609E+00
         -1   -1    0    0    0  501 -0.00000000000E+00  0.00000000000E+00  0.32175093148E+02  0.32175093148E+02  0.00000000000E+00 0.  1.
          1   -1    0    0  501    0  0.00000000000E+00 -0.00000000000E+00 -0.64471277827E+03  0.64471277827E+03  0.00000000000E+00 0. -1.
         25    2    1    2    0    0  0.42061155796E+02  0.83258359003E+02 -0.34621324064E+03  0.37975408605E+03  0.12509381561E+03 0.  0.
          5    1    3    3  502    0 -0.32041102516E+02  0.49441455297E+02 -0.69178744634E+02  0.90962964229E+02  0.41800000000E+01 0. -1.
         -5    1    3    3    0  502  0.74102258312E+02  0.33816903707E+02 -0.27703449601E+03  0.28879112182E+03  0.41800000000E+01 0. -1.
        -11    1    1    2    0    0 -0.58905485184E+02 -0.36090338595E+02 -0.87815406317E+02  0.11173143833E+03  0.00000000000E+00 0.  1.
         11    1    1    2    0    0  0.16844329388E+02 -0.47168020408E+02 -0.17850903816E+03  0.18540234704E+03  0.00000000000E+00 0. -1.
</event>
<event>
 7    1  0.2749315E-009  0.1524115E+03  0.7561462E-02  0.1197541E+00
         -1   -1    0    0    0  501 -0.00000000000E+00  0.00000000000E+00  0.13252697611E+03  0.13252697611E+03  0.00000000000E+00 0.  1.
          1   -1    0    0  501    0  0.00000000000E+00 -0.00000000000E+00 -0.35716664109E+03  0.35716664109E+03  0.00000000000E+00 0. -1.
         25    2    1    2    0    0 -0.10618059711E+03 -0.25575572459E+02  0.53954294661E+02  0.17460674614E+03  0.12509204921E+03 0.  0.
          5    1    3    3  502    0 -0.62619694590E+02  0.44862217422E+02  0.49298586072E+02  0.91551448330E+02  0.41800000000E+01 0. -1.
         -5    1    3    3    0  502 -0.43560902524E+02 -0.70437789881E+02  0.46557085886E+01  0.83055297811E+02  0.41800000000E+01 0. -1.
        -11    1    1    2    0    0  0.56405677678E+02  0.61438587512E+02 -0.13159450615E+03  0.15579927650E+03  0.00000000000E+00 0.  1.
         11    1    1    2    0    0  0.49774919436E+02 -0.35863015052E+02 -0.14699945349E+03  0.15928759456E+03  0.00000000000E+00 0. -1.
</event>
<event>
 7    1  0.2749315E-009  0.1052135E+03  0.7561462E-02  0.1269700E+00
          1   -1    0    0  501    0  0.00000000000E+00  0.00000000000E+00  0.58405087018E+03  0.58405087018E+03  0.00000000000E+00 0. -1.
         -1   -1    0    0    0  501 -0.00000000000E+00 -0.00000000000E+00 -0.38208303503E+02  0.38208303503E+02  0.00000000000E+00 0.  1.
         25    2    1    2    0    0  0.90928458333E+02 -0.48841180490E+02  0.28191524765E+03  0.32523541737E+03  0.12509366253E+03 0.  0.
          5    1    3    3  502    0  0.77637681097E+02 -0.49211644709E+02  0.29320158086E+03  0.30730121204E+03  0.41800000000E+01 0.  1.
         -5    1    3    3    0  502  0.13290777236E+02  0.37046421814E+00 -0.11286333212E+02  0.17934205325E+02  0.41800000000E+01 0.  1.
        -11    1    1    2    0    0 -0.56734630986E+02  0.39155926043E+02  0.24919190358E+03  0.25855098087E+03  0.00000000000E+00 0. -1.
         11    1    1    2    0    0 -0.34193827348E+02  0.96852544477E+01  0.14735415446E+02  0.38472775449E+02  0.00000000000E+00 0.  1.
</event>
<event>
 7    1  0.2749315E-009  0.6559385E+02  0.7561462E-02  0.1375751E+00
          1   -1    0    0  501    0  0.00000000000E+00  0.00000000000E+00  0.69265605041E+02  0.69265605041E+02  0.00000000000E+00 0. -1.
         -1   -1    0    0    0  501 -0.00000000000E+00 -0.00000000000E+00 -0.19913515229E+03  0.19913515229E+03  0.00000000000E+00 0.  1.
         25    2    1    2    0    0 -0.13499546467E+01  0.18283906554E+02 -0.12180268715E+03  0.17555889835E+03  0.12509559775E+03 0.  0.
          5    1    3    3  502    0  0.24980650028E+02  0.45574668527E+02 -0.46456122422E+01  0.52346321746E+02  0.41800000000E+01 0.  1.
         -5    1    3    3    0  502 -0.26330604675E+02 -0.27290761973E+02 -0.11715707491E+03  0.12321257660E+03  0.41800000000E+01 0.  1.
        -11    1    1    2    0    0 -0.15979088366E+02 -0.38609734320E+00  0.37580776559E+02  0.40838647173E+02  0.00000000000E+00 0. -1.
         11    1    1    2    0    0  0.17329043013E+02 -0.17897809211E+02 -0.45647636655E+02  0.52003211809E+02  0.00000000000E+00 0.  1.
</event>
<event>
 7    1  0.2749315E-009  0.1012953E+03  0.7561462E-02  0.1277595E+00
          2   -1    0    0  501    0  0.00000000000E+00  0.00000000000E+00  0.48727753915E+03  0.48727753915E+03  0.00000000000E+00 0. -1.
         -2   -1    0    0    0  501 -0.00000000000E+00 -0.00000000000E+00 -0.28923651510E+02  0.28923651510E+02  0.00000000000E+00 0.  1.
         25    2    1    2    0    0 -0.35906258607E+02 -0.72402304928E+01  0.22196914872E+03  0.25740857334E+03  0.12508872970E+03 0.  0.
          5    1    3    3  502    0  0.30845184368E+02  0.33727035790E+02  0.12197888738E+03  0.13032750940E+03  0.41800000000E+01 0.  1.
         -5    1    3    3    0  502 -0.66751442975E+02 -0.40967266283E+02  0.99990261346E+02  0.12708106393E+03  0.41800000000E+01 0.  1.
        -11    1    1    2    0    0 -0.20146424721E+02  0.92634481803E+01  0.79239664388E+01  0.23547380860E+02  0.00000000000E+00 0.  1.
         11    1    1    2    0    0  0.56052683328E+02 -0.20232176875E+01  0.22846077247E+03  0.23524523646E+03  0.00000000000E+00 0. -1.
</event>
<event>
 7    1  0.2929798E-009  0.1407968E+03  0.7561462E-02  0.1212261E+00
          2   -1    0    0  501    0  0.00000000000E+00  0.00000000000E+00  0.16650039278E+03  0.16650039278E+03  0.00000000000E+00 0. -1.
         -2   -1    0    0    0  501 -0.00000000000E+00 -0.00000000000E+00 -0.14176212986E+03  0.14176212986E+03  0.00000000000E+00 0.  1.
         25    2    1    2    0    0 -0.65918089370E+02  0.81271626268E+02 -0.15106335510E+02  0.16379120386E+03  0.12509630429E+03 0.  0.
          5    1    3    3  502    0  0.26918164599E+02  0.26023874449E+02  0.28475749410E+02  0.47224679260E+02  0.41800000000E+01 0. -1.
         -5    1    3    3    0  502 -0.92836253969E+02  0.55247751820E+02 -0.43582084921E+02  0.11656652460E+03  0.41800000000E+01 0. -1.
        -11    1    1    2    0    0 -0.18529091778E+02 -0.34780815014E+02 -0.18275689406E+01  0.39450885204E+02  0.00000000000E+00 0.  1.
         11    1    1    2    0    0  0.84447181148E+02 -0.46490811254E+02  0.41672167372E+02  0.10502043358E+03  0.00000000000E+00 0. -1.
</event>
<event>
 7    1  0.2749315E-009  0.9376565E+02  0.7561462E-02  0.1293981E+00
          4   -1    0    0  501    0  0.00000000000E+00  0.00000000000E+00  0.53688391814E+03  0.53688391814E+03  0.00000000000E+00 0. -1.
         -4   -1    0    0    0  501 -0.00000000000E+00 -0.00000000000E+00 -0.22069201278E+02  0.22069201278E+02  0.00000000000E+00 0.  1.
         25    2    1    2    0    0 -0.12268669899E+02  0.37422334581E+01  0.27930537029E+03  0.30630543361E+03  0.12508798589E+03 0.  0.
          5    1    3    3  502    0  0.16580641079E+02 -0.40883488551E+02  0.35613587015E+02  0.56852240719E+02  0.41800000000E+01 0.  1.
         -5    1    3    3    0  502 -0.28849310979E+02  0.44625722009E+02  0.24369178327E+03  0.24945319289E+03  0.41800000000E+01 0.  1.
        -11    1    1    2    0    0  0.42237582053E+02  0.24419457746E+02  0.10434875932E+03  0.11519108831E+03  0.00000000000E+00 0.  1.
         11    1    1    2    0    0 -0.29968912153E+02 -0.28161691204E+02  0.13116058726E+03  0.13745659750E+03  0.00000000000E+00 0. -1.
</event>
<event>
 7    1  0.2749315E-009  0.3007670E+03  0.7561462E-02  0.1084858E+00
          1   -1    0    0  501    0  0.00000000000E+00  0.00000000000E+00  0.17556277916E+04  0.17556277916E+04  0.00000000000E+00 0. -1.
         -1   -1    0    0    0  501 -0.00000000000E+00 -0.00000000000E+00 -0.73547334242E+02  0.73547334242E+02  0.00000000000E+00 0.  1.
         25    2    1    2    0    0 -0.22590766965E+03  0.19253149607E+03  0.12869982148E+04  0.13266925448E+04  0.12508417695E+03 0.  0.
          5    1    3    3  502    0 -0.17502871880E+03  0.10945201631E+03  0.10553356600E+04  0.10753444211E+04  0.41800000000E+01 0.  1.
         -5    1    3    3    0  502 -0.50878950854E+02  0.83079479757E+02  0.23166255477E+03  0.25134812369E+03  0.41800000000E+01 0.  1.
        -11    1    1    2    0    0  0.57332977495E+02 -0.61137797848E+02  0.53149487565E+02  0.99246000738E+02  0.00000000000E+00 0.  1.
         11    1    1    2    0    0  0.16857469215E+03 -0.13139369822E+03  0.34193275503E+03  0.40323658035E+03  0.00000000000E+00 0. -1.
</event>
<event>
 7    1  0.2749315E-009  0.2328581E+03  0.7561462E-02  0.1124644E+00
         -2   -1    0    0    0  501 -0.00000000000E+00  0.00000000000E+00  0.38268837071E+03  0.38268837071E+03  0.00000000000E+00 0. -1.
          2   -1    0    0  501    0  0.00000000000E+00 -0.00000000000E+00 -0.22666744101E+03  0.22666744101E+03  0.00000000000E+00 0.  1.
         25    2    1    2    0    0 -0.89691196600E+02  0.21367573936E+03 -0.70491584373E+02  0.27261380994E+03  0.12508954218E+03 0.  0.
          5    1    3    3  502    0 -0.87029253418E+01  0.24252742391E+02  0.32963809166E+02  0.42047848194E+02  0.41800000000E+01 0. -1.
         -5    1    3    3    0  502 -0.80988271258E+02  0.18942299697E+03 -0.10345539354E+03  0.23056596175E+03  0.41800000000E+01 0. -1.
        -11    1    1    2    0    0  0.80148666592E+02 -0.15900814258E+03  0.11440273016E+03  0.21164919757E+03  0.00000000000E+00 0. -1.
         11    1    1    2    0    0  0.95425300083E+01 -0.54667596783E+02  0.11210978391E+03  0.12509280421E+03  0.00000000000E+00 0.  1.
</event>
<event>
 7    1  0.2749315E-009  0.1408417E+03  0.7561462E-02  0.1212201E+00
         -1   -1    0    0    0  501 -0.00000000000E+00  0.00000000000E+00  0.70308833599E+02  0.70308833599E+02  0.00000000000E+00 0.  1.
          1   -1    0    0  501    0  0.00000000000E+00 -0.00000000000E+00 -0.31342661420E+03  0.31342661420E+03  0.00000000000E+00 0. -1.
         25    2    1    2    0    0  0.89678086917E+02 -0.45649752945E+02 -0.13325529983E+03  0.20864006377E+03  0.12509053545E+03 0.  0.
          5    1    3    3  502    0  0.10258525524E+03 -0.73483807680E+02 -0.88374428750E+02  0.15411397289E+03  0.41800000000E+01 0. -1.
         -5    1    3    3    0  502 -0.12907168326E+02  0.27834054735E+02 -0.44880871082E+02  0.54526090877E+02  0.41800000000E+01 0. -1.
        -11    1    1    2    0    0 -0.47888382292E+02 -0.15553998647E+02 -0.10998496675E+02  0.51538247560E+02  0.00000000000E+00 0.  1.
         11    1    1    2    0    0 -0.41789704626E+02  0.61203751593E+02 -0.98863984098E+02  0.12355713647E+03  0.00000000000E+00 0. -1.
</event>
<event>
 7    1  0.2749315E-009  0.1862292E+03  0.7561462E-02  0.1161907E+00
         -2   -1    0    0    0  501 -0.00000000000E+00  0.00000000000E+00  0.20267694938E+03  0.20267694938E+03  0.00000000000E+00 0. -1.
          2   -1    0    0  501    0  0.00000000000E+00 -0.00000000000E+00 -0.23143501504E+03  0.23143501504E+03  0.00000000000E+00 0.  1.
         25    2    1    2    0    0 -0.17658788258E+03  0.23393160726E+01 -0.75976463384E+02  0.22936521572E+03  0.12508887449E+03 0.  0.
          5    1    3    3  502    0 -0.11414039874E+03  0.32799862962E+02 -0.10043102113E+03  0.15558831589E+03  0.41800000000E+01 0. -1.
         -5    1    3    3    0  502 -0.62447483835E+02 -0.30460546890E+02  0.24454557747E+02  0.73776899832E+02  0.41800000000E+01 0. -1.
        -11    1    1    2    0    0  0.26436437903E+02  0.18726736908E+02 -0.20870872082E+02  0.38537893374E+02  0.00000000000E+00 0.  1.
         11    1    1    2    0    0  0.15015144467E+03 -0.21066052981E+02  0.68089269804E+02  0.16620885532E+03  0.00000000000E+00 0. -1.
</event>
<event>
 7    1  0.2749315E-009  0.1921970E+03  0.7561462E-02  0.1156495E+00
          2   -1    0    0  501    0  0.00000000000E+00  0.00000000000E+00  0.13327810543E+03  0.13327810543E+03  0.00000000000E+00 0. -1.
         -2   -1    0    0    0  501 -0.00000000000E+00 -0.00000000000E+00 -0.32924418153E+03  0.32924418153E+03  0.00000000000E+00 0.  1.
         25    2    1    2    0    0  0.94837012064E+02  0.14662956737E+03 -0.14457915020E+03  0.25893076877E+03  0.12509086081E+03 0.  0.
          5    1    3    3  502    0  0.67816676397E+02  0.36802022307E+02 -0.25401314169E+01  0.77313744645E+02  0.41800000000E+01 0.  1.
         -5    1    3    3    0  502  0.27020335668E+02  0.10982754506E+03 -0.14203901879E+03  0.18161702412E+03  0.41800000000E+01 0.  1.
        -11    1    1    2    0    0 -0.82724685601E+02 -0.15734774949E+03 -0.56660162146E+02  0.18657990742E+03  0.00000000000E+00 0. -1.
         11    1    1    2    0    0 -0.12112326464E+02  0.10718182127E+02  0.52732362459E+01  0.17011610770E+02  0.00000000000E+00 0.  1.
</event>
<event>
 7    1  0.2749315E-009  0.1108289E+03  0.7561462E-02  0.1259043E+00
          4   -1    0    0  501    0  0.00000000000E+00  0.00000000000E+00  0.13407406539E+03  0.13407406539E+03  0.00000000000E+00 0.  1.
         -4   -1    0    0    0  501 -0.00000000000E+00 -0.00000000000E+00 -0.14615984853E+03  0.14615984853E+03  0.00000000000E+00 0. -1.
         25    2    1    2    0    0 -0.23999214803E+02 -0.41649022057E+02 -0.80709075802E+02  0.15643630981E+03  0.12509100991E+03 0.  0.
          5    1    3    3  502    0  0.36228390967E+02  0.12733477905E+02  0.42685468369E+01  0.38862972914E+02  0.41800000000E+01 0. -1.
         -5    1    3    3    0  502 -0.60227605770E+02 -0.54382499963E+02 -0.84977622638E+02  0.11757333689E+03  0.41800000000E+01 0. -1.
        -11    1    1    2    0    0 -0.22861408737E+02  0.49254720541E+02  0.46193775859E+02  0.71291910012E+02  0.00000000000E+00 0.  1.
         11    1    1    2    0    0  0.46860623541E+02 -0.76056984832E+01  0.22429516803E+02  0.52505694092E+02  0.00000000000E+00 0. -1.
</event>
<event>
 7    1  0.2749315E-009  0.8663346E+02  0.7561462E-02  0.1311215E+00
         -3   -1    0    0    0  501 -0.00000000000E+00  0.00000000000E+00  0.33568468190E+02  0.33568468190E+02  0.00000000000E+00 0.  1.
          3   -1    0    0  501    0  0.00000000000E+00 -0.00000000000E+00 -0.52787260123E+03  0.52787260123E+03  0.00000000000E+00 0. -1.
         25    2    1    2    0    0  0.22213754444E+02  0.32642743408E+02 -0.13591160497E+03  0.18888026129E+03  0.12507913158E+03 0.  0.
          5    1    3    3  502    0  0.16708805789E+02  0.58494400798E+02 -0.14758445756E+03  0.15968538953E+03  0.41800000000E+01 0.  1.
         -5    1    3    3    0  502  0.55049486550E+01 -0.25851657390E+02  0.11672852591E+02  0.29194871761E+02  0.41800000000E+01 0.  1.
        -11    1    1    2    0    0 -0.16499486243E+01 -0.55074118299E+02 -0.31363497286E+03  0.31843802699E+03  0.00000000000E+00 0. -1.
         11    1    1    2    0    0 -0.20563805819E+02  0.22431374891E+02 -0.44757555212E+02  0.54122781135E+02  0.00000000000E+00 0.  1.
</event>
<event>
 7    1  0.2749315E-009  0.1266558E+03  0.7561462E-02  0.1232504E+00
         -4   -1    0    0    0  501 -0.00000000000E+00  0.00000000000E+00  0.21293740344E+03  0.21293740344E+03  0.00000000000E+00 0.  1.
          4   -1    0    0  501    0  0.00000000000E+00 -0.00000000000E+00 -0.91890601122E+02  0.91890601122E+02  0.00000000000E+00 0. -1.
         25    2    1    2    0    0  0.43988851866E+02 -0.54478320812E+02  0.88403311798E+01  0.14362561705E+03  0.12508900788E+03 0.  0.
          5    1    3    3  502    0 -0.52302069453E+01 -0.83750230362E+02 -0.62746802650E+01  0.84251410449E+02  0.41800000000E+01 0.  1.
         -5    1    3    3    0  502  0.49219058812E+02  0.29271909549E+02  0.15115011445E+02  0.59374206605E+02  0.41800000000E+01 0.  1.
        -11    1    1    2    0    0 -0.36471021958E+01  0.68928129215E+02  0.48247135882E+02  0.84215048966E+02  0.00000000000E+00 0. -1.
         11    1    1    2    0    0 -0.40341749671E+02 -0.14449808402E+02  0.63959335258E+02  0.76987338543E+02  0.00000000000E+00 0.  1.
</event>
<event>
 7    1  0.2749315E-009  0.1017426E+03  0.7561462E-02  0.1276674E+00
         -2   -1    0    0    0  501 -0.00000000000E+00  0.00000000000E+00  0.60758398276E+02  0.60758398276E+02  0.00000000000E+00 0. -1.
          2   -1    0    0  501    0  0.00000000000E+00 -0.00000000000E+00 -0.22853784528E+03  0.22853784528E+03  0.00000000000E+00 0.  1.
         25    2    1    2    0    0  0.13280638909E+02  0.39705668458E+02 -0.88328126893E+02  0.15875234398E+03  0.12509010050E+03 0.  0.
          5    1    3    3  502    0  0.35740509503E+02  0.70233377646E+02 -0.91094046612E+02  0.12052264967E+03  0.41800000000E+01 0. -1.
         -5    1    3    3    0  502 -0.22459870595E+02 -0.30527709188E+02  0.27659197194E+01  0.38229694313E+02  0.41800000000E+01 0. -1.
        -11    1    1    2    0    0  0.24146287892E+00  0.22642115394E+02  0.64492183290E+01  0.23543918767E+02  0.00000000000E+00 0. -1.
         11    1    1    2    0    0 -0.13522101788E+02 -0.62347783853E+02 -0.85900538441E+02  0.10699998081E+03  0.00000000000E+00 0.  1.
</event>
<event>
 7    1  0.2749315E-009  0.1421001E+03  0.7561462E-02  0.1210531E+00
          2   -1    0    0  501    0  0.00000000000E+00  0.00000000000E+00  0.66876180273E+03  0.66876180273E+03  0.00000000000E+00 0. -1.
         -2   -1    0    0    0  501 -0.00000000000E+00 -0.00000000000E+00 -0.43118167260E+02  0.43118167260E+02  0.00000000000E+00 0.  1.
         25    2    1    2    0    0  0.11135031609E+03 -0.10407858464E+02  0.19191778397E+03  0.25492728219E+03  0.12509303333E+03 0.  0.
          5    1    3    3  502    0 -0.61309485850E+01  0.28483778343E+02  0.89568299675E+02  0.94280787363E+02  0.41800000000E+01 0.  1.
         -5    1    3    3    0  502  0.11748126468E+03 -0.38891636806E+02  0.10234948429E+03  0.16064649482E+03  0.41800000000E+01 0.  1.
        -11    1    1    2    0    0 -0.10830331394E+03  0.28987917283E+02  0.41686453475E+03  0.43167806000E+03  0.00000000000E+00 0. -1.
         11    1    1    2    0    0 -0.30470021546E+01 -0.18580058819E+02  0.16861316752E+02  0.25274627801E+02  0.00000000000E+00 0.  1.
</event>
<event>
 7    1  0.2749315E-009  0.1169710E+03  0.7561462E-02  0.1248179E+00
          1   -1    0    0  501    0  0.00000000000E+00  0.00000000000E+00  0.26557725476E+03  0.26557725476E+03  0.00000000000E+00 0. -1.
         -1   -1    0    0    0  501 -0.00000000000E+00 -0.00000000000E+00 -0.60171704325E+02  0.60171704325E+02  0.00000000000E+00 0.  1.
         25    2    1    2    0    0  0.51055039663E+02  0.32665815120E+02  0.80654344564E+02  0.16070670323E+03  0.12509136106E+03 0.  0.
          5    1    3    3  502    0  0.14855448018E+02  0.72471697523E+02  0.14792463362E+02  0.75558723189E+02  0.41800000000E+01 0. -1.
         -5    1    3    3    0  502  0.36199591645E+02 -0.39805882403E+02  0.65861881202E+02  0.85147980038E+02  0.41800000000E+01 0. -1.
        -11    1    1    2    0    0  0.67893196376E+01  0.23976994423E+02  0.44770316336E+02  0.51238387441E+02  0.00000000000E+00 0.  1.
         11    1    1    2    0    0 -0.57844359300E+02 -0.56642809544E+02  0.79980889534E+02  0.11380386842E+03  0.00000000000E+00 0. -1.
</event>
<event>
 7    1  0.2749315E-009  0.1948989E+03  0.7561462E-02  0.1154116E+00
          1   -1    0    0  501    0  0.00000000000E+00  0.00000000000E+00  0.16273657342E+03  0.16273657342E+03  0.00000000000E+00 0. -1.
         -1   -1    0    0    0  501 -0.00000000000E+00 -0.00000000000E+00 -0.26256520097E+03  0.26256520097E+03  0.00000000000E+00 0.  1.
         25    2    1    2    0    0  0.12470456664E+03  0.11702675495E+03 -0.96413998876E+01  0.21209996661E+03  0.12508776491E+03 0.  0.
          5    1    3    3  502    0  0.13459512460E+02  0.95646240193E+02  0.94714917509E+01  0.97141871995E+02  0.41800000000E+01 0. -1.
         -5    1    3    3    0  502  0.11124505418E+03  0.21380514753E+02 -0.19112891638E+02  0.11495809461E+03  0.41800000000E+01 0. -1.
        -11    1    1    2    0    0 -0.31902481411E+02 -0.67292598999E+02 -0.76947408926E+02  0.10708392008E+03  0.00000000000E+00 0.  1.
         11    1    1    2    0    0 -0.92802085226E+02 -0.49734155948E+02 -0.13239818729E+02  0.10611788770E+03  0.00000000000E+00 0. -1.
</event>
<event>
 7    1  0.2749315E-009  0.1693092E+03  0.7561462E-02  0.1178570E+00
          1   -1    0    0  501    0  0.00000000000E+00  0.00000000000E+00  0.87061596463E+02  0.87061596463E+02  0.00000000000E+00 0. -1.
         -1   -1    0    0    0  501 -0.00000000000E+00 -0.00000000000E+00 -0.42338092939E+03  0.42338092939E+03  0.00000000000E+00 0.  1.
         25    2    1    2    0    0 -0.14475699246E+03  0.56307719819E+02 -0.13882034361E+03  0.24298936820E+03  0.12509036365E+03 0.  0.
          5    1    3    3  502    0 -0.11263339012E+03  0.59838050683E+02 -0.32353904527E+02  0.13164771331E+03  0.41800000000E+01 0. -1.
         -5    1    3    3    0  502 -0.32123602339E+02 -0.35303308636E+01 -0.10646643908E+03  0.11134165489E+03  0.41800000000E+01 0. -1.
        -11    1    1    2    0    0  0.97292217991E+02  0.89781764462E+01 -0.88549140339E+02  0.13186103893E+03  0.00000000000E+00 0. -1.
         11    1    1    2    0    0  0.47464774473E+02 -0.65285896265E+02 -0.10894984898E+03  0.13559211872E+03  0.00000000000E+00 0.  1.
</event>
<event>
 7    1  0.2749315E-009  0.9140506E+02  0.7561462E-02  0.1299484E+00
          4   -1    0    0  501    0  0.00000000000E+00  0.00000000000E+00  0.26735619170E+02  0.26735619170E+02  0.00000000000E+00 0. -1.
         -4   -1    0    0    0  501 -0.00000000000E+00 -0.00000000000E+00 -0.45266412348E+03  0.45266412348E+03  0.00000000000E+00 0.  1.
         25    2    1    2    0    0 -0.87605503565E+01  0.28062109554E+02 -0.23918140097E+03  0.27151280409E+03  0.12508889230E+03 0.  0.
          5    1    3    3  502    0  0.10712620675E+02  0.73397899698E+02 -0.10616265752E+03  0.12957620990E+03  0.41800000000E+01 0. -1.
         -5    1    3    3    0  502 -0.19473171032E+02 -0.45335790144E+02 -0.13301874346E+03  0.14193659418E+03  0.41800000000E+01 0. -1.
        -11    1    1    2    0    0  0.19998360453E+02  0.77634040109E+01 -0.46387094249E+01  0.21948177323E+02  0.00000000000E+00 0. -1.
         11    1    1    2    0    0 -0.11237810097E+02 -0.35825513565E+02 -0.18210839391E+03  0.18593876124E+03  0.00000000000E+00 0.  1.
</event>
<event>
 7    1  0.2749315E-009  0.9639384E+02  0.7561462E-02  0.1288067E+00
          2   -1    0    0  501    0  0.00000000000E+00  0.00000000000E+00  0.80003550352E+03  0.80003550352E+03  0.00000000000E+00 0. -1.
         -2   -1    0    0    0  501 -0.00000000000E+00 -0.00000000000E+00 -0.15389426841E+02  0.15389426841E+02  0.00000000000E+00 0.  1.
         25    2    1    2    0    0 -0.17837618052E+02 -0.90038539951E+01  0.41260471422E+03  0.43161274046E+03  0.12509059728E+03 0.  0.
          5    1    3    3  502    0 -0.98269660145E+01  0.46950368390E+02  0.73924027846E+02  0.88222109734E+02  0.41800000000E+01 0.  1.
         -5    1    3    3    0  502 -0.80106520375E+01 -0.55954222385E+02  0.33868068637E+03  0.34339063072E+03  0.41800000000E+01 0.  1.
        -11    1    1    2    0    0 -0.25607754535E+02  0.30219497267E+02  0.23895268417E+03  0.24221346036E+03  0.00000000000E+00 0.  1.
         11    1    1    2    0    0  0.43445372587E+02 -0.21215643272E+02  0.13308867830E+03  0.14159872955E+03  0.00000000000E+00 0. -1.
</event>
<event>
 7    1  0.2749315E-009  0.1022422E+03  0.7561462E-02  0.1275650E+00
         -2   -1    0    0    0  501 -0.00000000000E+00  0.00000000000E+00  0.38651027743E+02  0.38651027743E+02  0.00000000000E+00 0.  1.
          2   -1    0    0  501    0  0.00000000000E+00 -0.00000000000E+00 -0.37309394902E+03  0.37309394902E+03  0.00000000000E+00 0. -1.
         25    2    1    2    0    0  0.38150303289E+02 -0.18827362050E+02 -0.23414238030E+03  0.26884864506E+03  0.12508806695E+03 0.  0.
          5    1    3    3  502    0 -0.26870618766E+02  0.25403512146E+02 -0.14592467282E+03  0.15059499036E+03  0.41800000000E+01 0. -1.
         -5    1    3    3    0  502  0.65020922054E+02 -0.44230874196E+02 -0.88217707478E+02  0.11825365470E+03  0.41800000000E+01 0. -1.
        -11    1    1    2    0    0 -0.52532113917E+02  0.37796520826E+02 -0.99970308664E+02  0.11908930512E+03  0.00000000000E+00 0. -1.
         11    1    1    2    0    0  0.14381810628E+02 -0.18969158776E+02 -0.33023231041E+00  0.23807026589E+02  0.00000000000E+00 0.  1.
</event>
<event>
 7    1  0.2749315E-009  0.1406409E+03  0.7561462E-02  0.1212469E+00
          1   -1    0    0  501    0  0.00000000000E+00  0.00000000000E+00  0.25393573975E+02  0.25393573975E+02  0.00000000000E+00 0. -1.
         -1   -1    0    0    0  501 -0.00000000000E+00 -0.00000000000E+00 -0.83479933521E+03  0.83479933521E+03  0.00000000000E+00 0.  1.
         25    2    1    2    0    0 -0.68639254233E+02  0.60720226080E+02 -0.53080627219E+03  0.55299224880E+03  0.12508731173E+03 0.  0.
          5    1    3    3  502    0 -0.88064416794E+01  0.88002229737E+02 -0.32868988999E+03  0.34040631903E+03  0.41800000000E+01 0.  1.
         -5    1    3    3    0  502 -0.59832812554E+02 -0.27282003657E+02 -0.20211638220E+03  0.21258592977E+03  0.41800000000E+01 0.  1.
        -11    1    1    2    0    0  0.58655749849E+02  0.63879833328E+01 -0.99469877149E+02  0.11565275518E+03  0.00000000000E+00 0. -1.
         11    1    1    2    0    0  0.99835043843E+01 -0.67108209413E+02 -0.17912961190E+03  0.19154790521E+03  0.00000000000E+00 0.  1.
</event>
<event>
 7    1  0.2749315E-009  0.6253904E+02  0.7561462E-02  0.1387475E+00
         -1   -1    0    0    0  501 -0.00000000000E+00  0.00000000000E+00  0.21657664779E+02  0.21657664779E+02  0.00000000000E+00 0.  1.
          1   -1    0    0  501    0  0.00000000000E+00 -0.00000000000E+00 -0.57964759879E+03  0.57964759879E+03  0.00000000000E+00 0. -1.
         25    2    1    2    0    0  0.28322038863E+02 -0.39040269079E+01 -0.31950788915E+03  0.34431186123E+03  0.12509191517E+03 0.  0.
          5    1    3    3  502    0  0.41700169324E+02 -0.77068225600E+01 -0.32573505139E+03  0.32851041892E+03  0.41800000000E+01 0.  1.
         -5    1    3    3    0  502 -0.13378130460E+02  0.38027956521E+01  0.62271622398E+01  0.15801442306E+02  0.41800000000E+01 0.  1.
        -11    1    1    2    0    0  0.73802639522E+01 -0.22408529825E+02 -0.12498240263E+02  0.26698623833E+02  0.00000000000E+00 0.  1.
         11    1    1    2    0    0 -0.35702302816E+02  0.26312556733E+02 -0.22598380459E+03  0.23029477851E+03  0.00000000000E+00 0. -1.
</event>
<event>
 7    1  0.2749315E-009  0.1534625E+03  0.7561462E-02  0.1196282E+00
          2   -1    0    0  501    0  0.00000000000E+00  0.00000000000E+00  0.47070248521E+03  0.47070248521E+03  0.00000000000E+00 0.  1.
         -2   -1    0    0    0  501 -0.00000000000E+00 -0.00000000000E+00 -0.79461278512E+02  0.79461278512E+02  0.00000000000E+00 0. -1.
         25    2    1    2    0    0  0.10260164538E+03  0.72047030398E+02  0.63832203545E+02  0.18825239086E+03  0.12508613124E+03 0.  0.
          5    1    3    3  502    0  0.17882923392E+02  0.66131498882E+02 -0.17242552902E+02  0.70766885787E+02  0.41800000000E+01 0.  1.
         -5    1    3    3    0  502  0.84718721991E+02  0.59155315163E+01  0.81074756446E+02  0.11748550507E+03  0.41800000000E+01 0.  1.
        -11    1    1    2    0    0  0.47812339025E+01 -0.41284719400E+02  0.10761655602E+03  0.11536295499E+03  0.00000000000E+00 0.  1.
         11    1    1    2    0    0 -0.10738287929E+03 -0.30762310998E+02  0.21979244713E+03  0.24654841788E+03  0.00000000000E+00 0. -1.
</event>
<event>
 7    1  0.2749315E-009  0.1126999E+03  0.7561462E-02  0.1255650E+00
          1   -1    0    0  501    0  0.00000000000E+00  0.00000000000E+00  0.71682207322E+02  0.71682207322E+02  0.00000000000E+00 0. -1.
         -1   -1    0    0    0  501 -0.00000000000E+00 -0.00000000000E+00 -0.27715676597E+03  0.27715676597E+03  0.00000000000E+00 0.  1.
         25    2    1    2    0    0  0.71459002281E+02 -0.18137399126E+02 -0.49368670988E+02  0.15336466032E+03  0.12509236230E+03 0.  0.
          5    1    3    3  502    0 -0.14951722868E+02  0.21221968884E+02 -0.52014948517E+02  0.58283387421E+02  0.41800000000E+01 0.  1.
         -5    1    3    3    0  502  0.86410725149E+02 -0.39359368010E+02  0.26462775288E+01  0.95081272897E+02  0.41800000000E+01 0.  1.
        -11    1    1    2    0    0 -0.67834396223E+02 -0.16029292933E+02 -0.14228419617E+03  0.15844000765E+03  0.00000000000E+00 0. -1.
         11    1    1    2    0    0 -0.36246060578E+01  0.34166692059E+02 -0.13821691484E+02  0.37034305323E+02  0.00000000000E+00 0.  1.
</event>
<event>
 7    1  0.2749315E-009  0.9746413E+02  0.7561462E-02  0.1285721E+00
          2   -1    0    0  501    0  0.00000000000E+00  0.00000000000E+00  0.16526822589E+03  0.16526822589E+03  0.00000000000E+00 0.  1.
         -2   -1    0    0    0  501 -0.00000000000E+00 -0.00000000000E+00 -0.11629131781E+03  0.11629131781E+03  0.00000000000E+00 0. -1.
         25    2    1    2    0    0  0.21005079208E+02 -0.90318414510E+02  0.39160766264E+02  0.16055892161E+03  0.12508785849E+03 0.  0.
          5    1    3    3  502    0 -0.10666160097E+02 -0.98482195959E+01  0.67724814087E+02  0.69389316494E+02  0.41800000000E+01 0.  1.
         -5    1    3    3    0  502  0.31671239306E+02 -0.80470194914E+02 -0.28564047823E+02  0.91169605114E+02  0.41800000000E+01 0.  1.
        -11    1    1    2    0    0 -0.26209208316E+01  0.31696326384E+02 -0.33219658315E+02  0.45989912273E+02  0.00000000000E+00 0. -1.
         11    1    1    2    0    0 -0.18384158377E+02  0.58622088126E+02  0.43035800132E+02  0.75010709825E+02  0.00000000000E+00 0.  1.
</event>
<event>
 7    1  0.2749315E-009  0.1309998E+03  0.7561462E-02  0.1225980E+00
         -4   -1    0    0    0  501 -0.00000000000E+00  0.00000000000E+00  0.76987338964E+03  0.76987338964E+03  0.00000000000E+00 0.  1.
          4   -1    0    0  501    0  0.00000000000E+00 -0.00000000000E+00 -0.23263435343E+02  0.23263435343E+02  0.00000000000E+00 0. -1.
         25    2    1    2    0    0  0.34283270564E+02  0.62317910443E+02  0.33274455111E+03  0.36252321138E+03  0.12508108526E+03 0.  0.
          5    1    3    3  502    0  0.81831340277E+02  0.38767620872E+02  0.20687618456E+03  0.22586395201E+03  0.41800000000E+01 0. -1.
         -5    1    3    3    0  502 -0.47548069713E+02  0.23550289571E+02  0.12586836655E+03  0.13665925936E+03  0.41800000000E+01 0. -1.
        -11    1    1    2    0    0  0.31537519796E+02 -0.34291645014E+02  0.13945856337E+03  0.14703476789E+03  0.00000000000E+00 0.  1.
         11    1    1    2    0    0 -0.65820790360E+02 -0.28026265429E+02  0.27440683982E+03  0.28357884571E+03  0.00000000000E+00 0. -1.
</event>
<event>
 7    1  0.2749315E-009  0.1027055E+03  0.7561462E-02  0.1274707E+00
         -1   -1    0    0    0  501 -0.00000000000E+00  0.00000000000E+00  0.74646560715E+02  0.74646560715E+02  0.00000000000E+00 0.  1.
          1   -1    0    0  501    0  0.00000000000E+00 -0.00000000000E+00 -0.27554128554E+03  0.27554128554E+03  0.00000000000E+00 0. -1.
         25    2    1    2    0    0 -0.51876927349E+02  0.73535735870E+00 -0.15226352865E+02  0.13627383741E+03  0.12508781155E+03 0.  0.
          5    1    3    3  502    0 -0.81377026858E+02 -0.46852388455E+01  0.25511268959E+02  0.85512976835E+02  0.41800000000E+01 0. -1.
         -5    1    3    3    0  502  0.29500099509E+02  0.54205962042E+01 -0.40737621824E+02  0.50760860573E+02  0.41800000000E+01 0. -1.
        -11    1    1    2    0    0  0.78633038028E+01 -0.36162764677E+02 -0.12774620322E+03  0.13299875764E+03  0.00000000000E+00 0.  1.
         11    1    1    2    0    0  0.44013623546E+02  0.35427407318E+02 -0.57922168741E+02  0.80915251212E+02  0.00000000000E+00 0. -1.
</event>
<event>
 7    1  0.2749315E-009  0.4032259E+03  0.7561462E-02  0.1042668E+00
         -2   -1    0    0    0  501 -0.00000000000E+00  0.00000000000E+00  0.19470495239E+03  0.19470495239E+03  0.00000000000E+00 0.  1.
          2   -1    0    0  501    0  0.00000000000E+00 -0.00000000000E+00 -0.12782666225E+04  0.12782666225E+04  0.00000000000E+00 0. -1.
         25    2    1    2    0    0  0.28064707103E+03 -0.28814195073E+03 -0.14108706799E+03  0.44423200608E+03  0.12509177523E+03 0.  0.
          5    1    3    3  502    0  0.15859930400E+03 -0.15469662402E+03 -0.14228582371E+03  0.26333915915E+03  0.41800000000E+01 0. -1.
         -5    1    3    3    0  502  0.12204776702E+03 -0.13344532670E+03  0.11987557260E+01  0.18089284693E+03  0.41800000000E+01 0. -1.
        -11    1    1    2    0    0 -0.12755967849E+03  0.15782926905E+03 -0.37009746032E+03  0.42208255102E+03  0.00000000000E+00 0.  1.
         11    1    1    2    0    0 -0.15308739253E+03  0.13031268168E+03 -0.57237714186E+03  0.60665701783E+03  0.00000000000E+00 0. -1.
</event>
<event>
 7    1  0.2749315E-009  0.9760587E+02  0.7561462E-02  0.1285413E+00
          1   -1    0    0  501    0  0.00000000000E+00  0.00000000000E+00  0.24069844466E+02  0.24069844466E+02  0.00000000000E+00 0. -1.
         -1   -1    0    0    0  501 -0.00000000000E+00 -0.00000000000E+00 -0.56936208117E+03  0.56936208117E+03  0.00000000000E+00 0.  1.
         25    2    1    2    0    0  0.39385798368E+02 -0.59437476638E+02 -0.25330523137E+03  0.29136741025E+03  0.12508945909E+03 0.  0.
          5    1    3    3  502    0 -0.30342034207E+02 -0.39963560933E+02 -0.34966955797E+02  0.61301595738E+02  0.41800000000E+01 0.  1.
         -5    1    3    3    0  502  0.69727832575E+02 -0.19473915705E+02 -0.21833827557E+03  0.23006581451E+03  0.41800000000E+01 0.  1.
        -11    1    1    2    0    0 -0.22936259341E+02  0.23587299986E+02 -0.81080901128E+02  0.87501687074E+02  0.00000000000E+00 0.  1.
         11    1    1    2    0    0 -0.16449539027E+02  0.35850176652E+02 -0.21090610421E+03  0.21456282831E+03  0.00000000000E+00 0. -1.
</event>
<event>
 7    1  0.2749315E-009  0.9861898E+02  0.7561462E-02  0.1283227E+00
         -2   -1    0    0    0  501 -0.00000000000E+00  0.00000000000E+00  0.34948163651E+02  0.34948163651E+02  0.00000000000E+00 0.  1.
          2   -1    0    0  501    0  0.00000000000E+00 -0.00000000000E+00 -0.51535357460E+03  0.51535357460E+03  0.00000000000E+00 0. -1.
         25    2    1    2    0    0 -0.36406364967E+02 -0.67985053515E+02 -0.22751708523E+03  0.27084731883E+03  0.12508738999E+03 0.  0.
          5    1    3    3  502    0 -0.31863281395E+01 -0.53418822819E+01  0.15739590363E+02  0.17432598719E+02  0.41800000000E+01 0. -1.
         -5    1    3    3    0  502 -0.33220036828E+02 -0.62643171233E+02 -0.24325667559E+03  0.25341472011E+03  0.41800000000E+01 0. -1.
        -11    1    1    2    0    0  0.44917119186E+01 -0.22407423363E+02 -0.42447900653E+02  0.48208841176E+02  0.00000000000E+00 0.  1.
         11    1    1    2    0    0  0.31914653049E+02  0.90392476878E+02 -0.21044042507E+03  0.23124557824E+03  0.00000000000E+00 0. -1.
</event>
<event>
 7    1  0.2749315E-009  0.1298758E+03  0.7561462E-02  0.1227640E+00
         -2   -1    0    0    0  501 -0.00000000000E+00  0.00000000000E+00  0.53863073580E+02  0.53863073580E+02  0.00000000000E+00 0. -1.
          2   -1    0    0  501    0  0.00000000000E+00 -0.00000000000E+00 -0.33574307273E+03  0.33574307273E+03  0.00000000000E+00 0.  1.
         25    2    1    2    0    0 -0.47115835817E+02  0.63199101641E+02 -0.14309712411E+03  0.20575932271E+03  0.12508430565E+03 0.  0.
          5    1    3    3  502    0 -0.22233704904E+02  0.10025003819E+03 -0.93987760845E+02  0.13926801276E+03  0.41800000000E+01 0.  1.
         -5    1    3    3    0  502 -0.24882130914E+02 -0.37050936547E+02 -0.49109363266E+02  0.66491309945E+02  0.41800000000E+01 0.  1.
        -11    1    1    2    0    0  0.63552219808E+02 -0.69840054874E+02 -0.84403745123E+02  0.12665113540E+03  0.00000000000E+00 0. -1.
         11    1    1    2    0    0 -0.16436383990E+02  0.66409532334E+01 -0.54379129918E+02  0.57195688205E+02  0.00000000000E+00 0.  1.
</event>
<event>
 7    1  0.2749315E-009  0.7800852E+02  0.7561462E-02  0.1334800E+00
          2   -1    0    0  501    0  0.00000000000E+00  0.00000000000E+00  0.12341918832E+03  0.12341918832E+03  0.00000000000E+00 0. -1.
         -2   -1    0    0    0  501 -0.00000000000E+00 -0.00000000000E+00 -0.10603548176E+03  0.10603548176E+03  0.00000000000E+00 0.  1.
         25    2    1    2    0    0  0.18182612309E+02  0.81846976775E+01 -0.19934035043E+02  0.12822593120E+03  0.12508767730E+03 0.  0.
          5    1    3    3  502    0  0.86009650613E+01  0.35812686527E+02 -0.64715389751E+02  0.74579348260E+02  0.41800000000E+01 0.  1.
         -5    1    3    3    0  502  0.95816472477E+01 -0.27627988849E+02  0.44781354708E+02  0.53646582942E+02  0.41800000000E+01 0.  1.
        -11    1    1    2    0    0 -0.51496297103E+02 -0.18208926907E+02  0.37819326352E+02  0.66435947198E+02  0.00000000000E+00 0. -1.
         11    1    1    2    0    0  0.33313684794E+02  0.10024229229E+02 -0.50158474991E+00  0.34792791688E+02  0.00000000000E+00 0.  1.
</event>
<event>
 7    1  0.2749315E-009  0.1882054E+03  0.7561462E-02  0.1160090E+00
         -2   -1    0    0    0  501 -0.00000000000E+00  0.00000000000E+00  0.15249270307E+03  0.15249270307E+03  0.00000000000E+00 0.  1.
          2   -1    0    0  501    0  0.00000000000E+00 -0.00000000000E+00 -0.28590715225E+03  0.28590715225E+03  0.00000000000E+00 0. -1.
         25    2    1    2    0    0  0.12792356991E+03  0.12303615183E+03 -0.44217706070E+02  0.22158615981E+03  0.12507152471E+03 0.  0.
          5    1    3    3  502    0  0.10719086104E+03  0.91344515056E+02  0.24503967898E+02  0.14300915343E+03  0.41800000000E+01 0.  1.
         -5    1    3    3    0  502  0.20732708868E+02  0.31691636777E+02 -0.68721673969E+02  0.78577006380E+02  0.41800000000E+01 0.  1.
        -11    1    1    2    0    0 -0.36208918201E+02 -0.94758302503E+02 -0.50708326820E+02  0.11340880063E+03  0.00000000000E+00 0.  1.
         11    1    1    2    0    0 -0.91714651705E+02 -0.28277849330E+02 -0.38488416290E+02  0.10340489490E+03  0.00000000000E+00 0. -1.
</event>
<event>
 7    1  0.2749315E-009  0.1239555E+03  0.7561462E-02  0.1236711E+00
          2   -1    0    0  501    0  0.00000000000E+00  0.00000000000E+00  0.73937487985E+03  0.73937487985E+03  0.00000000000E+00 0. -1.
         -2   -1    0    0    0  501 -0.00000000000E+00 -0.00000000000E+00 -0.28980852876E+02  0.28980852876E+02  0.00000000000E+00 0.  1.
         25    2    1    2    0    0  0.76488812068E+02  0.34164569810E+02  0.25140677893E+03  0.29303735042E+03  0.12509102305E+03 0.  0.
          5    1    3    3  502    0  0.97617238988E+02  0.40183016590E+02  0.24907352787E+03  0.27055294280E+03  0.41800000000E+01 0.  1.
         -5    1    3    3    0  502 -0.21128426919E+02 -0.60184467795E+01  0.23332510619E+01  0.22484407625E+02  0.41800000000E+01 0.  1.
        -11    1    1    2    0    0 -0.63105077004E+01 -0.47965392553E+02  0.13162951422E+03  0.14023847690E+03  0.00000000000E+00 0.  1.
         11    1    1    2    0    0 -0.70178304368E+02  0.13800822742E+02  0.32735773382E+03  0.33507990540E+03  0.00000000000E+00 0. -1.
</event>
<event>
 7    1  0.2749315E-009  0.1121581E+03  0.7561462E-02  0.1256625E+00
         -2   -1    0    0    0  501 -0.00000000000E+00  0.00000000000E+00  0.10916570177E+03  0.10916570177E+03  0.00000000000E+00 0.  1.
          2   -1    0    0  501    0  0.00000000000E+00 -0.00000000000E+00 -0.14078719986E+03  0.14078719986E+03  0.00000000000E+00 0. -1.
         25    2    1    2    0    0  0.57176367957E+02  0.13284895079E+02 -0.34304519581E+02  0.14237038705E+03  0.12508757554E+03 0.  0.
          5    1    3    3  502    0  0.92163525639E+02 -0.69185483587E+00 -0.45464884238E+02  0.10285485997E+03  0.41800000000E+01 0.  1.
         -5    1    3    3    0  502 -0.34987157682E+02  0.13976749915E+02  0.11160364657E+02  0.39515527076E+02  0.41800000000E+01 0.  1.
        -11    1    1    2    0    0 -0.97284331420E+01 -0.38989744506E+02  0.26979414020E+02  0.48401770308E+02  0.00000000000E+00 0.  1.
         11    1    1    2    0    0 -0.47447934815E+02  0.25704849427E+02 -0.24296392525E+02  0.59180744267E+02  0.00000000000E+00 0. -1.
</event>
<event>
 7    1  0.2749315E-009  0.1009931E+03  0.7561462E-02  0.1278221E+00
          1   -1    0    0  501    0  0.00000000000E+00  0.00000000000E+00  0.28973598305E+03  0.28973598305E+03  0.00000000000E+00 0. -1.
         -1   -1    0    0    0  501 -0.00000000000E+00 -0.00000000000E+00 -0.52770944369E+02  0.52770944369E+02  0.00000000000E+00 0.  1.
         25    2    1    2    0    0 -0.21064978439E+02 -0.39357425007E+02  0.79765498744E+02  0.15492899660E+03  0.12509084290E+03 0.  0.
          5    1    3    3  502    0  0.28406333119E+02 -0.43258078706E+02 -0.94332957714E+01  0.52769693989E+02  0.41800000000E+01 0. -1.
         -5    1    3    3    0  502 -0.49471311558E+02  0.39006536994E+01  0.89198794515E+02  0.10215930261E+03  0.41800000000E+01 0. -1.
        -11    1    1    2    0    0  0.14077983813E+02 -0.28638642963E+02  0.33617727918E+02  0.46352056366E+02  0.00000000000E+00 0.  1.
         11    1    1    2    0    0  0.69869946255E+01  0.67996067970E+02  0.12358181201E+03  0.14122587445E+03  0.00000000000E+00 0. -1.
</event>
<event>
 7    1  0.2749315E-009  0.5899998E+02  0.7561462E-02  0.1402077E+00
          1   -1    0    0  501    0  0.00000000000E+00  0.00000000000E+00  0.40619061505E+03  0.40619061505E+03  0.00000000000E+00 0. -1.
         -1   -1    0    0    0  501 -0.00000000000E+00 -0.00000000000E+00 -0.67485989001E+02  0.67485989001E+02  0.00000000000E+00 0.  1.
         25    2    1    2    0    0  0.31411750638E+02 -0.13095259991E+02  0.35028034861E+03  0.37350001435E+03  0.12509098363E+03 0.  0.
          5    1    3    3  502    0  0.67625333434E+00 -0.15452064196E+01  0.33825368651E+03  0.33828371794E+03  0.41800000000E+01 0. -1.
         -5    1    3    3    0  502  0.30735497304E+02 -0.11550053571E+02  0.12026662101E+02  0.35216296416E+02  0.41800000000E+01 0. -1.
        -11    1    1    2    0    0 -0.34879408921E+02  0.40111544855E+02  0.21491376800E+02  0.57335752146E+02  0.00000000000E+00 0. -1.
         11    1    1    2    0    0  0.34676582828E+01 -0.27016284865E+02 -0.33067099364E+02  0.42840837553E+02  0.00000000000E+00 0.  1.
</event>
<event>
 7    1  0.2749315E-009  0.1172352E+03  0.7561462E-02  0.1247729E+00
          1   -1    0    0  501    0  0.00000000000E+00  0.00000000000E+00  0.17067990645E+03  0.17067990645E+03  0.00000000000E+00 0. -1.
         -1   -1    0    0    0  501 -0.00000000000E+00 -0.00000000000E+00 -0.10007494522E+03  0.10007494522E+03  0.00000000000E+00 0.  1.
         25    2    1    2    0    0  0.69700192390E+02 -0.15224803254E+02  0.50036630787E+02  0.15244832050E+03  0.12508762749E+03 0.  0.
          5    1    3    3  502    0  0.31540807937E+02  0.39776984054E+02 -0.20687212159E+02  0.54976942191E+02  0.41800000000E+01 0. -1.
         -5    1    3    3    0  502  0.38159384453E+02 -0.55001787308E+02  0.70723842946E+02  0.97471378312E+02  0.41800000000E+01 0. -1.
        -11    1    1    2    0    0 -0.36274155934E+02  0.54135193359E+02  0.98974881502E+01  0.65912015752E+02  0.00000000000E+00 0.  1.
         11    1    1    2    0    0 -0.33426036456E+02 -0.38910390105E+02  0.10670842293E+02  0.52394515424E+02  0.00000000000E+00 0. -1.
</event>
<event>
 7    1  0.2749315E-009  0.1225716E+03  0.7561462E-02  0.1238914E+00
          1   -1    0    0  501    0  0.00000000000E+00  0.00000000000E+00  0.58288748227E+02  0.58288748227E+02  0.00000000000E+00 0. -1.
         -1   -1    0    0    0  501 -0.00000000000E+00 -0.00000000000E+00 -0.31680772056E+03  0.31680772056E+03  0.00000000000E+00 0.  1.
         25    2    1    2    0    0  0.60759977416E+02  0.54763077259E+02 -0.10848519866E+03  0.18467890942E+03  0.12508593755E+03 0.  0.
          5    1    3    3  502    0  0.46942034827E+02  0.86490319557E+02 -0.37126059393E+02  0.10526132574E+03  0.41800000000E+01 0. -1.
         -5    1    3    3    0  502  0.13817942589E+02 -0.31727242298E+02 -0.71359139266E+02  0.79417583683E+02  0.41800000000E+01 0. -1.
        -11    1    1    2    0    0 -0.44085665754E+02  0.97544525422E+01 -0.33668907603E+02  0.56323091255E+02  0.00000000000E+00 0.  1.
         11    1    1    2    0    0 -0.16674311662E+02 -0.64517529801E+02 -0.11636486607E+03  0.13409446810E+03  0.00000000000E+00 0. -1.
</event>
<event>
 7    1  0.2749315E-009  0.1270877E+03  0.7561462E-02  0.1231842E+00
          2   -1    0    0  501    0  0.00000000000E+00  0.00000000000E+00  0.29405434648E+03  0.29405434648E+03  0.00000000000E+00 0.  1.
         -2   -1    0    0    0  501 -0.00000000000E+00 -0.00000000000E+00 -0.10775876806E+03  0.10775876806E+03  0.00000000000E+00 0. -1.
         25    2    1    2    0    0  0.58759682131E+02  0.99433040513E+02  0.19004581288E+03  0.25515610893E+03  0.12509036391E+03 0.  0.
          5    1    3    3  502    0  0.63650487006E+01  0.24199876665E+02 -0.15724186270E+02  0.29847450635E+02  0.41800000000E+01 0. -1.
         -5    1    3    3    0  502  0.52394633430E+02  0.75233163849E+02  0.20576999915E+03  0.22530865830E+03  0.41800000000E+01 0. -1.
        -11    1    1    2    0    0 -0.28180312659E+01 -0.76530120266E+02 -0.27980019756E+02  0.81533319040E+02  0.00000000000E+00 0. -1.
         11    1    1    2    0    0 -0.55941650865E+02 -0.22902920248E+02  0.24229785298E+02  0.65123686574E+02  0.00000000000E+00 0.  1.
</event>
<event>
 7    1  0.2749315E-009  0.1083149E+03  0.7561462E-02  0.1263723E+00
         -2   -1    0    0    0  501 -0.00000000000E+00  0.00000000000E+00  0.84408519436E+01  0.84408519436E+01  0.00000000000E+00 0. -1.
          2   -1    0    0  501    0  0.00000000000E+00 -0.00000000000E+00 -0.20004166633E+04  0.20004166633E+04  0.00000000000E+00 0.  1.
         25    2    1    2    0    0  0.23067583966E+02 -0.47245298652E+01 -0.16361285339E+04  0.16410710395E+04  0.12507254968E+03 0.  0.
          5    1    3    3  502    0 -0.49162047621E+02 -0.13232573613E+02 -0.49789475186E+03  0.50050840579E+03  0.41800000000E+01 0.  1.
         -5    1    3    3    0  502  0.72229631587E+02  0.85080437481E+01 -0.11382337820E+04  0.11405626337E+04  0.41800000000E+01 0.  1.
        -11    1    1    2    0    0 -0.53599999580E+02  0.21627327672E+02 -0.23474926512E+03  0.24176004371E+03  0.00000000000E+00 0. -1.
         11    1    1    2    0    0  0.30532415614E+02 -0.16902797807E+02 -0.12109801233E+03  0.12602643202E+03  0.00000000000E+00 0.  1.
</event>
<event>
 7    1  0.2749315E-009  0.1082894E+03  0.7561462E-02  0.1263771E+00
         -2   -1    0    0    0  501 -0.00000000000E+00  0.00000000000E+00  0.29780649221E+02  0.29780649221E+02  0.00000000000E+00 0.  1.
          2   -1    0    0  501    0  0.00000000000E+00 -0.00000000000E+00 -0.53411015389E+03  0.53411015389E+03  0.00000000000E+00 0. -1.
         25    2    1    2    0    0  0.36805282412E+02 -0.32367777936E+02 -0.32753452734E+03  0.35401867800E+03  0.12509218963E+03 0.  0.
          5    1    3    3  502    0 -0.26775439161E+02 -0.29550266382E+02 -0.25194841880E+03  0.25511883608E+03  0.41800000000E+01 0.  1.
         -5    1    3    3    0  502  0.63580721573E+02 -0.28175115540E+01 -0.75586108545E+02  0.98899841921E+02  0.41800000000E+01 0.  1.
        -11    1    1    2    0    0  0.14237405560E+02  0.55040300051E+02 -0.97869274819E+02  0.11318362647E+03  0.00000000000E+00 0.  1.
         11    1    1    2    0    0 -0.51042687971E+02 -0.22672522116E+02 -0.78925702508E+02  0.96688498648E+02  0.00000000000E+00 0. -1.
</event>
<event>
 7    1  0.2749315E-009  0.1347041E+03  0.7561462E-02  0.1220638E+00
          2   -1    0    0  501    0  0.00000000000E+00  0.00000000000E+00  0.20914786714E+04  0.20914786714E+04  0.00000000000E+00 0. -1.
         -2   -1    0    0    0  501 -0.00000000000E+00 -0.00000000000E+00 -0.11802658050E+02  0.11802658050E+02  0.00000000000E+00 0.  1.
         25    2    1    2    0    0 -0.35397184272E+02 -0.79852293328E+02  0.16018821176E+04  0.16091307244E+04  0.12508405295E+03 0.  0.
          5    1    3    3  502    0 -0.98090342647E+01 -0.11120220874E+03  0.12068610453E+04  0.12120202983E+04  0.41800000000E+01 0.  1.
         -5    1    3    3    0  502 -0.25588150007E+02  0.31349915414E+02  0.39502107226E+03  0.39711042613E+03  0.41800000000E+01 0.  1.
        -11    1    1    2    0    0  0.32130393061E+02 -0.46353157099E+01  0.63498765119E+02  0.71315787043E+02  0.00000000000E+00 0.  1.
         11    1    1    2    0    0  0.32667912109E+01  0.84487609037E+02  0.41429513063E+03  0.42283481794E+03  0.00000000000E+00 0. -1.
</event>
<event>
 7    1  0.2749315E-009  0.1031519E+03  0.7561462E-02  0.1273804E+00
         -2   -1    0    0    0  501 -0.00000000000E+00  0.00000000000E+00  0.40206551278E+02  0.40206551278E+02  0.00000000000E+00 0.  1.
          2   -1    0    0  501    0  0.00000000000E+00 -0.00000000000E+00 -0.34439057484E+03  0.34439057484E+03  0.00000000000E+00 0. -1.
         25    2    1    2    0    0  0.10785213254E+02 -0.19586828289E+02 -0.10692472312E+03  0.16607278970E+03  0.12508920976E+03 0.  0.
          5    1    3    3  502    0 -0.53133400260E+02 -0.27490262536E+02 -0.68155601267E+02  0.90782879121E+02  0.41800000000E+01 0.  1.
         -5    1    3    3    0  502  0.63918613513E+02  0.79034342463E+01 -0.38769121853E+02  0.75289910583E+02  0.41800000000E+01 0.  1.
        -11    1    1    2    0    0 -0.27695998564E+02 -0.22981460931E+02 -0.14327772486E+03  0.14772854269E+03  0.00000000000E+00 0. -1.
         11    1    1    2    0    0  0.16910785310E+02  0.42568289220E+02 -0.53981575572E+02  0.70795793718E+02  0.00000000000E+00 0.  1.
</event>
<event>
 7    1  0.2749315E-009  0.2864462E+03  0.7561462E-02  0.1092219E+00
         -2   -1    0    0    0  501 -0.00000000000E+00  0.00000000000E+00  0.24999575916E+03  0.24999575916E+03  0.00000000000E+00 0.  1.
          2   -1    0    0  501    0  0.00000000000E+00 -0.00000000000E+00 -0.38991588998E+03  0.38991588998E+03  0.00000000000E+00 0. -1.
         25    2    1    2    0    0  0.79442939094E+02  0.25810294108E+03 -0.18857509875E+03  0.35232937347E+03  0.12508841182E+03 0.  0.
          5    1    3    3  502    0 -0.15645581775E+02 -0.27341993144E+01 -0.25472183379E+02  0.30307830689E+02  0.41800000000E+01 0. -1.
         -5    1    3    3    0  502  0.95088520869E+02  0.26083714039E+03 -0.16310291538E+03  0.32202154278E+03  0.41800000000E+01 0. -1.
        -11    1    1    2    0    0 -0.81179344265E+02 -0.14889911161E+03  0.54709447891E+02  0.17819695582E+03  0.00000000000E+00 0.  1.
         11    1    1    2    0    0  0.17364051709E+01 -0.10920382947E+03 -0.60544799558E+01  0.10938531986E+03  0.00000000000E+00 0. -1.
</event>
<event>
 7    1  0.2749315E-009  0.3589590E+03  0.7561462E-02  0.1058997E+00
          2   -1    0    0  501    0  0.00000000000E+00  0.00000000000E+00  0.25835912273E+04  0.25835912273E+04  0.00000000000E+00 0. -1.
         -2   -1    0    0    0  501 -0.00000000000E+00 -0.00000000000E+00 -0.57098803537E+02  0.57098803537E+02  0.00000000000E+00 0.  1.
         25    2    1    2    0    0 -0.29498443507E+03 -0.18219053739E+03  0.85372334539E+03  0.92989253099E+03  0.12508940752E+03 0.  0.
          5    1    3    3  502    0 -0.29894463305E+03 -0.19117872040E+03  0.84350787952E+03  0.91511759461E+03  0.41800000000E+01 0.  1.
         -5    1    3    3    0  502  0.39601979818E+01  0.89881830089E+01  0.10215465876E+02  0.14774936376E+02  0.41800000000E+01 0.  1.
        -11    1    1    2    0    0  0.11936694317E+03  0.38383885833E+02  0.75720728012E+03  0.76751850459E+03  0.00000000000E+00 0.  1.
         11    1    1    2    0    0  0.17561749189E+03  0.14380665156E+03  0.91556179824E+03  0.94327899525E+03  0.00000000000E+00 0. -1.
</event>
<event>
 7    1  0.2749315E-009  0.1180264E+03  0.7561462E-02  0.1246389E+00
         -2   -1    0    0    0  501 -0.00000000000E+00  0.00000000000E+00  0.13621933887E+02  0.13621933887E+02  0.00000000000E+00 0.  1.
          2   -1    0    0  501    0  0.00000000000E+00 -0.00000000000E+00 -0.12781088331E+04  0.12781088331E+04  0.00000000000E+00 0. -1.
         25    2    1    2    0    0  0.67470258218E+02 -0.19233895130E+01 -0.84919952500E+03  0.86101382784E+03  0.12509613626E+03 0.  0.
          5    1    3    3  502    0  0.84642129719E+02 -0.29250406387E+02 -0.77264844356E+03  0.77783222235E+03  0.41800000000E+01 0. -1.
         -5    1    3    3    0  502 -0.17171871501E+02  0.27327016874E+02 -0.76551081439E+02  0.83181605488E+02  0.41800000000E+01 0. -1.
        -11    1    1    2    0    0  0.23185194778E+02  0.54814586662E+00 -0.99863201510E+02  0.10252079173E+03  0.00000000000E+00 0.  1.
         11    1    1    2    0    0 -0.90655452995E+02  0.13752436464E+01 -0.31542417270E+03  0.32819614741E+03  0.00000000000E+00 0. -1.
</event>
<event>
 7    1  0.2749315E-009  0.2247840E+03  0.7561462E-02  0.1130366E+00
          1   -1    0    0  501    0  0.00000000000E+00  0.00000000000E+00  0.18534551509E+03  0.18534551509E+03  0.00000000000E+00 0. -1.
         -1   -1    0    0    0  501 -0.00000000000E+00 -0.00000000000E+00 -0.35971156212E+03  0.35971156212E+03  0.00000000000E+00 0.  1.
         25    2    1    2    0    0 -0.29112038377E+02 -0.21421513593E+03 -0.18432958493E+03  0.31041854798E+03  0.12508654528E+03 0.  0.
          5    1    3    3  502    0  0.11487565221E+01 -0.12208940394E+03 -0.17429068633E+03  0.21284233117E+03  0.41800000000E+01 0.  1.
         -5    1    3    3    0  502 -0.30260794899E+02 -0.92125731991E+02 -0.10038898601E+02  0.97576216815E+02  0.41800000000E+01 0.  1.
        -11    1    1    2    0    0 -0.26392612007E+02  0.98965165647E+02 -0.17223845475E+02  0.10386209527E+03  0.00000000000E+00 0.  1.
         11    1    1    2    0    0  0.55504650383E+02  0.11524997029E+03  0.27187383372E+02  0.13077643396E+03  0.00000000000E+00 0. -1.
</event>
<event>
 7    1  0.2749315E-009  0.1133217E+03  0.7561462E-02  0.1254539E+00
          2   -1    0    0  501    0  0.00000000000E+00  0.00000000000E+00  0.38280830956E+03  0.38280830956E+03  0.00000000000E+00 0. -1.
         -2   -1    0    0    0  501 -0.00000000000E+00 -0.00000000000E+00 -0.55614962693E+02  0.55614962693E+02  0.00000000000E+00 0.  1.
         25    2    1    2    0    0  0.17067158112E+02  0.94861352500E+02  0.15499862845E+03  0.22127361371E+03  0.12508986057E+03 0.  0.
          5    1    3    3  502    0  0.50793313041E+02  0.60585480156E+02  0.25665393163E+02  0.83227074090E+02  0.41800000000E+01 0.  1.
         -5    1    3    3    0  502 -0.33726154929E+02  0.34275872344E+02  0.12933323528E+03  0.13804653962E+03  0.41800000000E+01 0.  1.
        -11    1    1    2    0    0  0.59787888492E+01 -0.20534477214E+02 -0.64112561853E+01  0.22327446706E+02  0.00000000000E+00 0.  1.
         11    1    1    2    0    0 -0.23045946961E+02 -0.74326875286E+02  0.17860597460E+03  0.19482221184E+03  0.00000000000E+00 0. -1.
</event>
<event>
 7    1  0.2749315E-009  0.2287402E+03  0.7561462E-02  0.1127530E+00
          2   -1    0    0  501    0  0.00000000000E+00  0.00000000000E+00  0.25671873121E+04  0.25671873121E+04  0.00000000000E+00 0. -1.
         -2   -1    0    0    0  501 -0.00000000000E+00 -0.00000000000E+00 -0.27794237209E+02  0.27794237209E+02  0.00000000000E+00 0.  1.
         25    2    1    2    0    0  0.15639199174E+03 -0.13641434287E+03  0.19283938005E+04  0.19435577534E+04  0.12508702170E+03 0.  0.
          5    1    3    3  502    0  0.16727084244E+03 -0.10067195043E+03  0.13632145252E+04  0.13771295111E+04  0.41800000000E+01 0.  1.
         -5    1    3    3    0  502 -0.10878850699E+02 -0.35742392439E+02  0.56517927529E+03  0.56642824225E+03  0.41800000000E+01 0.  1.
        -11    1    1    2    0    0 -0.98161138560E+02  0.28875921039E+02  0.24399310791E+03  0.26457903289E+03  0.00000000000E+00 0. -1.
         11    1    1    2    0    0 -0.58230853179E+02  0.10753842183E+03  0.36700616648E+03  0.38684476301E+03  0.00000000000E+00 0.  1.
</event>
<event>
 7    1  0.2749315E-009  0.1475407E+03  0.7561462E-02  0.1203528E+00
          2   -1    0    0  501    0  0.00000000000E+00  0.00000000000E+00  0.11892162509E+04  0.11892162509E+04  0.00000000000E+00 0. -1.
         -2   -1    0    0    0  501 -0.00000000000E+00 -0.00000000000E+00 -0.33858453420E+02  0.33858453420E+02  0.00000000000E+00 0.  1.
         25    2    1    2    0    0 -0.86967122992E+01 -0.12589472047E+03  0.93076940966E+03  0.94757848491E+03  0.12509267628E+03 0.  0.
          5    1    3    3  502    0 -0.43515545157E+02 -0.90154121332E+01  0.12737055492E+03  0.13496522140E+03  0.41800000000E+01 0.  1.
         -5    1    3    3    0  502  0.34818832858E+02 -0.11687930833E+03  0.80339885474E+03  0.81261326352E+03  0.41800000000E+01 0.  1.
        -11    1    1    2    0    0  0.16895120064E+02  0.76037277044E+02  0.20833426751E+03  0.22241915295E+03  0.00000000000E+00 0. -1.
         11    1    1    2    0    0 -0.81984077647E+01  0.49857443423E+02  0.16254120285E+02  0.53077066429E+02  0.00000000000E+00 0.  1.
</event>
<event>
 7    1  0.2749315E-009  0.1142009E+03  0.7561462E-02  0.1252982E+00
          1   -1    0    0  501    0  0.00000000000E+00  0.00000000000E+00  0.28567469228E+02  0.28567469228E+02  0.00000000000E+00 0. -1.
         -1   -1    0    0    0  501 -0.00000000000E+00 -0.00000000000E+00 -0.47262743107E+03  0.47262743107E+03  0.00000000000E+00 0.  1.
         25    2    1    2    0    0 -0.29250480055E+00  0.39265133190E+02 -0.21114674995E+03  0.24854019817E+03  0.12508974318E+03 0.  0.
          5    1    3    3  502    0  0.45336737323E+02 -0.24716531544E+02 -0.95699355852E+02  0.10882171563E+03  0.41800000000E+01 0.  1.
         -5    1    3    3    0  502 -0.45629242123E+02  0.63981664734E+02 -0.11544739409E+03  0.13971848254E+03  0.41800000000E+01 0.  1.
        -11    1    1    2    0    0  0.44772777527E+02 -0.24471361539E+02 -0.12293824993E+03  0.13310620737E+03  0.00000000000E+00 0. -1.
         11    1    1    2    0    0 -0.44480272727E+02 -0.14793771650E+02 -0.10997496197E+03  0.11954849477E+03  0.00000000000E+00 0.  1.
</event>
<event>
 7    1  0.2749315E-009  0.1038134E+03  0.7561462E-02  0.1272475E+00
         -2   -1    0    0    0  501 -0.00000000000E+00  0.00000000000E+00  0.31963690763E+02  0.31963690763E+02  0.00000000000E+00 0. -1.
          2   -1    0    0  501    0  0.00000000000E+00 -0.00000000000E+00 -0.56289633235E+03  0.56289633235E+03  0.00000000000E+00 0.  1.
         25    2    1    2    0    0  0.94542322498E+01  0.62074117763E+02 -0.40789184644E+03  0.43123733775E+03  0.12508918608E+03 0.  0.
          5    1    3    3  502    0 -0.22996188713E+01  0.83535810212E+02 -0.39400843558E+03  0.40279478589E+03  0.41800000000E+01 0. -1.
         -5    1    3    3    0  502  0.11753851121E+02 -0.21461692450E+02 -0.13883410858E+02  0.28442551855E+02  0.41800000000E+01 0. -1.
        -11    1    1    2    0    0  0.33131225818E+02 -0.37193147747E+02 -0.94014154097E+02  0.10639393561E+03  0.00000000000E+00 0.  1.
         11    1    1    2    0    0 -0.42585458068E+02 -0.24880970016E+02 -0.29026641051E+02  0.57228749755E+02  0.00000000000E+00 0. -1.
</event>
<event>
 7    1  0.2749315E-009  0.9672378E+02  0.7561462E-02  0.1287340E+00
          1   -1    0    0  501    0  0.00000000000E+00  0.00000000000E+00  0.60160246915E+03  0.60160246915E+03  0.00000000000E+00 0. -1.
         -1   -1    0    0    0  501 -0.00000000000E+00 -0.00000000000E+00 -0.29092854090E+02  0.29092854090E+02  0.00000000000E+00 0.  1.
         25    2    1    2    0    0 -0.28825994064E+02 -0.59538711634E+02  0.33462276344E+03  0.36331166067E+03  0.12508865997E+03 0.  0.
          5    1    3    3  502    0 -0.16756441621E+02 -0.71383934609E+01 -0.50709390227E+01  0.19362898016E+02  0.41800000000E+01 0.  1.
         -5    1    3    3    0  502 -0.12069552443E+02 -0.52400318173E+02  0.33969370246E+03  0.34394876266E+03  0.41800000000E+01 0.  1.
        -11    1    1    2    0    0 -0.16063371347E+02  0.72375880465E+02  0.12677628707E+03  0.14686227199E+03  0.00000000000E+00 0. -1.
         11    1    1    2    0    0  0.44889365411E+02 -0.12837168832E+02  0.11111056455E+03  0.12052139057E+03  0.00000000000E+00 0.  1.
</event>
<event>
 7    1  0.2749315E-009  0.7591825E+02  0.7561462E-02  0.1341051E+00
          3   -1    0    0  501    0  0.00000000000E+00  0.00000000000E+00  0.79944911670E+02  0.79944911670E+02  0.00000000000E+00 0. -1.
         -3   -1    0    0    0  501 -0.00000000000E+00 -0.00000000000E+00 -0.14450371174E+03  0.14450371174E+03  0.00000000000E+00 0.  1.
         25    2    1    2    0    0 -0.51386133933E+01  0.18328955294E+02 -0.37802453862E+02  0.13205611996E+03  0.12508971721E+03 0.  0.
          5    1    3    3  502    0  0.34861359505E+02  0.54474562509E+02 -0.42932195570E+02  0.77739553405E+02  0.41800000000E+01 0.  1.
         -5    1    3    3    0  502 -0.39999972898E+02 -0.36145607214E+02  0.51297417083E+01  0.54316566559E+02  0.41800000000E+01 0.  1.
        -11    1    1    2    0    0  0.15745120677E+02 -0.64142296227E+01 -0.56303460434E+02  0.58814375995E+02  0.00000000000E+00 0.  1.
         11    1    1    2    0    0 -0.10606507284E+02 -0.11914725672E+02  0.29547114222E+02  0.33578127456E+02  0.00000000000E+00 0. -1.
</event>
<event>
 7    1  0.2749315E-009  0.1967411E+03  0.7561462E-02  0.1152518E+00
         -2   -1    0    0    0  501 -0.00000000000E+00  0.00000000000E+00  0.99206830186E+02  0.99206830186E+02  0.00000000000E+00 0. -1.
          2   -1    0    0  501    0  0.00000000000E+00 -0.00000000000E+00 -0.48062656307E+03  0.48062656307E+03  0.00000000000E+00 0.  1.
         25    2    1    2    0    0  0.18005001103E+03  0.53421808383E+00 -0.12113970818E+03  0.25048165472E+03  0.12509172072E+03 0.  0.
          5    1    3    3  502    0  0.10248879217E+03 -0.44360144765E+02 -0.17023005677E+02  0.11304437220E+03  0.41800000000E+01 0.  1.
         -5    1    3    3    0  502  0.77561218862E+02  0.44894362849E+02 -0.10411670250E+03  0.13743728252E+03  0.41800000000E+01 0.  1.
        -11    1    1    2    0    0 -0.39329163505E+02 -0.28461130127E+02 -0.11663063233E+03  0.12633100739E+03  0.00000000000E+00 0.  1.
         11    1    1    2    0    0 -0.14072084753E+03  0.27926912043E+02 -0.14364939238E+03  0.20302073115E+03  0.00000000000E+00 0. -1.
</event>
<event>
 7    1  0.2749315E-009  0.1353326E+03  0.7561462E-02  0.1219751E+00
         -1   -1    0    0    0  501 -0.00000000000E+00  0.00000000000E+00  0.10467856523E+03  0.10467856523E+03  0.00000000000E+00 0.  1.
          1   -1    0    0  501    0  0.00000000000E+00 -0.00000000000E+00 -0.24761602052E+03  0.24761602052E+03  0.00000000000E+00 0. -1.
         25    2    1    2    0    0  0.56277477281E+02 -0.92831035862E+02 -0.12959471870E+03  0.21030165782E+03  0.12508893036E+03 0.  0.
          5    1    3    3  502    0 -0.34089025482E+02 -0.20861029273E+02 -0.68838289918E+02  0.79708385754E+02  0.41800000000E+01 0. -1.
         -5    1    3    3    0  502  0.90366502763E+02 -0.71970006589E+02 -0.60756428785E+02  0.13059327207E+03  0.41800000000E+01 0. -1.
        -11    1    1    2    0    0  0.10212726274E+01  0.29343220986E+02 -0.42484577981E+02  0.51643072932E+02  0.00000000000E+00 0. -1.
         11    1    1    2    0    0 -0.57298749909E+02  0.63487814877E+02  0.29141841389E+02  0.90349855000E+02  0.00000000000E+00 0.  1.
</event>
<event>
 7    1  0.2749315E-009  0.9766035E+02  0.7561462E-02  0.1285294E+00
         -1   -1    0    0    0  501 -0.00000000000E+00  0.00000000000E+00  0.91573344465E+03  0.91573344465E+03  0.00000000000E+00 0.  1.
          1   -1    0    0  501    0  0.00000000000E+00 -0.00000000000E+00 -0.13488871782E+02  0.13488871782E+02  0.00000000000E+00 0. -1.
         25    2    1    2    0    0  0.39354557223E+01  0.24125551122E+02  0.52168903819E+03  0.53703259362E+03  0.12508806503E+03 0.  0.
          5    1    3    3  502    0 -0.19051739504E+02  0.56959794930E+02  0.12987440884E+03  0.14315104432E+03  0.41800000000E+01 0.  1.
         -5    1    3    3    0  502  0.22987195226E+02 -0.32834243808E+02  0.39181462934E+03  0.39388154930E+03  0.41800000000E+01 0.  1.
        -11    1    1    2    0    0 -0.47008663175E+02 -0.21415681362E+02  0.20618619194E+03  0.21255867794E+03  0.00000000000E+00 0.  1.
         11    1    1    2    0    0  0.43073207453E+02 -0.27098697600E+01  0.17436934275E+03  0.17963104488E+03  0.00000000000E+00 0. -1.
</event>
<event>
 7    1  0.2749315E-009  0.1012769E+03  0.7561462E-02  0.1277634E+00
         -1   -1    0    0    0  501 -0.00000000000E+00  0.00000000000E+00  0.67061229048E+02  0.67061229048E+02  0.00000000000E+00 0.  1.
          1   -1    0    0  501    0  0.00000000000E+00 -0.00000000000E+00 -0.31335451473E+03  0.31335451473E+03  0.00000000000E+00 0. -1.
         25    2    1    2    0    0  0.18637301109E+01  0.44838547581E+02 -0.22416430327E+02  0.13477330552E+03  0.12508948274E+03 0.  0.
          5    1    3    3  502    0 -0.22322606049E+02 -0.21968329887E+02 -0.49413396214E+02  0.58652045013E+02  0.41800000000E+01 0.  1.
         -5    1    3    3    0  502  0.24186336160E+02  0.66806877468E+02  0.26996965887E+02  0.76121260506E+02  0.41800000000E+01 0.  1.
        -11    1    1    2    0    0 -0.41614334356E+02 -0.43223375111E+02 -0.11474395355E+03  0.12948431509E+03  0.00000000000E+00 0. -1.
         11    1    1    2    0    0  0.39750604245E+02 -0.16151724702E+01 -0.10913290181E+03  0.11615812317E+03  0.00000000000E+00 0.  1.
</event>
<event>
 7    1  0.2749315E-009  0.1178449E+03  0.7561462E-02  0.1246695E+00
          2   -1    0    0  501    0  0.00000000000E+00  0.00000000000E+00  0.53033180882E+03  0.53033180882E+03  0.00000000000E+00 0. -1.
         -2   -1    0    0    0  501 -0.00000000000E+00 -0.00000000000E+00 -0.44263204993E+02  0.44263204993E+02  0.00000000000E+00 0.  1.
         25    2    1    2    0    0  0.65990470475E+02  0.66812465790E+02  0.35698800571E+03  0.38975230888E+03  0.12509107993E+03 0.  0.
          5    1    3    3  502    0  0.55676930887E+02  0.87450038751E+01  0.30750015395E+03  0.31265030434E+03  0.41800000000E+01 0.  1.
         -5    1    3    3    0  502  0.10313539588E+02  0.58067461915E+02  0.49487851765E+02  0.77102004542E+02  0.41800000000E+01 0.  1.
        -11    1    1    2    0    0 -0.75035798703E+02 -0.76250207682E+02  0.78739882831E+02  0.13283235452E+03  0.00000000000E+00 0.  1.
         11    1    1    2    0    0  0.90453282283E+01  0.94377418918E+01  0.50340715279E+02  0.52010350408E+02  0.00000000000E+00 0. -1.
</event>
<event>
 7    1  0.2749315E-009  0.1122843E+03  0.7561462E-02  0.1256397E+00
          1   -1    0    0  501    0  0.00000000000E+00  0.00000000000E+00  0.25669501541E+03  0.25669501541E+03  0.00000000000E+00 0. -1.
         -1   -1    0    0    0  501 -0.00000000000E+00 -0.00000000000E+00 -0.96363143694E+02  0.96363143694E+02  0.00000000000E+00 0.  1.
         25    2    1    2    0    0  0.86806891353E+02  0.52837295999E+02  0.14604134263E+03  0.21749052324E+03  0.12508732034E+03 0.  0.
          5    1    3    3  502    0  0.27675595360E+02  0.76958112357E+01 -0.20166359480E+02  0.35345700499E+02  0.41800000000E+01 0.  1.
         -5    1    3    3    0  502  0.59131295994E+02  0.45141484763E+02  0.16620770211E+03  0.18214482275E+03  0.41800000000E+01 0.  1.
        -11    1    1    2    0    0 -0.26076267709E+02  0.14917564848E+02 -0.22385986802E+02  0.37465155594E+02  0.00000000000E+00 0.  1.
         11    1    1    2    0    0 -0.60730623644E+02 -0.67754860846E+02  0.36676515888E+02  0.98102480265E+02  0.00000000000E+00 0. -1.
</event>
<event>
 7    1  0.2749315E-009  0.1080653E+03  0.7561462E-02  0.1264195E+00
         -1   -1    0    0    0  501 -0.00000000000E+00  0.00000000000E+00  0.14860929793E+03  0.14860929793E+03  0.00000000000E+00 0.  1.
          1   -1    0    0  501    0  0.00000000000E+00 -0.00000000000E+00 -0.15193844096E+03  0.15193844096E+03  0.00000000000E+00 0. -1.
         25    2    1    2    0    0  0.23865947711E+02  0.53562680030E+02  0.85650505986E+02  0.16254909708E+03  0.12509058971E+03 0.  0.
          5    1    3    3  502    0 -0.32268293419E+02 -0.14240955166E+02 -0.52968955851E+01  0.35910681796E+02  0.41800000000E+01 0.  1.
         -5    1    3    3    0  502  0.56134241130E+02  0.67803635195E+02  0.90947401572E+02  0.12663841528E+03  0.41800000000E+01 0.  1.
        -11    1    1    2    0    0 -0.29555426162E+02 -0.69522968437E+02 -0.38577204742E+02  0.84824330717E+02  0.00000000000E+00 0.  1.
         11    1    1    2    0    0  0.56894784507E+01  0.15960288407E+02 -0.50402444275E+02  0.53174311091E+02  0.00000000000E+00 0. -1.
</event>
<event>
 7    1  0.2749315E-009  0.9840887E+02  0.7561462E-02  0.1283678E+00
         -1   -1    0    0    0  501 -0.00000000000E+00  0.00000000000E+00  0.71410368747E+02  0.71410368747E+02  0.00000000000E+00 0.  1.
          1   -1    0    0  501    0  0.00000000000E+00 -0.00000000000E+00 -0.25833267835E+03  0.25833267835E+03  0.00000000000E+00 0. -1.
         25    2    1    2    0    0 -0.43267967605E+02  0.49691024482E+02 -0.15757291834E+03  0.21170211322E+03  0.12508894920E+03 0.  0.
          5    1    3    3  502    0  0.28512411401E+02  0.18360729718E+02  0.16509427106E+01  0.34209238687E+02  0.41800000000E+01 0.  1.
         -5    1    3    3    0  502 -0.71780379006E+02  0.31330294764E+02 -0.15922386105E+03  0.17749287453E+03  0.41800000000E+01 0.  1.
        -11    1    1    2    0    0 -0.98850116849E+01 -0.22362925781E+02  0.26630140480E+02  0.36152154673E+02  0.00000000000E+00 0.  1.
         11    1    1    2    0    0  0.53152979289E+02 -0.27328098701E+02 -0.55979531736E+02  0.81888779202E+02  0.00000000000E+00 0. -1.
</event>
<event>
 7    1  0.2749315E-009  0.1268084E+03  0.7561462E-02  0.1232270E+00
         -1   -1    0    0    0  501 -0.00000000000E+00  0.00000000000E+00  0.63171167010E+02  0.63171167010E+02  0.00000000000E+00 0.  1.
          1   -1    0    0  501    0  0.00000000000E+00 -0.00000000000E+00 -0.41824398661E+03  0.41824398661E+03  0.00000000000E+00 0. -1.
         25    2    1    2    0    0  0.57852145925E+02 -0.52555926776E+02 -0.53366837190E+02  0.15685971041E+03  0.12509177916E+03 0.  0.
          5    1    3    3  502    0 -0.31162998418E+02 -0.57965208004E+00  0.13177051440E+02  0.34096562167E+02  0.41800000000E+01 0. -1.
         -5    1    3    3    0  502  0.89015144343E+02 -0.51976274696E+02 -0.66543888631E+02  0.12276314825E+03  0.41800000000E+01 0. -1.
        -11    1    1    2    0    0  0.19913288599E+02  0.33448531039E+02 -0.11468852551E+03  0.12111482641E+03  0.00000000000E+00 0.  1.
         11    1    1    2    0    0 -0.77765434524E+02  0.19107395737E+02 -0.18701745690E+03  0.20344061680E+03  0.00000000000E+00 0. -1.
</event>
<event>
 7    1  0.2749315E-009  0.1146010E+03  0.7561462E-02  0.1252279E+00
          1   -1    0    0  501    0  0.00000000000E+00  0.00000000000E+00  0.19052151904E+03  0.19052151904E+03  0.00000000000E+00 0. -1.
         -1   -1    0    0    0  501 -0.00000000000E+00 -0.00000000000E+00 -0.72943697795E+02  0.72943697795E+02  0.00000000000E+00 0.  1.
         25    2    1    2    0    0 -0.29257682913E+01 -0.41051125709E+02  0.88529661275E+02  0.15867605320E+03  0.12508730508E+03 0.  0.
          5    1    3    3  502    0 -0.61355236598E+02 -0.38776252673E+02  0.54805533198E+02  0.91044943289E+02  0.41800000000E+01 0. -1.
         -5    1    3    3    0  502  0.58429468306E+02 -0.22748730352E+01  0.33724128077E+02  0.67631109916E+02  0.41800000000E+01 0. -1.
        -11    1    1    2    0    0 -0.16405028308E+02  0.65035452165E+02  0.81528346515E+01  0.67566291188E+02  0.00000000000E+00 0.  1.
         11    1    1    2    0    0  0.19330796600E+02 -0.23984326456E+02  0.20895325321E+02  0.37222872444E+02  0.00000000000E+00 0. -1.
</event>
<event>
 7    1  0.2749315E-009  0.2543904E+03  0.7561462E-02  0.1110561E+00
          1   -1    0    0  501    0  0.00000000000E+00  0.00000000000E+00  0.22622256564E+03  0.22622256564E+03  0.00000000000E+00 0. -1.
         -1   -1    0    0    0  501 -0.00000000000E+00 -0.00000000000E+00 -0.37884180432E+03  0.37884180432E+03  0.00000000000E+00 0.  1.
         25    2    1    2    0    0  0.16417431174E+03 -0.18325687889E+03 -0.19728714498E+03  0.33927021430E+03  0.12508306214E+03 0.  0.
          5    1    3    3  502    0  0.29591426887E+02  0.44564264462E+01  0.68557125502E+01  0.30983632396E+02  0.41800000000E+01 0.  1.
         -5    1    3    3    0  502  0.13458288485E+03 -0.18771330534E+03 -0.20414285753E+03  0.30828658190E+03  0.41800000000E+01 0.  1.
        -11    1    1    2    0    0 -0.12795946054E+03  0.15840633173E+03  0.69711907589E+02  0.21523461509E+03  0.00000000000E+00 0. -1.
         11    1    1    2    0    0 -0.36214851202E+02  0.24850547163E+02 -0.25044001294E+02  0.50559540570E+02  0.00000000000E+00 0.  1.
</event>
<event>
 7    1  0.2749315E-009  0.1270030E+03  0.7561462E-02  0.1231972E+00
         -2   -1    0    0    0  501 -0.00000000000E+00  0.00000000000E+00  0.94666278529E+02  0.94666278529E+02  0.00000000000E+00 0.  1.
          2   -1    0    0  501    0  0.00000000000E+00 -0.00000000000E+00 -0.20995753460E+03  0.20995753460E+03  0.00000000000E+00 0. -1.
         25    2    1    2    0    0  0.90189754758E+02  0.66248976851E+01 -0.55564172430E+02  0.16404548800E+03  0.12508182819E+03 0.  0.
          5    1    3    3  502    0 -0.18537133989E+02 -0.33209731841E+02 -0.10074830212E+02  0.39566225866E+02  0.41800000000E+01 0. -1.
         -5    1    3    3    0  502  0.10872688875E+03  0.39834629526E+02 -0.45489342218E+02  0.12447926213E+03  0.41800000000E+01 0. -1.
        -11    1    1    2    0    0 -0.13500722731E+02  0.15013454863E+02 -0.57414703779E+02  0.60861494816E+02  0.00000000000E+00 0. -1.
         11    1    1    2    0    0 -0.76689032027E+02 -0.21638352548E+02 -0.23123798588E+01  0.79716830311E+02  0.00000000000E+00 0.  1.
</event>
<event>
 7    1  0.2749315E-009  0.9772817E+02  0.7561462E-02  0.1285147E+00
         -2   -1    0    0    0  501 -0.00000000000E+00  0.00000000000E+00  0.51839110964E+02  0.51839110964E+02  0.00000000000E+00 0. -1.
          2   -1    0    0  501    0  0.00000000000E+00 -0.00000000000E+00 -0.32632846833E+03  0.32632846833E+03  0.00000000000E+00 0.  1.
         25    2    1    2    0    0  0.99081938112E+01  0.34495158949E+02 -0.23792168813E+03  0.27118632453E+03  0.12508878699E+03 0.  0.
          5    1    3    3  502    0  0.43375214026E+02  0.61855891265E+02 -0.19888352909E+03  0.21279025123E+03  0.41800000000E+01 0. -1.
         -5    1    3    3    0  502 -0.33467020214E+02 -0.27360732316E+02 -0.39038159040E+02  0.58396073294E+02  0.41800000000E+01 0. -1.
        -11    1    1    2    0    0  0.25235354725E+02  0.24725654255E+01 -0.48382409878E+02  0.54624118240E+02  0.00000000000E+00 0.  1.
         11    1    1    2    0    0 -0.35143548537E+02 -0.36967724375E+02  0.11814740641E+02  0.52357136530E+02  0.00000000000E+00 0. -1.
</event>
<event>
 7    1  0.2749315E-009  0.3267718E+03  0.7561462E-02  0.1072574E+00
          1   -1    0    0  501    0  0.00000000000E+00  0.00000000000E+00  0.12981584174E+04  0.12981584174E+04  0.00000000000E+00 0. -1.
         -1   -1    0    0    0  501 -0.00000000000E+00 -0.00000000000E+00 -0.92717783464E+02  0.92717783464E+02  0.00000000000E+00 0.  1.
         25    2    1    2    0    0  0.19530737087E+03  0.24274363220E+03  0.39929186342E+03  0.52168008997E+03  0.12508670587E+03 0.  0.
          5    1    3    3  502    0  0.49700691177E+02  0.42155710895E+01  0.10211968831E+03  0.11372701035E+03  0.41800000000E+01 0.  1.
         -5    1    3    3    0  502  0.14560667969E+03  0.23852806111E+03  0.29717217511E+03  0.40795307962E+03  0.41800000000E+01 0.  1.
        -11    1    1    2    0    0 -0.11630354540E+02 -0.72932090616E+02  0.15646368642E+03  0.17301803419E+03  0.00000000000E+00 0.  1.
         11    1    1    2    0    0 -0.18367701633E+03 -0.16981154159E+03  0.64968508410E+03  0.69617807671E+03  0.00000000000E+00 0. -1.
</event>
<event>
 7    1  0.2749315E-009  0.9783839E+02  0.7561462E-02  0.1284908E+00
          1   -1    0    0  501    0  0.00000000000E+00  0.00000000000E+00  0.12843619724E+03  0.12843619724E+03  0.00000000000E+00 0. -1.
         -1   -1    0    0    0  501 -0.00000000000E+00 -0.00000000000E+00 -0.10859471614E+03  0.10859471614E+03  0.00000000000E+00 0.  1.
         25    2    1    2    0    0  0.20704430754E+02 -0.43766263159E+02  0.16161384643E+02  0.13509637349E+03  0.12508269478E+03 0.  0.
          5    1    3    3  502    0 -0.49812228323E+02 -0.38750748498E+02  0.96353160831E+01  0.63978045575E+02  0.41800000000E+01 0.  1.
         -5    1    3    3    0  502  0.70516659076E+02 -0.50155146604E+01  0.65260685603E+01  0.71118327915E+02  0.41800000000E+01 0.  1.
        -11    1    1    2    0    0 -0.21955986182E+02  0.46110274338E+01 -0.38380065928E+02  0.44456229753E+02  0.00000000000E+00 0.  1.
         11    1    1    2    0    0  0.12515554284E+01  0.39155235725E+02  0.42060162387E+02  0.57478310132E+02  0.00000000000E+00 0. -1.
</event>
<event>
 7    1  0.2749315E-009  0.1183997E+03  0.7561462E-02  0.1245761E+00
         -2   -1    0    0    0  501 -0.00000000000E+00  0.00000000000E+00  0.39722196490E+02  0.39722196490E+02  0.00000000000E+00 0.  1.
          2   -1    0    0  501    0  0.00000000000E+00 -0.00000000000E+00 -0.42552656685E+03  0.42552656685E+03  0.00000000000E+00 0. -1.
         25    2    1    2    0    0 -0.29487317229E+02 -0.59172061114E+02 -0.27103303935E+03  0.30574002663E+03  0.12508885152E+03 0.  0.
          5    1    3    3  502    0  0.29236546404E+02  0.21692704322E+02 -0.41522467802E+02  0.55379931372E+02  0.41800000000E+01 0. -1.
         -5    1    3    3    0  502 -0.58723863633E+02 -0.80864765435E+02 -0.22951057155E+03  0.25036009526E+03  0.41800000000E+01 0. -1.
        -11    1    1    2    0    0  0.16153812728E+02 -0.16617961034E+02 -0.62024288658E+02  0.66212647418E+02  0.00000000000E+00 0. -1.
         11    1    1    2    0    0  0.13333504501E+02  0.75790022148E+02 -0.52747042359E+02  0.93296089291E+02  0.00000000000E+00 0.  1.
</event>
<event>
 7    1  0.2749315E-009  0.1221876E+03  0.7561462E-02  0.1239531E+00
         -1   -1    0    0    0  501 -0.00000000000E+00  0.00000000000E+00  0.75991598339E+02  0.75991598339E+02  0.00000000000E+00 0.  1.
          1   -1    0    0  501    0  0.00000000000E+00 -0.00000000000E+00 -0.35336401923E+03  0.35336401923E+03  0.00000000000E+00 0. -1.
         25    2    1    2    0    0  0.11865356998E+03  0.27050774049E+02 -0.15030112955E+03  0.23032295301E+03  0.12509124307E+03 0.  0.
          5    1    3    3  502    0  0.46734960566E+02  0.87543325383E+01 -0.14849094793E+03  0.15597380836E+03  0.41800000000E+01 0. -1.
         -5    1    3    3    0  502  0.71918609410E+02  0.18296441511E+02 -0.18101816167E+01  0.74349144641E+02  0.41800000000E+01 0. -1.
        -11    1    1    2    0    0 -0.66861546891E+02 -0.21474258025E+02 -0.10049980902E+02  0.70940907285E+02  0.00000000000E+00 0.  1.
         11    1    1    2    0    0 -0.51792023085E+02 -0.55765160240E+01 -0.11702131044E+03  0.12809175728E+03  0.00000000000E+00 0. -1.
</event>
<event>
 7    1  0.2749315E-009  0.1272961E+03  0.7561462E-02  0.1231524E+00
         -1   -1    0    0    0  501 -0.00000000000E+00  0.00000000000E+00  0.20142236261E+03  0.20142236261E+03  0.00000000000E+00 0.  1.
          1   -1    0    0  501    0  0.00000000000E+00 -0.00000000000E+00 -0.12718370317E+03  0.12718370317E+03  0.00000000000E+00 0. -1.
         25    2    1    2    0    0  0.40173146888E+02  0.91696203409E+02  0.14285083776E+02  0.16085356994E+03  0.12509089453E+03 0.  0.
          5    1    3    3  502    0  0.77761342083E+01  0.80413171275E+02  0.62010763438E+02  0.10192915952E+03  0.41800000000E+01 0. -1.
         -5    1    3    3    0  502  0.32397012680E+02  0.11283032135E+02 -0.47725679662E+02  0.58924410425E+02  0.41800000000E+01 0. -1.
        -11    1    1    2    0    0  0.21130471476E+02 -0.71553722579E+02 -0.67893144342E+01  0.74916799386E+02  0.00000000000E+00 0. -1.
         11    1    1    2    0    0 -0.61303618364E+02 -0.20142480830E+02  0.66742890097E+02  0.92835696460E+02  0.00000000000E+00 0.  1.
</event>
<event>
 7    1  0.2749315E-009  0.7276635E+02  0.7561462E-02  0.1350931E+00
         -1   -1    0    0    0  501 -0.00000000000E+00  0.00000000000E+00  0.59605788657E+02  0.59605788657E+02  0.00000000000E+00 0.  1.
          1   -1    0    0  501    0  0.00000000000E+00 -0.00000000000E+00 -0.25278874490E+03  0.25278874490E+03  0.00000000000E+00 0. -1.
         25    2    1    2    0    0 -0.41719803840E+02  0.37616096490E+02 -0.13065275437E+03  0.18940214634E+03  0.12509003983E+03 0.  0.
          5    1    3    3  502    0 -0.27233072516E+02  0.24442467583E+02 -0.15417444294E+03  0.15851279354E+03  0.41800000000E+01 0.  1.
         -5    1    3    3    0  502 -0.14486731324E+02  0.13173628908E+02  0.23521688568E+02  0.30889352796E+02  0.41800000000E+01 0.  1.
        -11    1    1    2    0    0 -0.14618228682E+02  0.75673480524E+01  0.11102571174E+02  0.19855086326E+02  0.00000000000E+00 0.  1.
         11    1    1    2    0    0  0.56338032522E+02 -0.45183444543E+02 -0.73632773042E+02  0.10313730089E+03  0.00000000000E+00 0. -1.
</event>
<event>
 7    1  0.2749315E-009  0.8892086E+02  0.7561462E-02  0.1305486E+00
         -1   -1    0    0    0  501 -0.00000000000E+00  0.00000000000E+00  0.41798948348E+03  0.41798948348E+03  0.00000000000E+00 0.  1.
          1   -1    0    0  501    0  0.00000000000E+00 -0.00000000000E+00 -0.41045774609E+02  0.41045774609E+02  0.00000000000E+00 0. -1.
         25    2    1    2    0    0 -0.21250308952E+02 -0.70767777491E+02  0.20037373974E+03  0.24749868178E+03  0.12508520273E+03 0.  0.
          5    1    3    3  502    0 -0.88929717532E+01 -0.34440444073E+02 -0.70602618305E+01  0.36504093355E+02  0.41800000000E+01 0. -1.
         -5    1    3    3    0  502 -0.12357337199E+02 -0.36327333418E+02  0.20743400158E+03  0.21099458843E+03  0.41800000000E+01 0. -1.
        -11    1    1    2    0    0 -0.18899886792E+02  0.58452111574E+02  0.53375607349E+02  0.81380652050E+02  0.00000000000E+00 0. -1.
         11    1    1    2    0    0  0.40150195745E+02  0.12315665916E+02  0.12319436178E+03  0.13015592426E+03  0.00000000000E+00 0.  1.
</event>
<event>
 7    1  0.2749315E-009  0.4333683E+03  0.7561462E-02  0.1032801E+00
          3   -1    0    0  501    0  0.00000000000E+00  0.00000000000E+00  0.49380995638E+03  0.49380995638E+03  0.00000000000E+00 0. -1.
         -3   -1    0    0    0  501 -0.00000000000E+00 -0.00000000000E+00 -0.38215891734E+03  0.38215891734E+03  0.00000000000E+00 0.  1.
         25    2    1    2    0    0 -0.26261899495E+03 -0.32888023748E+03  0.59074951463E+02  0.44302245467E+03  0.12509235921E+03 0.  0.
          5    1    3    3  502    0 -0.10076029764E+03 -0.22534192124E+03  0.32969692997E+02  0.24907045611E+03  0.41800000000E+01 0. -1.
         -5    1    3    3    0  502 -0.16185869731E+03 -0.10353831624E+03  0.26105258466E+02  0.19395199856E+03  0.41800000000E+01 0. -1.
        -11    1    1    2    0    0  0.20924665605E+03  0.20568804376E+03  0.55695848379E+02  0.29865324700E+03  0.00000000000E+00 0.  1.
         11    1    1    2    0    0  0.53372338900E+02  0.12319219373E+03 -0.31197608046E+01  0.13429317206E+03  0.00000000000E+00 0. -1.
</event>
<event>
 7    1  0.2749315E-009  0.9254182E+02  0.7561462E-02  0.1296810E+00
         -2   -1    0    0    0  501 -0.00000000000E+00  0.00000000000E+00  0.69430607687E+02  0.69430607687E+02  0.00000000000E+00 0.  1.
          2   -1    0    0  501    0  0.00000000000E+00 -0.00000000000E+00 -0.20242185579E+03  0.20242185579E+03  0.00000000000E+00 0. -1.
         25    2    1    2    0    0  0.20274849035E+02 -0.33614666514E+02 -0.11581680014E+03  0.17493326036E+03  0.12508836508E+03 0.  0.
          5    1    3    3  502    0  0.63530732349E+02 -0.46926465354E+02 -0.98430893161E+02  0.12627097937E+03  0.41800000000E+01 0. -1.
         -5    1    3    3    0  502 -0.43255883314E+02  0.13311798840E+02 -0.17385906982E+02  0.48662280991E+02  0.41800000000E+01 0. -1.
        -11    1    1    2    0    0 -0.39504111012E+01  0.42001733494E+02  0.26311042232E+02  0.49719435915E+02  0.00000000000E+00 0.  1.
         11    1    1    2    0    0 -0.16324437933E+02 -0.83870669805E+01 -0.43485490192E+02  0.47199767198E+02  0.00000000000E+00 0. -1.
</event>
<event>
 7    1  0.2749315E-009  0.1043290E+03  0.7561462E-02  0.1271447E+00
         -1   -1    0    0    0  501 -0.00000000000E+00  0.00000000000E+00  0.12230263805E+03  0.12230263805E+03  0.00000000000E+00 0.  1.
          1   -1    0    0  501    0  0.00000000000E+00 -0.00000000000E+00 -0.10710450021E+03  0.10710450021E+03  0.00000000000E+00 0. -1.
         25    2    1    2    0    0 -0.80694111516E-01  0.17237023193E+02 -0.26076548644E+02  0.12893344101E+03  0.12508686718E+03 0.  0.
          5    1    3    3  502    0 -0.56100130140E+02 -0.70176243297E+01 -0.35696785342E+02  0.66994063443E+02  0.41800000000E+01 0. -1.
         -5    1    3    3    0  502  0.56019436028E+02  0.24254647522E+02  0.96202366976E+01  0.61939377567E+02  0.41800000000E+01 0. -1.
        -11    1    1    2    0    0 -0.18710273794E+02 -0.49791135745E+02  0.30752236714E+02  0.61440472061E+02  0.00000000000E+00 0. -1.
         11    1    1    2    0    0  0.18790967906E+02  0.32554112552E+02  0.10522449770E+02  0.39033225181E+02  0.00000000000E+00 0.  1.
</event>
<event>
 7    1  0.2749315E-009  0.9722365E+02  0.7561462E-02  0.1286245E+00
         -1   -1    0    0    0  501 -0.00000000000E+00  0.00000000000E+00  0.71181471857E+02  0.71181471857E+02  0.00000000000E+00 0. -1.
          1   -1    0    0  501    0  0.00000000000E+00 -0.00000000000E+00 -0.26115912772E+03  0.26115912772E+03  0.00000000000E+00 0.  1.
         25    2    1    2    0    0 -0.13047797758E+02  0.77014865764E+02 -0.13735030553E+03  0.20152887071E+03  0.12508894725E+03 0.  0.
          5    1    3    3  502    0 -0.43452078818E+02  0.14978029186E+02 -0.12227275845E+03  0.13069248016E+03  0.41800000000E+01 0.  1.
         -5    1    3    3    0  502  0.30404281060E+02  0.62036836578E+02 -0.15077547085E+02  0.70836390545E+02  0.41800000000E+01 0.  1.
        -11    1    1    2    0    0  0.76987154889E+01 -0.15209928643E+02 -0.65305193835E+02  0.67493558888E+02  0.00000000000E+00 0.  1.
         11    1    1    2    0    0  0.53490822692E+01 -0.61804937121E+02  0.12677843508E+02  0.63318169981E+02  0.00000000000E+00 0. -1.
</event>
<event>
 7    1  0.2749315E-009  0.3002331E+03  0.7561462E-02  0.1085124E+00
          1   -1    0    0  501    0  0.00000000000E+00  0.00000000000E+00  0.24358637063E+04  0.24358637063E+04  0.00000000000E+00 0. -1.
         -1   -1    0    0    0  501 -0.00000000000E+00 -0.00000000000E+00 -0.40306115949E+02  0.40306115949E+02  0.00000000000E+00 0.  1.
         25    2    1    2    0    0 -0.27580422765E+01  0.29326848591E+03  0.12573890778E+04  0.12971848334E+04  0.12508871844E+03 0.  0.
          5    1    3    3  502    0 -0.27702884946E+01  0.69832359633E+02  0.12798064226E+03  0.14587923136E+03  0.41800000000E+01 0. -1.
         -5    1    3    3    0  502  0.12246218113E-01  0.22343612628E+03  0.11294084355E+04  0.11513056021E+04  0.41800000000E+01 0. -1.
        -11    1    1    2    0    0 -0.41023787513E+02 -0.19694320174E+03  0.77893110032E+03  0.80448942498E+03  0.00000000000E+00 0. -1.
         11    1    1    2    0    0  0.43781829789E+02 -0.96325284171E+02  0.35923741223E+03  0.37449556384E+03  0.00000000000E+00 0.  1.
</event>
<event>
 7    1  0.2749315E-009  0.9396894E+02  0.7561462E-02  0.1293515E+00
          1   -1    0    0  501    0  0.00000000000E+00  0.00000000000E+00  0.83845702301E+03  0.83845702301E+03  0.00000000000E+00 0. -1.
         -1   -1    0    0    0  501 -0.00000000000E+00 -0.00000000000E+00 -0.17905530102E+02  0.17905530102E+02  0.00000000000E+00 0.  1.
         25    2    1    2    0    0 -0.38428689401E+02 -0.39257917946E+02  0.51105231467E+03  0.52899861198E+03  0.12508842817E+03 0.  0.
          5    1    3    3  502    0  0.29915671920E+02 -0.13806414501E+02  0.35659456115E+03  0.35813784769E+03  0.41800000000E+01 0.  1.
         -5    1    3    3    0  502 -0.68344361320E+02 -0.25451503445E+02  0.15445775352E+03  0.17086076429E+03  0.41800000000E+01 0.  1.
        -11    1    1    2    0    0  0.35316518884E+02 -0.64178169178E+01  0.38945378886E+02  0.52964020020E+02  0.00000000000E+00 0.  1.
         11    1    1    2    0    0  0.31121705163E+01  0.45675734864E+02  0.27055379935E+03  0.27439992111E+03  0.00000000000E+00 0. -1.
</event>
<event>
 7    1  0.2749315E-009  0.1063332E+03  0.7561462E-02  0.1267515E+00
          4   -1    0    0  501    0  0.00000000000E+00  0.00000000000E+00  0.84470241743E+03  0.84470241743E+03  0.00000000000E+00 0. -1.
         -4   -1    0    0    0  501 -0.00000000000E+00 -0.00000000000E+00 -0.24030529790E+02  0.24030529790E+02  0.00000000000E+00 0.  1.
         25    2    1    2    0    0  0.47853959404E+02 -0.32280552503E+01  0.71920634146E+03  0.73157828776E+03  0.12509439537E+03 0.  0.
          5    1    3    3  502    0 -0.35571855162E+02  0.16127647825E+02  0.36651582379E+03  0.36861467604E+03  0.41800000000E+01 0.  1.
         -5    1    3    3    0  502  0.83425814566E+02 -0.19355703075E+02  0.35269051767E+03  0.36296361171E+03  0.41800000000E+01 0.  1.
        -11    1    1    2    0    0 -0.11875261395E+02 -0.33913302044E+02  0.21338697782E+02  0.41790835260E+02  0.00000000000E+00 0.  1.
         11    1    1    2    0    0 -0.35978698009E+02  0.37141357294E+02  0.80126848399E+02  0.95363824202E+02  0.00000000000E+00 0. -1.
</event>
<event>
 7    1  0.2749315E-009  0.1099077E+03  0.7561462E-02  0.1260741E+00
         -1   -1    0    0    0  501 -0.00000000000E+00  0.00000000000E+00  0.46097674183E+02  0.46097674183E+02  0.00000000000E+00 0.  1.
          1   -1    0    0  501    0  0.00000000000E+00 -0.00000000000E+00 -0.37791373171E+03  0.37791373171E+03  0.00000000000E+00 0. -1.
         25    2    1    2    0    0  0.69102937589E+01 -0.73217785797E+02 -0.16351301920E+03  0.21861109784E+03  0.12508280592E+03 0.  0.
          5    1    3    3  502    0 -0.30689700457E+02 -0.14835514700E+02 -0.14155278967E+03  0.14565924232E+03  0.41800000000E+01 0.  1.
         -5    1    3    3    0  502  0.37599994216E+02 -0.58382271097E+02 -0.21960229530E+02  0.72951855525E+02  0.41800000000E+01 0.  1.
        -11    1    1    2    0    0 -0.42520082588E+02  0.67590941920E+02 -0.98188396711E+02  0.12656008100E+03  0.00000000000E+00 0.  1.
         11    1    1    2    0    0  0.35609788829E+02  0.56268438776E+01 -0.70114641621E+02  0.78840227055E+02  0.00000000000E+00 0. -1.
</event>
<event>
 7    1  0.2749315E-009  0.1204473E+03  0.7561462E-02  0.1242361E+00
         -2   -1    0    0    0  501 -0.00000000000E+00  0.00000000000E+00  0.11443967577E+03  0.11443967577E+03  0.00000000000E+00 0.  1.
          2   -1    0    0  501    0  0.00000000000E+00 -0.00000000000E+00 -0.19104773288E+03  0.19104773288E+03  0.00000000000E+00 0. -1.
         25    2    1    2    0    0  0.56488665596E+02 -0.29441819430E+02  0.37867873196E+02  0.14540517160E+03  0.12510354926E+03 0.  0.
          5    1    3    3  502    0 -0.77665480810E+01  0.39312805308E+02  0.31223298257E+02  0.50972371775E+02  0.41800000000E+01 0. -1.
         -5    1    3    3    0  502  0.64255213677E+02 -0.68754624738E+02  0.66445749388E+01  0.94432799829E+02  0.41800000000E+01 0. -1.
        -11    1    1    2    0    0 -0.16160422157E+02  0.55889331578E+02 -0.37404489730E+02  0.69165544026E+02  0.00000000000E+00 0.  1.
         11    1    1    2    0    0 -0.40328243439E+02 -0.26447512148E+02 -0.77071440579E+02  0.90916693025E+02  0.00000000000E+00 0. -1.
</event>
<event>
 7    1  0.2749315E-009  0.7733820E+02  0.7561462E-02  0.1336780E+00
         -3   -1    0    0    0  501 -0.00000000000E+00  0.00000000000E+00  0.19767418609E+03  0.19767418609E+03  0.00000000000E+00 0.  1.
          3   -1    0    0  501    0  0.00000000000E+00 -0.00000000000E+00 -0.62658027780E+02  0.62658027780E+02  0.00000000000E+00 0. -1.
         25    2    1    2    0    0 -0.80673440749E+01 -0.11161444258E+02  0.62092605482E+02  0.14032633878E+03  0.12508529018E+03 0.  0.
          5    1    3    3  502    0 -0.30842496365E+02  0.49440899850E+02  0.43503621068E+02  0.72840233430E+02  0.41800000000E+01 0.  1.
         -5    1    3    3    0  502  0.22775152290E+02 -0.60602344109E+02  0.18588984413E+02  0.67486105346E+02  0.41800000000E+01 0.  1.
        -11    1    1    2    0    0  0.18690767840E+02  0.75566846551E+01  0.93995766931E+02  0.96133513856E+02  0.00000000000E+00 0.  1.
         11    1    1    2    0    0 -0.10623423766E+02  0.36047596034E+01 -0.21072214098E+02  0.23872361243E+02  0.00000000000E+00 0. -1.
</event>
<event>
 7    1  0.2749315E-009  0.1137092E+03  0.7561462E-02  0.1253851E+00
         -2   -1    0    0    0  501 -0.00000000000E+00  0.00000000000E+00  0.42843451797E+03  0.42843451797E+03  0.00000000000E+00 0.  1.
          2   -1    0    0  501    0  0.00000000000E+00 -0.00000000000E+00 -0.53807328339E+02  0.53807328339E+02  0.00000000000E+00 0. -1.
         25    2    1    2    0    0  0.26848557318E+02  0.95357434904E+02  0.14505678198E+03  0.21564567900E+03  0.12509078085E+03 0.  0.
          5    1    3    3  502    0  0.41733373711E+02  0.59772139897E+02  0.82977505731E+01  0.73489511182E+02  0.41800000000E+01 0. -1.
         -5    1    3    3    0  502 -0.14884816393E+02  0.35585295007E+02  0.13675903140E+03  0.14215616782E+03  0.41800000000E+01 0. -1.
        -11    1    1    2    0    0  0.19238729387E+02 -0.29463116225E+02  0.14772594659E+03  0.15185901100E+03  0.00000000000E+00 0.  1.
         11    1    1    2    0    0 -0.46087286705E+02 -0.65894318679E+02  0.81844461067E+02  0.11473715631E+03  0.00000000000E+00 0. -1.
</event>
<event>
 7    1  0.2749315E-009  0.8348636E+02  0.7561462E-02  0.1319439E+00
          3   -1    0    0  501    0  0.00000000000E+00  0.00000000000E+00  0.98060400320E+02  0.98060400320E+02  0.00000000000E+00 0. -1.
         -3   -1    0    0    0  501 -0.00000000000E+00 -0.00000000000E+00 -0.13180005265E+03  0.13180005265E+03  0.00000000000E+00 0.  1.
         25    2    1    2    0    0  0.19199404276E+02  0.20723076121E+02 -0.12700152420E+01  0.12824661417E+03  0.12509003996E+03 0.  0.
          5    1    3    3  502    0 -0.46809505730E+02  0.21714415217E+02 -0.25615163131E+02  0.57760320612E+02  0.41800000000E+01 0. -1.
         -5    1    3    3    0  502  0.66008910007E+02 -0.99133909544E+00  0.24345147889E+02  0.70486293556E+02  0.41800000000E+01 0. -1.
        -11    1    1    2    0    0  0.11710596284E+02  0.22825806207E+00 -0.56175201496E+02  0.57383302713E+02  0.00000000000E+00 0.  1.
         11    1    1    2    0    0 -0.30910000560E+02 -0.20951334183E+02  0.23705564410E+02  0.44230536089E+02  0.00000000000E+00 0. -1.
</event>
<event>
 7    1  0.2749315E-009  0.1157682E+03  0.7561462E-02  0.1250246E+00
         -1   -1    0    0    0  501 -0.00000000000E+00  0.00000000000E+00  0.15905590966E+03  0.15905590966E+03  0.00000000000E+00 0.  1.
          1   -1    0    0  501    0  0.00000000000E+00 -0.00000000000E+00 -0.23387892812E+03  0.23387892812E+03  0.00000000000E+00 0. -1.
         25    2    1    2    0    0  0.60360326630E+02 -0.61247953123E+02  0.96926184578E+02  0.18010371215E+03  0.12509189055E+03 0.  0.
          5    1    3    3  502    0  0.13329888837E+02  0.12426706309E+02 -0.24258624445E+02  0.30627801522E+02  0.41800000000E+01 0. -1.
         -5    1    3    3    0  502  0.47030437793E+02 -0.73674659432E+02  0.12118480902E+03  0.14947591063E+03  0.41800000000E+01 0. -1.
        -11    1    1    2    0    0  0.24145634124E+02  0.19717837932E+02 -0.35982755806E+02  0.47608439329E+02  0.00000000000E+00 0.  1.
         11    1    1    2    0    0 -0.84505960754E+02  0.41530115191E+02 -0.13576644724E+03  0.16522268630E+03  0.00000000000E+00 0. -1.
</event>
<event>
 7    1  0.2749315E-009  0.1234375E+03  0.7561462E-02  0.1237532E+00
         -1   -1    0    0    0  501 -0.00000000000E+00  0.00000000000E+00  0.17496893949E+03  0.17496893949E+03  0.00000000000E+00 0.  1.
          1   -1    0    0  501    0  0.00000000000E+00 -0.00000000000E+00 -0.10823628567E+03  0.10823628567E+03  0.00000000000E+00 0. -1.
         25    2    1    2    0    0 -0.59549110080E+02  0.41504543731E+02  0.73876136623E+02  0.16240109047E+03  0.12509079488E+03 0.  0.
          5    1    3    3  502    0  0.11761495813E+02 -0.30291394797E+02 -0.61338242174E+01  0.33331630353E+02  0.41800000000E+01 0.  1.
         -5    1    3    3    0  502 -0.71310605892E+02  0.71795938527E+02  0.80009960841E+02  0.12906946012E+03  0.41800000000E+01 0.  1.
        -11    1    1    2    0    0  0.55444795692E+02  0.13994469671E+02  0.17699548997E+02  0.59860208698E+02  0.00000000000E+00 0.  1.
         11    1    1    2    0    0  0.41043143876E+01 -0.55499013402E+02 -0.24843031799E+02  0.60943925982E+02  0.00000000000E+00 0. -1.
</event>
<event>
 7    1  0.2749315E-009  0.1212633E+03  0.7561462E-02  0.1241027E+00
         -2   -1    0    0    0  501 -0.00000000000E+00  0.00000000000E+00  0.20704056078E+02  0.20704056078E+02  0.00000000000E+00 0.  1.
          2   -1    0    0  501    0  0.00000000000E+00 -0.00000000000E+00 -0.82954012236E+03  0.82954012236E+03  0.00000000000E+00 0. -1.
         25    2    1    2    0    0  0.24535488188E+02 -0.51980250991E+02 -0.57442633025E+03  0.59069191223E+03  0.12508952641E+03 0.  0.
          5    1    3    3  502    0 -0.49473317743E+02 -0.23387485676E+02 -0.17365131181E+03  0.18211763822E+03  0.41800000000E+01 0. -1.
         -5    1    3    3    0  502  0.74008805932E+02 -0.28592765315E+02 -0.40077501844E+03  0.40857427402E+03  0.41800000000E+01 0. -1.
        -11    1    1    2    0    0  0.31905078107E+02  0.38803543733E+02 -0.78289744869E+02  0.93021143655E+02  0.00000000000E+00 0.  1.
         11    1    1    2    0    0 -0.56440566295E+02  0.13176707258E+02 -0.15611999116E+03  0.16653112255E+03  0.00000000000E+00 0. -1.
</event>
<event>
 7    1  0.2749315E-009  0.1562018E+03  0.7561462E-02  0.1193053E+00
         -2   -1    0    0    0  501 -0.00000000000E+00  0.00000000000E+00  0.50462311008E+02  0.50462311008E+02  0.00000000000E+00 0.  1.
          2   -1    0    0  501    0  0.00000000000E+00 -0.00000000000E+00 -0.66631563772E+03  0.66631563772E+03  0.00000000000E+00 0. -1.
         25    2    1    2    0    0  0.85224207115E+02 -0.10217878753E+03 -0.45390501819E+03  0.48926560198E+03  0.12508954251E+03 0.  0.
          5    1    3    3  502    0  0.10887032034E+03 -0.70294537925E+02 -0.25142470543E+03  0.28288853567E+03  0.41800000000E+01 0. -1.
         -5    1    3    3    0  502 -0.23646113228E+02 -0.31884249609E+02 -0.20248031275E+03  0.20637706631E+03  0.41800000000E+01 0. -1.
        -11    1    1    2    0    0 -0.62258826683E+02  0.34109838790E+02 -0.13159957127E+03  0.14952621764E+03  0.00000000000E+00 0. -1.
         11    1    1    2    0    0 -0.22965380432E+02  0.68068948744E+02 -0.30348737261E+02  0.77986129118E+02  0.00000000000E+00 0.  1.
</event>
<event>
 7    1  0.2749315E-009  0.2041924E+03  0.7561462E-02  0.1146249E+00
         -2   -1    0    0    0  501 -0.00000000000E+00  0.00000000000E+00  0.64296634059E+02  0.64296634059E+02  0.00000000000E+00 0.  1.
          2   -1    0    0  501    0  0.00000000000E+00 -0.00000000000E+00 -0.73271046641E+03  0.73271046641E+03  0.00000000000E+00 0. -1.
         25    2    1    2    0    0  0.16745637610E+03 -0.78772031774E+02 -0.30038275498E+03  0.37433091207E+03  0.12508861400E+03 0.  0.
          5    1    3    3  502    0  0.16934506524E+03 -0.89459548888E+02 -0.30630712107E+03  0.36127868305E+03  0.41800000000E+01 0. -1.
         -5    1    3    3    0  502 -0.18886891342E+01  0.10687517114E+02  0.59243660921E+01  0.13052229016E+02  0.41800000000E+01 0. -1.
        -11    1    1    2    0    0 -0.57580114865E+02  0.75904558908E+02 -0.20496004329E+03  0.22602121812E+03  0.00000000000E+00 0. -1.
         11    1    1    2    0    0 -0.10987626124E+03  0.28674728663E+01 -0.16307103407E+03  0.19665497028E+03  0.00000000000E+00 0.  1.
</event>
<event>
 7    1  0.2749315E-009  0.1225311E+03  0.7561462E-02  0.1238979E+00
          1   -1    0    0  501    0  0.00000000000E+00  0.00000000000E+00  0.10347805523E+04  0.10347805523E+04  0.00000000000E+00 0. -1.
         -1   -1    0    0    0  501 -0.00000000000E+00 -0.00000000000E+00 -0.15937856260E+02  0.15937856260E+02  0.00000000000E+00 0.  1.
         25    2    1    2    0    0  0.52744881554E+02 -0.42836302194E+02  0.57256336210E+03  0.58999455802E+03  0.12509118099E+03 0.  0.
          5    1    3    3  502    0  0.92306563812E+02 -0.26072922320E+02  0.44770988241E+03  0.45788853470E+03  0.41800000000E+01 0. -1.
         -5    1    3    3    0  502 -0.39561682258E+02 -0.16763379874E+02  0.12485347969E+03  0.13210602332E+03  0.41800000000E+01 0. -1.
        -11    1    1    2    0    0 -0.72571434225E+02  0.45831414923E+02  0.41336993391E+03  0.42218696560E+03  0.00000000000E+00 0. -1.
         11    1    1    2    0    0  0.19826552671E+02 -0.29951127285E+01  0.32909400071E+02  0.38536884982E+02  0.00000000000E+00 0.  1.
</event>
<event>
 7    1  0.2749315E-009  0.1150304E+03  0.7561462E-02  0.1251528E+00
          2   -1    0    0  501    0  0.00000000000E+00  0.00000000000E+00  0.93865836421E+03  0.93865836421E+03  0.00000000000E+00 0. -1.
         -2   -1    0    0    0  501 -0.00000000000E+00 -0.00000000000E+00 -0.15024710218E+02  0.15024710218E+02  0.00000000000E+00 0.  1.
         25    2    1    2    0    0 -0.28824285024E+02  0.36048114336E+02  0.54221406321E+03  0.55836689410E+03  0.12508873705E+03 0.  0.
          5    1    3    3  502    0 -0.42301668817E+02 -0.34200751167E+02  0.32748808619E+03  0.33200156861E+03  0.41800000000E+01 0.  1.
         -5    1    3    3    0  502  0.13477383793E+02  0.70248865503E+02  0.21472597702E+03  0.22636532549E+03  0.41800000000E+01 0.  1.
        -11    1    1    2    0    0 -0.27232874452E+02 -0.39169986388E+02  0.18092699840E+03  0.18711091907E+03  0.00000000000E+00 0.  1.
         11    1    1    2    0    0  0.56057159476E+02  0.31218720513E+01  0.20049259238E+03  0.20820526125E+03  0.00000000000E+00 0. -1.
</event>
<event>
 7    1  0.2749315E-009  0.9751199E+02  0.7561462E-02  0.1285617E+00
         -1   -1    0    0    0  501 -0.00000000000E+00  0.00000000000E+00  0.20175398401E+03  0.20175398401E+03  0.00000000000E+00 0.  1.
          1   -1    0    0  501    0  0.00000000000E+00 -0.00000000000E+00 -0.63345013932E+02  0.63345013932E+02  0.00000000000E+00 0. -1.
         25    2    1    2    0    0  0.16347580196E+02  0.21768410152E+01  0.45495140594E+02  0.13412224778E+03  0.12508791915E+03 0.  0.
          5    1    3    3  502    0 -0.43048128180E+02 -0.34920935851E+02  0.25612402977E+02  0.61205234145E+02  0.41800000000E+01 0. -1.
         -5    1    3    3    0  502  0.59395708376E+02  0.37097776866E+02  0.19882737618E+02  0.72917013633E+02  0.41800000000E+01 0. -1.
        -11    1    1    2    0    0  0.26378667671E+02  0.13259511540E+01 -0.23451406945E+01  0.26515880891E+02  0.00000000000E+00 0. -1.
         11    1    1    2    0    0 -0.42726247867E+02 -0.35027921692E+01  0.95258970177E+02  0.10446086927E+03  0.00000000000E+00 0.  1.
</event>
<event>
 7    1  0.2749315E-009  0.2754717E+03  0.7561462E-02  0.1098188E+00
          2   -1    0    0  501    0  0.00000000000E+00  0.00000000000E+00  0.17134227641E+04  0.17134227641E+04  0.00000000000E+00 0. -1.
         -2   -1    0    0    0  501 -0.00000000000E+00 -0.00000000000E+00 -0.45039218351E+02  0.45039218351E+02  0.00000000000E+00 0.  1.
         25    2    1    2    0    0 -0.24126581923E+03  0.87091634046E+02  0.90265621554E+03  0.94669453254E+03  0.12509255067E+03 0.  0.
          5    1    3    3  502    0 -0.10113743208E+03  0.10016284225E+03  0.39547418084E+03  0.42033162532E+03  0.41800000000E+01 0. -1.
         -5    1    3    3    0  502 -0.14012838715E+03 -0.13071208202E+02  0.50718203470E+03  0.52636290721E+03  0.41800000000E+01 0. -1.
        -11    1    1    2    0    0  0.10056319591E+02 -0.27055296358E+02  0.57465881421E+02  0.64307434657E+02  0.00000000000E+00 0.  1.
         11    1    1    2    0    0  0.23120949964E+03 -0.60036337688E+02  0.70826144877E+03  0.74746001524E+03  0.00000000000E+00 0. -1.
</event>
<event>
 7    1  0.2749315E-009  0.1215767E+03  0.7561462E-02  0.1240518E+00
         -2   -1    0    0    0  501 -0.00000000000E+00  0.00000000000E+00  0.10901581621E+02  0.10901581621E+02  0.00000000000E+00 0. -1.
          2   -1    0    0  501    0  0.00000000000E+00 -0.00000000000E+00 -0.30195393871E+04  0.30195393871E+04  0.00000000000E+00 0.  1.
         25    2    1    2    0    0  0.67386137285E+02 -0.16137796619E+02 -0.26464086144E+04  0.26502691617E+04  0.12508699164E+03 0.  0.
          5    1    3    3  502    0  0.89304475265E+02  0.16487992495E+02 -0.22637190087E+04  0.22655437241E+04  0.41800000000E+01 0. -1.
         -5    1    3    3    0  502 -0.21918337981E+02 -0.32625789114E+02 -0.38268960567E+03  0.38472543761E+03  0.41800000000E+01 0. -1.
        -11    1    1    2    0    0  0.24898577030E+01  0.39089212404E+02 -0.89420742171E+02  0.97622922759E+02  0.00000000000E+00 0.  1.
         11    1    1    2    0    0 -0.69875994988E+02 -0.22951415785E+02 -0.27280844890E+03  0.28254888418E+03  0.00000000000E+00 0. -1.
</event>
<event>
 7    1  0.2749315E-009  0.1089230E+03  0.7561462E-02  0.1262577E+00
         -2   -1    0    0    0  501 -0.00000000000E+00  0.00000000000E+00  0.87229435532E+02  0.87229435532E+02  0.00000000000E+00 0.  1.
          2   -1    0    0  501    0  0.00000000000E+00 -0.00000000000E+00 -0.15292544285E+03  0.15292544285E+03  0.00000000000E+00 0. -1.
         25    2    1    2    0    0  0.15689800472E+01  0.29594244777E+02 -0.52762272639E+02  0.13895573428E+03  0.12508620089E+03 0.  0.
          5    1    3    3  502    0  0.59118136896E+02 -0.52880721126E+01 -0.35758823169E+02  0.69419620073E+02  0.41800000000E+01 0. -1.
         -5    1    3    3    0  502 -0.57549156849E+02  0.34882316889E+02 -0.17003449470E+02  0.69536114210E+02  0.41800000000E+01 0. -1.
        -11    1    1    2    0    0 -0.32985798586E+02 -0.45107418576E+02  0.13283035290E+02  0.57438498809E+02  0.00000000000E+00 0.  1.
         11    1    1    2    0    0  0.31416818538E+02  0.15513173800E+02 -0.26216769967E+02  0.43760645287E+02  0.00000000000E+00 0. -1.
</event>
<event>
 7    1  0.2749315E-009  0.7771351E+02  0.7561462E-02  0.1335668E+00
         -3   -1    0    0    0  501 -0.00000000000E+00  0.00000000000E+00  0.10202190640E+03  0.10202190640E+03  0.00000000000E+00 0.  1.
          3   -1    0    0  501    0  0.00000000000E+00 -0.00000000000E+00 -0.14621819954E+03  0.14621819954E+03  0.00000000000E+00 0. -1.
         25    2    1    2    0    0 -0.29906889267E+02  0.65119141844E+01  0.24268276014E+02  0.13104497000E+03  0.12508800059E+03 0.  0.
          5    1    3    3  502    0 -0.64359017309E+01  0.41473419796E+02  0.61572614288E+02  0.74633267454E+02  0.41800000000E+01 0.  1.
         -5    1    3    3    0  502 -0.23470987536E+02 -0.34961505611E+02 -0.37304338274E+02  0.56411702550E+02  0.41800000000E+01 0.  1.
        -11    1    1    2    0    0  0.50270321692E+02 -0.46367331450E+01 -0.79335391395E+02  0.94035678682E+02  0.00000000000E+00 0. -1.
         11    1    1    2    0    0 -0.20363432425E+02 -0.18751810394E+01  0.10870822243E+02  0.23159457254E+02  0.00000000000E+00 0.  1.
</event>
<event>
 7    1  0.2749315E-009  0.8536004E+02  0.7561462E-02  0.1314494E+00
          1   -1    0    0  501    0  0.00000000000E+00  0.00000000000E+00  0.57363444547E+03  0.57363444547E+03  0.00000000000E+00 0. -1.
         -1   -1    0    0    0  501 -0.00000000000E+00 -0.00000000000E+00 -0.34812552543E+02  0.34812552543E+02  0.00000000000E+00 0.  1.
         25    2    1    2    0    0 -0.65692464828E+02  0.37937694902E+02  0.40711304118E+03  0.43260006132E+03  0.12508803350E+03 0.  0.
          5    1    3    3  502    0 -0.51581246505E+02  0.14803775283E+02  0.40088582808E+03  0.40448324602E+03  0.41800000000E+01 0. -1.
         -5    1    3    3    0  502 -0.14111218323E+02  0.23133919619E+02  0.62272130953E+01  0.28116815297E+02  0.41800000000E+01 0. -1.
        -11    1    1    2    0    0  0.11151123775E+02 -0.32857312183E+02  0.16658744212E+01  0.34737957092E+02  0.00000000000E+00 0.  1.
         11    1    1    2    0    0  0.54541341053E+02 -0.50803827186E+01  0.13004297733E+03  0.14110897960E+03  0.00000000000E+00 0. -1.
</event>
<event>
 7    1  0.2749315E-009  0.1128309E+03  0.7561462E-02  0.1255415E+00
         -2   -1    0    0    0  501 -0.00000000000E+00  0.00000000000E+00  0.53931188888E+03  0.53931188888E+03  0.00000000000E+00 0.  1.
          2   -1    0    0  501    0  0.00000000000E+00 -0.00000000000E+00 -0.26145568944E+02  0.26145568944E+02  0.00000000000E+00 0. -1.
         25    2    1    2    0    0 -0.77781614706E+01 -0.38848290471E+02  0.34280538335E+03  0.36705980849E+03  0.12509069784E+03 0.  0.
          5    1    3    3  502    0  0.47918281864E+02  0.11028266785E+02  0.81871589236E+02  0.95594005718E+02  0.41800000000E+01 0.  1.
         -5    1    3    3    0  502 -0.55696443335E+02 -0.49876557256E+02  0.26093379412E+03  0.27146580277E+03  0.41800000000E+01 0.  1.
        -11    1    1    2    0    0  0.29245293286E+02 -0.22201624012E+02  0.55131195998E+02  0.66239324123E+02  0.00000000000E+00 0.  1.
         11    1    1    2    0    0 -0.21467131815E+02  0.61049914482E+02  0.11522974059E+03  0.13215832521E+03  0.00000000000E+00 0. -1.
</event>
<event>
 7    1  0.2749315E-009  0.1512512E+03  0.7561462E-02  0.1198944E+00
          1   -1    0    0  501    0  0.00000000000E+00  0.00000000000E+00  0.18224524690E+03  0.18224524690E+03  0.00000000000E+00 0. -1.
         -1   -1    0    0    0  501 -0.00000000000E+00 -0.00000000000E+00 -0.16700275990E+03  0.16700275990E+03  0.00000000000E+00 0.  1.
         25    2    1    2    0    0  0.97918961811E+02 -0.88426609274E+02  0.41864849901E+02  0.18656859449E+03  0.12509111272E+03 0.  0.
          5    1    3    3  502    0 -0.34232120089E+01 -0.17634021637E+02 -0.35972585618E+02  0.40424947935E+02  0.41800000000E+01 0.  1.
         -5    1    3    3    0  502  0.10134217382E+03 -0.70792587637E+02  0.77837435518E+02  0.14614364655E+03  0.41800000000E+01 0.  1.
        -11    1    1    2    0    0 -0.10463983877E+03  0.10143014747E+03 -0.25970925444E+02  0.14802722601E+03  0.00000000000E+00 0. -1.
         11    1    1    2    0    0  0.67208769554E+01 -0.13003538195E+02 -0.65143744845E+00  0.14652186301E+02  0.00000000000E+00 0.  1.
</event>
<event>
 7    1  0.2749315E-009  0.1152514E+03  0.7561462E-02  0.1251143E+00
          2   -1    0    0  501    0  0.00000000000E+00  0.00000000000E+00  0.51262226960E+03  0.51262226960E+03  0.00000000000E+00 0. -1.
         -2   -1    0    0    0  501 -0.00000000000E+00 -0.00000000000E+00 -0.40412050301E+02  0.40412050301E+02  0.00000000000E+00 0.  1.
         25    2    1    2    0    0 -0.50467533675E+02  0.62187616227E+01  0.10487625111E+03  0.17097400343E+03  0.12508971520E+03 0.  0.
          5    1    3    3  502    0 -0.36321223966E+02 -0.56901290556E+02  0.36900291625E+02  0.77046038830E+02  0.41800000000E+01 0. -1.
         -5    1    3    3    0  502 -0.14146309709E+02  0.63120052179E+02  0.67975959487E+02  0.93927964599E+02  0.41800000000E+01 0. -1.
        -11    1    1    2    0    0  0.42045598066E+01  0.35502288712E+02  0.20670877478E+03  0.20977752119E+03  0.00000000000E+00 0.  1.
         11    1    1    2    0    0  0.46262973868E+02 -0.41721050335E+02  0.16062519340E+03  0.17228279528E+03  0.00000000000E+00 0. -1.
</event>
<event>
 7    1  0.2749315E-009  0.9547579E+02  0.7561462E-02  0.1290108E+00
         -2   -1    0    0    0  501 -0.00000000000E+00  0.00000000000E+00  0.22284856610E+02  0.22284856610E+02  0.00000000000E+00 0. -1.
          2   -1    0    0  501    0  0.00000000000E+00 -0.00000000000E+00 -0.12291378047E+04  0.12291378047E+04  0.00000000000E+00 0.  1.
         25    2    1    2    0    0 -0.95235761112E+02 -0.14091028759E+01 -0.94617283989E+03  0.95914595486E+03  0.12508430763E+03 0.  0.
          5    1    3    3  502    0 -0.37067031958E+02 -0.23896498486E+01 -0.81180082555E+03  0.81266089364E+03  0.41800000000E+01 0. -1.
         -5    1    3    3    0  502 -0.58168729154E+02  0.98054697268E+00 -0.13437201434E+03  0.14648506122E+03  0.41800000000E+01 0. -1.
        -11    1    1    2    0    0  0.70148517152E+02  0.10403268207E+01 -0.25761884730E+03  0.26700068768E+03  0.00000000000E+00 0.  1.
         11    1    1    2    0    0  0.25087243961E+02  0.36877605519E+00 -0.30612608754E+01  0.25276018743E+02  0.00000000000E+00 0. -1.
</event>
<event>
 7    1  0.2749315E-009  0.1314524E+03  0.7561462E-02  0.1225316E+00
          1   -1    0    0  501    0  0.00000000000E+00  0.00000000000E+00  0.11174894561E+03  0.11174894561E+03  0.00000000000E+00 0. -1.
         -1   -1    0    0    0  501 -0.00000000000E+00 -0.00000000000E+00 -0.24708762529E+03  0.24708762529E+03  0.00000000000E+00 0.  1.
         25    2    1    2    0    0 -0.97474545224E+02  0.62101702275E+02 -0.18089559025E+02  0.17126789385E+03  0.12509017118E+03 0.  0.
          5    1    3    3  502    0 -0.23816767564E+02  0.21627994985E+02  0.52310359725E+02  0.61553673479E+02  0.41800000000E+01 0.  1.
         -5    1    3    3    0  502 -0.73657777660E+02  0.40473707290E+02 -0.70399918750E+02  0.10971422037E+03  0.41800000000E+01 0.  1.
        -11    1    1    2    0    0  0.35584418211E+01 -0.51701289919E+02 -0.38371443906E+02  0.64482971356E+02  0.00000000000E+00 0. -1.
         11    1    1    2    0    0  0.93916103403E+02 -0.10400412356E+02 -0.78877676752E+02  0.12308570569E+03  0.00000000000E+00 0.  1.
</event>
<event>
 7    1  0.2749315E-009  0.1350926E+03  0.7561462E-02  0.1220089E+00
          1   -1    0    0  501    0  0.00000000000E+00  0.00000000000E+00  0.27326437196E+03  0.27326437196E+03  0.00000000000E+00 0. -1.
         -1   -1    0    0    0  501 -0.00000000000E+00 -0.00000000000E+00 -0.85792964100E+02  0.85792964100E+02  0.00000000000E+00 0.  1.
         25    2    1    2    0    0 -0.92731118773E+02  0.45747677397E+02  0.63858883516E+02  0.17440878810E+03  0.12509419645E+03 0.  0.
          5    1    3    3  502    0 -0.11726551160E+03  0.29625546536E+02  0.75399925755E+02  0.14258854940E+03  0.41800000000E+01 0. -1.
         -5    1    3    3    0  502  0.24534392823E+02  0.16122130861E+02 -0.11541042239E+02  0.31820238696E+02  0.41800000000E+01 0. -1.
        -11    1    1    2    0    0  0.34133435669E+02 -0.50241728965E+02  0.17270362188E+02  0.63147352835E+02  0.00000000000E+00 0.  1.
         11    1    1    2    0    0  0.58597683104E+02  0.44940515682E+01  0.10634216216E+03  0.12150119513E+03  0.00000000000E+00 0. -1.
</event>
<event>
 7    1  0.2749315E-009  0.1548268E+03  0.7561462E-02  0.1194664E+00
          2   -1    0    0  501    0  0.00000000000E+00  0.00000000000E+00  0.73644239024E+02  0.73644239024E+02  0.00000000000E+00 0. -1.
         -2   -1    0    0    0  501 -0.00000000000E+00 -0.00000000000E+00 -0.42019348886E+03  0.42019348886E+03  0.00000000000E+00 0.  1.
         25    2    1    2    0    0  0.33765991493E+02 -0.12756448237E+03 -0.11636569427E+03  0.21587410557E+03  0.12509122794E+03 0.  0.
          5    1    3    3  502    0 -0.80646154467E+01 -0.11261207549E+03 -0.12702660394E+03  0.16999925904E+03  0.41800000000E+01 0.  1.
         -5    1    3    3    0  502  0.41830606939E+02 -0.14952406884E+02  0.10660909668E+02  0.45874846523E+02  0.41800000000E+01 0.  1.
        -11    1    1    2    0    0  0.16248510089E+02  0.84527006691E+02 -0.15967320412E+03  0.18139559271E+03  0.00000000000E+00 0.  1.
         11    1    1    2    0    0 -0.50014501581E+02  0.43037475679E+02 -0.70510351444E+02  0.96568029606E+02  0.00000000000E+00 0. -1.
</event>
<event>
 7    1  0.2749315E-009  0.1248481E+03  0.7561462E-02  0.1235307E+00
          2   -1    0    0  501    0  0.00000000000E+00  0.00000000000E+00  0.20896810916E+03  0.20896810916E+03  0.00000000000E+00 0. -1.
         -2   -1    0    0    0  501 -0.00000000000E+00 -0.00000000000E+00 -0.84870604984E+02  0.84870604984E+02  0.00000000000E+00 0.  1.
         25    2    1    2    0    0 -0.74291440372E+02 -0.37942671817E+02  0.72294062808E+02  0.16682800818E+03  0.12508512437E+03 0.  0.
          5    1    3    3  502    0 -0.41248225483E+02  0.43208925442E+02  0.45174542371E+02  0.75010926016E+02  0.41800000000E+01 0.  1.
         -5    1    3    3    0  502 -0.33043214889E+02 -0.81151597260E+02  0.27119520438E+02  0.91817082162E+02  0.41800000000E+01 0.  1.
        -11    1    1    2    0    0  0.94473603634E+01  0.36001094345E+02 -0.87866486185E+01  0.38243124949E+02  0.00000000000E+00 0.  1.
         11    1    1    2    0    0  0.64844080009E+02  0.19415774719E+01  0.60590089988E+02  0.88767581019E+02  0.00000000000E+00 0. -1.
</event>
<event>
 7    1  0.2749315E-009  0.1027802E+03  0.7561462E-02  0.1274556E+00
         -2   -1    0    0    0  501 -0.00000000000E+00  0.00000000000E+00  0.84566055238E+02  0.84566055238E+02  0.00000000000E+00 0. -1.
          2   -1    0    0  501    0  0.00000000000E+00 -0.00000000000E+00 -0.18789200889E+03  0.18789200889E+03  0.00000000000E+00 0.  1.
         25    2    1    2    0    0  0.59472886982E+02 -0.21286786012E+02 -0.49006033814E+02  0.14845516365E+03  0.12508873938E+03 0.  0.
          5    1    3    3  502    0  0.35972345419E+02  0.38711712104E+02 -0.63049965440E+02  0.82373398807E+02  0.41800000000E+01 0.  1.
         -5    1    3    3    0  502  0.23500541563E+02 -0.59998498115E+02  0.14043931626E+02  0.66081764848E+02  0.41800000000E+01 0.  1.
        -11    1    1    2    0    0 -0.35110243994E+02  0.42882090279E+02  0.57077205163E+01  0.55715177228E+02  0.00000000000E+00 0. -1.
         11    1    1    2    0    0 -0.24362642988E+02 -0.21595304267E+02 -0.60027640355E+02  0.68287723247E+02  0.00000000000E+00 0.  1.
</event>
<event>
 7    1  0.2749315E-009  0.1066490E+03  0.7561462E-02  0.1266904E+00
         -2   -1    0    0    0  501 -0.00000000000E+00  0.00000000000E+00  0.10799566053E+03  0.10799566053E+03  0.00000000000E+00 0.  1.
          2   -1    0    0  501    0  0.00000000000E+00 -0.00000000000E+00 -0.11848787869E+03  0.11848787869E+03  0.00000000000E+00 0. -1.
         25    2    1    2    0    0  0.10159792212E+02 -0.20921169133E+02  0.15488501478E+02  0.12816735647E+03  0.12508421520E+03 0.  0.
          5    1    3    3  502    0  0.63019904287E+02 -0.59563042093E+01 -0.15013958274E+02  0.65191082513E+02  0.41800000000E+01 0.  1.
         -5    1    3    3    0  502 -0.52860112076E+02 -0.14964864924E+02  0.30502459752E+02  0.62976273959E+02  0.41800000000E+01 0.  1.
        -11    1    1    2    0    0 -0.22980633631E+02 -0.32511689059E+02 -0.92173898431E+01  0.40866608901E+02  0.00000000000E+00 0. -1.
         11    1    1    2    0    0  0.12820841420E+02  0.53432858192E+02 -0.16763329790E+02  0.57449573845E+02  0.00000000000E+00 0.  1.
</event>
<event>
 7    1  0.2749315E-009  0.1421167E+03  0.7561462E-02  0.1210509E+00
          1   -1    0    0  501    0  0.00000000000E+00  0.00000000000E+00  0.30241959392E+03  0.30241959392E+03  0.00000000000E+00 0. -1.
         -1   -1    0    0    0  501 -0.00000000000E+00 -0.00000000000E+00 -0.77750691844E+02  0.77750691844E+02  0.00000000000E+00 0.  1.
         25    2    1    2    0    0  0.10803245901E+03 -0.31741299422E+01  0.10223913459E+03  0.19437388385E+03  0.12508908338E+03 0.  0.
          5    1    3    3  502    0 -0.49566490371E+01  0.28620889529E+02 -0.10888365572E+02  0.31300999856E+02  0.41800000000E+01 0.  1.
         -5    1    3    3    0  502  0.11298910805E+03 -0.31795019472E+02  0.11312750016E+03  0.16307288399E+03  0.41800000000E+01 0.  1.
        -11    1    1    2    0    0 -0.62435309989E+02  0.43879471884E+02  0.51004814845E+02  0.91788164398E+02  0.00000000000E+00 0.  1.
         11    1    1    2    0    0 -0.45597149022E+02 -0.40705341941E+02  0.71424952641E+02  0.94008237518E+02  0.00000000000E+00 0. -1.
</event>
<event>
 7    1  0.2749315E-009  0.1623500E+03  0.7561462E-02  0.1186069E+00
          2   -1    0    0  501    0  0.00000000000E+00  0.00000000000E+00  0.37775874161E+03  0.37775874161E+03  0.00000000000E+00 0. -1.
         -2   -1    0    0    0  501 -0.00000000000E+00 -0.00000000000E+00 -0.73629958847E+02  0.73629958847E+02  0.00000000000E+00 0.  1.
         25    2    1    2    0    0  0.10930665594E+03 -0.21083309507E+02  0.19238812281E+03  0.25505727577E+03  0.12509425707E+03 0.  0.
          5    1    3    3  502    0  0.12135640806E+03 -0.53373157669E+02  0.14890362909E+03  0.19941372794E+03  0.41800000000E+01 0.  1.
         -5    1    3    3    0  502 -0.12049752118E+02  0.32289848162E+02  0.43484493724E+02  0.55643547828E+02  0.41800000000E+01 0.  1.
        -11    1    1    2    0    0 -0.13399894483E+02 -0.40973450512E+02  0.12168549539E+02  0.44793463998E+02  0.00000000000E+00 0.  1.
         11    1    1    2    0    0 -0.95906761460E+02  0.62056760019E+02  0.99572110413E+02  0.15153796069E+03  0.00000000000E+00 0. -1.
</event>
<event>
 7    1  0.2749315E-009  0.1120171E+03  0.7561462E-02  0.1256880E+00
          2   -1    0    0  501    0  0.00000000000E+00  0.00000000000E+00  0.53767616960E+02  0.53767616960E+02  0.00000000000E+00 0. -1.
         -2   -1    0    0    0  501 -0.00000000000E+00 -0.00000000000E+00 -0.24995696193E+03  0.24995696193E+03  0.00000000000E+00 0.  1.
         25    2    1    2    0    0 -0.30524911462E+02  0.23934039603E+01 -0.76276929940E+02  0.14967717877E+03  0.12509032417E+03 0.  0.
          5    1    3    3  502    0  0.45565365882E+02 -0.19128966155E+02 -0.28888643903E+02  0.57394651847E+02  0.41800000000E+01 0.  1.
         -5    1    3    3    0  502 -0.76090277343E+02  0.21522370116E+02 -0.47388286038E+02  0.92282526922E+02  0.41800000000E+01 0.  1.
        -11    1    1    2    0    0 -0.31297636327E+02  0.86086874305E+01 -0.54048118720E+02  0.63046416838E+02  0.00000000000E+00 0. -1.
         11    1    1    2    0    0  0.61822547789E+02 -0.11002091391E+02 -0.65864296309E+02  0.91000983282E+02  0.00000000000E+00 0.  1.
</event>
<event>
 7    1  0.2749315E-009  0.1197772E+03  0.7561462E-02  0.1243465E+00
          1   -1    0    0  501    0  0.00000000000E+00  0.00000000000E+00  0.84676229714E+03  0.84676229714E+03  0.00000000000E+00 0. -1.
         -1   -1    0    0    0  501 -0.00000000000E+00 -0.00000000000E+00 -0.24897086278E+02  0.24897086278E+02  0.00000000000E+00 0.  1.
         25    2    1    2    0    0 -0.66969773860E+02 -0.59402415338E+02  0.33908183893E+03  0.37233984184E+03  0.12508743650E+03 0.  0.
          5    1    3    3  502    0 -0.80109556886E+02 -0.22823882766E+02  0.10060428816E+03  0.13067963087E+03  0.41800000000E+01 0. -1.
         -5    1    3    3    0  502  0.13139783026E+02 -0.36578532572E+02  0.23847755078E+03  0.24166021097E+03  0.41800000000E+01 0. -1.
        -11    1    1    2    0    0 -0.13534931724E+02 -0.45147114315E+01  0.16379502798E+02  0.21722456307E+02  0.00000000000E+00 0.  1.
         11    1    1    2    0    0  0.80504705584E+02  0.63917126769E+02  0.46640386913E+03  0.47759708527E+03  0.00000000000E+00 0. -1.
</event>
<event>
 7    1  0.2749315E-009  0.1309178E+03  0.7561462E-02  0.1226100E+00
         -1   -1    0    0    0  501 -0.00000000000E+00  0.00000000000E+00  0.22227809693E+03  0.22227809693E+03  0.00000000000E+00 0.  1.
          1   -1    0    0  501    0  0.00000000000E+00 -0.00000000000E+00 -0.17237056011E+03  0.17237056011E+03  0.00000000000E+00 0. -1.
         25    2    1    2    0    0  0.10180903523E+03  0.24639401620E+02 -0.98655190167E+02  0.19066362925E+03  0.12509034018E+03 0.  0.
          5    1    3    3  502    0  0.70704709882E+02  0.55204914362E+02 -0.11320889175E+03  0.14450074097E+03  0.41800000000E+01 0. -1.
         -5    1    3    3    0  502  0.31104325351E+02 -0.30565512742E+02  0.14553701585E+02  0.46162888282E+02  0.41800000000E+01 0. -1.
        -11    1    1    2    0    0 -0.59774472361E+02 -0.51029583026E+02  0.48674365223E+02  0.92445658198E+02  0.00000000000E+00 0. -1.
         11    1    1    2    0    0 -0.42034562872E+02  0.26390181406E+02  0.99888361767E+02  0.11153936958E+03  0.00000000000E+00 0.  1.
</event>
<event>
 7    1  0.2749315E-009  0.9707861E+02  0.7561462E-02  0.1286562E+00
          1   -1    0    0  501    0  0.00000000000E+00  0.00000000000E+00  0.12102456917E+04  0.12102456917E+04  0.00000000000E+00 0. -1.
         -1   -1    0    0    0  501 -0.00000000000E+00 -0.00000000000E+00 -0.12418275916E+02  0.12418275916E+02  0.00000000000E+00 0.  1.
         25    2    1    2    0    0  0.74587202192E+01  0.60255072048E+02  0.74020212854E+03  0.75314869530E+03  0.12508980740E+03 0.  0.
          5    1    3    3  502    0  0.20262877079E+02 -0.67254012904E+01  0.19499779897E+02  0.29215219083E+02  0.41800000000E+01 0. -1.
         -5    1    3    3    0  502 -0.12804156860E+02  0.66980473339E+02  0.72070234864E+03  0.72393347621E+03  0.41800000000E+01 0. -1.
        -11    1    1    2    0    0  0.35721948626E+02 -0.85776166432E+01  0.19224354701E+03  0.19572228920E+03  0.00000000000E+00 0. -1.
         11    1    1    2    0    0 -0.43180668845E+02 -0.51677455405E+02  0.26538174026E+03  0.27379298315E+03  0.00000000000E+00 0.  1.
</event>
<event>
 7    1  0.2749315E-009  0.1903217E+03  0.7561462E-02  0.1158172E+00
          3   -1    0    0  501    0  0.00000000000E+00  0.00000000000E+00  0.96794100416E+03  0.96794100416E+03  0.00000000000E+00 0. -1.
         -3   -1    0    0    0  501 -0.00000000000E+00 -0.00000000000E+00 -0.37537993227E+02  0.37537993227E+02  0.00000000000E+00 0.  1.
         25    2    1    2    0    0  0.15280238237E+03  0.20472405083E+02  0.47876150032E+03  0.51829253832E+03  0.12508754398E+03 0.  0.
          5    1    3    3  502    0  0.13961141297E+03 -0.32403169335E+02  0.36240217870E+03  0.38973596644E+03  0.41800000000E+01 0.  1.
         -5    1    3    3    0  502  0.13190969400E+02  0.52875574418E+02  0.11635932162E+03  0.12855657187E+03  0.41800000000E+01 0.  1.
        -11    1    1    2    0    0 -0.55755553214E+02  0.39673650662E+02  0.17593372834E+03  0.18877329535E+03  0.00000000000E+00 0.  1.
         11    1    1    2    0    0 -0.97046829161E+02 -0.60146055745E+02  0.27570778228E+03  0.29841316372E+03  0.00000000000E+00 0. -1.
</event>
<event>
 7    1  0.2749315E-009  0.9093685E+02  0.7561462E-02  0.1300599E+00
          1   -1    0    0  501    0  0.00000000000E+00  0.00000000000E+00  0.36740947248E+03  0.36740947248E+03  0.00000000000E+00 0. -1.
         -1   -1    0    0    0  501 -0.00000000000E+00 -0.00000000000E+00 -0.39437853133E+02  0.39437853133E+02  0.00000000000E+00 0.  1.
         25    2    1    2    0    0  0.41052054489E+02  0.30643652908E+02  0.16477459766E+03  0.21312790823E+03  0.12509409495E+03 0.  0.
          5    1    3    3  502    0  0.33923778161E+02  0.63300389527E+02  0.36821687322E+02  0.80815042512E+02  0.41800000000E+01 0.  1.
         -5    1    3    3    0  502  0.71282763276E+01 -0.32656736619E+02  0.12795291034E+03  0.13231286572E+03  0.41800000000E+01 0.  1.
        -11    1    1    2    0    0 -0.10572921671E+00 -0.35064178385E+02  0.14413290671E+03  0.14833678768E+03  0.00000000000E+00 0. -1.
         11    1    1    2    0    0 -0.40946325272E+02  0.44205254770E+01  0.19064114983E+02  0.45382629704E+02  0.00000000000E+00 0.  1.
</event>
<event>
 7    1  0.2749315E-009  0.1227394E+03  0.7561462E-02  0.1238645E+00
         -3   -1    0    0    0  501 -0.00000000000E+00  0.00000000000E+00  0.28830507503E+03  0.28830507503E+03  0.00000000000E+00 0.  1.
          3   -1    0    0  501    0  0.00000000000E+00 -0.00000000000E+00 -0.62282857508E+02  0.62282857508E+02  0.00000000000E+00 0. -1.
         25    2    1    2    0    0 -0.21155692015E+02  0.76202757677E+02  0.12429417458E+03  0.19327235406E+03  0.12510290735E+03 0.  0.
          5    1    3    3  502    0  0.31283196029E+02  0.72011540534E+02  0.11557761860E+03  0.13978540211E+03  0.41800000000E+01 0. -1.
         -5    1    3    3    0  502 -0.52438888045E+02  0.41912171426E+01  0.87165559849E+01  0.53486951948E+02  0.41800000000E+01 0. -1.
        -11    1    1    2    0    0  0.40558011078E+02 -0.56973861850E+01  0.14400678421E+02  0.43414191355E+02  0.00000000000E+00 0. -1.
         11    1    1    2    0    0 -0.19402319063E+02 -0.70505371492E+02  0.87327364523E+02  0.11390138712E+03  0.00000000000E+00 0.  1.
</event>
<event>
 7    1  0.2749315E-009  0.2932780E+03  0.7561462E-02  0.1088650E+00
         -2   -1    0    0    0  501 -0.00000000000E+00  0.00000000000E+00  0.47873827102E+03  0.47873827102E+03  0.00000000000E+00 0.  1.
          2   -1    0    0  501    0  0.00000000000E+00 -0.00000000000E+00 -0.19092830773E+03  0.19092830773E+03  0.00000000000E+00 0. -1.
         25    2    1    2    0    0  0.16978189776E+03 -0.22039063286E+03  0.19810046822E+03  0.36371590083E+03  0.12509011610E+03 0.  0.
          5    1    3    3  502    0  0.20830804882E+00 -0.91269283585E+02  0.69005515739E+02  0.11449610963E+03  0.41800000000E+01 0. -1.
         -5    1    3    3    0  502  0.16957358972E+03 -0.12912134928E+03  0.12909495248E+03  0.24921979120E+03  0.41800000000E+01 0. -1.
        -11    1    1    2    0    0 -0.13449014265E+03  0.13957347421E+03  0.98334391559E+02  0.21734306002E+03  0.00000000000E+00 0.  1.
         11    1    1    2    0    0 -0.35291755112E+02  0.80817158652E+02 -0.86248964812E+01  0.88607617905E+02  0.00000000000E+00 0. -1.
</event>
<event>
 7    1  0.2749315E-009  0.2115505E+03  0.7561462E-02  0.1140344E+00
          2   -1    0    0  501    0  0.00000000000E+00  0.00000000000E+00  0.29441167371E+03  0.29441167371E+03  0.00000000000E+00 0. -1.
         -2   -1    0    0    0  501 -0.00000000000E+00 -0.00000000000E+00 -0.16763727853E+03  0.16763727853E+03  0.00000000000E+00 0.  1.
         25    2    1    2    0    0 -0.16417252944E+03  0.94964727429E+02  0.10924086074E+03  0.25210218813E+03  0.12510407157E+03 0.  0.
          5    1    3    3  502    0  0.86961041398E+01 -0.16466469605E+02  0.20665212118E+02  0.28129881627E+02  0.41800000000E+01 0. -1.
         -5    1    3    3    0  502 -0.17286863358E+03  0.11143119703E+03  0.88575648623E+02  0.22397230650E+03  0.41800000000E+01 0. -1.
        -11    1    1    2    0    0  0.14359730319E+03 -0.10246130693E+03 -0.76546470183E+01  0.17657037838E+03  0.00000000000E+00 0.  1.
         11    1    1    2    0    0  0.20575226258E+02  0.74965795005E+01  0.25188181454E+02  0.33376385735E+02  0.00000000000E+00 0. -1.
</event>
<event>
 7    1  0.2749315E-009  0.9716382E+02  0.7561462E-02  0.1286376E+00
         -2   -1    0    0    0  501 -0.00000000000E+00  0.00000000000E+00  0.28892358096E+03  0.28892358096E+03  0.00000000000E+00 0. -1.
          2   -1    0    0  501    0  0.00000000000E+00 -0.00000000000E+00 -0.35244052156E+02  0.35244052156E+02  0.00000000000E+00 0.  1.
         25    2    1    2    0    0 -0.24396315560E+02  0.20651873227E+02  0.14516462144E+03  0.19427288200E+03  0.12508998874E+03 0.  0.
          5    1    3    3  502    0  0.29839616748E+02  0.52978665615E+02  0.44861732099E+02  0.75678194647E+02  0.41800000000E+01 0.  1.
         -5    1    3    3    0  502 -0.54235932308E+02 -0.32326792388E+02  0.10030288934E+03  0.11859468735E+03  0.41800000000E+01 0.  1.
        -11    1    1    2    0    0 -0.87342967410E+01  0.17508963347E+02  0.20065901741E+02  0.28026632864E+02  0.00000000000E+00 0.  1.
         11    1    1    2    0    0  0.33130612301E+02 -0.38160836574E+02  0.88449005625E+02  0.10186811825E+03  0.00000000000E+00 0. -1.
</event>
<event>
 7    1  0.2749315E-009  0.7159350E+02  0.7561462E-02  0.1354757E+00
         -2   -1    0    0    0  501 -0.00000000000E+00  0.00000000000E+00  0.13519767824E+03  0.13519767824E+03  0.00000000000E+00 0.  1.
          2   -1    0    0  501    0  0.00000000000E+00 -0.00000000000E+00 -0.99115604158E+02  0.99115604158E+02  0.00000000000E+00 0. -1.
         25    2    1    2    0    0  0.47202386984E+01  0.32054838191E+02  0.48949456448E+02  0.13817750353E+03  0.12508868810E+03 0.  0.
          5    1    3    3  502    0 -0.25826066337E+02  0.57962636940E+02 -0.12400309386E+02  0.64791149521E+02  0.41800000000E+01 0.  1.
         -5    1    3    3    0  502  0.30546305035E+02 -0.25907798749E+02  0.61349765833E+02  0.73386354012E+02  0.41800000000E+01 0.  1.
        -11    1    1    2    0    0  0.82126809947E+01 -0.57973709705E+01  0.36984510485E+02  0.38326383277E+02  0.00000000000E+00 0.  1.
         11    1    1    2    0    0 -0.12932919693E+02 -0.26257467220E+02 -0.49851892855E+02  0.57809395584E+02  0.00000000000E+00 0. -1.
</event>
<event>
 7    1  0.2749315E-009  0.1172180E+03  0.7561462E-02  0.1247758E+00
          2   -1    0    0  501    0  0.00000000000E+00  0.00000000000E+00  0.15452427817E+03  0.15452427817E+03  0.00000000000E+00 0. -1.
         -2   -1    0    0    0  501 -0.00000000000E+00 -0.00000000000E+00 -0.13161113466E+03  0.13161113466E+03  0.00000000000E+00 0.  1.
         25    2    1    2    0    0  0.59561529482E+02 -0.60482819169E+02 -0.35815812679E+02  0.15536495444E+03  0.12509895852E+03 0.  0.
          5    1    3    3  502    0  0.50727364497E+02  0.82374351032E+01  0.30047755292E+02  0.59677976205E+02  0.41800000000E+01 0. -1.
         -5    1    3    3    0  502  0.88341649851E+01 -0.68720254273E+02 -0.65863567970E+02  0.95686978237E+02  0.41800000000E+01 0. -1.
        -11    1    1    2    0    0 -0.76761245153E+02  0.39489273544E+02  0.30349917561E+02  0.91503054476E+02  0.00000000000E+00 0.  1.
         11    1    1    2    0    0  0.17199715671E+02  0.20993545625E+02  0.28379038622E+02  0.39267403915E+02  0.00000000000E+00 0. -1.
</event>
<event>
 7    1  0.3595680E-009  0.1102601E+03  0.7561462E-02  0.1260089E+00
         -2   -1    0    0    0  501 -0.00000000000E+00  0.00000000000E+00  0.38140101499E+02  0.38140101499E+02  0.00000000000E+00 0. -1.
          2   -1    0    0  501    0  0.00000000000E+00 -0.00000000000E+00 -0.40669352030E+03  0.40669352030E+03  0.00000000000E+00 0.  1.
         25    2    1    2    0    0 -0.54703852827E+02 -0.22181491547E+02 -0.23543213387E+03  0.27305808432E+03  0.12509155715E+03 0.  0.
          5    1    3    3  502    0 -0.83262704154E+02 -0.35995059879E+02 -0.21901584350E+03  0.23709435747E+03  0.41800000000E+01 0. -1.
         -5    1    3    3    0  502  0.28558851327E+02  0.13813568333E+02 -0.16416290372E+02  0.35963726848E+02  0.41800000000E+01 0. -1.
        -11    1    1    2    0    0 -0.20442924870E+01 -0.24284799054E+02 -0.61370510717E+01  0.25131533832E+02  0.00000000000E+00 0. -1.
         11    1    1    2    0    0  0.56748145314E+02  0.46466290601E+02 -0.12698423386E+03  0.14664400366E+03  0.00000000000E+00 0.  1.
</event>
<event>
 7    1  0.2749315E-009  0.1600436E+03  0.7561462E-02  0.1188648E+00
          1   -1    0    0  501    0  0.00000000000E+00  0.00000000000E+00  0.32572070746E+03  0.32572070746E+03  0.00000000000E+00 0. -1.
         -1   -1    0    0    0  501 -0.00000000000E+00 -0.00000000000E+00 -0.10072173967E+03  0.10072173967E+03  0.00000000000E+00 0.  1.
         25    2    1    2    0    0 -0.10860028891E+03  0.76384096332E+02  0.47508230650E+02  0.18850453571E+03  0.12509346537E+03 0.  0.
          5    1    3    3  502    0 -0.37555831552E+02  0.82045702163E+02  0.69311351157E+02  0.11385725065E+03  0.41800000000E+01 0. -1.
         -5    1    3    3    0  502 -0.71044457359E+02 -0.56616058314E+01 -0.21803120507E+02  0.74647285054E+02  0.41800000000E+01 0. -1.
        -11    1    1    2    0    0  0.24186719876E+02 -0.69596547359E+02  0.86810968923E+02  0.11386316853E+03  0.00000000000E+00 0.  1.
         11    1    1    2    0    0  0.84413569034E+02 -0.67875489729E+01  0.90679768223E+02  0.12407474289E+03  0.00000000000E+00 0. -1.
</event>
<event>
 7    1  0.2749315E-009  0.1527098E+03  0.7561462E-02  0.1197182E+00
          1   -1    0    0  501    0  0.00000000000E+00  0.00000000000E+00  0.29661610148E+03  0.29661610148E+03  0.00000000000E+00 0. -1.
         -1   -1    0    0    0  501 -0.00000000000E+00 -0.00000000000E+00 -0.93024711212E+02  0.93024711212E+02  0.00000000000E+00 0.  1.
         25    2    1    2    0    0  0.77553235811E+02 -0.10536864381E+03  0.16012886883E+03  0.24167124463E+03  0.12508669140E+03 0.  0.
          5    1    3    3  502    0 -0.13740491687E+02 -0.77494946875E+02  0.40628474123E+02  0.88670249873E+02  0.41800000000E+01 0.  1.
         -5    1    3    3    0  502  0.91293727498E+02 -0.27873696939E+02  0.11950039471E+03  0.15300099476E+03  0.41800000000E+01 0.  1.
        -11    1    1    2    0    0 -0.59652113383E+01  0.12041594482E+02 -0.11918923637E+02  0.17962307331E+02  0.00000000000E+00 0. -1.
         11    1    1    2    0    0 -0.71588024473E+02  0.93327049332E+02  0.55381445079E+02  0.13000726074E+03  0.00000000000E+00 0.  1.
</event>
<event>
 7    1  0.2749315E-009  0.3687103E+03  0.7561462E-02  0.1055187E+00
          2   -1    0    0  501    0  0.00000000000E+00  0.00000000000E+00  0.66861068515E+03  0.66861068515E+03  0.00000000000E+00 0. -1.
         -2   -1    0    0    0  501 -0.00000000000E+00 -0.00000000000E+00 -0.20704863757E+03  0.20704863757E+03  0.00000000000E+00 0.  1.
         25    2    1    2    0    0 -0.30700121124E+02  0.35269456655E+03  0.28728577225E+03  0.47277526451E+03  0.12508949228E+03 0.  0.
          5    1    3    3  502    0  0.31479315514E+02  0.26520116250E+03  0.18926062824E+03  0.32735250373E+03  0.41800000000E+01 0. -1.
         -5    1    3    3    0  502 -0.62179436639E+02  0.87493404051E+02  0.98025144018E+02  0.14542276078E+03  0.41800000000E+01 0. -1.
        -11    1    1    2    0    0  0.58051521573E+02 -0.23233680524E+03  0.10676580196E+03  0.26220088996E+03  0.00000000000E+00 0.  1.
         11    1    1    2    0    0 -0.27351400448E+02 -0.12035776131E+03  0.67510473371E+02  0.14068316825E+03  0.00000000000E+00 0. -1.
</event>
<event>
 7    1  0.2749315E-009  0.9950510E+02  0.7561462E-02  0.1281340E+00
         -2   -1    0    0    0  501 -0.00000000000E+00  0.00000000000E+00  0.21490631722E+02  0.21490631722E+02  0.00000000000E+00 0.  1.
          2   -1    0    0  501    0  0.00000000000E+00 -0.00000000000E+00 -0.60219449789E+03  0.60219449789E+03  0.00000000000E+00 0. -1.
         25    2    1    2    0    0  0.37299020068E+01 -0.41927600143E+02 -0.38868391582E+03  0.41048119780E+03  0.12509113279E+03 0.  0.
          5    1    3    3  502    0 -0.13975973661E+02  0.34240363887E+02 -0.47070954726E+02  0.60007312369E+02  0.41800000000E+01 0. -1.
         -5    1    3    3    0  502  0.17705875667E+02 -0.76167964030E+02 -0.34161296110E+03  0.35047388543E+03  0.41800000000E+01 0. -1.
        -11    1    1    2    0    0 -0.36000980411E+02  0.35532286864E+02 -0.67131849860E+02  0.84055334548E+02  0.00000000000E+00 0.  1.
         11    1    1    2    0    0  0.32271078404E+02  0.63953132788E+01 -0.12488810049E+03  0.12914859727E+03  0.00000000000E+00 0. -1.
</event>
<event>
 7    1  0.2749315E-009  0.9924489E+02  0.7561462E-02  0.1281892E+00
          2   -1    0    0  501    0  0.00000000000E+00  0.00000000000E+00  0.96177798024E+02  0.96177798024E+02  0.00000000000E+00 0.  1.
         -2   -1    0    0    0  501 -0.00000000000E+00 -0.00000000000E+00 -0.14533130202E+03  0.14533130202E+03  0.00000000000E+00 0. -1.
         25    2    1    2    0    0 -0.19073389758E+02  0.44735835607E+02 -0.15253890107E+02  0.13507772334E+03  0.12509284949E+03 0.  0.
          5    1    3    3  502    0 -0.14328332099E+02  0.88119624513E+02 -0.17923737541E+02  0.91154276326E+02  0.41800000000E+01 0.  1.
         -5    1    3    3    0  502 -0.47450576598E+01 -0.43383788906E+02  0.26698474340E+01  0.43923447011E+02  0.41800000000E+01 0.  1.
        -11    1    1    2    0    0 -0.14097576591E+02 -0.10301586320E+02  0.25046785190E+02  0.30532045375E+02  0.00000000000E+00 0.  1.
         11    1    1    2    0    0  0.33170966349E+02 -0.34434249287E+02 -0.58946399081E+02  0.75899331335E+02  0.00000000000E+00 0. -1.
</event>
<event>
 7    1  0.2749315E-009  0.1109926E+03  0.7561462E-02  0.1258743E+00
          1   -1    0    0  501    0  0.00000000000E+00  0.00000000000E+00  0.42142790555E+03  0.42142790555E+03  0.00000000000E+00 0. -1.
         -1   -1    0    0    0  501 -0.00000000000E+00 -0.00000000000E+00 -0.47556772188E+02  0.47556772188E+02  0.00000000000E+00 0.  1.
         25    2    1    2    0    0 -0.68884798057E+02  0.59002802965E+02  0.19626199854E+03  0.24978628658E+03  0.12509184918E+03 0.  0.
          5    1    3    3  502    0 -0.26716547299E+02 -0.24061672809E+02  0.43989765796E+01  0.36463151165E+02  0.41800000000E+01 0. -1.
         -5    1    3    3    0  502 -0.42168250758E+02  0.83064475774E+02  0.19186302196E+03  0.21332313541E+03  0.41800000000E+01 0. -1.
        -11    1    1    2    0    0  0.19215912281E+02 -0.65496017847E+01 -0.65871593404E+01  0.21343365163E+02  0.00000000000E+00 0.  1.
         11    1    1    2    0    0  0.49668885777E+02 -0.52453201181E+02  0.18419629417E+03  0.19785502600E+03  0.00000000000E+00 0. -1.
</event>
<event>
 7    1  0.2749315E-009  0.1129173E+03  0.7561462E-02  0.1255261E+00
         -1   -1    0    0    0  501 -0.00000000000E+00  0.00000000000E+00  0.59037619603E+03  0.59037619603E+03  0.00000000000E+00 0.  1.
          1   -1    0    0  501    0  0.00000000000E+00 -0.00000000000E+00 -0.31884011818E+02  0.31884011818E+02  0.00000000000E+00 0. -1.
         25    2    1    2    0    0 -0.58941448505E+02 -0.50267577290E+01  0.44518242343E+03  0.46619097774E+03  0.12508906808E+03 0.  0.
          5    1    3    3  502    0 -0.72609529392E+02  0.31829882464E+02  0.39181571811E+03  0.39977783146E+03  0.41800000000E+01 0.  1.
         -5    1    3    3    0  502  0.13668080888E+02 -0.36856640193E+02  0.53366705322E+02  0.66413146277E+02  0.41800000000E+01 0.  1.
        -11    1    1    2    0    0  0.18335087166E+02  0.45821879945E+02  0.45540651889E+02  0.67154829145E+02  0.00000000000E+00 0.  1.
         11    1    1    2    0    0  0.40606361339E+02 -0.40795122216E+02  0.67769108896E+02  0.88914400962E+02  0.00000000000E+00 0. -1.
</event>
<event>
 7    1  0.2749315E-009  0.2088324E+03  0.7561462E-02  0.1142494E+00
         -1   -1    0    0    0  501 -0.00000000000E+00  0.00000000000E+00  0.67749836536E+02  0.67749836536E+02  0.00000000000E+00 0.  1.
          1   -1    0    0  501    0  0.00000000000E+00 -0.00000000000E+00 -0.66425345578E+03  0.66425345578E+03  0.00000000000E+00 0. -1.
         25    2    1    2    0    0 -0.14094862811E+03  0.10993450624E+03 -0.36915480228E+03  0.42880625713E+03  0.12508967456E+03 0.  0.
          5    1    3    3  502    0 -0.11602970578E+03  0.11649251250E+02 -0.19612270213E+03  0.22821083315E+03  0.41800000000E+01 0. -1.
         -5    1    3    3    0  502 -0.24918922332E+02  0.98285254991E+02 -0.17303210015E+03  0.20059542398E+03  0.41800000000E+01 0. -1.
        -11    1    1    2    0    0  0.14276323933E+03 -0.69074906625E+02 -0.19287273674E+03  0.24970498155E+03  0.00000000000E+00 0.  1.
         11    1    1    2    0    0 -0.18146112177E+01 -0.40859599617E+02 -0.34476080220E+02  0.53492053635E+02  0.00000000000E+00 0. -1.
</event>
<event>
 7    1  0.2749315E-009  0.2340601E+03  0.7561462E-02  0.1123814E+00
          3   -1    0    0  501    0  0.00000000000E+00  0.00000000000E+00  0.31142456551E+03  0.31142456551E+03  0.00000000000E+00 0. -1.
         -3   -1    0    0    0  501 -0.00000000000E+00 -0.00000000000E+00 -0.18584869353E+03  0.18584869353E+03  0.00000000000E+00 0.  1.
         25    2    1    2    0    0 -0.12766488753E+03  0.17198271193E+03  0.53313433650E+02  0.25370571431E+03  0.12509152871E+03 0.  0.
          5    1    3    3  502    0 -0.24484631163E+02  0.13651107411E+03  0.26237672207E+02  0.14121139600E+03  0.41800000000E+01 0. -1.
         -5    1    3    3    0  502 -0.10318025637E+03  0.35471637818E+02  0.27075761443E+02  0.11249431831E+03  0.41800000000E+01 0. -1.
        -11    1    1    2    0    0  0.10570419045E+03 -0.10222946635E+03  0.97725283755E+01  0.14737619204E+03  0.00000000000E+00 0. -1.
         11    1    1    2    0    0  0.21960697076E+02 -0.69753245579E+02  0.62489909964E+02  0.96191352690E+02  0.00000000000E+00 0.  1.
</event>
<event>
 7    1  0.2749315E-009  0.8433588E+02  0.7561462E-02  0.1317178E+00
         -2   -1    0    0    0  501 -0.00000000000E+00  0.00000000000E+00  0.11219802394E+03  0.11219802394E+03  0.00000000000E+00 0.  1.
          2   -1    0    0  501    0  0.00000000000E+00 -0.00000000000E+00 -0.25333693039E+03  0.25333693039E+03  0.00000000000E+00 0. -1.
         25    2    1    2    0    0  0.68577607334E+02 -0.39743552129E+02 -0.18462746570E+03  0.23668003095E+03  0.12509075825E+03 0.  0.
          5    1    3    3  502    0  0.17763268989E+02 -0.29759752666E+02 -0.18128806354E+03  0.18461855537E+03  0.41800000000E+01 0. -1.
         -5    1    3    3    0  502  0.50814338345E+02 -0.99837994637E+01 -0.33394021557E+01  0.52061475583E+02  0.41800000000E+01 0. -1.
        -11    1    1    2    0    0 -0.12754351481E+02  0.17640897761E+02  0.62254595927E+02  0.65950810984E+02  0.00000000000E+00 0.  1.
         11    1    1    2    0    0 -0.55823255853E+02  0.22102654369E+02 -0.18766036677E+02  0.62904112399E+02  0.00000000000E+00 0. -1.
</event>
<event>
 7    1  0.2749315E-009  0.1704086E+03  0.7561462E-02  0.1177422E+00
          2   -1    0    0  501    0  0.00000000000E+00  0.00000000000E+00  0.84147476284E+03  0.84147476284E+03  0.00000000000E+00 0. -1.
         -2   -1    0    0    0  501 -0.00000000000E+00 -0.00000000000E+00 -0.43052920454E+02  0.43052920454E+02  0.00000000000E+00 0.  1.
         25    2    1    2    0    0 -0.13167571905E+03 -0.74096669993E+02  0.31167785685E+03  0.36826708385E+03  0.12509495236E+03 0.  0.
          5    1    3    3  502    0  0.10100084772E+02 -0.18163232935E+02  0.12712340906E+03  0.12887881235E+03  0.41800000000E+01 0. -1.
         -5    1    3    3    0  502 -0.14177580382E+03 -0.55933437057E+02  0.18455444779E+03  0.23938827149E+03  0.41800000000E+01 0. -1.
        -11    1    1    2    0    0  0.56894741806E+02  0.72752598838E+02  0.32841948674E+03  0.34115877762E+03  0.00000000000E+00 0.  1.
         11    1    1    2    0    0  0.74780977240E+02  0.13440711548E+01  0.15832449880E+03  0.17510182182E+03  0.00000000000E+00 0. -1.
</event>
<event>
 7    1  0.2749315E-009  0.1183483E+03  0.7561462E-02  0.1245847E+00
         -2   -1    0    0    0  501 -0.00000000000E+00  0.00000000000E+00  0.24236645240E+02  0.24236645240E+02  0.00000000000E+00 0.  1.
          2   -1    0    0  501    0  0.00000000000E+00 -0.00000000000E+00 -0.85957126888E+03  0.85957126888E+03  0.00000000000E+00 0. -1.
         25    2    1    2    0    0  0.70952258330E+01 -0.92232340391E+02 -0.52650940821E+03  0.54901430964E+03  0.12508960152E+03 0.  0.
          5    1    3    3  502    0  0.50611176990E+02 -0.82968242256E+02 -0.45014458853E+03  0.46053538783E+03  0.41800000000E+01 0. -1.
         -5    1    3    3    0  502 -0.43515951157E+02 -0.92640981342E+01 -0.76364819679E+02  0.88478921806E+02  0.41800000000E+01 0. -1.
        -11    1    1    2    0    0 -0.83634805237E+01  0.12796326320E+02  0.63299103941E+00  0.15300145471E+02  0.00000000000E+00 0.  1.
         11    1    1    2    0    0  0.12682546906E+01  0.79436014070E+02 -0.30945820647E+03  0.31949345901E+03  0.00000000000E+00 0. -1.
</event>
<event>
 7    1  0.2749315E-009  0.4556435E+03  0.7561462E-02  0.1026052E+00
         -1   -1    0    0    0  501 -0.00000000000E+00  0.00000000000E+00  0.37978119306E+03  0.37978119306E+03  0.00000000000E+00 0.  1.
          1   -1    0    0  501    0  0.00000000000E+00 -0.00000000000E+00 -0.55665781230E+03  0.55665781230E+03  0.00000000000E+00 0. -1.
         25    2    1    2    0    0 -0.41262907758E+03 -0.17084255254E+03 -0.85909695738E+02  0.47167592622E+03  0.12509104737E+03 0.  0.
          5    1    3    3  502    0 -0.34426032607E+03 -0.17963377522E+03 -0.10043058486E+03  0.40110751686E+03  0.41800000000E+01 0.  1.
         -5    1    3    3    0  502 -0.68368751507E+02  0.87912226793E+01  0.14520889120E+02  0.70568409360E+02  0.41800000000E+01 0.  1.
        -11    1    1    2    0    0  0.25259896882E+03  0.14655469213E+03 -0.78605338316E+02  0.30242902646E+03  0.00000000000E+00 0.  1.
         11    1    1    2    0    0  0.16003010876E+03  0.24287860411E+02 -0.12361585185E+02  0.16233405268E+03  0.00000000000E+00 0. -1.
</event>
<event>
 7    1  0.2749315E-009  0.1337562E+03  0.7561462E-02  0.1221986E+00
          2   -1    0    0  501    0  0.00000000000E+00  0.00000000000E+00  0.14061282406E+04  0.14061282406E+04  0.00000000000E+00 0. -1.
         -2   -1    0    0    0  501 -0.00000000000E+00 -0.00000000000E+00 -0.20246972399E+02  0.20246972399E+02  0.00000000000E+00 0.  1.
         25    2    1    2    0    0  0.12067986239E+01 -0.92616433755E+02  0.11150585468E+04  0.11258704485E+04  0.12509773741E+03 0.  0.
          5    1    3    3  502    0 -0.49791057211E+02 -0.41271341200E+02  0.26834925298E+03  0.27606388202E+03  0.41800000000E+01 0. -1.
         -5    1    3    3    0  502  0.50997855835E+02 -0.51345092555E+02  0.84670929384E+03  0.84980656652E+03  0.41800000000E+01 0. -1.
        -11    1    1    2    0    0 -0.92015940022E+01 -0.17520732272E+02  0.40087079105E+02  0.44705920220E+02  0.00000000000E+00 0.  1.
         11    1    1    2    0    0  0.79947953783E+01  0.11013716603E+03  0.23073564225E+03  0.25579884421E+03  0.00000000000E+00 0. -1.
</event>
<event>
 7    1  0.2749315E-009  0.1115073E+03  0.7561462E-02  0.1257804E+00
         -1   -1    0    0    0  501 -0.00000000000E+00  0.00000000000E+00  0.29778928202E+02  0.29778928202E+02  0.00000000000E+00 0.  1.
          1   -1    0    0  501    0  0.00000000000E+00 -0.00000000000E+00 -0.45388693435E+03  0.45388693435E+03  0.00000000000E+00 0. -1.
         25    2    1    2    0    0  0.19408792022E+02  0.29046690387E+02 -0.18732651989E+03  0.22794349670E+03  0.12508637497E+03 0.  0.
          5    1    3    3  502    0 -0.15917123160E+01  0.76896673535E+02 -0.10231479657E+03  0.12806803640E+03  0.41800000000E+01 0. -1.
         -5    1    3    3    0  502  0.21000504338E+02 -0.47849983148E+02 -0.85011723316E+02  0.99875460304E+02  0.41800000000E+01 0. -1.
        -11    1    1    2    0    0 -0.53548862514E+02 -0.25286684984E+02 -0.17857180063E+03  0.18813501826E+03  0.00000000000E+00 0. -1.
         11    1    1    2    0    0  0.34140070492E+02 -0.37600054033E+01 -0.58209685627E+02  0.67587347593E+02  0.00000000000E+00 0.  1.
</event>
<event>
 7    1  0.2749315E-009  0.1043028E+03  0.7561462E-02  0.1271499E+00
         -2   -1    0    0    0  501 -0.00000000000E+00  0.00000000000E+00  0.12696384742E+03  0.12696384742E+03  0.00000000000E+00 0.  1.
          2   -1    0    0  501    0  0.00000000000E+00 -0.00000000000E+00 -0.17580256536E+03  0.17580256536E+03  0.00000000000E+00 0. -1.
         25    2    1    2    0    0  0.72273287468E+01  0.70154622941E+02  0.48421205987E+02  0.15154520191E+03  0.12508968635E+03 0.  0.
          5    1    3    3  502    0 -0.26169427808E+02  0.20140187346E+02  0.77697817163E+02  0.84527446963E+02  0.41800000000E+01 0.  1.
         -5    1    3    3    0  502  0.33396756555E+02  0.50014435595E+02 -0.29276611175E+02  0.67017754948E+02  0.41800000000E+01 0.  1.
        -11    1    1    2    0    0 -0.39456099534E+02 -0.18391767492E+01 -0.25378396755E+02  0.46949221329E+02  0.00000000000E+00 0. -1.
         11    1    1    2    0    0  0.32228770787E+02 -0.68315446192E+02 -0.71881527172E+02  0.10427198954E+03  0.00000000000E+00 0.  1.
</event>
<event>
 7    1  0.2749315E-009  0.1042393E+03  0.7561462E-02  0.1271626E+00
          1   -1    0    0  501    0  0.00000000000E+00  0.00000000000E+00  0.77480649805E+03  0.77480649805E+03  0.00000000000E+00 0. -1.
         -1   -1    0    0    0  501 -0.00000000000E+00 -0.00000000000E+00 -0.21721013942E+02  0.21721013942E+02  0.00000000000E+00 0.  1.
         25    2    1    2    0    0  0.41374695312E+02  0.54298513942E+02  0.35425677307E+03  0.38184446829E+03  0.12508853931E+03 0.  0.
          5    1    3    3  502    0 -0.22147530189E+02  0.23666591651E+02  0.26964073737E+03  0.27161410181E+03  0.41800000000E+01 0.  1.
         -5    1    3    3    0  502  0.63522225501E+02  0.30631922291E+02  0.84616035703E+02  0.11023036648E+03  0.41800000000E+01 0.  1.
        -11    1    1    2    0    0 -0.25292234164E+01 -0.64848913640E+02  0.16301438134E+03  0.17545787841E+03  0.00000000000E+00 0.  1.
         11    1    1    2    0    0 -0.38845471896E+02  0.10550399698E+02  0.23581432970E+03  0.23922516530E+03  0.00000000000E+00 0. -1.
</event>
<event>
 7    1  0.2749315E-009  0.1187251E+03  0.7561462E-02  0.1245215E+00
         -1   -1    0    0    0  501 -0.00000000000E+00  0.00000000000E+00  0.16454276861E+03  0.16454276861E+03  0.00000000000E+00 0.  1.
          1   -1    0    0  501    0  0.00000000000E+00 -0.00000000000E+00 -0.93895078484E+02  0.93895078484E+02  0.00000000000E+00 0. -1.
         25    2    1    2    0    0  0.40205620249E+02 -0.44330287991E+02  0.41561067946E+02  0.14476245499E+03  0.12508868723E+03 0.  0.
          5    1    3    3  502    0 -0.44255776432E+02 -0.10909796815E+02  0.26236089187E+01  0.45847062479E+02  0.41800000000E+01 0.  1.
         -5    1    3    3    0  502  0.84461396682E+02 -0.33420491177E+02  0.38937459027E+02  0.98915392510E+02  0.41800000000E+01 0.  1.
        -11    1    1    2    0    0 -0.64960201642E+02  0.37759438031E+02  0.29111394449E+00  0.75137791458E+02  0.00000000000E+00 0. -1.
         11    1    1    2    0    0  0.24754581393E+02  0.65708499601E+01  0.28795508240E+02  0.38537600651E+02  0.00000000000E+00 0.  1.
</event>
<event>
 7    1  0.2749315E-009  0.1010610E+03  0.7561462E-02  0.1278081E+00
         -1   -1    0    0    0  501 -0.00000000000E+00  0.00000000000E+00  0.48556127167E+02  0.48556127167E+02  0.00000000000E+00 0.  1.
          1   -1    0    0  501    0  0.00000000000E+00 -0.00000000000E+00 -0.33879602750E+03  0.33879602750E+03  0.00000000000E+00 0. -1.
         25    2    1    2    0    0  0.37117616895E+02 -0.49604425910E+02 -0.11757955136E+03  0.18251003492E+03  0.12508655160E+03 0.  0.
          5    1    3    3  502    0 -0.16862527635E+02 -0.67070580368E+02 -0.10238887361E+03  0.12362751080E+03  0.41800000000E+01 0. -1.
         -5    1    3    3    0  502  0.53980144530E+02  0.17466154458E+02 -0.15190677757E+02  0.58882524112E+02  0.41800000000E+01 0. -1.
        -11    1    1    2    0    0  0.97304417166E+01  0.14258841300E+02  0.48100947791E+01  0.17920185909E+02  0.00000000000E+00 0.  1.
         11    1    1    2    0    0 -0.46848058612E+02  0.35345584610E+02 -0.17747044375E+03  0.18692193384E+03  0.00000000000E+00 0. -1.
</event>
<event>
 7    1  0.2749315E-009  0.1282293E+03  0.7561462E-02  0.1230107E+00
          1   -1    0    0  501    0  0.00000000000E+00  0.00000000000E+00  0.50786422730E+02  0.50786422730E+02  0.00000000000E+00 0. -1.
         -1   -1    0    0    0  501 -0.00000000000E+00 -0.00000000000E+00 -0.43844017780E+03  0.43844017780E+03  0.00000000000E+00 0.  1.
         25    2    1    2    0    0 -0.23513168560E+01  0.93858848363E+02 -0.14820846706E+03  0.21547208104E+03  0.12508979132E+03 0.  0.
          5    1    3    3  502    0 -0.41082649328E+02  0.55760995595E+02 -0.14221601316E+02  0.70829365729E+02  0.41800000000E+01 0. -1.
         -5    1    3    3    0  502  0.38731332472E+02  0.38097852768E+02 -0.13398686575E+03  0.14464271531E+03  0.41800000000E+01 0. -1.
        -11    1    1    2    0    0 -0.40014527349E+02 -0.14384422465E+02 -0.82077266449E+02  0.92437826004E+02  0.00000000000E+00 0.  1.
         11    1    1    2    0    0  0.42365844205E+02 -0.79474425898E+02 -0.15736802156E+03  0.18131669349E+03  0.00000000000E+00 0. -1.
</event>
<event>
 7    1  0.2749315E-009  0.1150208E+03  0.7561462E-02  0.1251545E+00
         -2   -1    0    0    0  501 -0.00000000000E+00  0.00000000000E+00  0.22601558873E+03  0.22601558873E+03  0.00000000000E+00 0.  1.
          2   -1    0    0  501    0  0.00000000000E+00 -0.00000000000E+00 -0.99741148358E+02  0.99741148358E+02  0.00000000000E+00 0. -1.
         25    2    1    2    0    0  0.28361767120E+02 -0.96905913007E+02  0.89627830529E+02  0.18405374746E+03  0.12508992021E+03 0.  0.
          5    1    3    3  502    0 -0.85960298659E+00 -0.98354268632E+02  0.98032496224E+01  0.98933700924E+02  0.41800000000E+01 0. -1.
         -5    1    3    3    0  502  0.29221370107E+02  0.14483556244E+01  0.79824580906E+02  0.85120046533E+02  0.41800000000E+01 0. -1.
        -11    1    1    2    0    0 -0.11922705043E+02  0.65662377552E+02 -0.24504244002E+02  0.71092592409E+02  0.00000000000E+00 0. -1.
         11    1    1    2    0    0 -0.16439062077E+02  0.31243535455E+02  0.61150853843E+02  0.70610397219E+02  0.00000000000E+00 0.  1.
</event>
<event>
 7    1  0.2749315E-009  0.1170153E+03  0.7561462E-02  0.1248104E+00
          4   -1    0    0  501    0  0.00000000000E+00  0.00000000000E+00  0.36421802942E+02  0.36421802942E+02  0.00000000000E+00 0. -1.
         -4   -1    0    0    0  501 -0.00000000000E+00 -0.00000000000E+00 -0.48234266176E+03  0.48234266176E+03  0.00000000000E+00 0.  1.
         25    2    1    2    0    0 -0.64879006621E+02  0.35717559013E+02 -0.21116479560E+03  0.25636064690E+03  0.12508069737E+03 0.  0.
          5    1    3    3  502    0 -0.82485008283E+02 -0.37137964035E+01 -0.19178124727E+03  0.20884225645E+03  0.41800000000E+01 0. -1.
         -5    1    3    3    0  502  0.17606001662E+02  0.39431355416E+02 -0.19383548329E+02  0.47518390443E+02  0.41800000000E+01 0. -1.
        -11    1    1    2    0    0  0.59375812842E+02  0.11461624891E+02 -0.78521822966E+02  0.99108691232E+02  0.00000000000E+00 0. -1.
         11    1    1    2    0    0  0.55031937794E+01 -0.47179183904E+02 -0.15623424025E+03  0.16329512657E+03  0.00000000000E+00 0.  1.
</event>
<event>
 7    1  0.2749315E-009  0.1089684E+03  0.7561462E-02  0.1262492E+00
         -3   -1    0    0    0  501 -0.00000000000E+00  0.00000000000E+00  0.15052632082E+03  0.15052632082E+03  0.00000000000E+00 0.  1.
          3   -1    0    0  501    0  0.00000000000E+00 -0.00000000000E+00 -0.84422080586E+02  0.84422080586E+02  0.00000000000E+00 0. -1.
         25    2    1    2    0    0 -0.10691923049E+02  0.81566734672E+01  0.23135366259E+02  0.12792106386E+03  0.12509078650E+03 0.  0.
          5    1    3    3  502    0 -0.24874289874E+02 -0.55230547162E+02  0.11750879688E+02  0.61844152593E+02  0.41800000000E+01 0.  1.
         -5    1    3    3    0  502  0.14182366826E+02  0.63387220629E+02  0.11384486572E+02  0.66076911265E+02  0.41800000000E+01 0.  1.
        -11    1    1    2    0    0 -0.40534399384E+02 -0.42075668001E+01  0.37462075663E+02  0.55354749252E+02  0.00000000000E+00 0.  1.
         11    1    1    2    0    0  0.51226322432E+02 -0.39491066672E+01  0.55067983107E+01  0.51672588295E+02  0.00000000000E+00 0. -1.
</event>
<event>
 7    1  0.2749315E-009  0.1259402E+03  0.7561462E-02  0.1233607E+00
         -2   -1    0    0    0  501 -0.00000000000E+00  0.00000000000E+00  0.38053317344E+02  0.38053317344E+02  0.00000000000E+00 0.  1.
          2   -1    0    0  501    0  0.00000000000E+00 -0.00000000000E+00 -0.74866519197E+03  0.74866519197E+03  0.00000000000E+00 0. -1.
         25    2    1    2    0    0  0.76660614042E+02  0.56304360308E+02 -0.57448524076E+03  0.59558898341E+03  0.12508363032E+03 0.  0.
          5    1    3    3  502    0 -0.81526648331E+00  0.40311994113E+02 -0.46476883850E+02  0.61670857471E+02  0.41800000000E+01 0. -1.
         -5    1    3    3    0  502  0.77475880526E+02  0.15992366195E+02 -0.52800835691E+03  0.53391812594E+03  0.41800000000E+01 0. -1.
        -11    1    1    2    0    0 -0.49170443204E+02  0.18417241251E+02 -0.70776575504E+02  0.88126334885E+02  0.00000000000E+00 0. -1.
         11    1    1    2    0    0 -0.27490170838E+02 -0.74721601559E+02 -0.65350058368E+02  0.10300319102E+03  0.00000000000E+00 0.  1.
</event>
<event>
 7    1  0.2749315E-009  0.9993970E+02  0.7561462E-02  0.1280423E+00
         -1   -1    0    0    0  501 -0.00000000000E+00  0.00000000000E+00  0.41038316760E+02  0.41038316760E+02  0.00000000000E+00 0.  1.
          1   -1    0    0  501    0  0.00000000000E+00 -0.00000000000E+00 -0.39103155960E+03  0.39103155960E+03  0.00000000000E+00 0. -1.
         25    2    1    2    0    0  0.63650374622E+02  0.13924764731E+02 -0.20611480642E+03  0.24975115201E+03  0.12508818986E+03 0.  0.
          5    1    3    3  502    0  0.69477717815E+00 -0.42777729668E+02 -0.24934467809E+02  0.49695240776E+02  0.41800000000E+01 0. -1.
         -5    1    3    3    0  502  0.62955597444E+02  0.56702494399E+02 -0.18118033862E+03  0.20005591124E+03  0.41800000000E+01 0. -1.
        -11    1    1    2    0    0 -0.23928029533E+02  0.97299363767E+01 -0.13211095635E+03  0.13461250703E+03  0.00000000000E+00 0. -1.
         11    1    1    2    0    0 -0.39722345089E+02 -0.23654701107E+02 -0.11767480059E+02  0.47706217318E+02  0.00000000000E+00 0.  1.
</event>
<event>
 7    1  0.2749315E-009  0.1733471E+03  0.7561462E-02  0.1174402E+00
          2   -1    0    0  501    0  0.00000000000E+00  0.00000000000E+00  0.35364699094E+03  0.35364699094E+03  0.00000000000E+00 0. -1.
         -2   -1    0    0    0  501 -0.00000000000E+00 -0.00000000000E+00 -0.91380683106E+02  0.91380683106E+02  0.00000000000E+00 0.  1.
         25    2    1    2    0    0  0.29476262104E+02 -0.13772481189E+03  0.10997279313E+03  0.21812529847E+03  0.12509059423E+03 0.  0.
          5    1    3    3  502    0 -0.36180202433E+02 -0.10367237996E+03  0.42159473359E+02  0.11769393785E+03  0.41800000000E+01 0. -1.
         -5    1    3    3    0  502  0.65656464537E+02 -0.34052431933E+02  0.67813319773E+02  0.10043136061E+03  0.41800000000E+01 0. -1.
        -11    1    1    2    0    0 -0.58034765563E+02  0.88867124635E+02  0.70424179589E+02  0.12737725435E+03  0.00000000000E+00 0.  1.
         11    1    1    2    0    0  0.28558503459E+02  0.48857687254E+02  0.81869335108E+02  0.99525121224E+02  0.00000000000E+00 0. -1.
</event>
<event>
 7    1  0.2749315E-009  0.1081246E+03  0.7561462E-02  0.1264083E+00
         -2   -1    0    0    0  501 -0.00000000000E+00  0.00000000000E+00  0.33900145090E+02  0.33900145090E+02  0.00000000000E+00 0.  1.
          2   -1    0    0  501    0  0.00000000000E+00 -0.00000000000E+00 -0.39735893549E+03  0.39735893549E+03  0.00000000000E+00 0. -1.
         25    2    1    2    0    0  0.65555472983E+01  0.34159343575E+02 -0.16187613805E+03  0.20751044844E+03  0.12508743416E+03 0.  0.
          5    1    3    3  502    0  0.31991920029E+02  0.69704968348E+02 -0.13695202182E+03  0.15702099936E+03  0.41800000000E+01 0.  1.
         -5    1    3    3    0  502 -0.25436372731E+02 -0.35545624773E+02 -0.24924116237E+02  0.50489449080E+02  0.41800000000E+01 0.  1.
        -11    1    1    2    0    0 -0.15235556317E-01  0.30520760022E+02 -0.46857584663E+02  0.55920928684E+02  0.00000000000E+00 0.  1.
         11    1    1    2    0    0 -0.65403117420E+01 -0.64680103597E+02 -0.15472506769E+03  0.16782770346E+03  0.00000000000E+00 0. -1.
</event>
<event>
 7    1  0.2749315E-009  0.9918536E+02  0.7561462E-02  0.1282018E+00
          2   -1    0    0  501    0  0.00000000000E+00  0.00000000000E+00  0.36886167354E+03  0.36886167354E+03  0.00000000000E+00 0.  1.
         -2   -1    0    0    0  501 -0.00000000000E+00 -0.00000000000E+00 -0.38917126718E+02  0.38917126718E+02  0.00000000000E+00 0. -1.
         25    2    1    2    0    0 -0.32150778817E+02 -0.24015470605E+02  0.14597917827E+03  0.19638772747E+03  0.12509118116E+03 0.  0.
          5    1    3    3  502    0 -0.54775282478E+02  0.28807283747E+02  0.34695334586E+02  0.71073411410E+02  0.41800000000E+01 0.  1.
         -5    1    3    3    0  502  0.22624503661E+02 -0.52822754353E+02  0.11128384368E+03  0.12531431605E+03  0.41800000000E+01 0.  1.
        -11    1    1    2    0    0 -0.85782446618E+01  0.35408561179E+02  0.15714088574E+03  0.16130905262E+03  0.00000000000E+00 0.  1.
         11    1    1    2    0    0  0.40729023479E+02 -0.11393090573E+02  0.26824482811E+02  0.50082020171E+02  0.00000000000E+00 0. -1.
</event>
<event>
 7    1  0.2749315E-009  0.1255291E+03  0.7561462E-02  0.1234245E+00
         -1   -1    0    0    0  501 -0.00000000000E+00  0.00000000000E+00  0.23296488834E+02  0.23296488834E+02  0.00000000000E+00 0.  1.
          1   -1    0    0  501    0  0.00000000000E+00 -0.00000000000E+00 -0.79172993214E+03  0.79172993214E+03  0.00000000000E+00 0. -1.
         25    2    1    2    0    0 -0.95762010023E+01 -0.65588568422E+02 -0.28127492512E+03  0.31489145898E+03  0.12508990169E+03 0.  0.
          5    1    3    3  502    0  0.15319372328E+02  0.33023315995E+02 -0.10658742679E+03  0.11271013494E+03  0.41800000000E+01 0.  1.
         -5    1    3    3    0  502 -0.24895573330E+02 -0.98611884416E+02 -0.17468749833E+03  0.20218132405E+03  0.41800000000E+01 0.  1.
        -11    1    1    2    0    0 -0.89317211734E+01  0.85194803731E+02 -0.34794363779E+03  0.35833323220E+03  0.00000000000E+00 0.  1.
         11    1    1    2    0    0  0.18507922176E+02 -0.19606235310E+02 -0.13921488040E+03  0.14180172978E+03  0.00000000000E+00 0. -1.
</event>
<event>
 7    1  0.2749315E-009  0.7442192E+02  0.7561462E-02  0.1345671E+00
          1   -1    0    0  501    0  0.00000000000E+00  0.00000000000E+00  0.30652204099E+02  0.30652204099E+02  0.00000000000E+00 0. -1.
         -1   -1    0    0    0  501 -0.00000000000E+00 -0.00000000000E+00 -0.44834181849E+03  0.44834181849E+03  0.00000000000E+00 0.  1.
         25    2    1    2    0    0  0.32548261303E+02  0.13306706816E+02 -0.29629469618E+03  0.32353354351E+03  0.12508776531E+03 0.  0.
          5    1    3    3  502    0  0.29956363905E+02 -0.12451554569E+02 -0.29549281489E+03  0.29729766397E+03  0.41800000000E+01 0.  1.
         -5    1    3    3    0  502  0.25918973988E+01  0.25758261385E+02 -0.80188129283E+00  0.26235879541E+02  0.41800000000E+01 0.  1.
        -11    1    1    2    0    0  0.18039959857E+02  0.21828546589E+02 -0.13842993566E+02  0.31520692707E+02  0.00000000000E+00 0. -1.
         11    1    1    2    0    0 -0.50588221160E+02 -0.35135253405E+02 -0.10755192464E+03  0.12393978637E+03  0.00000000000E+00 0.  1.
</event>
<event>
 7    1  0.2749315E-009  0.1154629E+03  0.7561462E-02  0.1250775E+00
          4   -1    0    0  501    0  0.00000000000E+00  0.00000000000E+00  0.14273588901E+03  0.14273588901E+03  0.00000000000E+00 0. -1.
         -4   -1    0    0    0  501 -0.00000000000E+00 -0.00000000000E+00 -0.13481100119E+03  0.13481100119E+03  0.00000000000E+00 0.  1.
         25    2    1    2    0    0 -0.69717845992E+02  0.16812338399E+02  0.49040032325E+02  0.15230548646E+03  0.12509517842E+03 0.  0.
          5    1    3    3  502    0 -0.23673953996E+02 -0.50794835855E+02  0.41887344780E+02  0.70089895848E+02  0.41800000000E+01 0. -1.
         -5    1    3    3    0  502 -0.46043891996E+02  0.67607174254E+02  0.71526875450E+01  0.82215590614E+02  0.41800000000E+01 0. -1.
        -11    1    1    2    0    0  0.43603801862E+02 -0.39044177535E+02 -0.61858900318E+02  0.85160218909E+02  0.00000000000E+00 0.  1.
         11    1    1    2    0    0  0.26114044131E+02  0.22231839135E+02  0.20743755807E+02  0.40081184828E+02  0.00000000000E+00 0. -1.
</event>
<event>
 7    1  0.2749315E-009  0.1204254E+03  0.7561462E-02  0.1242397E+00
          2   -1    0    0  501    0  0.00000000000E+00  0.00000000000E+00  0.10313696744E+04  0.10313696744E+04  0.00000000000E+00 0. -1.
         -2   -1    0    0    0  501 -0.00000000000E+00 -0.00000000000E+00 -0.35738658686E+02  0.35738658686E+02  0.00000000000E+00 0.  1.
         25    2    1    2    0    0  0.52714774978E+02  0.82458052855E+02  0.86680927928E+03  0.88124103495E+03  0.12509699059E+03 0.  0.
          5    1    3    3  502    0  0.57791373217E+02  0.97120949775E+02  0.85172579755E+03  0.85920115708E+03  0.41800000000E+01 0.  1.
         -5    1    3    3    0  502 -0.50765982392E+01 -0.14662896920E+02  0.15083481728E+02  0.22039877877E+02  0.41800000000E+01 0.  1.
        -11    1    1    2    0    0 -0.28610782466E+02 -0.31323165251E+01 -0.42380054895E+01  0.29092077455E+02  0.00000000000E+00 0.  1.
         11    1    1    2    0    0 -0.24103992512E+02 -0.79325736330E+02  0.13305974194E+03  0.15677522070E+03  0.00000000000E+00 0. -1.
</event>
<event>
 7    1  0.2749315E-009  0.1596359E+03  0.7561462E-02  0.1189108E+00
          1   -1    0    0  501    0  0.00000000000E+00  0.00000000000E+00  0.10720655989E+03  0.10720655989E+03  0.00000000000E+00 0. -1.
         -1   -1    0    0    0  501 -0.00000000000E+00 -0.00000000000E+00 -0.33676519333E+03  0.33676519333E+03  0.00000000000E+00 0.  1.
         25    2    1    2    0    0  0.88218424607E+02 -0.12485687345E+03 -0.15244260960E+03  0.24951510543E+03  0.12508920549E+03 0.  0.
          5    1    3    3  502    0  0.20143211513E+02 -0.58728179215E+02 -0.14063335165E+03  0.15378543494E+03  0.41800000000E+01 0. -1.
         -5    1    3    3    0  502  0.68075213094E+02 -0.66128694237E+02 -0.11809257949E+02  0.95729670492E+02  0.41800000000E+01 0. -1.
        -11    1    1    2    0    0 -0.52145349760E+02  0.29090213257E+02  0.94059100715E+01  0.60447077293E+02  0.00000000000E+00 0. -1.
         11    1    1    2    0    0 -0.36073074847E+02  0.95766660194E+02 -0.86521933915E+02  0.13400957049E+03  0.00000000000E+00 0.  1.
</event>
<event>
 7    1  0.2749315E-009  0.1098193E+03  0.7561462E-02  0.1260905E+00
         -3   -1    0    0    0  501 -0.00000000000E+00  0.00000000000E+00  0.14442264707E+02  0.14442264707E+02  0.00000000000E+00 0.  1.
          3   -1    0    0  501    0  0.00000000000E+00 -0.00000000000E+00 -0.10036694887E+04  0.10036694887E+04  0.00000000000E+00 0. -1.
         25    2    1    2    0    0  0.20410628777E+02 -0.47255007032E+02 -0.59661333788E+03  0.61175506302E+03  0.12508857956E+03 0.  0.
          5    1    3    3  502    0 -0.41713748040E+02 -0.42986218855E+01 -0.37967157344E+03  0.38200326047E+03  0.41800000000E+01 0. -1.
         -5    1    3    3    0  502  0.62124376817E+02 -0.42956385147E+02 -0.21694176444E+03  0.22975180256E+03  0.41800000000E+01 0. -1.
        -11    1    1    2    0    0 -0.19551928949E+02 -0.23794233458E+02 -0.78915995820E+02  0.84712324179E+02  0.00000000000E+00 0. -1.
         11    1    1    2    0    0 -0.85869982816E+00  0.71049240490E+02 -0.31369789029E+03  0.32164436621E+03  0.00000000000E+00 0.  1.
</event>
<event>
 7    1  0.2749315E-009  0.1364011E+03  0.7561462E-02  0.1218255E+00
          2   -1    0    0  501    0  0.00000000000E+00  0.00000000000E+00  0.89056413988E+03  0.89056413988E+03  0.00000000000E+00 0. -1.
         -2   -1    0    0    0  501 -0.00000000000E+00 -0.00000000000E+00 -0.28882789207E+02  0.28882789207E+02  0.00000000000E+00 0.  1.
         25    2    1    2    0    0  0.19591337678E+02 -0.10442912833E+03  0.64132154551E+03  0.66198888323E+03  0.12508674360E+03 0.  0.
          5    1    3    3  502    0  0.48350752357E+02 -0.99280307117E+02  0.60584321669E+03  0.61583914316E+03  0.41800000000E+01 0.  1.
         -5    1    3    3    0  502 -0.28759414679E+02 -0.51488212092E+01  0.35478328819E+02  0.46149740067E+02  0.41800000000E+01 0.  1.
        -11    1    1    2    0    0  0.15791522940E+02  0.94806556569E+02  0.16769476403E+03  0.19328525357E+03  0.00000000000E+00 0. -1.
         11    1    1    2    0    0 -0.35382860618E+02  0.96225717570E+01  0.52665041132E+02  0.64172792289E+02  0.00000000000E+00 0.  1.
</event>
<event>
 7    1  0.2749315E-009  0.1352664E+03  0.7561462E-02  0.1219844E+00
          1   -1    0    0  501    0  0.00000000000E+00  0.00000000000E+00  0.50718719123E+03  0.50718719123E+03  0.00000000000E+00 0. -1.
         -1   -1    0    0    0  501 -0.00000000000E+00 -0.00000000000E+00 -0.42788507987E+02  0.42788507987E+02  0.00000000000E+00 0.  1.
         25    2    1    2    0    0 -0.88012142092E+02  0.27450539591E+02  0.35221074528E+03  0.38496732062E+03  0.12509100517E+03 0.  0.
          5    1    3    3  502    0  0.23751933667E-01  0.59915651163E+02  0.16331595199E+03  0.17400993763E+03  0.41800000000E+01 0.  1.
         -5    1    3    3    0  502 -0.88035894025E+02 -0.32465111572E+02  0.18889479329E+03  0.21095738299E+03  0.41800000000E+01 0.  1.
        -11    1    1    2    0    0  0.92479208995E+02 -0.41822934412E+02  0.11021404835E+03  0.14982889706E+03  0.00000000000E+00 0.  1.
         11    1    1    2    0    0 -0.44670669038E+01  0.14372394821E+02  0.19738896084E+01  0.15179481539E+02  0.00000000000E+00 0. -1.
</event>
<event>
 7    1  0.2749315E-009  0.1086481E+03  0.7561462E-02  0.1263094E+00
          1   -1    0    0  501    0  0.00000000000E+00  0.00000000000E+00  0.44823450112E+03  0.44823450112E+03  0.00000000000E+00 0. -1.
         -1   -1    0    0    0  501 -0.00000000000E+00 -0.00000000000E+00 -0.32010166037E+02  0.32010166037E+02  0.00000000000E+00 0.  1.
         25    2    1    2    0    0 -0.62289252034E+01  0.47420493298E+02  0.20605613024E+03  0.24575362813E+03  0.12509282248E+03 0.  0.
          5    1    3    3  502    0  0.52262283633E+02 -0.30123891700E+01  0.54986226297E+02  0.76035375066E+02  0.41800000000E+01 0. -1.
         -5    1    3    3    0  502 -0.58491208837E+02  0.50432882468E+02  0.15106990394E+03  0.16971825306E+03  0.41800000000E+01 0. -1.
        -11    1    1    2    0    0 -0.14217414240E+02 -0.61167459370E+02  0.78452078400E+02  0.10049040531E+03  0.00000000000E+00 0.  1.
         11    1    1    2    0    0  0.20446339443E+02  0.13746966072E+02  0.13171612645E+03  0.13400063373E+03  0.00000000000E+00 0. -1.
</event>
<event>
 7    1  0.2749315E-009  0.1044772E+03  0.7561462E-02  0.1271153E+00
          1   -1    0    0  501    0  0.00000000000E+00  0.00000000000E+00  0.50060981307E+03  0.50060981307E+03  0.00000000000E+00 0. -1.
         -1   -1    0    0    0  501 -0.00000000000E+00 -0.00000000000E+00 -0.32439082232E+02  0.32439082232E+02  0.00000000000E+00 0.  1.
         25    2    1    2    0    0 -0.34473475328E+02  0.59284180032E+02  0.24224161746E+03  0.28112580355E+03  0.12509069384E+03 0.  0.
          5    1    3    3  502    0  0.33819155840E+01 -0.15119850015E+02  0.16968434486E+03  0.17044147531E+03  0.41800000000E+01 0.  1.
         -5    1    3    3    0  502 -0.37855390912E+02  0.74404030047E+02  0.72557272606E+02  0.11068432823E+03  0.41800000000E+01 0.  1.
        -11    1    1    2    0    0  0.30953965367E+01  0.21986952169E+02  0.68341889160E+02  0.71858342309E+02  0.00000000000E+00 0. -1.
         11    1    1    2    0    0  0.31378078792E+02 -0.81271132201E+02  0.15758722422E+03  0.18006474945E+03  0.00000000000E+00 0.  1.
</event>
<event>
 7    1  0.2749315E-009  0.1153117E+03  0.7561462E-02  0.1251038E+00
          2   -1    0    0  501    0  0.00000000000E+00  0.00000000000E+00  0.16609848526E+03  0.16609848526E+03  0.00000000000E+00 0. -1.
         -2   -1    0    0    0  501 -0.00000000000E+00 -0.00000000000E+00 -0.11317489407E+03  0.11317489407E+03  0.00000000000E+00 0.  1.
         25    2    1    2    0    0 -0.70892710851E+02  0.10652328263E+02 -0.61302565993E+01  0.14430588736E+03  0.12508941015E+03 0.  0.
          5    1    3    3  502    0 -0.85762846937E+02  0.23704184085E+02  0.37166536135E+02  0.96519314472E+02  0.41800000000E+01 0. -1.
         -5    1    3    3    0  502  0.14870136086E+02 -0.13051855822E+02 -0.43296792734E+02  0.47786572891E+02  0.41800000000E+01 0. -1.
        -11    1    1    2    0    0  0.95538436253E+02 -0.13605819184E+02  0.48325148592E+02  0.10792604460E+03  0.00000000000E+00 0. -1.
         11    1    1    2    0    0 -0.24645725402E+02  0.29534909211E+01  0.10728699199E+02  0.27041447368E+02  0.00000000000E+00 0.  1.
</event>
<event>
 7    1  0.2749315E-009  0.1680573E+03  0.7561462E-02  0.1179889E+00
          1   -1    0    0  501    0  0.00000000000E+00  0.00000000000E+00  0.46987043354E+03  0.46987043354E+03  0.00000000000E+00 0.  1.
         -1   -1    0    0    0  501 -0.00000000000E+00 -0.00000000000E+00 -0.69296297312E+02  0.69296297312E+02  0.00000000000E+00 0. -1.
         25    2    1    2    0    0  0.95928414553E+02 -0.99133064826E+02  0.27103069427E+03  0.32883847066E+03  0.12508987685E+03 0.  0.
          5    1    3    3  502    0 -0.22274966346E+02 -0.15803307672E+02  0.82074779315E+01  0.28822799189E+02  0.41800000000E+01 0.  1.
         -5    1    3    3    0  502  0.11820338090E+03 -0.83329757154E+02  0.26282321634E+03  0.30001567147E+03  0.41800000000E+01 0.  1.
        -11    1    1    2    0    0  0.21310365160E-01  0.60286025067E+02  0.63391080302E+02  0.87480479734E+02  0.00000000000E+00 0.  1.
         11    1    1    2    0    0 -0.95949724918E+02  0.38847039759E+02  0.66152361654E+02  0.12284778045E+03  0.00000000000E+00 0. -1.
</event>
<event>
 7    1  0.2749315E-009  0.1069707E+03  0.7561462E-02  0.1266285E+00
          2   -1    0    0  501    0  0.00000000000E+00  0.00000000000E+00  0.75625926573E+02  0.75625926573E+02  0.00000000000E+00 0.  1.
         -2   -1    0    0    0  501 -0.00000000000E+00 -0.00000000000E+00 -0.18003112570E+03  0.18003112570E+03  0.00000000000E+00 0. -1.
         25    2    1    2    0    0 -0.32937314451E+02 -0.30977988512E+01 -0.83350481918E+02  0.15391911589E+03  0.12509727559E+03 0.  0.
          5    1    3    3  502    0  0.48018740776E+02 -0.27011303086E+01 -0.33328645433E+02  0.58663162011E+02  0.41800000000E+01 0.  1.
         -5    1    3    3    0  502 -0.80956055227E+02 -0.39666854261E+00 -0.50021836485E+02  0.95255953878E+02  0.41800000000E+01 0.  1.
        -11    1    1    2    0    0  0.27256016834E+01  0.38194503032E+02 -0.36520130629E+02  0.52914732425E+02  0.00000000000E+00 0. -1.
         11    1    1    2    0    0  0.30211712768E+02 -0.35096704181E+02  0.15465413419E+02  0.48823203961E+02  0.00000000000E+00 0.  1.
</event>
<event>
 7    1  0.2749315E-009  0.1225941E+03  0.7561462E-02  0.1238878E+00
          1   -1    0    0  501    0  0.00000000000E+00  0.00000000000E+00  0.29030502291E+02  0.29030502291E+02  0.00000000000E+00 0. -1.
         -1   -1    0    0    0  501 -0.00000000000E+00 -0.00000000000E+00 -0.67249175783E+03  0.67249175783E+03  0.00000000000E+00 0.  1.
         25    2    1    2    0    0  0.39226821434E+02 -0.46127774711E+02 -0.19376450631E+03  0.23845171686E+03  0.12509205509E+03 0.  0.
          5    1    3    3  502    0 -0.43801681135E+02 -0.25892343582E+02 -0.52032620834E+02  0.72896273961E+02  0.41800000000E+01 0.  1.
         -5    1    3    3    0  502  0.83028502569E+02 -0.20235431129E+02 -0.14173188548E+03  0.16555544290E+03  0.41800000000E+01 0.  1.
        -11    1    1    2    0    0  0.44488804627E+01 -0.24844173591E+02 -0.14515220172E+03  0.14733019773E+03  0.00000000000E+00 0. -1.
         11    1    1    2    0    0 -0.43675701896E+02  0.70971948303E+02 -0.30454454751E+03  0.31574034553E+03  0.00000000000E+00 0.  1.
</event>
<event>
 7    1  0.2749315E-009  0.1308619E+03  0.7561462E-02  0.1226182E+00
          4   -1    0    0  501    0  0.00000000000E+00  0.00000000000E+00  0.60028377077E+02  0.60028377077E+02  0.00000000000E+00 0. -1.
         -4   -1    0    0    0  501 -0.00000000000E+00 -0.00000000000E+00 -0.38936678089E+03  0.38936678089E+03  0.00000000000E+00 0.  1.
         25    2    1    2    0    0  0.39775501327E+02 -0.69323827365E+02 -0.27574002875E+03  0.31315729597E+03  0.12508814899E+03 0.  0.
          5    1    3    3  502    0  0.69419627377E+02 -0.78805885128E+02 -0.25421341920E+03  0.27508432724E+03  0.41800000000E+01 0. -1.
         -5    1    3    3    0  502 -0.29644126051E+02  0.94820577634E+01 -0.21526609553E+02  0.38072968726E+02  0.41800000000E+01 0. -1.
        -11    1    1    2    0    0 -0.36082945406E+02 -0.16242614621E+02 -0.18447926277E+02  0.43659219678E+02  0.00000000000E+00 0. -1.
         11    1    1    2    0    0 -0.36925559201E+01  0.85566441986E+02 -0.35150448785E+02  0.92578642316E+02  0.00000000000E+00 0.  1.
</event>
<event>
 7    1  0.2749315E-009  0.1294402E+03  0.7561462E-02  0.1228289E+00
         -2   -1    0    0    0  501 -0.00000000000E+00  0.00000000000E+00  0.21585786968E+03  0.21585786968E+03  0.00000000000E+00 0.  1.
          2   -1    0    0  501    0  0.00000000000E+00 -0.00000000000E+00 -0.78935644815E+02  0.78935644815E+02  0.00000000000E+00 0. -1.
         25    2    1    2    0    0 -0.66797509088E+02  0.12123114555E+02  0.56986305208E+02  0.15330776598E+03  0.12508778918E+03 0.  0.
          5    1    3    3  502    0 -0.10357103651E+03  0.16718791342E+02  0.40582632173E+02  0.11256509237E+03  0.41800000000E+01 0.  1.
         -5    1    3    3    0  502  0.36773527419E+02 -0.45956767870E+01  0.16403673035E+02  0.40742673611E+02  0.41800000000E+01 0.  1.
        -11    1    1    2    0    0  0.23884313253E+02  0.41517160346E+02  0.29326954114E+02  0.56162311743E+02  0.00000000000E+00 0.  1.
         11    1    1    2    0    0  0.42913195835E+02 -0.53640274901E+02  0.50608965538E+02  0.85323436763E+02  0.00000000000E+00 0. -1.
</event>
<event>
 7    1  0.2749315E-009  0.1939478E+03  0.7561462E-02  0.1154948E+00
         -2   -1    0    0    0  501 -0.00000000000E+00  0.00000000000E+00  0.23519848952E+03  0.23519848952E+03  0.00000000000E+00 0.  1.
          2   -1    0    0  501    0  0.00000000000E+00 -0.00000000000E+00 -0.34221552560E+03  0.34221552560E+03  0.00000000000E+00 0. -1.
         25    2    1    2    0    0 -0.14692905670E+03 -0.98413656884E+02  0.14157884670E+03  0.25877664542E+03  0.12508951523E+03 0.  0.
          5    1    3    3  502    0 -0.15506174443E+03 -0.52115060982E+02  0.13286512643E+03  0.21078600141E+03  0.41800000000E+01 0.  1.
         -5    1    3    3    0  502  0.81326877316E+01 -0.46298595902E+02  0.87137202688E+01  0.47990644017E+02  0.41800000000E+01 0.  1.
        -11    1    1    2    0    0  0.12243667857E+03  0.77917669660E+02 -0.24722122075E+03  0.28667095335E+03  0.00000000000E+00 0. -1.
         11    1    1    2    0    0  0.24492378123E+02  0.20495987224E+02 -0.13746620380E+01  0.31966416348E+02  0.00000000000E+00 0.  1.
</event>
<event>
 7    1  0.2749315E-009  0.9373167E+02  0.7561462E-02  0.1294058E+00
         -2   -1    0    0    0  501 -0.00000000000E+00  0.00000000000E+00  0.96065573678E+02  0.96065573678E+02  0.00000000000E+00 0.  1.
          2   -1    0    0  501    0  0.00000000000E+00 -0.00000000000E+00 -0.13946145379E+03  0.13946145379E+03  0.00000000000E+00 0. -1.
         25    2    1    2    0    0 -0.59439742277E+01  0.50846602171E+01  0.19369713988E+02  0.12681960232E+03  0.12508733395E+03 0.  0.
          5    1    3    3  502    0 -0.42850500423E+02 -0.41893114347E+02 -0.86674558497E+01  0.60694279855E+02  0.41800000000E+01 0.  1.
         -5    1    3    3    0  502  0.36906526195E+02  0.46977774564E+02  0.28037169838E+02  0.66125322466E+02  0.41800000000E+01 0.  1.
        -11    1    1    2    0    0 -0.19960295108E+02  0.22218486219E+02  0.58617099186E+01  0.30437380864E+02  0.00000000000E+00 0.  1.
         11    1    1    2    0    0  0.25904269336E+02 -0.27303146436E+02 -0.68627304022E+02  0.78270044286E+02  0.00000000000E+00 0. -1.
</event>
<event>
 7    1  0.2749315E-009  0.1194970E+03  0.7561462E-02  0.1243929E+00
         -2   -1    0    0    0  501 -0.00000000000E+00  0.00000000000E+00  0.52720713822E+02  0.52720713822E+02  0.00000000000E+00 0.  1.
          2   -1    0    0  501    0  0.00000000000E+00 -0.00000000000E+00 -0.44383460801E+03  0.44383460801E+03  0.00000000000E+00 0. -1.
         25    2    1    2    0    0  0.20543321231E+02  0.73481681401E+02 -0.33206942365E+03  0.36295844724E+03  0.12508855563E+03 0.  0.
          5    1    3    3  502    0 -0.22469216832E+02  0.76659040710E+02 -0.29587802390E+03  0.30650081836E+03  0.41800000000E+01 0.  1.
         -5    1    3    3    0  502  0.43012538064E+02 -0.31773593085E+01 -0.36191399752E+02  0.56457628881E+02  0.41800000000E+01 0.  1.
        -11    1    1    2    0    0  0.33001807147E+02 -0.14616919252E+02 -0.35465777826E+02  0.50602322083E+02  0.00000000000E+00 0. -1.
         11    1    1    2    0    0 -0.53545128379E+02 -0.58864762150E+02 -0.23578692707E+02  0.82994552507E+02  0.00000000000E+00 0.  1.
</event>
<event>
 7    1  0.2749315E-009  0.6222450E+02  0.7561462E-02  0.1388727E+00
         -1   -1    0    0    0  501 -0.00000000000E+00  0.00000000000E+00  0.56647746630E+02  0.56647746630E+02  0.00000000000E+00 0.  1.
          1   -1    0    0  501    0  0.00000000000E+00 -0.00000000000E+00 -0.41747258363E+03  0.41747258363E+03  0.00000000000E+00 0. -1.
         25    2    1    2    0    0  0.38530465802E+02  0.37828880067E+01 -0.32857530730E+03  0.35370447051E+03  0.12508482263E+03 0.  0.
          5    1    3    3  502    0  0.26422920448E+02  0.28120029096E+02 -0.32339887531E+03  0.32571952922E+03  0.41800000000E+01 0.  1.
         -5    1    3    3    0  502  0.12107545353E+02 -0.24337141089E+02 -0.51764319905E+01  0.27984941290E+02  0.41800000000E+01 0.  1.
        -11    1    1    2    0    0 -0.23600677719E-01  0.15202206528E+02 -0.64786924349E+02  0.66546624309E+02  0.00000000000E+00 0. -1.
         11    1    1    2    0    0 -0.38506865124E+02 -0.18985094535E+02  0.32537394653E+02  0.53869235441E+02  0.00000000000E+00 0.  1.
</event>
<event>
 7    1  0.2749315E-009  0.1071674E+03  0.7561462E-02  0.1265907E+00
         -1   -1    0    0    0  501 -0.00000000000E+00  0.00000000000E+00  0.33234395780E+02  0.33234395780E+02  0.00000000000E+00 0.  1.
          1   -1    0    0  501    0  0.00000000000E+00 -0.00000000000E+00 -0.37836609028E+03  0.37836609028E+03  0.00000000000E+00 0. -1.
         25    2    1    2    0    0  0.30827827559E+02  0.81261061063E+01 -0.21652851137E+03  0.25208664839E+03  0.12508674393E+03 0.  0.
          5    1    3    3  502    0  0.38550135966E+02 -0.50169907901E+02 -0.71681150036E+02  0.95701579466E+02  0.41800000000E+01 0.  1.
         -5    1    3    3    0  502 -0.77223084073E+01  0.58296014007E+02 -0.14484736133E+03  0.15638506892E+03  0.41800000000E+01 0.  1.
        -11    1    1    2    0    0 -0.61150708257E+01 -0.46188510366E+02 -0.47240961737E+02  0.66351194766E+02  0.00000000000E+00 0.  1.
         11    1    1    2    0    0 -0.24712756733E+02  0.38062404260E+02 -0.81362221389E+02  0.93162642903E+02  0.00000000000E+00 0. -1.
</event>
<event>
 7    1  0.2749315E-009  0.1183083E+03  0.7561462E-02  0.1245914E+00
          2   -1    0    0  501    0  0.00000000000E+00  0.00000000000E+00  0.34365810839E+02  0.34365810839E+02  0.00000000000E+00 0. -1.
         -2   -1    0    0    0  501 -0.00000000000E+00 -0.00000000000E+00 -0.42616459203E+03  0.42616459203E+03  0.00000000000E+00 0.  1.
         25    2    1    2    0    0  0.11585670548E+02  0.48702728070E+02 -0.18905079290E+03  0.23214688146E+03  0.12508312753E+03 0.  0.
          5    1    3    3  502    0  0.38623025918E+02 -0.30068157614E+02 -0.50601746351E+02  0.70525466089E+02  0.41800000000E+01 0.  1.
         -5    1    3    3    0  502 -0.27037355370E+02  0.78770885684E+02 -0.13844904655E+03  0.16162141537E+03  0.41800000000E+01 0.  1.
        -11    1    1    2    0    0 -0.51704055643E+02 -0.30703743968E+02 -0.13252815161E+03  0.14553260883E+03  0.00000000000E+00 0.  1.
         11    1    1    2    0    0  0.40118385094E+02 -0.17998984103E+02 -0.70219836685E+02  0.82850912581E+02  0.00000000000E+00 0. -1.
</event>
<event>
 7    1  0.2749315E-009  0.2307596E+03  0.7561462E-02  0.1126106E+00
          1   -1    0    0  501    0  0.00000000000E+00  0.00000000000E+00  0.10755009154E+03  0.10755009154E+03  0.00000000000E+00 0. -1.
         -1   -1    0    0    0  501 -0.00000000000E+00 -0.00000000000E+00 -0.53309108226E+03  0.53309108226E+03  0.00000000000E+00 0.  1.
         25    2    1    2    0    0  0.18290328321E+03 -0.10503006064E+03 -0.17803411425E+03  0.30303081679E+03  0.12508639191E+03 0.  0.
          5    1    3    3  502    0  0.22806904522E+02 -0.77436726818E+02 -0.41969772384E+02  0.91079831731E+02  0.41800000000E+01 0. -1.
         -5    1    3    3    0  502  0.16009637868E+03 -0.27593333825E+02 -0.13606434187E+03  0.21195098506E+03  0.41800000000E+01 0. -1.
        -11    1    1    2    0    0 -0.12731022422E+03  0.10086809813E+03 -0.22497264363E+03  0.27747965113E+03  0.00000000000E+00 0.  1.
         11    1    1    2    0    0 -0.55593058986E+02  0.41619625151E+01 -0.22534232836E+02  0.60130705874E+02  0.00000000000E+00 0. -1.
</event>
<event>
 7    1  0.2749315E-009  0.1274448E+03  0.7561462E-02  0.1231297E+00
          1   -1    0    0  501    0  0.00000000000E+00  0.00000000000E+00  0.38849345084E+03  0.38849345084E+03  0.00000000000E+00 0. -1.
         -1   -1    0    0    0  501 -0.00000000000E+00 -0.00000000000E+00 -0.49730163060E+02  0.49730163060E+02  0.00000000000E+00 0.  1.
         25    2    1    2    0    0  0.32805326306E+02  0.75447005064E+02  0.23444679852E+03  0.27817851806E+03  0.12509814774E+03 0.  0.
          5    1    3    3  502    0  0.59453202828E+02 -0.31692530885E+01  0.58425535741E+02  0.83520914257E+02  0.41800000000E+01 0. -1.
         -5    1    3    3    0  502 -0.26647876522E+02  0.78616258153E+02  0.17602126278E+03  0.19465760380E+03  0.41800000000E+01 0. -1.
        -11    1    1    2    0    0 -0.18194954452E+02 -0.89790916577E+02  0.10526320346E+03  0.13954858319E+03  0.00000000000E+00 0. -1.
         11    1    1    2    0    0 -0.14610371854E+02  0.14343911513E+02 -0.94671419565E+00  0.20496512654E+02  0.00000000000E+00 0.  1.
</event>
<event>
 7    1  0.2749315E-009  0.9040504E+02  0.7561462E-02  0.1301874E+00
         -2   -1    0    0    0  501 -0.00000000000E+00  0.00000000000E+00  0.58379559553E+03  0.58379559553E+03  0.00000000000E+00 0. -1.
          2   -1    0    0  501    0  0.00000000000E+00 -0.00000000000E+00 -0.30365134462E+02  0.30365134462E+02  0.00000000000E+00 0.  1.
         25    2    1    2    0    0  0.55110732422E+02 -0.39585625310E+02  0.22211517980E+03  0.26379099275E+03  0.12508525172E+03 0.  0.
          5    1    3    3  502    0  0.20951695094E+02 -0.24421757012E+02 -0.56550890524E+01  0.32937033489E+02  0.41800000000E+01 0.  1.
         -5    1    3    3    0  502  0.34159037328E+02 -0.15163868298E+02  0.22777026885E+03  0.23085395926E+03  0.41800000000E+01 0.  1.
        -11    1    1    2    0    0 -0.52409800751E+02  0.65958055894E+02  0.21159058375E+03  0.22774509321E+03  0.00000000000E+00 0.  1.
         11    1    1    2    0    0 -0.27009316709E+01 -0.26372430584E+02  0.11972469752E+03  0.12262464403E+03  0.00000000000E+00 0. -1.
</event>
<event>
 7    1  0.2749315E-009  0.1565778E+03  0.7561462E-02  0.1192616E+00
          2   -1    0    0  501    0  0.00000000000E+00  0.00000000000E+00  0.21340761355E+03  0.21340761355E+03  0.00000000000E+00 0. -1.
         -2   -1    0    0    0  501 -0.00000000000E+00 -0.00000000000E+00 -0.12717435862E+03  0.12717435862E+03  0.00000000000E+00 0.  1.
         25    2    1    2    0    0  0.11649043023E+03  0.17116763156E+02  0.79407301335E+02  0.18925055834E+03  0.12508896999E+03 0.  0.
          5    1    3    3  502    0  0.14740704974E+02 -0.42236588506E+02  0.51072726999E+02  0.68022890521E+02  0.41800000000E+01 0. -1.
         -5    1    3    3    0  502  0.10174972525E+03  0.59353351661E+02  0.28334574336E+02  0.12122766782E+03  0.41800000000E+01 0. -1.
        -11    1    1    2    0    0 -0.82804076942E+02  0.33690547155E+02  0.11788535773E+02  0.90169494296E+02  0.00000000000E+00 0. -1.
         11    1    1    2    0    0 -0.33686353285E+02 -0.50807310310E+02 -0.49625821828E+01  0.61161919529E+02  0.00000000000E+00 0.  1.
</event>
<event>
 7    1  0.2749315E-009  0.1498093E+03  0.7561462E-02  0.1200708E+00
         -2   -1    0    0    0  501 -0.00000000000E+00  0.00000000000E+00  0.77685790629E+02  0.77685790629E+02  0.00000000000E+00 0. -1.
          2   -1    0    0  501    0  0.00000000000E+00 -0.00000000000E+00 -0.36764980905E+03  0.36764980905E+03  0.00000000000E+00 0.  1.
         25    2    1    2    0    0  0.10562984369E+03  0.11353001462E+02 -0.25297301049E+03  0.30154747277E+03  0.12509588235E+03 0.  0.
          5    1    3    3  502    0 -0.31101991438E+01  0.46371100480E+02 -0.48595718999E+02  0.67371868042E+02  0.41800000000E+01 0.  1.
         -5    1    3    3    0  502  0.10874004283E+03 -0.35018099018E+02 -0.20437729149E+03  0.23417560473E+03  0.41800000000E+01 0.  1.
        -11    1    1    2    0    0 -0.77362537183E+02 -0.48990121588E+02 -0.28943952707E+02  0.96035131962E+02  0.00000000000E+00 0.  1.
         11    1    1    2    0    0 -0.28267306505E+02  0.37637120126E+02 -0.80470552237E+01  0.47752994944E+02  0.00000000000E+00 0. -1.
</event>
<event>
 7    1  0.2749315E-009  0.7749342E+02  0.7561462E-02  0.1336319E+00
          2   -1    0    0  501    0  0.00000000000E+00  0.00000000000E+00  0.11159852797E+03  0.11159852797E+03  0.00000000000E+00 0. -1.
         -2   -1    0    0    0  501 -0.00000000000E+00 -0.00000000000E+00 -0.12345324298E+03  0.12345324298E+03  0.00000000000E+00 0.  1.
         25    2    1    2    0    0 -0.51003571828E+01  0.79743245301E+01 -0.51809558918E+02  0.13572533102E+03  0.12509009389E+03 0.  0.
          5    1    3    3  502    0  0.28908139972E+02  0.54784485267E+02 -0.71090481697E+01  0.62490250027E+02  0.41800000000E+01 0.  1.
         -5    1    3    3    0  502 -0.34008497154E+02 -0.46810160736E+02 -0.44700510748E+02  0.73235080993E+02  0.41800000000E+01 0.  1.
        -11    1    1    2    0    0  0.13826503316E+02 -0.17282524808E+02  0.66385268539E+02  0.69977580243E+02  0.00000000000E+00 0. -1.
         11    1    1    2    0    0 -0.87261461333E+01  0.93082002779E+01 -0.26430424634E+02  0.29348859690E+02  0.00000000000E+00 0.  1.
</event>
<event>
 7    1  0.2749315E-009  0.1116363E+03  0.7561462E-02  0.1257569E+00
         -1   -1    0    0    0  501 -0.00000000000E+00  0.00000000000E+00  0.27976223637E+03  0.27976223637E+03  0.00000000000E+00 0.  1.
          1   -1    0    0  501    0  0.00000000000E+00 -0.00000000000E+00 -0.60714571912E+02  0.60714571912E+02  0.00000000000E+00 0. -1.
         25    2    1    2    0    0 -0.27111227057E+02  0.66478360317E+02  0.11348528921E+03  0.18352322956E+03  0.12508986329E+03 0.  0.
          5    1    3    3  502    0  0.33554789346E+02  0.21044071630E+02  0.98366614813E+02  0.10612370211E+03  0.41800000000E+01 0.  1.
         -5    1    3    3    0  502 -0.60666016403E+02  0.45434288687E+02  0.15118674397E+02  0.77399527455E+02  0.41800000000E+01 0.  1.
        -11    1    1    2    0    0  0.25841762893E+02  0.12389466639E+02  0.58396231346E+02  0.65049330730E+02  0.00000000000E+00 0.  1.
         11    1    1    2    0    0  0.12694641641E+01 -0.78867826956E+02  0.47166143900E+02  0.91904247989E+02  0.00000000000E+00 0. -1.
</event>
<event>
 7    1  0.4352215E-009  0.2553041E+03  0.7561462E-02  0.1109998E+00
          1   -1    0    0  501    0  0.00000000000E+00  0.00000000000E+00  0.20281581811E+04  0.20281581811E+04  0.00000000000E+00 0. -1.
         -1   -1    0    0    0  501 -0.00000000000E+00 -0.00000000000E+00 -0.38087659815E+02  0.38087659815E+02  0.00000000000E+00 0.  1.
         25    2    1    2    0    0  0.13366473855E+03  0.20952808448E+03  0.12380904464E+04  0.12689696718E+04  0.12509114247E+03 0.  0.
          5    1    3    3  502    0 -0.38609911505E+01  0.36950098829E+02  0.41896922198E+03  0.42063392448E+03  0.41800000000E+01 0. -1.
         -5    1    3    3    0  502  0.13752572970E+03  0.17257798565E+03  0.81912122442E+03  0.84833574730E+03  0.41800000000E+01 0. -1.
        -11    1    1    2    0    0 -0.81634737694E+02 -0.86534202088E+02  0.23592727465E+03  0.26422353690E+03  0.00000000000E+00 0.  1.
         11    1    1    2    0    0 -0.52030000857E+02 -0.12299388239E+03  0.51605280024E+03  0.53305263223E+03  0.00000000000E+00 0. -1.
</event>
<event>
 7    1  0.2749315E-009  0.8331752E+02  0.7561462E-02  0.1319892E+00
         -2   -1    0    0    0  501 -0.00000000000E+00  0.00000000000E+00  0.44105027128E+02  0.44105027128E+02  0.00000000000E+00 0. -1.
          2   -1    0    0  501    0  0.00000000000E+00 -0.00000000000E+00 -0.99217206251E+03  0.99217206251E+03  0.00000000000E+00 0.  1.
         25    2    1    2    0    0  0.11833457377E+02 -0.13058148560E+02 -0.93332547193E+03  0.94183595472E+03  0.12509189858E+03 0.  0.
          5    1    3    3  502    0 -0.35788088821E+02  0.38377999441E+01 -0.76929739821E+03  0.77015029397E+03  0.41800000000E+01 0.  1.
         -5    1    3    3    0  502  0.47621546198E+02 -0.16895948504E+02 -0.16402807372E+03  0.17168566075E+03  0.41800000000E+01 0.  1.
        -11    1    1    2    0    0 -0.30366571571E+02 -0.23707214668E+02  0.17338121944E+02  0.42246552153E+02  0.00000000000E+00 0.  1.
         11    1    1    2    0    0  0.18533114194E+02  0.36765363228E+02 -0.32079685396E+02  0.52194582766E+02  0.00000000000E+00 0. -1.
</event>
<event>
 7    1  0.2749315E-009  0.1042909E+03  0.7561462E-02  0.1271523E+00
         -2   -1    0    0    0  501 -0.00000000000E+00  0.00000000000E+00  0.96845436201E+02  0.96845436201E+02  0.00000000000E+00 0. -1.
          2   -1    0    0  501    0  0.00000000000E+00 -0.00000000000E+00 -0.15966986749E+03  0.15966986749E+03  0.00000000000E+00 0.  1.
         25    2    1    2    0    0 -0.22723727171E+02 -0.53738919441E+02 -0.49293370335E+02  0.14656341192E+03  0.12508700219E+03 0.  0.
          5    1    3    3  502    0 -0.40173140378E+02 -0.78176032040E+02 -0.67764588377E+02  0.11106252757E+03  0.41800000000E+01 0. -1.
         -5    1    3    3    0  502  0.17449413207E+02  0.24437112599E+02  0.18471218043E+02  0.35500884347E+02  0.41800000000E+01 0. -1.
        -11    1    1    2    0    0  0.39269328558E+02  0.60721133394E+02 -0.36332888145E+02  0.80927220186E+02  0.00000000000E+00 0.  1.
         11    1    1    2    0    0 -0.16545601387E+02 -0.69822139526E+01  0.22801827195E+02  0.29024671581E+02  0.00000000000E+00 0. -1.
</event>
<event>
 7    1  0.2749315E-009  0.1178284E+03  0.7561462E-02  0.1246723E+00
          2   -1    0    0  501    0  0.00000000000E+00  0.00000000000E+00  0.38429813560E+03  0.38429813560E+03  0.00000000000E+00 0. -1.
         -2   -1    0    0    0  501 -0.00000000000E+00 -0.00000000000E+00 -0.44059426084E+02  0.44059426084E+02  0.00000000000E+00 0.  1.
         25    2    1    2    0    0  0.33197376229E+02 -0.62010122544E+02  0.17330995597E+03  0.22500579480E+03  0.12507576011E+03 0.  0.
          5    1    3    3  502    0  0.30789775216E+02  0.21148670021E+02  0.59400604865E+01  0.38053031681E+02  0.41800000000E+01 0.  1.
         -5    1    3    3    0  502  0.24076010129E+01 -0.83158792565E+02  0.16736989548E+03  0.18695276311E+03  0.41800000000E+01 0.  1.
        -11    1    1    2    0    0 -0.27533765939E+02 -0.19070759049E+02  0.35379621961E+02  0.48718782493E+02  0.00000000000E+00 0.  1.
         11    1    1    2    0    0 -0.56636102903E+01  0.81080881593E+02  0.13154913159E+03  0.15463298440E+03  0.00000000000E+00 0. -1.
</event>
<event>
 7    1  0.2749315E-009  0.1504038E+03  0.7561462E-02  0.1199978E+00
          2   -1    0    0  501    0  0.00000000000E+00  0.00000000000E+00  0.39048339151E+02  0.39048339151E+02  0.00000000000E+00 0. -1.
         -2   -1    0    0    0  501 -0.00000000000E+00 -0.00000000000E+00 -0.85013913914E+03  0.85013913914E+03  0.00000000000E+00 0.  1.
         25    2    1    2    0    0 -0.58316769543E+02 -0.13286421417E+03 -0.37384193686E+03  0.42006958190E+03  0.12508762876E+03 0.  0.
          5    1    3    3  502    0 -0.40304441179E+02 -0.13094459028E+03 -0.37706112092E+03  0.40120256107E+03  0.41800000000E+01 0. -1.
         -5    1    3    3    0  502 -0.18012328364E+02 -0.19196238893E+01  0.32191840622E+01  0.18867020830E+02  0.41800000000E+01 0. -1.
        -11    1    1    2    0    0  0.23884579597E+02  0.49937146746E+02 -0.61299034142E+02  0.82593966816E+02  0.00000000000E+00 0. -1.
         11    1    1    2    0    0  0.34432189946E+02  0.82927067422E+02 -0.37594982899E+03  0.38652392957E+03  0.00000000000E+00 0.  1.
</event>
<event>
 7    1  0.2749315E-009  0.1626611E+03  0.7561462E-02  0.1185725E+00
          1   -1    0    0  501    0  0.00000000000E+00  0.00000000000E+00  0.79137662419E+03  0.79137662419E+03  0.00000000000E+00 0. -1.
         -1   -1    0    0    0  501 -0.00000000000E+00 -0.00000000000E+00 -0.42164878580E+02  0.42164878580E+02  0.00000000000E+00 0.  1.
         25    2    1    2    0    0  0.14140740196E+03  0.30438299244E+02  0.33994137713E+03  0.39003921340E+03  0.12509158532E+03 0.  0.
          5    1    3    3  502    0  0.20859418336E+02  0.51439320895E+02  0.18125737638E+03  0.18961230962E+03  0.41800000000E+01 0.  1.
         -5    1    3    3    0  502  0.12054798363E+03 -0.21001021651E+02  0.15868400075E+03  0.20042690379E+03  0.41800000000E+01 0.  1.
        -11    1    1    2    0    0 -0.10831560635E+03 -0.34971721620E+02  0.38691757083E+03  0.40331191218E+03  0.00000000000E+00 0. -1.
         11    1    1    2    0    0 -0.33091795609E+02  0.45334223763E+01  0.22352797651E+02  0.40190377180E+02  0.00000000000E+00 0.  1.
</event>
<event>
 7    1  0.2749315E-009  0.7101811E+02  0.7561462E-02  0.1356665E+00
         -1   -1    0    0    0  501 -0.00000000000E+00  0.00000000000E+00  0.30172268086E+02  0.30172268086E+02  0.00000000000E+00 0.  1.
          1   -1    0    0  501    0  0.00000000000E+00 -0.00000000000E+00 -0.66248310265E+03  0.66248310265E+03  0.00000000000E+00 0. -1.
         25    2    1    2    0    0 -0.11236339157E+02  0.43056281495E+02 -0.54064719012E+03  0.55671113975E+03  0.12509120770E+03 0.  0.
          5    1    3    3  502    0 -0.48726484508E+02  0.20855215838E+02 -0.94560083076E+02  0.10848175898E+03  0.41800000000E+01 0.  1.
         -5    1    3    3    0  502  0.37490145351E+02  0.22201065657E+02 -0.44608710705E+03  0.44822938077E+03  0.41800000000E+01 0.  1.
        -11    1    1    2    0    0  0.10222013062E+01 -0.18162250867E+02  0.16454008167E+02  0.24528486232E+02  0.00000000000E+00 0.  1.
         11    1    1    2    0    0  0.10214137851E+02 -0.24894030629E+02 -0.10811765261E+03  0.11141574476E+03  0.00000000000E+00 0. -1.
</event>
<event>
 7    1  0.2749315E-009  0.1268679E+03  0.7561462E-02  0.1232179E+00
         -2   -1    0    0    0  501 -0.00000000000E+00  0.00000000000E+00  0.12523989997E+03  0.12523989997E+03  0.00000000000E+00 0.  1.
          2   -1    0    0  501    0  0.00000000000E+00 -0.00000000000E+00 -0.13946872736E+03  0.13946872736E+03  0.00000000000E+00 0. -1.
         25    2    1    2    0    0  0.58854923052E+02  0.50907058460E+02 -0.14261311909E+02  0.14801566652E+03  0.12509924840E+03 0.  0.
          5    1    3    3  502    0  0.86245749057E+02  0.71811975175E+02 -0.14964185027E+02  0.11329910963E+03  0.41800000000E+01 0. -1.
         -5    1    3    3    0  502 -0.27390826005E+02 -0.20904916714E+02  0.70287311821E+00  0.34716556896E+02  0.41800000000E+01 0. -1.
        -11    1    1    2    0    0 -0.70792492176E+02 -0.59118202808E+02  0.17627318524E+02  0.93900272684E+02  0.00000000000E+00 0.  1.
         11    1    1    2    0    0  0.11937569124E+02  0.82111443479E+01 -0.17594834008E+02  0.22792688123E+02  0.00000000000E+00 0. -1.
</event>
<event>
 7    1  0.2749315E-009  0.1127528E+03  0.7561462E-02  0.1255555E+00
          2   -1    0    0  501    0  0.00000000000E+00  0.00000000000E+00  0.35242352975E+03  0.35242352975E+03  0.00000000000E+00 0.  1.
         -2   -1    0    0    0  501 -0.00000000000E+00 -0.00000000000E+00 -0.44475826154E+02  0.44475826154E+02  0.00000000000E+00 0. -1.
         25    2    1    2    0    0  0.50059957691E+02 -0.30863111630E+02  0.20672505728E+03  0.24867930992E+03  0.12509044269E+03 0.  0.
          5    1    3    3  502    0 -0.18141234434E+02  0.37314100023E+02  0.62399004955E+02  0.75050347546E+02  0.41800000000E+01 0. -1.
         -5    1    3    3    0  502  0.68201192125E+02 -0.68177211653E+02  0.14432605232E+03  0.17362896238E+03  0.41800000000E+01 0. -1.
        -11    1    1    2    0    0 -0.54812961435E+02  0.45910789796E+02  0.10920956372E+03  0.13053348294E+03  0.00000000000E+00 0.  1.
         11    1    1    2    0    0  0.47530037442E+01 -0.15047678166E+02 -0.79869173999E+01  0.17686563045E+02  0.00000000000E+00 0. -1.
</event>
<event>
 7    1  0.2749315E-009  0.1465080E+03  0.7561462E-02  0.1204831E+00
          4   -1    0    0  501    0  0.00000000000E+00  0.00000000000E+00  0.50309569786E+02  0.50309569786E+02  0.00000000000E+00 0. -1.
         -4   -1    0    0    0  501 -0.00000000000E+00 -0.00000000000E+00 -0.47156398554E+03  0.47156398554E+03  0.00000000000E+00 0.  1.
         25    2    1    2    0    0  0.63424290758E+02 -0.86879599180E+02 -0.20364270379E+03  0.26208564305E+03  0.12509127896E+03 0.  0.
          5    1    3    3  502    0 -0.29990684200E+02 -0.24031422286E+02 -0.10658220491E+03  0.11337631674E+03  0.41800000000E+01 0. -1.
         -5    1    3    3    0  502  0.93414974958E+02 -0.62848176895E+02 -0.97060498887E+02  0.14870932630E+03  0.41800000000E+01 0. -1.
        -11    1    1    2    0    0 -0.80247668042E+02  0.93850672654E+02 -0.19409770557E+03  0.23004685673E+03  0.00000000000E+00 0. -1.
         11    1    1    2    0    0  0.16823377283E+02 -0.69710734733E+01 -0.23514006392E+02  0.29741055549E+02  0.00000000000E+00 0.  1.
</event>
<event>
 7    1  0.2749315E-009  0.6981247E+02  0.7561462E-02  0.1360732E+00
          2   -1    0    0  501    0  0.00000000000E+00  0.00000000000E+00  0.29623534413E+03  0.29623534413E+03  0.00000000000E+00 0. -1.
         -2   -1    0    0    0  501 -0.00000000000E+00 -0.00000000000E+00 -0.70127569698E+02  0.70127569698E+02  0.00000000000E+00 0.  1.
         25    2    1    2    0    0  0.30903775296E+02 -0.49648725724E+02  0.20215769381E+03  0.24481660852E+03  0.12508956530E+03 0.  0.
          5    1    3    3  502    0  0.12076685914E+02 -0.45222234804E+02  0.56688512823E+01  0.47333974461E+02  0.41800000000E+01 0. -1.
         -5    1    3    3    0  502  0.18827089382E+02 -0.44264909194E+01  0.19648884252E+03  0.19748263405E+03  0.41800000000E+01 0. -1.
        -11    1    1    2    0    0 -0.34973923458E+02  0.15162801329E+02 -0.35892712875E+02  0.52358119750E+02  0.00000000000E+00 0.  1.
         11    1    1    2    0    0  0.40701481620E+01  0.34485924395E+02  0.59842793498E+02  0.69188185560E+02  0.00000000000E+00 0. -1.
</event>
<event>
 7    1  0.2749315E-009  0.1052975E+03  0.7561462E-02  0.1269534E+00
         -2   -1    0    0    0  501 -0.00000000000E+00  0.00000000000E+00  0.59173283169E+02  0.59173283169E+02  0.00000000000E+00 0.  1.
          2   -1    0    0  501    0  0.00000000000E+00 -0.00000000000E+00 -0.24498429794E+03  0.24498429794E+03  0.00000000000E+00 0. -1.
         25    2    1    2    0    0 -0.82972201756E+01 -0.51108399022E+02 -0.11993780313E+03  0.18086936407E+03  0.12509091864E+03 0.  0.
          5    1    3    3  502    0  0.51256406138E+02 -0.29670014801E+02 -0.20286424392E+02  0.62741854954E+02  0.41800000000E+01 0. -1.
         -5    1    3    3    0  502 -0.59553626314E+02 -0.21438384221E+02 -0.99651378739E+02  0.11812750911E+03  0.41800000000E+01 0. -1.
        -11    1    1    2    0    0 -0.10371492245E+02  0.64172277133E+02 -0.13807926451E+02  0.66455307062E+02  0.00000000000E+00 0.  1.
         11    1    1    2    0    0  0.18668712421E+02 -0.13063878111E+02 -0.52065285186E+02  0.56832909976E+02  0.00000000000E+00 0. -1.
</event>
<event>
 7    1  0.2749315E-009  0.8910980E+02  0.7561462E-02  0.1305022E+00
          3   -1    0    0  501    0  0.00000000000E+00  0.00000000000E+00  0.18032973290E+03  0.18032973290E+03  0.00000000000E+00 0.  1.
         -3   -1    0    0    0  501 -0.00000000000E+00 -0.00000000000E+00 -0.72933883475E+02  0.72933883475E+02  0.00000000000E+00 0. -1.
         25    2    1    2    0    0  0.18184179379E+02  0.37734368423E+02  0.70635570688E+02  0.14963890154E+03  0.12509144682E+03 0.  0.
          5    1    3    3  502    0 -0.69621185906E+01  0.53582813929E+02 -0.17165964646E+02  0.56848322631E+02  0.41800000000E+01 0. -1.
         -5    1    3    3    0  502  0.25146297970E+02 -0.15848445505E+02  0.87801535334E+02  0.92790578905E+02  0.41800000000E+01 0. -1.
        -11    1    1    2    0    0  0.31574784768E+02 -0.30181977655E+02  0.46537146267E+01  0.43926937842E+02  0.00000000000E+00 0.  1.
         11    1    1    2    0    0 -0.49758964147E+02 -0.75523907684E+01  0.32106564111E+02  0.59697776997E+02  0.00000000000E+00 0. -1.
</event>
<event>
 7    1  0.2749315E-009  0.1772591E+03  0.7561462E-02  0.1170482E+00
         -1   -1    0    0    0  501 -0.00000000000E+00  0.00000000000E+00  0.17420665928E+03  0.17420665928E+03  0.00000000000E+00 0.  1.
          1   -1    0    0  501    0  0.00000000000E+00 -0.00000000000E+00 -0.23602252070E+03  0.23602252070E+03  0.00000000000E+00 0. -1.
         25    2    1    2    0    0  0.52768465789E+02 -0.15694597995E+03  0.11724045117E+02  0.20785112342E+03  0.12509230459E+03 0.  0.
          5    1    3    3  502    0  0.38311858449E+02 -0.99945668340E+02 -0.53665389123E+02  0.11980977217E+03  0.41800000000E+01 0.  1.
         -5    1    3    3    0  502  0.14456607339E+02 -0.57000311605E+02  0.65389434240E+02  0.88041351245E+02  0.41800000000E+01 0.  1.
        -11    1    1    2    0    0  0.24651279502E+02  0.56362197268E+02 -0.20965567159E+02  0.64991829242E+02  0.00000000000E+00 0. -1.
         11    1    1    2    0    0 -0.77419745291E+02  0.10058378268E+03 -0.52574339377E+02  0.13738622733E+03  0.00000000000E+00 0.  1.
</event>
<event>
 7    1  0.2749315E-009  0.1895827E+03  0.7561462E-02  0.1158838E+00
         -1   -1    0    0    0  501 -0.00000000000E+00  0.00000000000E+00  0.16673352249E+03  0.16673352249E+03  0.00000000000E+00 0.  1.
          1   -1    0    0  501    0  0.00000000000E+00 -0.00000000000E+00 -0.25995956382E+03  0.25995956382E+03  0.00000000000E+00 0. -1.
         25    2    1    2    0    0 -0.72261703573E+02  0.15458725567E+03  0.71496586269E+00  0.21158268471E+03  0.12509095840E+03 0.  0.
          5    1    3    3  502    0 -0.82789577250E+02  0.92886448639E+02 -0.46679087137E+02  0.13296020464E+03  0.41800000000E+01 0.  1.
         -5    1    3    3    0  502  0.10527873676E+02  0.61700807036E+02  0.47394053000E+02  0.78622480073E+02  0.41800000000E+01 0.  1.
        -11    1    1    2    0    0  0.62251104648E+01 -0.11453297631E+03 -0.69435193550E+02  0.13408132146E+03  0.00000000000E+00 0. -1.
         11    1    1    2    0    0  0.66036593108E+02 -0.40054279366E+02 -0.24505813649E+02  0.81029080135E+02  0.00000000000E+00 0.  1.
</event>
<event>
 7    1  0.2749315E-009  0.2365570E+03  0.7561462E-02  0.1122108E+00
         -1   -1    0    0    0  501 -0.00000000000E+00  0.00000000000E+00  0.10819021562E+03  0.10819021562E+03  0.00000000000E+00 0.  1.
          1   -1    0    0  501    0  0.00000000000E+00 -0.00000000000E+00 -0.54627408663E+03  0.54627408663E+03  0.00000000000E+00 0. -1.
         25    2    1    2    0    0 -0.17056466255E+03  0.13406572217E+03 -0.22812681831E+03  0.33875588353E+03  0.12509109249E+03 0.  0.
          5    1    3    3  502    0 -0.22111719409E+02  0.85282476818E+02 -0.48577771480E+02  0.10069409749E+03  0.41800000000E+01 0. -1.
         -5    1    3    3    0  502 -0.14845294314E+03  0.48783245353E+02 -0.17954904683E+03  0.23806178604E+03  0.41800000000E+01 0. -1.
        -11    1    1    2    0    0  0.36720765163E+02 -0.72500077847E+02 -0.39348986040E+02  0.90294067271E+02  0.00000000000E+00 0.  1.
         11    1    1    2    0    0  0.13384389739E+03 -0.61565644324E+02 -0.17060806666E+03  0.22541435145E+03  0.00000000000E+00 0. -1.
</event>
<event>
 7    1  0.2749315E-009  0.1169819E+03  0.7561462E-02  0.1248161E+00
         -4   -1    0    0    0  501 -0.00000000000E+00  0.00000000000E+00  0.90240304383E+02  0.90240304383E+02  0.00000000000E+00 0.  1.
          4   -1    0    0  501    0  0.00000000000E+00 -0.00000000000E+00 -0.23718568253E+03  0.23718568253E+03  0.00000000000E+00 0. -1.
         25    2    1    2    0    0 -0.10556728688E+01 -0.47514657511E+02  0.14279130672E+02  0.13457227868E+03  0.12508815888E+03 0.  0.
          5    1    3    3  502    0 -0.56495637636E+02 -0.22781629883E+01 -0.12499907582E+02  0.58057447309E+02  0.41800000000E+01 0. -1.
         -5    1    3    3    0  502  0.55439964767E+02 -0.45236494523E+02  0.26779038254E+02  0.76514831372E+02  0.41800000000E+01 0. -1.
        -11    1    1    2    0    0 -0.15663072220E+02  0.73248482431E+02 -0.10839639742E+03  0.13175906415E+03  0.00000000000E+00 0.  1.
         11    1    1    2    0    0  0.16718745088E+02 -0.25733824920E+02 -0.52828111391E+02  0.61094644082E+02  0.00000000000E+00 0. -1.
</event>
<event>
 7    1  0.2749315E-009  0.1406450E+03  0.7561462E-02  0.1212464E+00
         -1   -1    0    0    0  501 -0.00000000000E+00  0.00000000000E+00  0.94807327466E+03  0.94807327466E+03  0.00000000000E+00 0.  1.
          1   -1    0    0  501    0  0.00000000000E+00 -0.00000000000E+00 -0.45817089158E+02  0.45817089158E+02  0.00000000000E+00 0. -1.
         25    2    1    2    0    0 -0.11458676147E+03 -0.74193344783E+02  0.74285301494E+03  0.76557932384E+03  0.12508525485E+03 0.  0.
          5    1    3    3  502    0 -0.66061519718E+02 -0.15706326481E+02  0.11878666531E+03  0.13688885030E+03  0.41800000000E+01 0.  1.
         -5    1    3    3    0  502 -0.48525241755E+02 -0.58487018302E+02  0.62406634962E+03  0.62869047355E+03  0.41800000000E+01 0.  1.
        -11    1    1    2    0    0  0.26376224284E+02  0.10709191686E+02 -0.72279747684E+01  0.29370659054E+02  0.00000000000E+00 0. -1.
         11    1    1    2    0    0  0.88210537190E+02  0.63484153097E+02  0.16663114533E+03  0.19894038092E+03  0.00000000000E+00 0.  1.
</event>
<event>
 7    1  0.2749315E-009  0.2272453E+03  0.7561462E-02  0.1128594E+00
         -2   -1    0    0    0  501 -0.00000000000E+00  0.00000000000E+00  0.10304194444E+03  0.10304194444E+03  0.00000000000E+00 0. -1.
          2   -1    0    0  501    0  0.00000000000E+00 -0.00000000000E+00 -0.84580254058E+03  0.84580254058E+03  0.00000000000E+00 0.  1.
         25    2    1    2    0    0  0.17935063020E+03  0.12714957720E+03 -0.11720297082E+03  0.27877602911E+03  0.12508347013E+03 0.  0.
          5    1    3    3  502    0  0.60394404249E+02  0.59555564588E+02  0.17525030981E+02  0.86711870288E+02  0.41800000000E+01 0. -1.
         -5    1    3    3    0  502  0.11895622595E+03  0.67594012616E+02 -0.13472800180E+03  0.19206415882E+03  0.41800000000E+01 0. -1.
        -11    1    1    2    0    0 -0.16979716655E+03 -0.85795549943E+02 -0.43399650691E+03  0.47386171208E+03  0.00000000000E+00 0. -1.
         11    1    1    2    0    0 -0.95534636465E+01 -0.41354027260E+02 -0.19156111842E+03  0.19620674384E+03  0.00000000000E+00 0.  1.
</event>
<event>
 7    1  0.2749315E-009  0.1005106E+03  0.7561462E-02  0.1279226E+00
         -1   -1    0    0    0  501 -0.00000000000E+00  0.00000000000E+00  0.21952606656E+02  0.21952606656E+02  0.00000000000E+00 0.  1.
          1   -1    0    0  501    0  0.00000000000E+00 -0.00000000000E+00 -0.12796848174E+04  0.12796848174E+04  0.00000000000E+00 0. -1.
         25    2    1    2    0    0  0.77735601869E+02  0.47788346456E+01 -0.10733107841E+04  0.10833787115E+04  0.12509089570E+03 0.  0.
          5    1    3    3  502    0  0.78305151225E+01  0.42594268889E+02 -0.13820080779E+03  0.14488797184E+03  0.41800000000E+01 0. -1.
         -5    1    3    3    0  502  0.69905086746E+02 -0.37815434244E+02 -0.93510997630E+03  0.93849073964E+03  0.41800000000E+01 0. -1.
        -11    1    1    2    0    0 -0.62583018629E+02 -0.48602914491E+01 -0.19150627708E+03  0.20153141397E+03  0.00000000000E+00 0. -1.
         11    1    1    2    0    0 -0.15152583240E+02  0.81456803504E-01  0.70848504087E+01  0.16727298627E+02  0.00000000000E+00 0.  1.
</event>
<event>
 7    1  0.2749315E-009  0.1570463E+03  0.7561462E-02  0.1192072E+00
          2   -1    0    0  501    0  0.00000000000E+00  0.00000000000E+00  0.27082748733E+03  0.27082748733E+03  0.00000000000E+00 0. -1.
         -2   -1    0    0    0  501 -0.00000000000E+00 -0.00000000000E+00 -0.14437835195E+03  0.14437835195E+03  0.00000000000E+00 0.  1.
         25    2    1    2    0    0  0.40342894008E+02 -0.14377211030E+03 -0.51718804004E+01  0.19486586690E+03  0.12509192195E+03 0.  0.
          5    1    3    3  502    0  0.43108878391E+02 -0.10401646586E+03  0.52769689401E+02  0.12441829884E+03  0.41800000000E+01 0. -1.
         -5    1    3    3    0  502 -0.27659843829E+01 -0.39755644441E+02 -0.57941569801E+02  0.70447568060E+02  0.41800000000E+01 0. -1.
        -11    1    1    2    0    0  0.16112895962E+02  0.41691346794E+02  0.31051978233E+00  0.44697765452E+02  0.00000000000E+00 0.  1.
         11    1    1    2    0    0 -0.56455789970E+02  0.10208076351E+03  0.13131049599E+03  0.17564220693E+03  0.00000000000E+00 0. -1.
</event>
<event>
 7    1  0.2749315E-009  0.1057580E+03  0.7561462E-02  0.1268633E+00
          4   -1    0    0  501    0  0.00000000000E+00  0.00000000000E+00  0.52232292779E+02  0.52232292779E+02  0.00000000000E+00 0. -1.
         -4   -1    0    0    0  501 -0.00000000000E+00 -0.00000000000E+00 -0.32748736806E+03  0.32748736806E+03  0.00000000000E+00 0.  1.
         25    2    1    2    0    0 -0.57145746479E+02 -0.12145757744E+02 -0.21589872846E+03  0.25626721314E+03  0.12508983895E+03 0.  0.
          5    1    3    3  502    0  0.23347489394E+02 -0.80750910769E+01  0.75834038548E+00  0.25067106674E+02  0.41800000000E+01 0. -1.
         -5    1    3    3    0  502 -0.80493235872E+02 -0.40706666672E+01 -0.21665706885E+03  0.23120010646E+03  0.41800000000E+01 0. -1.
        -11    1    1    2    0    0  0.81047330919E+02  0.11377488059E+02 -0.34073707218E+02  0.88651760316E+02  0.00000000000E+00 0. -1.
         11    1    1    2    0    0 -0.23901584440E+02  0.76826968487E+00 -0.25282639603E+02  0.34800687384E+02  0.00000000000E+00 0.  1.
</event>
<event>
 7    1  0.2749315E-009  0.1915146E+03  0.7561462E-02  0.1157102E+00
          2   -1    0    0  501    0  0.00000000000E+00  0.00000000000E+00  0.12342434957E+04  0.12342434957E+04  0.00000000000E+00 0. -1.
         -2   -1    0    0    0  501 -0.00000000000E+00 -0.00000000000E+00 -0.45708166509E+02  0.45708166509E+02  0.00000000000E+00 0.  1.
         25    2    1    2    0    0 -0.16272727651E+03  0.82428167864E+02  0.89882497887E+03  0.92563779286E+03  0.12507762210E+03 0.  0.
          5    1    3    3  502    0 -0.36067127570E+02  0.30528778425E+02  0.64046784723E+02  0.79701361574E+02  0.41800000000E+01 0. -1.
         -5    1    3    3    0  502 -0.12666014894E+03  0.51899389439E+02  0.83477819415E+03  0.84593643129E+03  0.41800000000E+01 0. -1.
        -11    1    1    2    0    0  0.14070509834E+03 -0.98178776819E+02  0.21639561734E+03  0.27615948312E+03  0.00000000000E+00 0.  1.
         11    1    1    2    0    0  0.22022178174E+02  0.15750608955E+02  0.73314732955E+02  0.78154386200E+02  0.00000000000E+00 0. -1.
</event>
<event>
 7    1  0.2749315E-009  0.8722228E+02  0.7561462E-02  0.1309721E+00
         -1   -1    0    0    0  501 -0.00000000000E+00  0.00000000000E+00  0.47698241190E+02  0.47698241190E+02  0.00000000000E+00 0.  1.
          1   -1    0    0  501    0  0.00000000000E+00 -0.00000000000E+00 -0.28451484879E+03  0.28451484879E+03  0.00000000000E+00 0. -1.
         25    2    1    2    0    0 -0.19404682467E+02  0.35500780463E+02 -0.11172511756E+03  0.17253416991E+03  0.12509472721E+03 0.  0.
          5    1    3    3  502    0 -0.61182639048E+02  0.93005364605E+01 -0.10586535033E+03  0.12269784065E+03  0.41800000000E+01 0.  1.
         -5    1    3    3    0  502  0.41777956581E+02  0.26200244003E+02 -0.58597672305E+01  0.49836329257E+02  0.41800000000E+01 0.  1.
        -11    1    1    2    0    0  0.26399633456E+01  0.12139602652E+02  0.96838234321E+01  0.15751691823E+02  0.00000000000E+00 0.  1.
         11    1    1    2    0    0  0.16764719122E+02 -0.47640383115E+02 -0.13477531347E+03  0.14392722825E+03  0.00000000000E+00 0. -1.
</event>
<event>
 7    1  0.2749315E-009  0.8856091E+02  0.7561462E-02  0.1306375E+00
          1   -1    0    0  501    0  0.00000000000E+00  0.00000000000E+00  0.28304168873E+03  0.28304168873E+03  0.00000000000E+00 0. -1.
         -1   -1    0    0    0  501 -0.00000000000E+00 -0.00000000000E+00 -0.43259754487E+02  0.43259754487E+02  0.00000000000E+00 0.  1.
         25    2    1    2    0    0  0.77167605748E+01  0.92721981492E+00  0.17080389971E+03  0.21185340690E+03  0.12508991057E+03 0.  0.
          5    1    3    3  502    0  0.34839947165E+02 -0.28868368815E+02  0.10669066066E+02  0.46674468473E+02  0.41800000000E+01 0. -1.
         -5    1    3    3    0  502 -0.27123186590E+02  0.29795588630E+02  0.16013483364E+03  0.16517893842E+03  0.41800000000E+01 0. -1.
        -11    1    1    2    0    0 -0.40157879139E+02  0.26981975982E+02  0.39876569432E+02  0.62696276401E+02  0.00000000000E+00 0. -1.
         11    1    1    2    0    0  0.32441118564E+02 -0.27909195797E+02  0.29101465102E+02  0.51751759920E+02  0.00000000000E+00 0.  1.
</event>
<event>
 7    1  0.2749315E-009  0.1426752E+03  0.7561462E-02  0.1209774E+00
         -1   -1    0    0    0  501 -0.00000000000E+00  0.00000000000E+00  0.30840146570E+02  0.30840146570E+02  0.00000000000E+00 0.  1.
          1   -1    0    0  501    0  0.00000000000E+00 -0.00000000000E+00 -0.76636645416E+03  0.76636645416E+03  0.00000000000E+00 0. -1.
         25    2    1    2    0    0 -0.40571219742E+02 -0.86652943019E+02 -0.52251283405E+03  0.54573109054E+03  0.12509198630E+03 0.  0.
          5    1    3    3  502    0 -0.56531988311E+02  0.11248475530E+02 -0.17350438926E+03  0.18287602193E+03  0.41800000000E+01 0.  1.
         -5    1    3    3    0  502  0.15960768569E+02 -0.97901418549E+02 -0.34900844478E+03  0.36285506861E+03  0.41800000000E+01 0.  1.
        -11    1    1    2    0    0  0.33227072592E+02  0.10413885092E+03 -0.14956324269E+03  0.18525145664E+03  0.00000000000E+00 0.  1.
         11    1    1    2    0    0  0.73441471497E+01 -0.17485907900E+02 -0.63450230861E+02  0.66224053551E+02  0.00000000000E+00 0. -1.
</event>
<event>
 7    1  0.2749315E-009  0.9381924E+02  0.7561462E-02  0.1293858E+00
          3   -1    0    0  501    0  0.00000000000E+00  0.00000000000E+00  0.60533259257E+03  0.60533259257E+03  0.00000000000E+00 0. -1.
         -3   -1    0    0    0  501 -0.00000000000E+00 -0.00000000000E+00 -0.25539654608E+02  0.25539654608E+02  0.00000000000E+00 0.  1.
         25    2    1    2    0    0 -0.38480720780E+02 -0.16387756304E+02  0.43654385274E+03  0.45603460803E+03  0.12509078272E+03 0.  0.
          5    1    3    3  502    0  0.36810717807E+02  0.14848800612E+02  0.70619949436E+02  0.81118219183E+02  0.41800000000E+01 0.  1.
         -5    1    3    3    0  502 -0.75291438588E+02 -0.31236556916E+02  0.36592390331E+03  0.37491638884E+03  0.41800000000E+01 0.  1.
        -11    1    1    2    0    0  0.54689841630E+01  0.29928642953E+02  0.35228002722E+01  0.30627497099E+02  0.00000000000E+00 0.  1.
         11    1    1    2    0    0  0.33011736617E+02 -0.13540886649E+02  0.13972628495E+03  0.14421014206E+03  0.00000000000E+00 0. -1.
</event>
<event>
 7    1  0.2749315E-009  0.1004963E+03  0.7561462E-02  0.1279256E+00
         -2   -1    0    0    0  501 -0.00000000000E+00  0.00000000000E+00  0.30792065949E+02  0.30792065949E+02  0.00000000000E+00 0.  1.
          2   -1    0    0  501    0  0.00000000000E+00 -0.00000000000E+00 -0.46324500931E+03  0.46324500931E+03  0.00000000000E+00 0. -1.
         25    2    1    2    0    0  0.15800820162E+02  0.54119165946E+02 -0.22274640484E+03  0.26160856022E+03  0.12507808710E+03 0.  0.
          5    1    3    3  502    0  0.23854321516E+02  0.74769111026E+02 -0.22557679892E+03  0.23887614622E+03  0.41800000000E+01 0.  1.
         -5    1    3    3    0  502 -0.80535013539E+01 -0.20649945080E+02  0.28303940869E+01  0.22732414006E+02  0.41800000000E+01 0.  1.
        -11    1    1    2    0    0 -0.43888192614E+02 -0.62338083275E+01 -0.83057355172E+02  0.94146471338E+02  0.00000000000E+00 0. -1.
         11    1    1    2    0    0  0.28087372452E+02 -0.47885357619E+02 -0.12664918335E+03  0.13828204370E+03  0.00000000000E+00 0.  1.
</event>
<event>
 7    1  0.2749315E-009  0.2157994E+03  0.7561462E-02  0.1137054E+00
          1   -1    0    0  501    0  0.00000000000E+00  0.00000000000E+00  0.19030193586E+03  0.19030193586E+03  0.00000000000E+00 0. -1.
         -1   -1    0    0    0  501 -0.00000000000E+00 -0.00000000000E+00 -0.25588054910E+03  0.25588054910E+03  0.00000000000E+00 0.  1.
         25    2    1    2    0    0  0.11284430057E+03 -0.15529797351E+03 -0.29065693061E+02  0.23096244202E+03  0.12509012097E+03 0.  0.
          5    1    3    3  502    0 -0.38988720829E+01  0.16102908163E+02 -0.15541652767E+02  0.23098056749E+02  0.41800000000E+01 0.  1.
         -5    1    3    3    0  502  0.11674317266E+03 -0.17140088167E+03 -0.13524040294E+02  0.20786438527E+03  0.41800000000E+01 0.  1.
        -11    1    1    2    0    0 -0.96509826034E+02  0.67474713532E+02 -0.43692449864E+02  0.12560260213E+03  0.00000000000E+00 0.  1.
         11    1    1    2    0    0 -0.16334474539E+02  0.87823259973E+02  0.71795296820E+01  0.89617440810E+02  0.00000000000E+00 0. -1.
</event>
<event>
 7    1  0.2749315E-009  0.1116182E+03  0.7561462E-02  0.1257602E+00
          1   -1    0    0  501    0  0.00000000000E+00  0.00000000000E+00  0.70795739010E+03  0.70795739010E+03  0.00000000000E+00 0. -1.
         -1   -1    0    0    0  501 -0.00000000000E+00 -0.00000000000E+00 -0.28573573086E+02  0.28573573086E+02  0.00000000000E+00 0.  1.
         25    2    1    2    0    0  0.52774208594E+02 -0.42898054361E+02  0.56862408153E+03  0.58617929890E+03  0.12508982452E+03 0.  0.
          5    1    3    3  502    0 -0.22822585692E+02 -0.43995576887E+02  0.37486061059E+03  0.37814604450E+03  0.41800000000E+01 0. -1.
         -5    1    3    3    0  502  0.75596794286E+02  0.10975225262E+01  0.19376347094E+03  0.20803325439E+03  0.41800000000E+01 0. -1.
        -11    1    1    2    0    0 -0.12582992406E+02  0.54509101013E+02  0.42352641090E+02  0.70166373702E+02  0.00000000000E+00 0. -1.
         11    1    1    2    0    0 -0.40191216189E+02 -0.11611046652E+02  0.68407094395E+02  0.80185290588E+02  0.00000000000E+00 0.  1.
</event>
<event>
 7    1  0.2749315E-009  0.2349901E+03  0.7561462E-02  0.1123176E+00
         -3   -1    0    0    0  501 -0.00000000000E+00  0.00000000000E+00  0.56026307635E+03  0.56026307635E+03  0.00000000000E+00 0. -1.
          3   -1    0    0  501    0  0.00000000000E+00 -0.00000000000E+00 -0.12793089969E+03  0.12793089969E+03  0.00000000000E+00 0.  1.
         25    2    1    2    0    0 -0.22140743257E+03 -0.47580673119E+02  0.10996443835E+03  0.28111279399E+03  0.12508818326E+03 0.  0.
          5    1    3    3  502    0 -0.19864718819E+03 -0.33380876184E+02  0.13633109605E+03  0.24326657892E+03  0.41800000000E+01 0.  1.
         -5    1    3    3    0  502 -0.22760244376E+02 -0.14199796935E+02 -0.26366657694E+02  0.37846215069E+02  0.41800000000E+01 0.  1.
        -11    1    1    2    0    0  0.10985476766E+03  0.66198422217E+02  0.21937110312E+03  0.25411411209E+03  0.00000000000E+00 0. -1.
         11    1    1    2    0    0  0.11155266491E+03 -0.18617749098E+02  0.10299663519E+03  0.15296706995E+03  0.00000000000E+00 0.  1.
</event>
<event>
 7    1  0.2749315E-009  0.1731987E+03  0.7561462E-02  0.1174553E+00
         -1   -1    0    0    0  501 -0.00000000000E+00  0.00000000000E+00  0.84417824020E+02  0.84417824020E+02  0.00000000000E+00 0.  1.
          1   -1    0    0  501    0  0.00000000000E+00 -0.00000000000E+00 -0.49479272254E+03  0.49479272254E+03  0.00000000000E+00 0. -1.
         25    2    1    2    0    0 -0.86926153233E+02  0.11376857126E+03 -0.35274026822E+03  0.40071407202E+03  0.12508647718E+03 0.  0.
          5    1    3    3  502    0  0.13967613970E+02  0.63469061985E+02 -0.66646044944E+02  0.93180383000E+02  0.41800000000E+01 0. -1.
         -5    1    3    3    0  502 -0.10089376720E+03  0.50299509274E+02 -0.28609422328E+03  0.30753368902E+03  0.41800000000E+01 0. -1.
        -11    1    1    2    0    0  0.82675534238E+02 -0.35331066311E+02 -0.24079099573E+02  0.93077017810E+02  0.00000000000E+00 0.  1.
         11    1    1    2    0    0  0.42506189952E+01 -0.78437504948E+02 -0.33555530725E+02  0.85419456722E+02  0.00000000000E+00 0. -1.
</event>
<event>
 7    1  0.2749315E-009  0.1371567E+03  0.7561462E-02  0.1217207E+00
          2   -1    0    0  501    0  0.00000000000E+00  0.00000000000E+00  0.16814895838E+04  0.16814895838E+04  0.00000000000E+00 0. -1.
         -2   -1    0    0    0  501 -0.00000000000E+00 -0.00000000000E+00 -0.14763301991E+02  0.14763301991E+02  0.00000000000E+00 0.  1.
         25    2    1    2    0    0 -0.89216795723E+02  0.15383048176E+01  0.12749411891E+04  0.12841677176E+04  0.12509871304E+03 0.  0.
          5    1    3    3  502    0 -0.83261590194E+02 -0.48337862973E+02  0.63818520842E+03  0.64541992070E+03  0.41800000000E+01 0.  1.
         -5    1    3    3    0  502 -0.59552055289E+01  0.49876167790E+02  0.63675598073E+03  0.63874779685E+03  0.41800000000E+01 0.  1.
        -11    1    1    2    0    0 -0.12265650243E+02 -0.20896737878E+02  0.83899215230E+02  0.87328106278E+02  0.00000000000E+00 0. -1.
         11    1    1    2    0    0  0.10148244597E+03  0.19358433060E+02  0.30788587743E+03  0.32475706196E+03  0.00000000000E+00 0.  1.
</event>
<event>
 7    1  0.2749315E-009  0.9736184E+02  0.7561462E-02  0.1285944E+00
         -1   -1    0    0    0  501 -0.00000000000E+00  0.00000000000E+00  0.42460875233E+03  0.42460875233E+03  0.00000000000E+00 0.  1.
          1   -1    0    0  501    0  0.00000000000E+00 -0.00000000000E+00 -0.43685899430E+02  0.43685899430E+02  0.00000000000E+00 0. -1.
         25    2    1    2    0    0  0.95435034966E+01  0.69142739084E+02  0.13717808122E+03  0.19834848224E+03  0.12510994211E+03 0.  0.
          5    1    3    3  502    0 -0.39863027741E+02  0.37194639456E+02  0.66142393812E+01  0.55079240622E+02  0.41800000000E+01 0. -1.
         -5    1    3    3    0  502  0.49406531237E+02  0.31948099628E+02  0.13056384184E+03  0.14326924162E+03  0.41800000000E+01 0. -1.
        -11    1    1    2    0    0 -0.24947258072E+02 -0.30146059301E+02  0.21635278622E+03  0.21986286335E+03  0.00000000000E+00 0.  1.
         11    1    1    2    0    0  0.15403754575E+02 -0.38996679783E+02  0.27391985464E+02  0.50083306169E+02  0.00000000000E+00 0. -1.
</event>
<event>
 7    1  0.2749315E-009  0.1087612E+03  0.7561462E-02  0.1262881E+00
         -2   -1    0    0    0  501 -0.00000000000E+00  0.00000000000E+00  0.23889268670E+03  0.23889268670E+03  0.00000000000E+00 0.  1.
          2   -1    0    0  501    0  0.00000000000E+00 -0.00000000000E+00 -0.89047032930E+02  0.89047032930E+02  0.00000000000E+00 0. -1.
         25    2    1    2    0    0 -0.79831264921E+02  0.34903096748E+02  0.26020410531E+02  0.15464463034E+03  0.12508654167E+03 0.  0.
          5    1    3    3  502    0 -0.71806931512E+02 -0.14798016777E+00  0.68158421676E+02  0.99092381931E+02  0.41800000000E+01 0. -1.
         -5    1    3    3    0  502 -0.80243334086E+01  0.35051076916E+02 -0.42138011145E+02  0.55552248405E+02  0.41800000000E+01 0. -1.
        -11    1    1    2    0    0  0.71772048401E+02 -0.53240682740E+02  0.12450203079E+03  0.15325323129E+03  0.00000000000E+00 0.  1.
         11    1    1    2    0    0  0.80592165198E+01  0.18337585992E+02 -0.67678754918E+00  0.20041858005E+02  0.00000000000E+00 0. -1.
</event>
<event>
 7    1  0.2749315E-009  0.2929565E+03  0.7561462E-02  0.1088816E+00
         -1   -1    0    0    0  501 -0.00000000000E+00  0.00000000000E+00  0.43060892167E+03  0.43060892167E+03  0.00000000000E+00 0.  1.
          1   -1    0    0  501    0  0.00000000000E+00 -0.00000000000E+00 -0.20547447741E+03  0.20547447741E+03  0.00000000000E+00 0. -1.
         25    2    1    2    0    0  0.17757880044E+03 -0.20761114332E+03  0.16224175997E+03  0.34147848904E+03  0.12509417493E+03 0.  0.
          5    1    3    3  502    0 -0.17212783645E+02 -0.45001371171E+01  0.44403593480E+01  0.18807454533E+02  0.41800000000E+01 0. -1.
         -5    1    3    3    0  502  0.19479158408E+03 -0.20311100620E+03  0.15780140062E+03  0.32267103450E+03  0.41800000000E+01 0. -1.
        -11    1    1    2    0    0 -0.49054009012E+02  0.12270540662E+03  0.44670080678E+02  0.13949311353E+03  0.00000000000E+00 0.  1.
         11    1    1    2    0    0 -0.12852479143E+03  0.84905736697E+02  0.18222603607E+02  0.15511179651E+03  0.00000000000E+00 0. -1.
</event>
<event>
 7    1  0.2749315E-009  0.1181715E+03  0.7561462E-02  0.1246144E+00
          1   -1    0    0  501    0  0.00000000000E+00  0.00000000000E+00  0.33641933967E+03  0.33641933967E+03  0.00000000000E+00 0. -1.
         -1   -1    0    0    0  501 -0.00000000000E+00 -0.00000000000E+00 -0.13347751337E+03  0.13347751337E+03  0.00000000000E+00 0.  1.
         25    2    1    2    0    0  0.44867547029E+02 -0.68043704971E+02 -0.74469410986E+02  0.16684234667E+03  0.12509049887E+03 0.  0.
          5    1    3    3  502    0  0.73396737922E+00  0.33700407699E+02 -0.14588742121E+01  0.33997895541E+02  0.41800000000E+01 0.  1.
         -5    1    3    3    0  502  0.44133579650E+02 -0.10174411267E+03 -0.73010536774E+02  0.13284445113E+03  0.41800000000E+01 0.  1.
        -11    1    1    2    0    0 -0.35638986091E+02  0.16933585680E+02  0.28224674929E+02  0.48513049053E+02  0.00000000000E+00 0.  1.
         11    1    1    2    0    0 -0.92285609377E+01  0.51110119291E+02  0.24918656236E+03  0.25454145731E+03  0.00000000000E+00 0. -1.
</event>
<event>
 7    1  0.2749315E-009  0.1100509E+03  0.7561462E-02  0.1260476E+00
          2   -1    0    0  501    0  0.00000000000E+00  0.00000000000E+00  0.82988961776E+02  0.82988961776E+02  0.00000000000E+00 0. -1.
         -2   -1    0    0    0  501 -0.00000000000E+00 -0.00000000000E+00 -0.17120472699E+03  0.17120472699E+03  0.00000000000E+00 0.  1.
         25    2    1    2    0    0 -0.62906641369E+01  0.29713589953E+02 -0.89707114880E+02  0.15689595356E+03  0.12508598603E+03 0.  0.
          5    1    3    3  502    0 -0.10172451581E+02 -0.47333193773E+02 -0.19031817256E+02  0.52188049129E+02  0.41800000000E+01 0. -1.
         -5    1    3    3    0  502  0.38817874442E+01  0.77046783725E+02 -0.70675297624E+02  0.10470790443E+03  0.41800000000E+01 0. -1.
        -11    1    1    2    0    0 -0.40175384690E+02 -0.25519333984E+02  0.12811103391E+02  0.49289170332E+02  0.00000000000E+00 0. -1.
         11    1    1    2    0    0  0.46466048827E+02 -0.41942559689E+01 -0.11319753723E+02  0.48008564872E+02  0.00000000000E+00 0.  1.
</event>
<event>
 7    1  0.2749315E-009  0.9788522E+02  0.7561462E-02  0.1284807E+00
         -4   -1    0    0    0  501 -0.00000000000E+00  0.00000000000E+00  0.24156958691E+03  0.24156958691E+03  0.00000000000E+00 0.  1.
          4   -1    0    0  501    0  0.00000000000E+00 -0.00000000000E+00 -0.69387443436E+02  0.69387443436E+02  0.00000000000E+00 0. -1.
         25    2    1    2    0    0 -0.17905090407E+02  0.28599451632E+02  0.22683628453E+02  0.13153340963E+03  0.12509184607E+03 0.  0.
          5    1    3    3  502    0 -0.54547131525E+02  0.50629273978E+02 -0.13028012701E+02  0.75669772407E+02  0.41800000000E+01 0.  1.
         -5    1    3    3    0  502  0.36642041118E+02 -0.22029822346E+02  0.35711641154E+02  0.55863637223E+02  0.41800000000E+01 0.  1.
        -11    1    1    2    0    0  0.30345068603E+02 -0.47069666085E+02  0.14664220469E+03  0.15697233148E+03  0.00000000000E+00 0.  1.
         11    1    1    2    0    0 -0.12439978196E+02  0.18470214453E+02  0.28563103255E+01  0.22451289231E+02  0.00000000000E+00 0. -1.
</event>
<event>
 7    1  0.2749315E-009  0.1614543E+03  0.7561462E-02  0.1187065E+00
          2   -1    0    0  501    0  0.00000000000E+00  0.00000000000E+00  0.19701631788E+03  0.19701631788E+03  0.00000000000E+00 0. -1.
         -2   -1    0    0    0  501 -0.00000000000E+00 -0.00000000000E+00 -0.20021721744E+03  0.20021721744E+03  0.00000000000E+00 0.  1.
         25    2    1    2    0    0  0.12742482718E+03 -0.20494892608E+02  0.10304529311E+03  0.20717488890E+03  0.12508387167E+03 0.  0.
          5    1    3    3  502    0  0.80346272808E+02  0.50066479945E+02  0.52115429627E+02  0.10814650421E+03  0.41800000000E+01 0. -1.
         -5    1    3    3    0  502  0.47078554369E+02 -0.70561372553E+02  0.50929863487E+02  0.99028384683E+02  0.41800000000E+01 0. -1.
        -11    1    1    2    0    0 -0.95414736522E+02  0.42421214351E+02 -0.10927105481E+03  0.15114130736E+03  0.00000000000E+00 0.  1.
         11    1    1    2    0    0 -0.32010090656E+02 -0.21926321744E+02  0.30248621302E+01  0.38917339065E+02  0.00000000000E+00 0. -1.
</event>
<event>
 7    1  0.2749315E-009  0.8804148E+02  0.7561462E-02  0.1307665E+00
          1   -1    0    0  501    0  0.00000000000E+00  0.00000000000E+00  0.44491439983E+03  0.44491439983E+03  0.00000000000E+00 0. -1.
         -1   -1    0    0    0  501 -0.00000000000E+00 -0.00000000000E+00 -0.34269446880E+02  0.34269446880E+02  0.00000000000E+00 0.  1.
         25    2    1    2    0    0  0.21746598368E+02 -0.45933328755E+02  0.17355006250E+03  0.21988510281E+03  0.12508816496E+03 0.  0.
          5    1    3    3  502    0 -0.44735689081E+01  0.90639435408E+01 -0.16761525151E+02  0.20014720000E+02  0.41800000000E+01 0. -1.
         -5    1    3    3    0  502  0.26220167276E+02 -0.54997272295E+02  0.19031158765E+03  0.19987038281E+03  0.41800000000E+01 0. -1.
        -11    1    1    2    0    0 -0.50547313119E+02  0.54197759327E+02  0.18342915779E+03  0.19783499162E+03  0.00000000000E+00 0. -1.
         11    1    1    2    0    0  0.28800714751E+02 -0.82644305722E+01  0.53665732661E+02  0.61463752284E+02  0.00000000000E+00 0.  1.
</event>
<event>
 7    1  0.2749315E-009  0.4620499E+03  0.7561462E-02  0.1024188E+00
         -2   -1    0    0    0  501 -0.00000000000E+00  0.00000000000E+00  0.32125866434E+03  0.32125866434E+03  0.00000000000E+00 0.  1.
          2   -1    0    0  501    0  0.00000000000E+00 -0.00000000000E+00 -0.68695284652E+03  0.68695284652E+03  0.00000000000E+00 0. -1.
         25    2    1    2    0    0 -0.43857637016E+03 -0.11102060810E+03 -0.11378098705E+03  0.48297370061E+03  0.12507067833E+03 0.  0.
          5    1    3    3  502    0 -0.18865163095E+03  0.12602000359E+02 -0.64356160782E+02  0.19976845622E+03  0.41800000000E+01 0.  1.
         -5    1    3    3    0  502 -0.24992473922E+03 -0.12362260846E+03 -0.49424826264E+02  0.28320524438E+03  0.41800000000E+01 0.  1.
        -11    1    1    2    0    0  0.30384077340E+03  0.48880091242E+02 -0.20439375881E+03  0.36943915269E+03  0.00000000000E+00 0.  1.
         11    1    1    2    0    0  0.13473559676E+03  0.62140516857E+02 -0.47519436324E+02  0.15579865756E+03  0.00000000000E+00 0. -1.
</event>
<event>
 7    1  0.2749315E-009  0.1175569E+03  0.7561462E-02  0.1247183E+00
         -2   -1    0    0    0  501 -0.00000000000E+00  0.00000000000E+00  0.58275396601E+02  0.58275396601E+02  0.00000000000E+00 0.  1.
          2   -1    0    0  501    0  0.00000000000E+00 -0.00000000000E+00 -0.39841418339E+03  0.39841418339E+03  0.00000000000E+00 0. -1.
         25    2    1    2    0    0 -0.17187736729E+02 -0.76448196558E+02 -0.73527742404E+02  0.16490471870E+03  0.12508993683E+03 0.  0.
          5    1    3    3  502    0 -0.55919832867E+02 -0.51941699160E+02  0.19965011771E+01  0.76461926712E+02  0.41800000000E+01 0. -1.
         -5    1    3    3    0  502  0.38732096138E+02 -0.24506497398E+02 -0.75524243582E+02  0.88442791987E+02  0.41800000000E+01 0. -1.
        -11    1    1    2    0    0  0.49395937147E+02  0.36940723552E+02 -0.19004010219E+03  0.19979943970E+03  0.00000000000E+00 0.  1.
         11    1    1    2    0    0 -0.32208200418E+02  0.39507473006E+02 -0.76570942199E+02  0.91985421599E+02  0.00000000000E+00 0. -1.
</event>
<event>
 7    1  0.2749315E-009  0.1251500E+03  0.7561462E-02  0.1234835E+00
          1   -1    0    0  501    0  0.00000000000E+00  0.00000000000E+00  0.99427561180E+02  0.99427561180E+02  0.00000000000E+00 0. -1.
         -1   -1    0    0    0  501 -0.00000000000E+00 -0.00000000000E+00 -0.16696004880E+03  0.16696004880E+03  0.00000000000E+00 0.  1.
         25    2    1    2    0    0 -0.40759830881E+02  0.60790124802E+02 -0.34998742327E+02  0.14909641020E+03  0.12509206403E+03 0.  0.
          5    1    3    3  502    0  0.23788164803E+02 -0.26264929244E+02 -0.20236419487E+01  0.35739205638E+02  0.41800000000E+01 0.  1.
         -5    1    3    3    0  502 -0.64547995684E+02  0.87055054046E+02 -0.32975100379E+02  0.11335720456E+03  0.41800000000E+01 0.  1.
        -11    1    1    2    0    0  0.40534990099E+02  0.45797441486E+01 -0.32118342260E+02  0.51919624308E+02  0.00000000000E+00 0.  1.
         11    1    1    2    0    0  0.22484078276E+00 -0.65369868950E+02 -0.41540303463E+00  0.65371575471E+02  0.00000000000E+00 0. -1.
</event>
<event>
 7    1  0.2749315E-009  0.4833192E+02  0.7561462E-02  0.1454552E+00
          1   -1    0    0  501    0  0.00000000000E+00  0.00000000000E+00  0.22857034605E+03  0.22857034605E+03  0.00000000000E+00 0. -1.
         -1   -1    0    0    0  501 -0.00000000000E+00 -0.00000000000E+00 -0.57102063945E+02  0.57102063945E+02  0.00000000000E+00 0.  1.
         25    2    1    2    0    0  0.11189455180E+02 -0.24790994331E+02  0.65124213011E+02  0.14362666306E+03  0.12509059882E+03 0.  0.
          5    1    3    3  502    0  0.35998860435E+01 -0.16612942365E+02 -0.36935625420E+02  0.40873730668E+02  0.41800000000E+01 0. -1.
         -5    1    3    3    0  502  0.75895691367E+01 -0.81780519657E+01  0.10205983843E+03  0.10275293239E+03  0.41800000000E+01 0. -1.
        -11    1    1    2    0    0 -0.33508053746E+02 -0.50272398294E+00  0.10280359519E+03  0.10812780208E+03  0.00000000000E+00 0. -1.
         11    1    1    2    0    0  0.22318598566E+02  0.25293718314E+02  0.35404738966E+01  0.33917944859E+02  0.00000000000E+00 0.  1.
</event>
<event>
 7    1  0.2749315E-009  0.1421172E+03  0.7561462E-02  0.1210508E+00
         -1   -1    0    0    0  501 -0.00000000000E+00  0.00000000000E+00  0.16676627246E+02  0.16676627246E+02  0.00000000000E+00 0.  1.
          1   -1    0    0  501    0  0.00000000000E+00 -0.00000000000E+00 -0.12683760263E+04  0.12683760263E+04  0.00000000000E+00 0. -1.
         25    2    1    2    0    0  0.84717789466E+02  0.40892621250E+02 -0.79911810590E+03  0.81430214547E+03  0.12509566989E+03 0.  0.
          5    1    3    3  502    0  0.63699619963E+02 -0.37346385353E+02 -0.43648445314E+03  0.44270593436E+03  0.41800000000E+01 0.  1.
         -5    1    3    3    0  502  0.21018169503E+02  0.78239006603E+02 -0.36263365276E+03  0.37159621111E+03  0.41800000000E+01 0.  1.
        -11    1    1    2    0    0 -0.89794462855E+02 -0.18806760975E+01 -0.33055095596E+03  0.34253542443E+03  0.00000000000E+00 0.  1.
         11    1    1    2    0    0  0.50766733887E+01 -0.39011945152E+02 -0.12203033717E+03  0.12821508361E+03  0.00000000000E+00 0. -1.
</event>
<event>
 7    1  0.2749315E-009  0.1293623E+03  0.7561462E-02  0.1228405E+00
         -1   -1    0    0    0  501 -0.00000000000E+00  0.00000000000E+00  0.14479394456E+03  0.14479394456E+03  0.00000000000E+00 0.  1.
          1   -1    0    0  501    0  0.00000000000E+00 -0.00000000000E+00 -0.11805291028E+03  0.11805291028E+03  0.00000000000E+00 0. -1.
         25    2    1    2    0    0  0.62805458148E+02  0.37472510027E+02 -0.33457879212E+00  0.14490371072E+03  0.12509300083E+03 0.  0.
          5    1    3    3  502    0  0.19636751930E+02 -0.45865847215E+02  0.75137236786E+01  0.50628118775E+02  0.41800000000E+01 0. -1.
         -5    1    3    3    0  502  0.43168706218E+02  0.83338357242E+02 -0.78483024707E+01  0.94275591942E+02  0.41800000000E+01 0. -1.
        -11    1    1    2    0    0 -0.77720060976E+02 -0.37214069573E+01  0.16244448742E+02  0.79486721299E+02  0.00000000000E+00 0. -1.
         11    1    1    2    0    0  0.14914602828E+02 -0.33751103070E+02  0.10831164333E+02  0.38456422828E+02  0.00000000000E+00 0.  1.
</event>
<event>
 7    1  0.2749315E-009  0.1318674E+03  0.7561462E-02  0.1224711E+00
          2   -1    0    0  501    0  0.00000000000E+00  0.00000000000E+00  0.15912664985E+04  0.15912664985E+04  0.00000000000E+00 0. -1.
         -2   -1    0    0    0  501 -0.00000000000E+00 -0.00000000000E+00 -0.13288846986E+02  0.13288846986E+02  0.00000000000E+00 0.  1.
         25    2    1    2    0    0 -0.15957495000E+02  0.94735097604E+02  0.81810035933E+03  0.83316718663E+03  0.12509989037E+03 0.  0.
          5    1    3    3  502    0 -0.51931517885E+02  0.41398697197E+02  0.18156701152E+03  0.19337731705E+03  0.41800000000E+01 0. -1.
         -5    1    3    3    0  502  0.35974022885E+02  0.53336400407E+02  0.63653334781E+03  0.63978986957E+03  0.41800000000E+01 0. -1.
        -11    1    1    2    0    0  0.44745092135E+02 -0.13810886842E+02  0.27762310280E+03  0.28154475856E+03  0.00000000000E+00 0.  1.
         11    1    1    2    0    0 -0.28787597135E+02 -0.80924210762E+02  0.48225418940E+03  0.48984340031E+03  0.00000000000E+00 0. -1.
</event>
<event>
 7    1  0.4033884E-009  0.1638842E+03  0.7561462E-02  0.1184380E+00
         -2   -1    0    0    0  501 -0.00000000000E+00  0.00000000000E+00  0.16821240984E+02  0.16821240984E+02  0.00000000000E+00 0.  1.
          2   -1    0    0  501    0  0.00000000000E+00 -0.00000000000E+00 -0.18319997840E+04  0.18319997840E+04  0.00000000000E+00 0. -1.
         25    2    1    2    0    0 -0.12930340388E+03  0.38248837620E+02 -0.10940562998E+04  0.11094091610E+04  0.12508859080E+03 0.  0.
          5    1    3    3  502    0 -0.40955002354E+02  0.63659975647E+02 -0.72904227251E+03  0.73297340485E+03  0.41800000000E+01 0.  1.
         -5    1    3    3    0  502 -0.88348401525E+02 -0.25411138028E+02 -0.36501402728E+03  0.37643575614E+03  0.41800000000E+01 0.  1.
        -11    1    1    2    0    0  0.77036572091E+02 -0.65382063642E+02 -0.52516584493E+03  0.53479773033E+03  0.00000000000E+00 0. -1.
         11    1    1    2    0    0  0.52266831788E+02  0.27133226023E+02 -0.19595639824E+03  0.20461413361E+03  0.00000000000E+00 0.  1.
</event>
<event>
 7    1  0.2749315E-009  0.1233627E+03  0.7561462E-02  0.1237651E+00
          1   -1    0    0  501    0  0.00000000000E+00  0.00000000000E+00  0.27975173927E+03  0.27975173927E+03  0.00000000000E+00 0. -1.
         -1   -1    0    0    0  501 -0.00000000000E+00 -0.00000000000E+00 -0.94579744815E+02  0.94579744815E+02  0.00000000000E+00 0.  1.
         25    2    1    2    0    0  0.42470604603E+02  0.66596798618E+02  0.20523249409E+03  0.25299673721E+03  0.12509231219E+03 0.  0.
          5    1    3    3  502    0 -0.17586495385E+02  0.70739639920E+02  0.55969506914E+02  0.91996954189E+02  0.41800000000E+01 0. -1.
         -5    1    3    3    0  502  0.60057099988E+02 -0.41428413018E+01  0.14926298718E+03  0.16099978303E+03  0.41800000000E+01 0. -1.
        -11    1    1    2    0    0 -0.61070448748E+02 -0.71599678210E+02 -0.82053052155E+00  0.94110503667E+02  0.00000000000E+00 0. -1.
         11    1    1    2    0    0  0.18599844145E+02  0.50028795921E+01 -0.19239969116E+02  0.27224243203E+02  0.00000000000E+00 0.  1.
</event>
<event>
 7    1  0.2749315E-009  0.1448040E+03  0.7561462E-02  0.1207007E+00
          2   -1    0    0  501    0  0.00000000000E+00  0.00000000000E+00  0.70944283973E+03  0.70944283973E+03  0.00000000000E+00 0. -1.
         -2   -1    0    0    0  501 -0.00000000000E+00 -0.00000000000E+00 -0.46977480896E+02  0.46977480896E+02  0.00000000000E+00 0.  1.
         25    2    1    2    0    0 -0.50203325089E+02 -0.12947115794E+03  0.42302526343E+03  0.46247283549E+03  0.12509034925E+03 0.  0.
          5    1    3    3  502    0 -0.30126336224E+02 -0.92268849638E+02  0.11075807002E+03  0.14732942416E+03  0.41800000000E+01 0. -1.
         -5    1    3    3    0  502 -0.20076988865E+02 -0.37202308305E+02  0.31226719341E+03  0.31514341133E+03  0.41800000000E+01 0. -1.
        -11    1    1    2    0    0  0.29920518216E+02  0.12586742294E+03  0.13304727037E+03  0.18557861332E+03  0.00000000000E+00 0.  1.
         11    1    1    2    0    0  0.20282806873E+02  0.36037350009E+01  0.10639282503E+03  0.10836887182E+03  0.00000000000E+00 0. -1.
</event>
<event>
 7    1  0.2749315E-009  0.9115528E+02  0.7561462E-02  0.1300078E+00
         -1   -1    0    0    0  501 -0.00000000000E+00  0.00000000000E+00  0.33539275693E+03  0.33539275693E+03  0.00000000000E+00 0.  1.
          1   -1    0    0  501    0  0.00000000000E+00 -0.00000000000E+00 -0.38661957245E+02  0.38661957245E+02  0.00000000000E+00 0. -1.
         25    2    1    2    0    0  0.70992323280E+01 -0.22281915130E+02  0.21326708974E+03  0.24834675309E+03  0.12508547223E+03 0.  0.
          5    1    3    3  502    0 -0.51070002520E+02  0.19237418104E+02  0.10747108199E+03  0.12060567680E+03  0.41800000000E+01 0.  1.
         -5    1    3    3    0  502  0.58169234848E+02 -0.41519333234E+02  0.10579600775E+03  0.12774107629E+03  0.41800000000E+01 0.  1.
        -11    1    1    2    0    0 -0.14605523397E+02 -0.13221107540E+02 -0.12350697707E+02  0.23252069416E+02  0.00000000000E+00 0. -1.
         11    1    1    2    0    0  0.75062910691E+01  0.35503022670E+02  0.95814407651E+02  0.10245589167E+03  0.00000000000E+00 0.  1.
</event>
<event>
 7    1  0.2749315E-009  0.8283180E+02  0.7561462E-02  0.1321202E+00
          1   -1    0    0  501    0  0.00000000000E+00  0.00000000000E+00  0.50278833742E+03  0.50278833742E+03  0.00000000000E+00 0. -1.
         -1   -1    0    0    0  501 -0.00000000000E+00 -0.00000000000E+00 -0.30511812301E+02  0.30511812301E+02  0.00000000000E+00 0.  1.
         25    2    1    2    0    0  0.21491795929E+02 -0.56117263857E+02  0.24919796952E+03  0.28523322546E+03  0.12508924934E+03 0.  0.
          5    1    3    3  502    0  0.27381078928E+02 -0.27415128956E+02  0.25246635265E+03  0.25545654112E+03  0.41800000000E+01 0.  1.
         -5    1    3    3    0  502 -0.58892829989E+01 -0.28702134901E+02 -0.32683831352E+01  0.29776684343E+02  0.41800000000E+01 0.  1.
        -11    1    1    2    0    0 -0.31976862830E+02  0.71588618791E+02  0.21269601223E+03  0.22668710531E+03  0.00000000000E+00 0. -1.
         11    1    1    2    0    0  0.10485066901E+02 -0.15471354934E+02  0.10382543377E+02  0.21379818951E+02  0.00000000000E+00 0.  1.
</event>
<event>
 7    1  0.2749315E-009  0.1976604E+03  0.7561462E-02  0.1151728E+00
          3   -1    0    0  501    0  0.00000000000E+00  0.00000000000E+00  0.32047318834E+03  0.32047318834E+03  0.00000000000E+00 0. -1.
         -3   -1    0    0    0  501 -0.00000000000E+00 -0.00000000000E+00 -0.13654685659E+03  0.13654685659E+03  0.00000000000E+00 0.  1.
         25    2    1    2    0    0  0.15697547726E+03  0.80147385877E+02  0.63714778342E+02  0.22532651023E+03  0.12509020470E+03 0.  0.
          5    1    3    3  502    0  0.80581924949E+02  0.10119536466E+03  0.67331957869E+02  0.14589384294E+03  0.41800000000E+01 0. -1.
         -5    1    3    3    0  502  0.76393552312E+02 -0.21047978784E+02 -0.36171795273E+01  0.79432667294E+02  0.41800000000E+01 0. -1.
        -11    1    1    2    0    0 -0.12515260931E+02 -0.31854007383E+02 -0.49079854146E+01  0.34574526221E+02  0.00000000000E+00 0.  1.
         11    1    1    2    0    0 -0.14446021633E+03 -0.48293378494E+02  0.12511953882E+03  0.19711900848E+03  0.00000000000E+00 0. -1.
</event>
<event>
 7    1  0.3068524E-009  0.1305092E+03  0.7561462E-02  0.1226702E+00
         -3   -1    0    0    0  501 -0.00000000000E+00  0.00000000000E+00  0.96907205309E+03  0.96907205309E+03  0.00000000000E+00 0.  1.
          3   -1    0    0  501    0  0.00000000000E+00 -0.00000000000E+00 -0.23173096735E+02  0.23173096735E+02  0.00000000000E+00 0. -1.
         25    2    1    2    0    0 -0.95885266991E+02  0.20396840279E+01  0.63606620199E+03  0.65530731938E+03  0.12509726127E+03 0.  0.
          5    1    3    3  502    0  0.64532092940E+01 -0.23301063474E+02  0.34210508601E+03  0.34298388554E+03  0.41800000000E+01 0.  1.
         -5    1    3    3    0  502 -0.10233847629E+03  0.25340747502E+02  0.29396111598E+03  0.31232343383E+03  0.41800000000E+01 0.  1.
        -11    1    1    2    0    0  0.60114019176E+02  0.42664396683E+02  0.19850640137E+03  0.21175159369E+03  0.00000000000E+00 0. -1.
         11    1    1    2    0    0  0.35771247816E+02 -0.44704080711E+02  0.11132635299E+03  0.12518623675E+03  0.00000000000E+00 0.  1.
</event>
<event>
 7    1  0.2749315E-009  0.1026247E+03  0.7561462E-02  0.1274871E+00
          1   -1    0    0  501    0  0.00000000000E+00  0.00000000000E+00  0.46489769868E+03  0.46489769868E+03  0.00000000000E+00 0. -1.
         -1   -1    0    0    0  501 -0.00000000000E+00 -0.00000000000E+00 -0.32619606313E+02  0.32619606313E+02  0.00000000000E+00 0.  1.
         25    2    1    2    0    0  0.20973227397E+02 -0.11248380206E+02  0.14708231112E+03  0.19454764500E+03  0.12509667305E+03 0.  0.
          5    1    3    3  502    0  0.52636358468E+02  0.22166000538E+02  0.22257152514E+02  0.61439165445E+02  0.41800000000E+01 0. -1.
         -5    1    3    3    0  502 -0.31663131071E+02 -0.33414380744E+02  0.12482515860E+03  0.13310847956E+03  0.41800000000E+01 0. -1.
        -11    1    1    2    0    0  0.35011647482E+02 -0.17148608353E+02  0.95258884974E+02  0.10292786500E+03  0.00000000000E+00 0. -1.
         11    1    1    2    0    0 -0.55984874878E+02  0.28396988558E+02  0.18993689627E+03  0.20004179498E+03  0.00000000000E+00 0.  1.
</event>
<event>
 7    1  0.2749315E-009  0.1554724E+03  0.7561462E-02  0.1193905E+00
          1   -1    0    0  501    0  0.00000000000E+00  0.00000000000E+00  0.11035681385E+04  0.11035681385E+04  0.00000000000E+00 0. -1.
         -1   -1    0    0    0  501 -0.00000000000E+00 -0.00000000000E+00 -0.25791858070E+02  0.25791858070E+02  0.00000000000E+00 0.  1.
         25    2    1    2    0    0 -0.73512166295E+02 -0.10156288540E+03  0.66959466888E+03  0.69262132022E+03  0.12509282292E+03 0.  0.
          5    1    3    3  502    0 -0.51696867687E+02 -0.12944142880E+03  0.57100911465E+03  0.58778952954E+03  0.41800000000E+01 0. -1.
         -5    1    3    3    0  502 -0.21815298608E+02  0.27878543398E+02  0.98585554233E+02  0.10483179069E+03  0.41800000000E+01 0. -1.
        -11    1    1    2    0    0  0.28123791978E+02  0.81523772277E+02  0.34906791621E+03  0.35956290583E+03  0.00000000000E+00 0. -1.
         11    1    1    2    0    0  0.45388374317E+02  0.20039113121E+02  0.59113695308E+02  0.77175770490E+02  0.00000000000E+00 0.  1.
</event>
<event>
 7    1  0.2749315E-009  0.9220170E+02  0.7561462E-02  0.1297606E+00
          1   -1    0    0  501    0  0.00000000000E+00  0.00000000000E+00  0.83939343712E+03  0.83939343712E+03  0.00000000000E+00 0. -1.
         -1   -1    0    0    0  501 -0.00000000000E+00 -0.00000000000E+00 -0.15175054597E+02  0.15175054597E+02  0.00000000000E+00 0.  1.
         25    2    1    2    0    0  0.39079236580E+02 -0.12525278480E+01  0.43849802162E+03  0.45766452241E+03  0.12509014571E+03 0.  0.
          5    1    3    3  502    0 -0.65846340346E+01 -0.33789617733E+02  0.31650435182E+02  0.46950166337E+02  0.41800000000E+01 0. -1.
         -5    1    3    3    0  502  0.45663870615E+02  0.32537089885E+02  0.40684758644E+03  0.41071435608E+03  0.41800000000E+01 0. -1.
        -11    1    1    2    0    0 -0.24317477562E+02  0.42900387983E+02  0.19660084372E+03  0.20269108208E+03  0.00000000000E+00 0. -1.
         11    1    1    2    0    0 -0.14761759018E+02 -0.41647860135E+02  0.18911951719E+03  0.19421288723E+03  0.00000000000E+00 0.  1.
</event>
<event>
 7    1  0.2749315E-009  0.1209160E+03  0.7561462E-02  0.1241594E+00
          2   -1    0    0  501    0  0.00000000000E+00  0.00000000000E+00  0.14028486157E+02  0.14028486157E+02  0.00000000000E+00 0.  1.
         -2   -1    0    0    0  501 -0.00000000000E+00 -0.00000000000E+00 -0.11936303497E+04  0.11936303497E+04  0.00000000000E+00 0. -1.
         25    2    1    2    0    0  0.64994514908E+02 -0.19586641133E+02 -0.64051402888E+03  0.65613560731E+03  0.12509112879E+03 0.  0.
          5    1    3    3  502    0  0.25935039181E+02 -0.62857856499E+02 -0.48931575430E+03  0.49403554142E+03  0.41800000000E+01 0.  1.
         -5    1    3    3    0  502  0.39059475727E+02  0.43271215366E+02 -0.15119827458E+03  0.16210006588E+03  0.41800000000E+01 0.  1.
        -11    1    1    2    0    0 -0.35618270559E+02  0.57294274348E+02 -0.27577436495E+03  0.28390631453E+03  0.00000000000E+00 0.  1.
         11    1    1    2    0    0 -0.29376244349E+02 -0.37707633215E+02 -0.26331346973E+03  0.26761691403E+03  0.00000000000E+00 0. -1.
</event>
<event>
 7    1  0.2749315E-009  0.1199328E+03  0.7561462E-02  0.1243208E+00
          2   -1    0    0  501    0  0.00000000000E+00  0.00000000000E+00  0.15585631454E+03  0.15585631454E+03  0.00000000000E+00 0. -1.
         -2   -1    0    0    0  501 -0.00000000000E+00 -0.00000000000E+00 -0.10960814258E+03  0.10960814258E+03  0.00000000000E+00 0.  1.
         25    2    1    2    0    0 -0.37315101183E+02 -0.32046841685E+02 -0.19768315795E+02  0.13585772392E+03  0.12508844071E+03 0.  0.
          5    1    3    3  502    0 -0.13042686354E+01 -0.76713274278E+02 -0.95302605086E+01  0.77426906386E+02  0.41800000000E+01 0.  1.
         -5    1    3    3    0  502 -0.36010832547E+02  0.44666432593E+02 -0.10238055287E+02  0.58430817532E+02  0.41800000000E+01 0.  1.
        -11    1    1    2    0    0  0.13354211671E+02 -0.33311458354E+02  0.35274416109E+01  0.36061490143E+02  0.00000000000E+00 0.  1.
         11    1    1    2    0    0  0.23960889512E+02  0.65358300039E+02  0.62489046145E+02  0.93545243055E+02  0.00000000000E+00 0. -1.
</event>
<event>
 7    1  0.2749315E-009  0.2237931E+03  0.7561462E-02  0.1131086E+00
         -1   -1    0    0    0  501 -0.00000000000E+00  0.00000000000E+00  0.29299859491E+03  0.29299859491E+03  0.00000000000E+00 0.  1.
          1   -1    0    0  501    0  0.00000000000E+00 -0.00000000000E+00 -0.25631053243E+03  0.25631053243E+03  0.00000000000E+00 0. -1.
         25    2    1    2    0    0  0.70114732297E+02 -0.18702999377E+03  0.17184261984E+03  0.29167842663E+03  0.12510045689E+03 0.  0.
          5    1    3    3  502    0  0.97090718900E+02 -0.96657119667E+02  0.74197737878E+02  0.15585885661E+03  0.41800000000E+01 0. -1.
         -5    1    3    3    0  502 -0.26975986603E+02 -0.90372874100E+02  0.97644881959E+02  0.13581957002E+03  0.41800000000E+01 0. -1.
        -11    1    1    2    0    0 -0.10331309211E+02  0.13912178807E+03 -0.10772855346E+03  0.17625847241E+03  0.00000000000E+00 0. -1.
         11    1    1    2    0    0 -0.59783423085E+02  0.47908205698E+02 -0.27426003899E+02  0.81372228302E+02  0.00000000000E+00 0.  1.
</event>
<event>
 7    1  0.2749315E-009  0.1214601E+03  0.7561462E-02  0.1240708E+00
          1   -1    0    0  501    0  0.00000000000E+00  0.00000000000E+00  0.23036975021E+03  0.23036975021E+03  0.00000000000E+00 0. -1.
         -1   -1    0    0    0  501 -0.00000000000E+00 -0.00000000000E+00 -0.68635358324E+02  0.68635358324E+02  0.00000000000E+00 0.  1.
         25    2    1    2    0    0 -0.55343236626E+02  0.23968101300E+02  0.11887725261E+03  0.18280344544E+03  0.12509178533E+03 0.  0.
          5    1    3    3  502    0  0.24971303713E+02  0.46810953998E+02  0.31365762016E+02  0.61774710441E+02  0.41800000000E+01 0.  1.
         -5    1    3    3    0  502 -0.80314540338E+02 -0.22842852698E+02  0.87511490590E+02  0.12102873499E+03  0.41800000000E+01 0.  1.
        -11    1    1    2    0    0 -0.14359568832E+02 -0.32829449971E+02  0.43990588004E+01  0.36101547346E+02  0.00000000000E+00 0.  1.
         11    1    1    2    0    0  0.69702805458E+02  0.88613486717E+01  0.38458080476E+02  0.80100115748E+02  0.00000000000E+00 0. -1.
</event>
<event>
 7    1  0.2749315E-009  0.1265874E+03  0.7561462E-02  0.1232609E+00
         -1   -1    0    0    0  501 -0.00000000000E+00  0.00000000000E+00  0.38818318493E+02  0.38818318493E+02  0.00000000000E+00 0.  1.
          1   -1    0    0  501    0  0.00000000000E+00 -0.00000000000E+00 -0.56053169925E+03  0.56053169925E+03  0.00000000000E+00 0. -1.
         25    2    1    2    0    0  0.57765843787E+02  0.81052026635E+02 -0.28841863584E+03  0.32975317286E+03  0.12508206020E+03 0.  0.
          5    1    3    3  502    0 -0.46613178722E+00  0.77632748806E+02 -0.24465031676E+03  0.25670666306E+03  0.41800000000E+01 0. -1.
         -5    1    3    3    0  502  0.58231975574E+02  0.34192778297E+01 -0.43768319075E+02  0.73046509806E+02  0.41800000000E+01 0. -1.
        -11    1    1    2    0    0 -0.37363148288E+02 -0.43952376972E+01 -0.21266679570E+02  0.43215675678E+02  0.00000000000E+00 0.  1.
         11    1    1    2    0    0 -0.20402695499E+02 -0.76656788938E+02 -0.21202806535E+03  0.22638116921E+03  0.00000000000E+00 0. -1.
</event>
<event>
 7    1  0.2749315E-009  0.8514493E+02  0.7561462E-02  0.1315054E+00
         -1   -1    0    0    0  501 -0.00000000000E+00  0.00000000000E+00  0.31972092778E+02  0.31972092778E+02  0.00000000000E+00 0.  1.
          1   -1    0    0  501    0  0.00000000000E+00 -0.00000000000E+00 -0.42547128260E+03  0.42547128260E+03  0.00000000000E+00 0. -1.
         25    2    1    2    0    0  0.22426343559E+02 -0.22453585165E+02 -0.17564020436E+03  0.21795405401E+03  0.12508950355E+03 0.  0.
          5    1    3    3  502    0 -0.39951899766E+02 -0.42237406135E+01 -0.12476134194E+02  0.42274349245E+02  0.41800000000E+01 0.  1.
         -5    1    3    3    0  502  0.62378243325E+02 -0.18229844552E+02 -0.16316407017E+03  0.17567970476E+03  0.41800000000E+01 0.  1.
        -11    1    1    2    0    0 -0.38351886414E+02  0.13989119926E+01 -0.20767916658E+03  0.21119531335E+03  0.00000000000E+00 0. -1.
         11    1    1    2    0    0  0.15925542854E+02  0.21054673173E+02 -0.10179818877E+02  0.28294008022E+02  0.00000000000E+00 0.  1.
</event>
<event>
 7    1  0.2749315E-009  0.2001898E+03  0.7561462E-02  0.1149579E+00
          2   -1    0    0  501    0  0.00000000000E+00  0.00000000000E+00  0.12862188443E+04  0.12862188443E+04  0.00000000000E+00 0. -1.
         -2   -1    0    0    0  501 -0.00000000000E+00 -0.00000000000E+00 -0.32980669124E+02  0.32980669124E+02  0.00000000000E+00 0.  1.
         25    2    1    2    0    0 -0.52985625658E+02  0.16619929671E+03  0.70626425475E+03  0.73816183313E+03  0.12507602324E+03 0.  0.
          5    1    3    3  502    0 -0.61734980560E+02  0.31153811647E+02  0.35522989091E+03  0.36192197447E+03  0.41800000000E+01 0.  1.
         -5    1    3    3    0  502  0.87493549023E+01  0.13504548506E+03  0.35103436384E+03  0.37623985866E+03  0.41800000000E+01 0.  1.
        -11    1    1    2    0    0  0.52683421622E+02 -0.32271713433E+02  0.15777025287E+03  0.16943570784E+03  0.00000000000E+00 0.  1.
         11    1    1    2    0    0  0.30220403583E+00 -0.13392758328E+03  0.38920366753E+03  0.41160197243E+03  0.00000000000E+00 0. -1.
</event>
<event>
 7    1  0.2749315E-009  0.6702623E+02  0.7561462E-02  0.1370508E+00
         -2   -1    0    0    0  501 -0.00000000000E+00  0.00000000000E+00  0.17165182676E+02  0.17165182676E+02  0.00000000000E+00 0.  1.
          2   -1    0    0  501    0  0.00000000000E+00 -0.00000000000E+00 -0.12266290838E+04  0.12266290838E+04  0.00000000000E+00 0. -1.
         25    2    1    2    0    0  0.16556697092E+02 -0.15597681081E+02 -0.10557286609E+04  0.10633570430E+04  0.12509110078E+03 0.  0.
          5    1    3    3  502    0  0.31579355246E+02 -0.40805222282E+02 -0.18451189738E+03  0.19163620356E+03  0.41800000000E+01 0.  1.
         -5    1    3    3    0  502 -0.15022658154E+02  0.25207541201E+02 -0.87121676356E+03  0.87172083943E+03  0.41800000000E+01 0.  1.
        -11    1    1    2    0    0  0.78724918608E+01  0.25196462476E+02 -0.20272416027E+01  0.26475414216E+02  0.00000000000E+00 0.  1.
         11    1    1    2    0    0 -0.24429188953E+02 -0.95987813946E+01 -0.15170799854E+03  0.15396180922E+03  0.00000000000E+00 0. -1.
</event>
<event>
 7    1  0.4807564E-009  0.1289283E+03  0.7561462E-02  0.1229055E+00
          1   -1    0    0  501    0  0.00000000000E+00  0.00000000000E+00  0.13848808017E+03  0.13848808017E+03  0.00000000000E+00 0. -1.
         -1   -1    0    0    0  501 -0.00000000000E+00 -0.00000000000E+00 -0.18115254930E+03  0.18115254930E+03  0.00000000000E+00 0.  1.
         25    2    1    2    0    0 -0.11434124610E+03 -0.14870123411E+01 -0.84316658281E+01  0.16969124353E+03  0.12509153998E+03 0.  0.
          5    1    3    3  502    0 -0.11074729737E+03 -0.24638567302E+01  0.42301266218E+02  0.11865034339E+03  0.41800000000E+01 0. -1.
         -5    1    3    3    0  502 -0.35939487343E+01  0.97684438905E+00 -0.50732932046E+02  0.51040900133E+02  0.41800000000E+01 0. -1.
        -11    1    1    2    0    0  0.79093035977E+02 -0.38612762966E+02 -0.39159039279E+02  0.96333193455E+02  0.00000000000E+00 0.  1.
         11    1    1    2    0    0  0.35248210123E+02  0.40099775308E+02  0.49262359764E+01  0.53616192494E+02  0.00000000000E+00 0. -1.
</event>
<event>
 7    1  0.2749315E-009  0.1014533E+03  0.7561462E-02  0.1277269E+00
         -4   -1    0    0    0  501 -0.00000000000E+00  0.00000000000E+00  0.21131749123E+03  0.21131749123E+03  0.00000000000E+00 0.  1.
          4   -1    0    0  501    0  0.00000000000E+00 -0.00000000000E+00 -0.69792952113E+02  0.69792952113E+02  0.00000000000E+00 0. -1.
         25    2    1    2    0    0 -0.10009522950E+01 -0.41786934344E+02  0.38091788817E+02  0.13727345278E+03  0.12508343886E+03 0.  0.
          5    1    3    3  502    0  0.40184140312E+02 -0.63244520961E+02  0.48687753193E+02  0.89457276256E+02  0.41800000000E+01 0. -1.
         -5    1    3    3    0  502 -0.41185092607E+02  0.21457586617E+02 -0.10595964376E+02  0.47816176526E+02  0.41800000000E+01 0. -1.
        -11    1    1    2    0    0  0.23498951769E+02 -0.94073958149E+01 -0.10469712489E+01  0.25333692566E+02  0.00000000000E+00 0. -1.
         11    1    1    2    0    0 -0.22497999474E+02  0.51194330159E+02  0.10447972155E+03  0.11850329800E+03  0.00000000000E+00 0.  1.
</event>
<event>
 7    1  0.2749315E-009  0.1157733E+03  0.7561462E-02  0.1250237E+00
         -2   -1    0    0    0  501 -0.00000000000E+00  0.00000000000E+00  0.75436272145E+02  0.75436272145E+02  0.00000000000E+00 0.  1.
          2   -1    0    0  501    0  0.00000000000E+00 -0.00000000000E+00 -0.29899094985E+03  0.29899094985E+03  0.00000000000E+00 0. -1.
         25    2    1    2    0    0  0.47808394634E+02 -0.43674754458E+02 -0.22218321477E+03  0.26307046036E+03  0.12509020510E+03 0.  0.
          5    1    3    3  502    0  0.46518240176E+02 -0.85697710945E+02 -0.13998606729E+03  0.17065056626E+03  0.41800000000E+01 0.  1.
         -5    1    3    3    0  502  0.12901544579E+01  0.42022956487E+02 -0.82197147477E+02  0.92419894091E+02  0.41800000000E+01 0.  1.
        -11    1    1    2    0    0  0.16151398074E+02  0.47955193310E+01  0.26570358302E+02  0.31461859540E+02  0.00000000000E+00 0.  1.
         11    1    1    2    0    0 -0.63959792708E+02  0.38879235127E+02 -0.27941821235E+02  0.79894902098E+02  0.00000000000E+00 0. -1.
</event>
<event>
 7    1  0.2749315E-009  0.1277760E+03  0.7561462E-02  0.1230794E+00
         -2   -1    0    0    0  501 -0.00000000000E+00  0.00000000000E+00  0.40506332081E+03  0.40506332081E+03  0.00000000000E+00 0.  1.
          2   -1    0    0  501    0  0.00000000000E+00 -0.00000000000E+00 -0.88647936176E+02  0.88647936176E+02  0.00000000000E+00 0. -1.
         25    2    1    2    0    0 -0.62944615863E+02  0.57829027796E+02  0.80200306191E-01  0.15150417175E+03  0.12508911425E+03 0.  0.
          5    1    3    3  502    0  0.27601151155E+01  0.60236794986E+02 -0.41752766605E+02  0.73463294405E+02  0.41800000000E+01 0.  1.
         -5    1    3    3    0  502 -0.65704730979E+02 -0.24077671901E+01  0.41832966911E+02  0.78040877343E+02  0.41800000000E+01 0.  1.
        -11    1    1    2    0    0  0.87169417300E+02 -0.58520069662E+02  0.27399377338E+03  0.29342067705E+03  0.00000000000E+00 0. -1.
         11    1    1    2    0    0 -0.24224801437E+02  0.69104186591E+00  0.42341410945E+02  0.48786408192E+02  0.00000000000E+00 0.  1.
</event>
<event>
 7    1  0.2749315E-009  0.9252216E+02  0.7561462E-02  0.1296856E+00
         -1   -1    0    0    0  501 -0.00000000000E+00  0.00000000000E+00  0.75458537356E+02  0.75458537356E+02  0.00000000000E+00 0.  1.
          1   -1    0    0  501    0  0.00000000000E+00 -0.00000000000E+00 -0.18247693707E+03  0.18247693707E+03  0.00000000000E+00 0. -1.
         25    2    1    2    0    0  0.12529971661E+01 -0.22321559812E+02 -0.10041190386E+03  0.16195510632E+03  0.12508830478E+03 0.  0.
          5    1    3    3  502    0  0.15575802040E+01 -0.55630223559E+02  0.28494483023E+00  0.55809510147E+02  0.41800000000E+01 0. -1.
         -5    1    3    3    0  502 -0.30458303785E+00  0.33308663747E+02 -0.10069684869E+03  0.10614559618E+03  0.41800000000E+01 0. -1.
        -11    1    1    2    0    0  0.27907227135E+02 -0.26701805484E+02 -0.46927119401E+01  0.38907856376E+02  0.00000000000E+00 0.  1.
         11    1    1    2    0    0 -0.29160224301E+02  0.49023365296E+02 -0.19137839165E+01  0.57072511729E+02  0.00000000000E+00 0. -1.
</event>
<event>
 7    1  0.2749315E-009  0.9635809E+02  0.7561462E-02  0.1288146E+00
          1   -1    0    0  501    0  0.00000000000E+00  0.00000000000E+00  0.15420042099E+03  0.15420042099E+03  0.00000000000E+00 0. -1.
         -1   -1    0    0    0  501 -0.00000000000E+00 -0.00000000000E+00 -0.75419089161E+02  0.75419089161E+02  0.00000000000E+00 0.  1.
         25    2    1    2    0    0 -0.12688449350E+02  0.63552355878E+01  0.46890836475E+02  0.13433802304E+03  0.12508624274E+03 0.  0.
          5    1    3    3  502    0  0.38081042753E+02  0.31490096177E+02 -0.13534096245E+02  0.51404631461E+02  0.41800000000E+01 0. -1.
         -5    1    3    3    0  502 -0.50769492103E+02 -0.25134860590E+02  0.60424932720E+02  0.82933391583E+02  0.41800000000E+01 0. -1.
        -11    1    1    2    0    0 -0.32258924454E+02 -0.21640472606E+02  0.14240038165E+01  0.38871275364E+02  0.00000000000E+00 0.  1.
         11    1    1    2    0    0  0.44947373804E+02  0.15285237018E+02  0.30466491542E+02  0.56410211748E+02  0.00000000000E+00 0. -1.
</event>
<event>
 7    1  0.2749315E-009  0.8946612E+02  0.7561462E-02  0.1304150E+00
         -1   -1    0    0    0  501 -0.00000000000E+00  0.00000000000E+00  0.34729289438E+03  0.34729289438E+03  0.00000000000E+00 0.  1.
          1   -1    0    0  501    0  0.00000000000E+00 -0.00000000000E+00 -0.47870436669E+02  0.47870436669E+02  0.00000000000E+00 0. -1.
         25    2    1    2    0    0  0.65700488779E+02  0.47361532147E+01  0.20236325609E+03  0.24685613058E+03  0.12509227160E+03 0.  0.
          5    1    3    3  502    0  0.11138106796E+02  0.35982731920E+02  0.17341890583E+03  0.17751170023E+03  0.41800000000E+01 0. -1.
         -5    1    3    3    0  502  0.54562381982E+02 -0.31246578706E+02  0.28944350264E+02  0.69344430350E+02  0.41800000000E+01 0. -1.
        -11    1    1    2    0    0 -0.45882565157E+02 -0.22771915201E+02  0.10786870010E+03  0.11941284005E+03  0.00000000000E+00 0.  1.
         11    1    1    2    0    0 -0.19817923622E+02  0.18035761986E+02 -0.10809498477E+02  0.28894360426E+02  0.00000000000E+00 0. -1.
</event>
<event>
 7    1  0.2749315E-009  0.1479924E+03  0.7561462E-02  0.1202962E+00
         -2   -1    0    0    0  501 -0.00000000000E+00  0.00000000000E+00  0.14904655930E+02  0.14904655930E+02  0.00000000000E+00 0. -1.
          2   -1    0    0  501    0  0.00000000000E+00 -0.00000000000E+00 -0.15975299659E+04  0.15975299659E+04  0.00000000000E+00 0.  1.
         25    2    1    2    0    0  0.90921992837E+02  0.58762115922E+02 -0.95706295680E+03  0.97125521403E+03  0.12508953769E+03 0.  0.
          5    1    3    3  502    0  0.67979344078E+02 -0.22492541809E+02 -0.60248919843E+03  0.60674361331E+03  0.41800000000E+01 0.  1.
         -5    1    3    3    0  502  0.22942648759E+02  0.81254657731E+02 -0.35457375837E+03  0.36451160072E+03  0.41800000000E+01 0.  1.
        -11    1    1    2    0    0 -0.32526293988E+00  0.19803429746E+02 -0.11743347229E+03  0.11909198982E+03  0.00000000000E+00 0.  1.
         11    1    1    2    0    0 -0.90596729897E+02 -0.78565545668E+02 -0.50812888086E+03  0.52208741797E+03  0.00000000000E+00 0. -1.
</event>
<event>
 7    1  0.2749315E-009  0.1814750E+03  0.7561462E-02  0.1166383E+00
         -4   -1    0    0    0  501 -0.00000000000E+00  0.00000000000E+00  0.71178971153E+03  0.71178971153E+03  0.00000000000E+00 0.  1.
          4   -1    0    0  501    0  0.00000000000E+00 -0.00000000000E+00 -0.94421016817E+02  0.94421016817E+02  0.00000000000E+00 0. -1.
         25    2    1    2    0    0  0.15631356000E+03  0.33697841310E+02  0.50039866300E+02  0.20909671555E+03  0.12509186499E+03 0.  0.
          5    1    3    3  502    0  0.79843203587E+02 -0.45742411219E+02  0.15028020528E+02  0.93330697759E+02  0.41800000000E+01 0. -1.
         -5    1    3    3    0  502  0.76470356410E+02  0.79440252529E+02  0.35011845772E+02  0.11576601779E+03  0.41800000000E+01 0. -1.
        -11    1    1    2    0    0 -0.91461133548E+02 -0.26612130085E+02  0.47253744197E+03  0.48204250693E+03  0.00000000000E+00 0.  1.
         11    1    1    2    0    0 -0.64852426449E+02 -0.70857112251E+01  0.94791386444E+02  0.11507150587E+03  0.00000000000E+00 0. -1.
</event>
<event>
 7    1  0.2749315E-009  0.3413211E+03  0.7561462E-02  0.1066235E+00
          1   -1    0    0  501    0  0.00000000000E+00  0.00000000000E+00  0.45827660103E+03  0.45827660103E+03  0.00000000000E+00 0. -1.
         -1   -1    0    0    0  501 -0.00000000000E+00 -0.00000000000E+00 -0.26975091117E+03  0.26975091117E+03  0.00000000000E+00 0.  1.
         25    2    1    2    0    0 -0.30954399065E+02  0.32973235988E+03  0.14013585763E+03  0.38074633378E+03  0.12509239830E+03 0.  0.
          5    1    3    3  502    0  0.34401099721E+02  0.21389253724E+03  0.11505342678E+03  0.24533286891E+03  0.41800000000E+01 0.  1.
         -5    1    3    3    0  502 -0.65355498786E+02  0.11583982264E+03  0.25082430845E+02  0.13541346487E+03  0.41800000000E+01 0.  1.
        -11    1    1    2    0    0  0.78490730921E+01 -0.12126150674E+02 -0.16878628706E+02  0.22215750844E+02  0.00000000000E+00 0.  1.
         11    1    1    2    0    0  0.23105325973E+02 -0.31760620921E+03  0.65268460935E+02  0.32506542758E+03  0.00000000000E+00 0. -1.
</event>
<event>
 7    1  0.2749315E-009  0.9642745E+02  0.7561462E-02  0.1287993E+00
         -1   -1    0    0    0  501 -0.00000000000E+00  0.00000000000E+00  0.44109136556E+02  0.44109136556E+02  0.00000000000E+00 0.  1.
          1   -1    0    0  501    0  0.00000000000E+00 -0.00000000000E+00 -0.32780532324E+03  0.32780532324E+03  0.00000000000E+00 0. -1.
         25    2    1    2    0    0 -0.40777967658E+02 -0.11374814546E+02 -0.11211748335E+03  0.17323580154E+03  0.12509230116E+03 0.  0.
          5    1    3    3  502    0  0.40398902084E+02 -0.22310199444E+02 -0.60957821291E+02  0.76571173854E+02  0.41800000000E+01 0. -1.
         -5    1    3    3    0  502 -0.81176869742E+02  0.10935384897E+02 -0.51159662063E+02  0.96664627690E+02  0.41800000000E+01 0. -1.
        -11    1    1    2    0    0 -0.19456014954E+01  0.20682373037E+02  0.85112346769E+00  0.20791111821E+02  0.00000000000E+00 0.  1.
         11    1    1    2    0    0  0.42723569154E+02 -0.93075584903E+01 -0.17242982679E+03  0.17788754643E+03  0.00000000000E+00 0. -1.
</event>
<event>
 7    1  0.2749315E-009  0.1062838E+03  0.7561462E-02  0.1267611E+00
          1   -1    0    0  501    0  0.00000000000E+00  0.00000000000E+00  0.27956344418E+03  0.27956344418E+03  0.00000000000E+00 0. -1.
         -1   -1    0    0    0  501 -0.00000000000E+00 -0.00000000000E+00 -0.51014556376E+02  0.51014556376E+02  0.00000000000E+00 0.  1.
         25    2    1    2    0    0  0.21234978757E+02  0.29456254903E+02  0.19475803807E+03  0.23430090209E+03  0.12509046347E+03 0.  0.
          5    1    3    3  502    0  0.46747217202E+02  0.68448762618E+02  0.11473685481E+03  0.14160703963E+03  0.41800000000E+01 0. -1.
         -5    1    3    3    0  502 -0.25512238445E+02 -0.38992507715E+02  0.80021183255E+02  0.92693862461E+02  0.41800000000E+01 0. -1.
        -11    1    1    2    0    0  0.11542209212E+02 -0.45040575432E+02 -0.28055358819E+00  0.46496825043E+02  0.00000000000E+00 0. -1.
         11    1    1    2    0    0 -0.32777187969E+02  0.15584320529E+02  0.34071403320E+02  0.49780273420E+02  0.00000000000E+00 0.  1.
</event>
<event>
 7    1  0.2749315E-009  0.7792801E+02  0.7561462E-02  0.1335036E+00
         -2   -1    0    0    0  501 -0.00000000000E+00  0.00000000000E+00  0.21731463519E+02  0.21731463519E+02  0.00000000000E+00 0.  1.
          2   -1    0    0  501    0  0.00000000000E+00 -0.00000000000E+00 -0.60387800349E+03  0.60387800349E+03  0.00000000000E+00 0. -1.
         25    2    1    2    0    0 -0.13268745152E+02 -0.28170411980E+02 -0.39010996267E+03  0.41085560581E+03  0.12508762585E+03 0.  0.
          5    1    3    3  502    0 -0.34128632859E+02 -0.22350285413E+02 -0.31869631121E+02  0.51936929315E+02  0.41800000000E+01 0. -1.
         -5    1    3    3    0  502  0.20859887707E+02 -0.58201265668E+01 -0.35824033155E+03  0.35891867649E+03  0.41800000000E+01 0. -1.
        -11    1    1    2    0    0 -0.35949184885E+02 -0.26193397533E+00 -0.10326867496E+03  0.10934729869E+03  0.00000000000E+00 0. -1.
         11    1    1    2    0    0  0.49217930036E+02  0.28432345955E+02 -0.88767902347E+02  0.10540656251E+03  0.00000000000E+00 0.  1.
</event>
<event>
 7    1  0.2749315E-009  0.9493447E+02  0.7561462E-02  0.1291324E+00
          3   -1    0    0  501    0  0.00000000000E+00  0.00000000000E+00  0.72074145796E+02  0.72074145796E+02  0.00000000000E+00 0. -1.
         -3   -1    0    0    0  501 -0.00000000000E+00 -0.00000000000E+00 -0.18596928885E+03  0.18596928885E+03  0.00000000000E+00 0.  1.
         25    2    1    2    0    0 -0.45349920279E+02  0.38205208792E+01 -0.40866151905E+02  0.13924429866E+03  0.12509084974E+03 0.  0.
          5    1    3    3  502    0  0.18446675505E+02  0.43915351473E+02 -0.42189087404E+02  0.63766993250E+02  0.41800000000E+01 0. -1.
         -5    1    3    3    0  502 -0.63796595784E+02 -0.40094830594E+02  0.13229354987E+01  0.75477305413E+02  0.41800000000E+01 0. -1.
        -11    1    1    2    0    0  0.23702213765E+02  0.22381909429E+02  0.56564780597E+01  0.33086863724E+02  0.00000000000E+00 0.  1.
         11    1    1    2    0    0  0.21647706514E+02 -0.26202430308E+02 -0.78685469207E+02  0.85712272258E+02  0.00000000000E+00 0. -1.
</event>
<event>
 7    1  0.2749315E-009  0.7586166E+02  0.7561462E-02  0.1341223E+00
         -1   -1    0    0    0  501 -0.00000000000E+00  0.00000000000E+00  0.40312526489E+02  0.40312526489E+02  0.00000000000E+00 0.  1.
          1   -1    0    0  501    0  0.00000000000E+00 -0.00000000000E+00 -0.31428442550E+03  0.31428442550E+03  0.00000000000E+00 0. -1.
         25    2    1    2    0    0  0.30673440840E+02  0.60467630905E+01 -0.16007506564E+03  0.20554555962E+03  0.12509007603E+03 0.  0.
          5    1    3    3  502    0  0.13182736184E+02 -0.31468781475E+02 -0.16029788454E+03  0.16394191937E+03  0.41800000000E+01 0.  1.
         -5    1    3    3    0  502  0.17490704656E+02  0.37515544565E+02  0.22281889702E+00  0.41603640245E+02  0.41800000000E+01 0.  1.
        -11    1    1    2    0    0 -0.70206272979E+01 -0.36510097649E+02 -0.10406224683E+02  0.38607848297E+02  0.00000000000E+00 0.  1.
         11    1    1    2    0    0 -0.23652813542E+02  0.30463334558E+02 -0.10349060869E+03  0.11044354408E+03  0.00000000000E+00 0. -1.
</event>
<event>
 7    1  0.2749315E-009  0.1758793E+03  0.7561462E-02  0.1171852E+00
          2   -1    0    0  501    0  0.00000000000E+00  0.00000000000E+00  0.13935508551E+04  0.13935508551E+04  0.00000000000E+00 0. -1.
         -2   -1    0    0    0  501 -0.00000000000E+00 -0.00000000000E+00 -0.25589077349E+02  0.25589077349E+02  0.00000000000E+00 0.  1.
         25    2    1    2    0    0  0.11772923854E+03 -0.90487650298E+02  0.56868844791E+03  0.60091770433E+03  0.12508936055E+03 0.  0.
          5    1    3    3  502    0  0.23956058654E+02 -0.78375079034E+02  0.39179380477E+03  0.40029539544E+03  0.41800000000E+01 0. -1.
         -5    1    3    3    0  502  0.93773179888E+02 -0.12112571264E+02  0.17689464314E+03  0.20062230888E+03  0.41800000000E+01 0. -1.
        -11    1    1    2    0    0 -0.12044401125E+03  0.43608749907E+02  0.58998570208E+03  0.60373140681E+03  0.00000000000E+00 0.  1.
         11    1    1    2    0    0  0.27147727046E+01  0.46878900391E+02  0.20928762780E+03  0.21449082135E+03  0.00000000000E+00 0. -1.
</event>
<event>
 7    1  0.2749315E-009  0.1706809E+03  0.7561462E-02  0.1177140E+00
          3   -1    0    0  501    0  0.00000000000E+00  0.00000000000E+00  0.61941498164E+02  0.61941498164E+02  0.00000000000E+00 0. -1.
         -3   -1    0    0    0  501 -0.00000000000E+00 -0.00000000000E+00 -0.63933801519E+03  0.63933801519E+03  0.00000000000E+00 0.  1.
         25    2    1    2    0    0 -0.76068011839E+02 -0.14465587155E+03 -0.24463511954E+03  0.31969333020E+03  0.12508325254E+03 0.  0.
          5    1    3    3  502    0 -0.58112984537E+02 -0.51009056735E+02 -0.26931539104E+02  0.81986724775E+02  0.41800000000E+01 0.  1.
         -5    1    3    3    0  502 -0.17955027301E+02 -0.93646814814E+02 -0.21770358043E+03  0.23770660543E+03  0.41800000000E+01 0.  1.
        -11    1    1    2    0    0  0.58474999480E+01  0.51459784463E+02 -0.19140668080E+03  0.19828973782E+03  0.00000000000E+00 0.  1.
         11    1    1    2    0    0  0.70220511891E+02  0.93196087086E+02 -0.14135471669E+03  0.18329644533E+03  0.00000000000E+00 0. -1.
</event>
<event>
 7    1  0.2749315E-009  0.1006928E+03  0.7561462E-02  0.1278846E+00
         -1   -1    0    0    0  501 -0.00000000000E+00  0.00000000000E+00  0.77938731362E+02  0.77938731362E+02  0.00000000000E+00 0.  1.
          1   -1    0    0  501    0  0.00000000000E+00 -0.00000000000E+00 -0.16760944034E+03  0.16760944034E+03  0.00000000000E+00 0. -1.
         25    2    1    2    0    0  0.13005575580E+02  0.13833271827E+02 -0.83258549141E+02  0.15146113067E+03  0.12509190099E+03 0.  0.
          5    1    3    3  502    0  0.66823136429E+02 -0.29972101352E+01 -0.61228614722E+02  0.90778469317E+02  0.41800000000E+01 0.  1.
         -5    1    3    3    0  502 -0.53817560849E+02  0.16830481962E+02 -0.22029934418E+02  0.60682661357E+02  0.41800000000E+01 0.  1.
        -11    1    1    2    0    0  0.21587349434E+02 -0.32114598661E+02 -0.29498642757E+02  0.48657281339E+02  0.00000000000E+00 0. -1.
         11    1    1    2    0    0 -0.34592925014E+02  0.18281326834E+02  0.23086482920E+02  0.45429759690E+02  0.00000000000E+00 0.  1.
</event>
<event>
 7    1  0.2749315E-009  0.1205177E+03  0.7561462E-02  0.1242246E+00
         -2   -1    0    0    0  501 -0.00000000000E+00  0.00000000000E+00  0.20334498476E+02  0.20334498476E+02  0.00000000000E+00 0.  1.
          2   -1    0    0  501    0  0.00000000000E+00 -0.00000000000E+00 -0.98947012134E+03  0.98947012134E+03  0.00000000000E+00 0. -1.
         25    2    1    2    0    0 -0.19720057103E+02  0.94854075181E+02 -0.72786147640E+03  0.74485944768E+03  0.12508833575E+03 0.  0.
          5    1    3    3  502    0  0.39901291842E+02  0.66963084531E+02 -0.54304418505E+03  0.54862612688E+03  0.41800000000E+01 0. -1.
         -5    1    3    3    0  502 -0.59621348945E+02  0.27890990649E+02 -0.18481729135E+03  0.19623332080E+03  0.41800000000E+01 0. -1.
        -11    1    1    2    0    0  0.81203803420E+01 -0.51639664392E+02 -0.66785351282E+02  0.84810840470E+02  0.00000000000E+00 0.  1.
         11    1    1    2    0    0  0.11599676761E+02 -0.43214410789E+02 -0.17448879518E+03  0.18013433166E+03  0.00000000000E+00 0. -1.
</event>
<event>
 7    1  0.2749315E-009  0.7727418E+02  0.7561462E-02  0.1336970E+00
          1   -1    0    0  501    0  0.00000000000E+00  0.00000000000E+00  0.98695269461E+02  0.98695269461E+02  0.00000000000E+00 0. -1.
         -1   -1    0    0    0  501 -0.00000000000E+00 -0.00000000000E+00 -0.24018504645E+03  0.24018504645E+03  0.00000000000E+00 0.  1.
         25    2    1    2    0    0  0.37753365320E+02 -0.29738041266E+02  0.31432605175E+02  0.13764163137E+03  0.12509013680E+03 0.  0.
          5    1    3    3  502    0 -0.52370521487E+00 -0.22627360508E+02  0.75359880940E+02  0.78796292845E+02  0.41800000000E+01 0.  1.
         -5    1    3    3    0  502  0.38277070535E+02 -0.71106807580E+01 -0.43927275765E+02  0.58845338522E+02  0.41800000000E+01 0.  1.
        -11    1    1    2    0    0  0.29001153779E+01 -0.24457009961E+02 -0.13654057222E+02  0.28160065412E+02  0.00000000000E+00 0.  1.
         11    1    1    2    0    0 -0.40653480698E+02  0.54195051227E+02 -0.15926832494E+03  0.17307861913E+03  0.00000000000E+00 0. -1.
</event>
<event>
 7    1  0.2749315E-009  0.1344215E+03  0.7561462E-02  0.1221039E+00
         -2   -1    0    0    0  501 -0.00000000000E+00  0.00000000000E+00  0.14472585094E+02  0.14472585094E+02  0.00000000000E+00 0.  1.
          2   -1    0    0  501    0  0.00000000000E+00 -0.00000000000E+00 -0.22712726187E+04  0.22712726187E+04  0.00000000000E+00 0. -1.
         25    2    1    2    0    0  0.10393548427E+03 -0.54662341474E+01 -0.18216779981E+04  0.18289319463E+04  0.12509544603E+03 0.  0.
          5    1    3    3  502    0  0.12165516018E+03  0.25267240237E+02 -0.12597249607E+04  0.12658447221E+04  0.41800000000E+01 0.  1.
         -5    1    3    3    0  502 -0.17719675910E+02 -0.30733474384E+02 -0.56195303745E+03  0.56308722421E+03  0.41800000000E+01 0.  1.
        -11    1    1    2    0    0 -0.81993275723E+02  0.17404817257E+02 -0.41849303717E+03  0.42680469431E+03  0.00000000000E+00 0. -1.
         11    1    1    2    0    0 -0.21942208547E+02 -0.11938583110E+02 -0.16628998355E+02  0.30008563259E+02  0.00000000000E+00 0.  1.
</event>
<event>
 7    1  0.2749315E-009  0.1332556E+03  0.7561462E-02  0.1222703E+00
         -2   -1    0    0    0  501 -0.00000000000E+00  0.00000000000E+00  0.21185424114E+03  0.21185424114E+03  0.00000000000E+00 0.  1.
          2   -1    0    0  501    0  0.00000000000E+00 -0.00000000000E+00 -0.11780335872E+03  0.11780335872E+03  0.00000000000E+00 0. -1.
         25    2    1    2    0    0 -0.42385430207E+02 -0.74134095631E+02  0.13538090890E+03  0.20314308228E+03  0.12508690002E+03 0.  0.
          5    1    3    3  502    0 -0.93865011326E+01  0.34160338914E+02  0.17801723108E+02  0.39867391485E+02  0.41800000000E+01 0. -1.
         -5    1    3    3    0  502 -0.32998929074E+02 -0.10829443454E+03  0.11757918579E+03  0.16327569080E+03  0.41800000000E+01 0. -1.
        -11    1    1    2    0    0 -0.89853095131E+01  0.64700600793E+02 -0.34403444815E+02  0.73827505343E+02  0.00000000000E+00 0.  1.
         11    1    1    2    0    0  0.51370739720E+02  0.94334948381E+01 -0.69265816699E+01  0.52687012231E+02  0.00000000000E+00 0. -1.
</event>
<event>
 7    1  0.2749315E-009  0.1196321E+03  0.7561462E-02  0.1243705E+00
         -1   -1    0    0    0  501 -0.00000000000E+00  0.00000000000E+00  0.86712913192E+02  0.86712913192E+02  0.00000000000E+00 0.  1.
          1   -1    0    0  501    0  0.00000000000E+00 -0.00000000000E+00 -0.22259991393E+03  0.22259991393E+03  0.00000000000E+00 0. -1.
         25    2    1    2    0    0  0.68605000805E+01  0.85561921867E+02 -0.75656074689E+02  0.16952620395E+03  0.12508950098E+03 0.  0.
          5    1    3    3  502    0 -0.97450387409E+01  0.11516598099E+03 -0.46740998843E+02  0.12474118137E+03  0.41800000000E+01 0. -1.
         -5    1    3    3    0  502  0.16605538821E+02 -0.29604059125E+02 -0.28915075846E+02  0.44785022579E+02  0.41800000000E+01 0. -1.
        -11    1    1    2    0    0  0.78115642075E+01 -0.54520017308E+02 -0.82257721356E+02  0.98993866200E+02  0.00000000000E+00 0. -1.
         11    1    1    2    0    0 -0.14672064288E+02 -0.31041904559E+02  0.22026795310E+02  0.40792756964E+02  0.00000000000E+00 0.  1.
</event>
<event>
 7    1  0.2749315E-009  0.2148885E+03  0.7561462E-02  0.1137752E+00
         -1   -1    0    0    0  501 -0.00000000000E+00  0.00000000000E+00  0.30914238551E+02  0.30914238551E+02  0.00000000000E+00 0.  1.
          1   -1    0    0  501    0  0.00000000000E+00 -0.00000000000E+00 -0.17783155635E+04  0.17783155635E+04  0.00000000000E+00 0. -1.
         25    2    1    2    0    0 -0.16972383205E+03  0.11974677449E+03 -0.93265860790E+03  0.96366263764E+03  0.12509249026E+03 0.  0.
          5    1    3    3  502    0 -0.14295124173E+03  0.12065425590E+03 -0.90778990033E+03  0.92687241976E+03  0.41800000000E+01 0. -1.
         -5    1    3    3    0  502 -0.26772590323E+02 -0.90748140664E+00 -0.24868707578E+02  0.36790217881E+02  0.41800000000E+01 0. -1.
        -11    1    1    2    0    0  0.74390639712E+02 -0.87652272929E+02 -0.56008838524E+03  0.57176558790E+03  0.00000000000E+00 0. -1.
         11    1    1    2    0    0  0.95333192339E+02 -0.32094501564E+02 -0.25465433180E+03  0.27380157651E+03  0.00000000000E+00 0.  1.
</event>
<event>
 7    1  0.2749315E-009  0.1022237E+03  0.7561462E-02  0.1275688E+00
         -2   -1    0    0    0  501 -0.00000000000E+00  0.00000000000E+00  0.17787204044E+03  0.17787204044E+03  0.00000000000E+00 0.  1.
          2   -1    0    0  501    0  0.00000000000E+00 -0.00000000000E+00 -0.13544362169E+03  0.13544362169E+03  0.00000000000E+00 0. -1.
         25    2    1    2    0    0  0.71619234379E+02  0.63497469120E+02  0.79754539947E+02  0.17654694322E+03  0.12508714243E+03 0.  0.
          5    1    3    3  502    0  0.49027249944E+02  0.22383095885E+02  0.10860512033E+03  0.12131454480E+03  0.41800000000E+01 0. -1.
         -5    1    3    3    0  502  0.22591984436E+02  0.41114373235E+02 -0.28850580380E+02  0.55232398422E+02  0.41800000000E+01 0. -1.
        -11    1    1    2    0    0 -0.10137766789E+02 -0.33272859576E+02 -0.55853371397E+02  0.65798606339E+02  0.00000000000E+00 0. -1.
         11    1    1    2    0    0 -0.61481467591E+02 -0.30224609544E+02  0.18527250196E+02  0.70970112576E+02  0.00000000000E+00 0.  1.
</event>
<event>
 7    1  0.2749315E-009  0.9494827E+02  0.7561462E-02  0.1291293E+00
         -1   -1    0    0    0  501 -0.00000000000E+00  0.00000000000E+00  0.25101307190E+02  0.25101307190E+02  0.00000000000E+00 0.  1.
          1   -1    0    0  501    0  0.00000000000E+00 -0.00000000000E+00 -0.51541777085E+03  0.51541777085E+03  0.00000000000E+00 0. -1.
         25    2    1    2    0    0 -0.11629850462E+02 -0.13830858943E+02 -0.21988617697E+03  0.25362060701E+03  0.12508771082E+03 0.  0.
          5    1    3    3  502    0 -0.10498579102E+02  0.39996080199E+02 -0.19174781610E+02  0.45771729750E+02  0.41800000000E+01 0. -1.
         -5    1    3    3    0  502 -0.11312713604E+01 -0.53826939142E+02 -0.20071139536E+03  0.20784887726E+03  0.41800000000E+01 0. -1.
        -11    1    1    2    0    0  0.52371439694E+02  0.47016228956E+01 -0.12540288941E+03  0.13598072520E+03  0.00000000000E+00 0. -1.
         11    1    1    2    0    0 -0.40741589232E+02  0.91292360472E+01 -0.14502739728E+03  0.15091774583E+03  0.00000000000E+00 0.  1.
</event>
<event>
 7    1  0.2749315E-009  0.1196261E+03  0.7561462E-02  0.1243715E+00
         -1   -1    0    0    0  501 -0.00000000000E+00  0.00000000000E+00  0.79051453421E+02  0.79051453421E+02  0.00000000000E+00 0.  1.
          1   -1    0    0  501    0  0.00000000000E+00 -0.00000000000E+00 -0.21245286972E+03  0.21245286972E+03  0.00000000000E+00 0. -1.
         25    2    1    2    0    0 -0.70140693218E+02  0.29259868042E+01 -0.90049842293E+02  0.16936591722E+03  0.12509021374E+03 0.  0.
          5    1    3    3  502    0  0.35911277083E+02  0.78728452554E+01 -0.27156352098E+02  0.45897073692E+02  0.41800000000E+01 0. -1.
         -5    1    3    3    0  502 -0.10605197030E+03 -0.49468584512E+01 -0.62893490195E+02  0.12346884353E+03  0.41800000000E+01 0. -1.
        -11    1    1    2    0    0  0.61698209464E+02  0.25192289389E+02 -0.58878552596E+02  0.88926961330E+02  0.00000000000E+00 0. -1.
         11    1    1    2    0    0  0.84424837542E+01 -0.28118276193E+02  0.15526978587E+02  0.33211444594E+02  0.00000000000E+00 0.  1.
</event>
<event>
 7    1  0.2749315E-009  0.1091542E+03  0.7561462E-02  0.1262144E+00
         -1   -1    0    0    0  501 -0.00000000000E+00  0.00000000000E+00  0.11211143418E+04  0.11211143418E+04  0.00000000000E+00 0.  1.
          1   -1    0    0  501    0  0.00000000000E+00 -0.00000000000E+00 -0.12612300724E+02  0.12612300724E+02  0.00000000000E+00 0. -1.
         25    2    1    2    0    0  0.17643112405E+02  0.85906763929E+01  0.83904522829E+03  0.84854849771E+03  0.12511026623E+03 0.  0.
          5    1    3    3  502    0 -0.62701569038E+01 -0.56073409099E+02  0.32572695826E+03  0.33060409225E+03  0.41800000000E+01 0.  1.
         -5    1    3    3    0  502  0.23913269309E+02  0.64664085491E+02  0.51331827003E+03  0.51794440546E+03  0.41800000000E+01 0.  1.
        -11    1    1    2    0    0 -0.37430820285E+01  0.40993759426E+02  0.13748393310E+03  0.14351421823E+03  0.00000000000E+00 0.  1.
         11    1    1    2    0    0 -0.13900030376E+02 -0.49584435819E+02  0.13197287964E+03  0.14166392653E+03  0.00000000000E+00 0. -1.
</event>
<event>
 7    1  0.2749315E-009  0.9861045E+02  0.7561462E-02  0.1283245E+00
         -2   -1    0    0    0  501 -0.00000000000E+00  0.00000000000E+00  0.23615212535E+03  0.23615212535E+03  0.00000000000E+00 0.  1.
          2   -1    0    0  501    0  0.00000000000E+00 -0.00000000000E+00 -0.53283845821E+02  0.53283845821E+02  0.00000000000E+00 0. -1.
         25    2    1    2    0    0 -0.46155812736E+01 -0.17191036239E+02  0.14074580686E+03  0.18913993269E+03  0.12509075375E+03 0.  0.
          5    1    3    3  502    0 -0.58540575908E+02  0.11536179513E+02  0.42519470363E+02  0.73385694964E+02  0.41800000000E+01 0.  1.
         -5    1    3    3    0  502  0.53924994634E+02 -0.28727215752E+02  0.98226336495E+02  0.11575423773E+03  0.41800000000E+01 0.  1.
        -11    1    1    2    0    0  0.33197887851E+02  0.30092323152E+02  0.50821245258E+02  0.67752834923E+02  0.00000000000E+00 0.  1.
         11    1    1    2    0    0 -0.28582306578E+02 -0.12901286914E+02 -0.86987725838E+01  0.32543203557E+02  0.00000000000E+00 0. -1.
</event>
<event>
 7    1  0.2749315E-009  0.2726273E+03  0.7561462E-02  0.1099785E+00
          2   -1    0    0  501    0  0.00000000000E+00  0.00000000000E+00  0.99283736683E+03  0.99283736683E+03  0.00000000000E+00 0. -1.
         -2   -1    0    0    0  501 -0.00000000000E+00 -0.00000000000E+00 -0.17406971478E+03  0.17406971478E+03  0.00000000000E+00 0.  1.
         25    2    1    2    0    0  0.13382107899E+03  0.23445793405E+03  0.82977197826E+03  0.88150287238E+03  0.12508866491E+03 0.  0.
          5    1    3    3  502    0  0.87742293980E+02  0.16243023280E+03  0.71414811072E+03  0.73763628377E+03  0.41800000000E+01 0.  1.
         -5    1    3    3    0  502  0.46078785012E+02  0.72027701244E+02  0.11562386753E+03  0.14386658861E+03  0.41800000000E+01 0.  1.
        -11    1    1    2    0    0 -0.43105246142E+02 -0.33808689221E+02  0.28395209873E+02  0.61703951701E+02  0.00000000000E+00 0.  1.
         11    1    1    2    0    0 -0.90715832850E+02 -0.20064924483E+03 -0.39399536083E+02  0.22370025754E+03  0.00000000000E+00 0. -1.
</event>
<event>
 7    1  0.2749315E-009  0.9799494E+02  0.7561462E-02  0.1284570E+00
          2   -1    0    0  501    0  0.00000000000E+00  0.00000000000E+00  0.50757175251E+03  0.50757175251E+03  0.00000000000E+00 0. -1.
         -2   -1    0    0    0  501 -0.00000000000E+00 -0.00000000000E+00 -0.37513536493E+02  0.37513536493E+02  0.00000000000E+00 0.  1.
         25    2    1    2    0    0  0.31612666755E+02  0.13518684333E+02  0.39092321122E+03  0.41188547515E+03  0.12508625841E+03 0.  0.
          5    1    3    3  502    0 -0.34179680862E+02  0.14040176481E+02  0.28289963453E+03  0.28533323108E+03  0.41800000000E+01 0. -1.
         -5    1    3    3    0  502  0.65792347616E+02 -0.52149214796E+00  0.10802357669E+03  0.12655224407E+03  0.41800000000E+01 0. -1.
        -11    1    1    2    0    0  0.30118481846E+02 -0.31913760022E+01 -0.24342765578E+01  0.30384758216E+02  0.00000000000E+00 0.  1.
         11    1    1    2    0    0 -0.61731148601E+02 -0.10327308331E+02  0.81569281355E+02  0.10281505564E+03  0.00000000000E+00 0. -1.
</event>
<event>
 7    1  0.2749315E-009  0.1674717E+03  0.7561462E-02  0.1180510E+00
          2   -1    0    0  501    0  0.00000000000E+00  0.00000000000E+00  0.10123680682E+04  0.10123680682E+04  0.00000000000E+00 0. -1.
         -2   -1    0    0    0  501 -0.00000000000E+00 -0.00000000000E+00 -0.33200975721E+02  0.33200975721E+02  0.00000000000E+00 0.  1.
         25    2    1    2    0    0 -0.13341931441E+03  0.37769629376E+02  0.37143203224E+03  0.41573280777E+03  0.12507899315E+03 0.  0.
          5    1    3    3  502    0 -0.11448383564E+03 -0.17655299593E+02  0.30900175201E+03  0.33002698885E+03  0.41800000000E+01 0.  1.
         -5    1    3    3    0  502 -0.18935478772E+02  0.55424928969E+02  0.62430280227E+02  0.85705818920E+02  0.41800000000E+01 0.  1.
        -11    1    1    2    0    0  0.32755743455E+02  0.25416677684E+02  0.97636693856E+02  0.10607483312E+03  0.00000000000E+00 0.  1.
         11    1    1    2    0    0  0.10066357095E+03 -0.63186307060E+02  0.51009836641E+03  0.52376140306E+03  0.00000000000E+00 0. -1.
</event>
<event>
 7    1  0.2749315E-009  0.1264132E+03  0.7561462E-02  0.1232877E+00
         -1   -1    0    0    0  501 -0.00000000000E+00  0.00000000000E+00  0.47640805547E+02  0.47640805547E+02  0.00000000000E+00 0.  1.
          1   -1    0    0  501    0  0.00000000000E+00 -0.00000000000E+00 -0.58308565873E+03  0.58308565873E+03  0.00000000000E+00 0. -1.
         25    2    1    2    0    0  0.10250719169E+03 -0.33096118974E+02 -0.40684695917E+03  0.43906105250E+03  0.12508829760E+03 0.  0.
          5    1    3    3  502    0 -0.77794474778E+00  0.52326165082E+01 -0.23368409139E+03  0.23378133468E+03  0.41800000000E+01 0. -1.
         -5    1    3    3    0  502  0.10328513644E+03 -0.38328735482E+02 -0.17316286778E+03  0.20527971783E+03  0.41800000000E+01 0. -1.
        -11    1    1    2    0    0 -0.41847782064E+02 -0.27517348800E+02 -0.76152813518E+02  0.91146543299E+02  0.00000000000E+00 0.  1.
         11    1    1    2    0    0 -0.60659409626E+02  0.60613467774E+02 -0.52445080493E+02  0.10051886848E+03  0.00000000000E+00 0. -1.
</event>
<event>
 7    1  0.2749315E-009  0.1220551E+03  0.7561462E-02  0.1239745E+00
          2   -1    0    0  501    0  0.00000000000E+00  0.00000000000E+00  0.92912031692E+02  0.92912031692E+02  0.00000000000E+00 0. -1.
         -2   -1    0    0    0  501 -0.00000000000E+00 -0.00000000000E+00 -0.23159780884E+03  0.23159780884E+03  0.00000000000E+00 0.  1.
         25    2    1    2    0    0 -0.19005950187E+02 -0.93694692467E+02 -0.10266717255E+03  0.18795162021E+03  0.12508134027E+03 0.  0.
          5    1    3    3  502    0  0.95329885605E+01 -0.79719288245E+02 -0.12518760756E+03  0.14877987860E+03  0.41800000000E+01 0. -1.
         -5    1    3    3    0  502 -0.28538938747E+02 -0.13975404222E+02  0.22520435014E+02  0.39171741616E+02  0.41800000000E+01 0. -1.
        -11    1    1    2    0    0  0.25793514553E+02 -0.10060794101E+02 -0.92492506510E+01  0.29190299905E+02  0.00000000000E+00 0. -1.
         11    1    1    2    0    0 -0.67875643666E+01  0.10375548657E+03 -0.26769353952E+02  0.10736792041E+03  0.00000000000E+00 0.  1.
</event>
<event>
 7    1  0.2749315E-009  0.1068693E+03  0.7561462E-02  0.1266480E+00
         -2   -1    0    0    0  501 -0.00000000000E+00  0.00000000000E+00  0.11426825221E+03  0.11426825221E+03  0.00000000000E+00 0.  1.
          2   -1    0    0  501    0  0.00000000000E+00 -0.00000000000E+00 -0.17941654588E+03  0.17941654588E+03  0.00000000000E+00 0. -1.
         25    2    1    2    0    0 -0.64995089192E+02  0.21896720330E+02 -0.10085339075E+03  0.17470295130E+03  0.12508351925E+03 0.  0.
          5    1    3    3  502    0 -0.59394614887E+02  0.58331171228E+02 -0.10850357689E+03  0.13682377137E+03  0.41800000000E+01 0.  1.
         -5    1    3    3    0  502 -0.56004743048E+01 -0.36434450898E+02  0.76501861392E+01  0.37879179936E+02  0.41800000000E+01 0.  1.
        -11    1    1    2    0    0  0.44608190117E+02 -0.44388713838E+02  0.54524036307E+02  0.83265353401E+02  0.00000000000E+00 0.  1.
         11    1    1    2    0    0  0.20386899075E+02  0.22491993508E+02 -0.18818939235E+02  0.35716493386E+02  0.00000000000E+00 0. -1.
</event>
<event>
 7    1  0.2749315E-009  0.8260408E+02  0.7561462E-02  0.1321820E+00
         -3   -1    0    0    0  501 -0.00000000000E+00  0.00000000000E+00  0.49395947335E+02  0.49395947335E+02  0.00000000000E+00 0.  1.
          3   -1    0    0  501    0  0.00000000000E+00 -0.00000000000E+00 -0.30784992912E+03  0.30784992912E+03  0.00000000000E+00 0. -1.
         25    2    1    2    0    0 -0.71631578103E+01  0.24942583784E+02 -0.70328022619E+02  0.14583124714E+03  0.12508908250E+03 0.  0.
          5    1    3    3  502    0 -0.99667505519E+01 -0.39728199172E+02  0.10210239891E+02  0.42419185808E+02  0.41800000000E+01 0. -1.
         -5    1    3    3    0  502  0.28035927415E+01  0.64670782956E+02 -0.80538262510E+02  0.10341206133E+03  0.41800000000E+01 0. -1.
        -11    1    1    2    0    0  0.28243634050E+02 -0.24607535087E+01 -0.91294338017E+01  0.29784303479E+02  0.00000000000E+00 0.  1.
         11    1    1    2    0    0 -0.21080476240E+02 -0.22481830275E+02 -0.17899652536E+03  0.18163032583E+03  0.00000000000E+00 0. -1.
</event>
<event>
 7    1  0.2749315E-009  0.3610177E+03  0.7561462E-02  0.1058182E+00
          1   -1    0    0  501    0  0.00000000000E+00  0.00000000000E+00  0.42608718317E+03  0.42608718317E+03  0.00000000000E+00 0.  1.
         -1   -1    0    0    0  501 -0.00000000000E+00 -0.00000000000E+00 -0.31647162824E+03  0.31647162824E+03  0.00000000000E+00 0. -1.
         25    2    1    2    0    0  0.28074988959E+03  0.20830305567E+03  0.81597571006E+02  0.38015820001E+03  0.12510567507E+03 0.  0.
          5    1    3    3  502    0  0.70523714706E+02  0.11481518650E+03  0.64401061137E+02  0.14940244463E+03  0.41800000000E+01 0.  1.
         -5    1    3    3    0  502  0.21022617488E+03  0.93487869172E+02  0.17196509869E+02  0.23075575538E+03  0.41800000000E+01 0.  1.
        -11    1    1    2    0    0 -0.18995000424E+03 -0.18079575178E+03 -0.40040056067E+01  0.26226730645E+03  0.00000000000E+00 0. -1.
         11    1    1    2    0    0 -0.90799885351E+02 -0.27507303888E+02  0.32021989527E+02  0.10013330495E+03  0.00000000000E+00 0.  1.
</event>
<event>
 7    1  0.2749315E-009  0.1173277E+03  0.7561462E-02  0.1247572E+00
          2   -1    0    0  501    0  0.00000000000E+00  0.00000000000E+00  0.20218980932E+03  0.20218980932E+03  0.00000000000E+00 0.  1.
         -2   -1    0    0    0  501 -0.00000000000E+00 -0.00000000000E+00 -0.88862239878E+02  0.88862239878E+02  0.00000000000E+00 0. -1.
         25    2    1    2    0    0 -0.36659249105E+02  0.50014438736E+02  0.11567696993E+03  0.18131178987E+03  0.12508980433E+03 0.  0.
          5    1    3    3  502    0 -0.61052317921E+02 -0.12274000863E+02  0.22107620209E+02  0.66213713776E+02  0.41800000000E+01 0. -1.
         -5    1    3    3    0  502  0.24393068817E+02  0.62288439599E+02  0.93569349722E+02  0.11509807610E+03  0.41800000000E+01 0. -1.
        -11    1    1    2    0    0  0.31946936823E+01 -0.67420316573E+02  0.13486908409E+02  0.68830239379E+02  0.00000000000E+00 0.  1.
         11    1    1    2    0    0  0.33464555422E+02  0.17405877837E+02 -0.15836308894E+02  0.40910019950E+02  0.00000000000E+00 0. -1.
</event>
<event>
 7    1  0.2749315E-009  0.2312385E+03  0.7561462E-02  0.1125771E+00
          2   -1    0    0  501    0  0.00000000000E+00  0.00000000000E+00  0.31777282881E+03  0.31777282881E+03  0.00000000000E+00 0. -1.
         -2   -1    0    0    0  501 -0.00000000000E+00 -0.00000000000E+00 -0.18438635244E+03  0.18438635244E+03  0.00000000000E+00 0.  1.
         25    2    1    2    0    0 -0.31261484318E+02  0.21192105705E+03  0.98737222801E+02  0.26699110403E+03  0.12508955049E+03 0.  0.
          5    1    3    3  502    0  0.36672967825E+02  0.51882638301E+02 -0.60366955632E+01  0.63958023886E+02  0.41800000000E+01 0.  1.
         -5    1    3    3    0  502 -0.67934452142E+02  0.16003841875E+03  0.10477391836E+03  0.20303308015E+03  0.41800000000E+01 0.  1.
        -11    1    1    2    0    0  0.35842073055E+02 -0.43296227640E+02 -0.17050695510E+02  0.58736221756E+02  0.00000000000E+00 0.  1.
         11    1    1    2    0    0 -0.45805887374E+01 -0.16862482941E+03  0.51699949070E+02  0.17643185546E+03  0.00000000000E+00 0. -1.
</event>
<event>
 7    1  0.2749315E-009  0.1194833E+03  0.7561462E-02  0.1243952E+00
          1   -1    0    0  501    0  0.00000000000E+00  0.00000000000E+00  0.11156446683E+04  0.11156446683E+04  0.00000000000E+00 0. -1.
         -1   -1    0    0    0  501 -0.00000000000E+00 -0.00000000000E+00 -0.19253748935E+02  0.19253748935E+02  0.00000000000E+00 0.  1.
         25    2    1    2    0    0  0.50085288536E+02 -0.47761320750E+02  0.87485585427E+03  0.88645754231E+03  0.12507809035E+03 0.  0.
          5    1    3    3  502    0  0.59480891842E+02 -0.79490767691E+02  0.47897571416E+03  0.48917478042E+03  0.41800000000E+01 0.  1.
         -5    1    3    3    0  502 -0.93956033062E+01  0.31729446941E+02  0.39588014011E+03  0.39728276189E+03  0.41800000000E+01 0.  1.
        -11    1    1    2    0    0 -0.68257427838E+02  0.53994769741E+02  0.14142034258E+03  0.16605488523E+03  0.00000000000E+00 0.  1.
         11    1    1    2    0    0  0.18172139302E+02 -0.62334489906E+01  0.80114722476E+02  0.82385989649E+02  0.00000000000E+00 0. -1.
</event>
<event>
 7    1  0.2749315E-009  0.1233868E+03  0.7561462E-02  0.1237612E+00
         -1   -1    0    0    0  501 -0.00000000000E+00  0.00000000000E+00  0.48088660347E+03  0.48088660347E+03  0.00000000000E+00 0.  1.
          1   -1    0    0  501    0  0.00000000000E+00 -0.00000000000E+00 -0.45889527265E+02  0.45889527265E+02  0.00000000000E+00 0. -1.
         25    2    1    2    0    0  0.17843596306E+01 -0.61183101619E+02  0.96774532251E+02  0.16958460506E+03  0.12508825811E+03 0.  0.
          5    1    3    3  502    0 -0.49255802713E+02 -0.65307493136E+02  0.34561548291E+02  0.88899807541E+02  0.41800000000E+01 0.  1.
         -5    1    3    3    0  502  0.51040162344E+02  0.41243915164E+01  0.62212983960E+02  0.80684797519E+02  0.41800000000E+01 0.  1.
        -11    1    1    2    0    0 -0.48668488665E+02  0.29663128384E+02  0.14240770864E+03  0.15338995552E+03  0.00000000000E+00 0. -1.
         11    1    1    2    0    0  0.46884129035E+02  0.31519973235E+02  0.19581483532E+03  0.20380157016E+03  0.00000000000E+00 0.  1.
</event>
<event>
 7    1  0.2749315E-009  0.1699724E+03  0.7561462E-02  0.1177877E+00
          1   -1    0    0  501    0  0.00000000000E+00  0.00000000000E+00  0.86037931056E+03  0.86037931056E+03  0.00000000000E+00 0. -1.
         -1   -1    0    0    0  501 -0.00000000000E+00 -0.00000000000E+00 -0.49947163608E+02  0.49947163608E+02  0.00000000000E+00 0.  1.
         25    2    1    2    0    0 -0.15681648988E+03  0.88673085929E+00  0.24408911084E+03  0.31594196437E+03  0.12509049936E+03 0.  0.
          5    1    3    3  502    0 -0.14366837995E+02 -0.26753772320E+02 -0.14636463072E+01  0.30688516221E+02  0.41800000000E+01 0. -1.
         -5    1    3    3    0  502 -0.14244965189E+03  0.27640503179E+02  0.24555275714E+03  0.28525344815E+03  0.41800000000E+01 0. -1.
        -11    1    1    2    0    0  0.53667043895E+02 -0.23400153669E+02  0.33515082463E+03  0.34022609254E+03  0.00000000000E+00 0. -1.
         11    1    1    2    0    0  0.10314944599E+03  0.22513422810E+02  0.23119221148E+03  0.25415841726E+03  0.00000000000E+00 0.  1.
</event>
<event>
 7    1  0.2749315E-009  0.2538567E+03  0.7561462E-02  0.1110891E+00
         -2   -1    0    0    0  501 -0.00000000000E+00  0.00000000000E+00  0.23075029053E+03  0.23075029053E+03  0.00000000000E+00 0.  1.
          2   -1    0    0  501    0  0.00000000000E+00 -0.00000000000E+00 -0.38382570594E+03  0.38382570594E+03  0.00000000000E+00 0. -1.
         25    2    1    2    0    0 -0.97085830816E+01  0.24332317865E+03  0.57891488363E+02  0.27981974722E+03  0.12508893099E+03 0.  0.
          5    1    3    3  502    0 -0.30987228165E+02  0.27476356091E+02 -0.23877715950E+02  0.47987250102E+02  0.41800000000E+01 0. -1.
         -5    1    3    3    0  502  0.21278645083E+02  0.21584682256E+03  0.81769204314E+02  0.23183249711E+03  0.41800000000E+01 0. -1.
        -11    1    1    2    0    0  0.26210897640E+02 -0.65231983221E+02 -0.10655241361E+03  0.12765437571E+03  0.00000000000E+00 0.  1.
         11    1    1    2    0    0 -0.16502314558E+02 -0.17809119543E+03 -0.10441449016E+03  0.20710187355E+03  0.00000000000E+00 0. -1.
</event>
<event>
 7    1  0.2749315E-009  0.9502833E+02  0.7561462E-02  0.1291112E+00
         -2   -1    0    0    0  501 -0.00000000000E+00  0.00000000000E+00  0.10477527463E+04  0.10477527463E+04  0.00000000000E+00 0.  1.
          2   -1    0    0  501    0  0.00000000000E+00 -0.00000000000E+00 -0.37270853382E+02  0.37270853382E+02  0.00000000000E+00 0. -1.
         25    2    1    2    0    0  0.15493702453E+02 -0.56348683685E+02  0.95407397372E+03  0.96401255497E+03  0.12509128609E+03 0.  0.
          5    1    3    3  502    0  0.26221849499E+02  0.21029227435E+01  0.40351572153E+02  0.48350071876E+02  0.41800000000E+01 0. -1.
         -5    1    3    3    0  502 -0.10728147046E+02 -0.58451606428E+02  0.91372240156E+03  0.91566248310E+03  0.41800000000E+01 0. -1.
        -11    1    1    2    0    0 -0.20919449087E+02 -0.19025206885E+02  0.29320244758E+02  0.40733998083E+02  0.00000000000E+00 0. -1.
         11    1    1    2    0    0  0.54257466344E+01  0.75373890570E+02  0.27087674425E+02  0.80277046607E+02  0.00000000000E+00 0.  1.
</event>
<event>
 7    1  0.2749315E-009  0.1180416E+03  0.7561462E-02  0.1246363E+00
         -2   -1    0    0    0  501 -0.00000000000E+00  0.00000000000E+00  0.73134937693E+03  0.73134937693E+03  0.00000000000E+00 0.  1.
          2   -1    0    0  501    0  0.00000000000E+00 -0.00000000000E+00 -0.35709672520E+02  0.35709672520E+02  0.00000000000E+00 0. -1.
         25    2    1    2    0    0  0.40572754373E+01 -0.71277965113E+02  0.60313211011E+03  0.62009090484E+03  0.12508948085E+03 0.  0.
          5    1    3    3  502    0  0.26546037241E+02 -0.94854630126E+02  0.53998027774E+03  0.54890642709E+03  0.41800000000E+01 0. -1.
         -5    1    3    3    0  502 -0.22488761803E+02  0.23576665014E+02  0.63151832369E+02  0.71184477748E+02  0.41800000000E+01 0. -1.
        -11    1    1    2    0    0 -0.27983242998E+02 -0.15125612662E+01  0.15897234265E+01  0.28069145887E+02  0.00000000000E+00 0. -1.
         11    1    1    2    0    0  0.23925967561E+02  0.72790526379E+02  0.90917870872E+02  0.11889899873E+03  0.00000000000E+00 0.  1.
</event>
<event>
 7    1  0.2749315E-009  0.1101250E+03  0.7561462E-02  0.1260339E+00
         -2   -1    0    0    0  501 -0.00000000000E+00  0.00000000000E+00  0.10168380632E+02  0.10168380632E+02  0.00000000000E+00 0.  1.
          2   -1    0    0  501    0  0.00000000000E+00 -0.00000000000E+00 -0.12018778856E+04  0.12018778856E+04  0.00000000000E+00 0. -1.
         25    2    1    2    0    0 -0.13974661162E+02  0.20543797060E+02 -0.70644459168E+03  0.71786418445E+03  0.12509071690E+03 0.  0.
          5    1    3    3  502    0 -0.21838176815E+02  0.71693534508E+02 -0.38420814788E+03  0.39147189191E+03  0.41800000000E+01 0. -1.
         -5    1    3    3    0  502  0.78635156524E+01 -0.51149737448E+02 -0.32223644380E+03  0.32639229255E+03  0.41800000000E+01 0. -1.
        -11    1    1    2    0    0  0.31626812776E+02 -0.49862055723E+02 -0.29190393793E+03  0.29781603192E+03  0.00000000000E+00 0.  1.
         11    1    1    2    0    0 -0.17652151614E+02  0.29318258663E+02 -0.19336097537E+03  0.19636604987E+03  0.00000000000E+00 0. -1.
</event>
<event>
 7    1  0.2749315E-009  0.9562738E+02  0.7561462E-02  0.1289769E+00
          1   -1    0    0  501    0  0.00000000000E+00  0.00000000000E+00  0.26123939187E+03  0.26123939187E+03  0.00000000000E+00 0. -1.
         -1   -1    0    0    0  501 -0.00000000000E+00 -0.00000000000E+00 -0.80974289146E+02  0.80974289146E+02  0.00000000000E+00 0.  1.
         25    2    1    2    0    0 -0.35802453742E+02 -0.70528260685E+02  0.16819254446E+03  0.22403603680E+03  0.12508941812E+03 0.  0.
          5    1    3    3  502    0  0.12113948035E+02  0.47776606476E+01  0.12326507882E+03  0.12402147328E+03  0.41800000000E+01 0. -1.
         -5    1    3    3    0  502 -0.47916401777E+02 -0.75305921333E+02  0.44927465636E+02  0.10001456352E+03  0.41800000000E+01 0. -1.
        -11    1    1    2    0    0  0.11316509568E+02  0.60850001692E+02 -0.29816718274E+02  0.68700966393E+02  0.00000000000E+00 0.  1.
         11    1    1    2    0    0  0.24485944174E+02  0.96782589939E+01  0.41889276538E+02  0.49476677820E+02  0.00000000000E+00 0. -1.
</event>
<event>
 7    1  0.2749315E-009  0.1193944E+03  0.7561462E-02  0.1244099E+00
         -1   -1    0    0    0  501 -0.00000000000E+00  0.00000000000E+00  0.36171998816E+02  0.36171998816E+02  0.00000000000E+00 0.  1.
          1   -1    0    0  501    0  0.00000000000E+00 -0.00000000000E+00 -0.45251906299E+03  0.45251906299E+03  0.00000000000E+00 0. -1.
         25    2    1    2    0    0 -0.56036450825E+02 -0.17333324772E+02 -0.16987256494E+03  0.21896270825E+03  0.12508977302E+03 0.  0.
          5    1    3    3  502    0  0.64801838691E+01 -0.59065792864E+02 -0.51839815927E+02  0.78965812761E+02  0.41800000000E+01 0. -1.
         -5    1    3    3    0  502 -0.62516634694E+02  0.41732468092E+02 -0.11803274901E+03  0.13999689549E+03  0.41800000000E+01 0. -1.
        -11    1    1    2    0    0 -0.23081078666E+02  0.69517493173E+00 -0.25365913768E+02  0.34302318316E+02  0.00000000000E+00 0.  1.
         11    1    1    2    0    0  0.79117529491E+02  0.16638149840E+02 -0.22110858547E+03  0.23542603525E+03  0.00000000000E+00 0. -1.
</event>
<event>
 7    1  0.2749315E-009  0.1026922E+03  0.7561462E-02  0.1274734E+00
          2   -1    0    0  501    0  0.00000000000E+00  0.00000000000E+00  0.69926921678E+03  0.69926921678E+03  0.00000000000E+00 0. -1.
         -2   -1    0    0    0  501 -0.00000000000E+00 -0.00000000000E+00 -0.26729883146E+02  0.26729883146E+02  0.00000000000E+00 0.  1.
         25    2    1    2    0    0 -0.64817297159E+02  0.14967817851E+00  0.50796029802E+03  0.52713562296E+03  0.12508795391E+03 0.  0.
          5    1    3    3  502    0 -0.81923941965E+02 -0.72082613363E+01  0.17264859528E+03  0.19128120962E+03  0.41800000000E+01 0.  1.
         -5    1    3    3    0  502  0.17106644806E+02  0.73579395148E+01  0.33531170273E+03  0.33585441334E+03  0.41800000000E+01 0.  1.
        -11    1    1    2    0    0  0.51788720240E+02 -0.37796971141E+02  0.13431817361E+03  0.14883566217E+03  0.00000000000E+00 0. -1.
         11    1    1    2    0    0  0.13028576919E+02  0.37647292963E+02  0.30260861999E+02  0.50027814792E+02  0.00000000000E+00 0.  1.
</event>
<event>
 7    1  0.2749315E-009  0.1430194E+03  0.7561462E-02  0.1209323E+00
          2   -1    0    0  501    0  0.00000000000E+00  0.00000000000E+00  0.52123443717E+03  0.52123443717E+03  0.00000000000E+00 0.  1.
         -2   -1    0    0    0  501 -0.00000000000E+00 -0.00000000000E+00 -0.46601672602E+02  0.46601672602E+02  0.00000000000E+00 0. -1.
         25    2    1    2    0    0 -0.93086157739E+02 -0.55261225252E+02  0.20611099055E+03  0.26429272006E+03  0.12510022251E+03 0.  0.
          5    1    3    3  502    0  0.16059661879E+02 -0.47113927148E+02  0.34499158516E+02  0.60706665279E+02  0.41800000000E+01 0.  1.
         -5    1    3    3    0  502 -0.10914581962E+03 -0.81472981045E+01  0.17161183204E+03  0.20358605478E+03  0.41800000000E+01 0.  1.
        -11    1    1    2    0    0  0.87516861077E+02  0.69186078503E+02  0.26585116977E+03  0.28831017828E+03  0.00000000000E+00 0.  1.
         11    1    1    2    0    0  0.55692966615E+01 -0.13924853251E+02  0.26706042390E+01  0.15233211427E+02  0.00000000000E+00 0. -1.
</event>
<event>
 7    1  0.2749315E-009  0.1616425E+03  0.7561462E-02  0.1186855E+00
          2   -1    0    0  501    0  0.00000000000E+00  0.00000000000E+00  0.41464863849E+03  0.41464863849E+03  0.00000000000E+00 0. -1.
         -2   -1    0    0    0  501 -0.00000000000E+00 -0.00000000000E+00 -0.66892016258E+02  0.66892016258E+02  0.00000000000E+00 0.  1.
         25    2    1    2    0    0 -0.11957822522E+02  0.12559496738E+03  0.17455184198E+03  0.24906471166E+03  0.12509116557E+03 0.  0.
          5    1    3    3  502    0 -0.41386055818E+02  0.25783971504E+01  0.12621223321E+02  0.43545624650E+02  0.41800000000E+01 0. -1.
         -5    1    3    3    0  502  0.29428233296E+02  0.12301657023E+03  0.16193061866E+03  0.20551908701E+03  0.41800000000E+01 0. -1.
        -11    1    1    2    0    0  0.39896639754E+02 -0.17785945791E+02  0.50159550422E+02  0.66513624393E+02  0.00000000000E+00 0. -1.
         11    1    1    2    0    0 -0.27938817232E+02 -0.10780902159E+03  0.12304522983E+03  0.16596231870E+03  0.00000000000E+00 0.  1.
</event>
<event>
 7    1  0.2749315E-009  0.1287344E+03  0.7561462E-02  0.1229346E+00
          1   -1    0    0  501    0  0.00000000000E+00  0.00000000000E+00  0.21336573207E+03  0.21336573207E+03  0.00000000000E+00 0. -1.
         -1   -1    0    0    0  501 -0.00000000000E+00 -0.00000000000E+00 -0.10521477296E+03  0.10521477296E+03  0.00000000000E+00 0.  1.
         25    2    1    2    0    0  0.46649041100E+01  0.96955225985E+02  0.93885331796E+02  0.18407947913E+03  0.12509485175E+03 0.  0.
          5    1    3    3  502    0 -0.52033995782E+02  0.35990352580E+02  0.75722387496E+02  0.98763326007E+02  0.41800000000E+01 0.  1.
         -5    1    3    3    0  502  0.56698899892E+02  0.60964873406E+02  0.18162944300E+02  0.85316153124E+02  0.41800000000E+01 0.  1.
        -11    1    1    2    0    0  0.22808885462E+02 -0.63138162400E+02 -0.28973051028E+02  0.73117101236E+02  0.00000000000E+00 0.  1.
         11    1    1    2    0    0 -0.27473789572E+02 -0.33817063585E+02  0.43238678342E+02  0.61383924669E+02  0.00000000000E+00 0. -1.
</event>
<event>
 7    1  0.2749315E-009  0.1105794E+03  0.7561462E-02  0.1259501E+00
         -1   -1    0    0    0  501 -0.00000000000E+00  0.00000000000E+00  0.17517198670E+02  0.17517198670E+02  0.00000000000E+00 0.  1.
          1   -1    0    0  501    0  0.00000000000E+00 -0.00000000000E+00 -0.13597421297E+04  0.13597421297E+04  0.00000000000E+00 0. -1.
         25    2    1    2    0    0  0.32035569206E+02 -0.85050341065E+02 -0.98750059866E+03  0.99953208869E+03  0.12508847175E+03 0.  0.
          5    1    3    3  502    0  0.12342059759E+01 -0.85483284661E+01 -0.70857431502E+03  0.70863928024E+03  0.41800000000E+01 0. -1.
         -5    1    3    3    0  502  0.30801363230E+02 -0.76502012599E+02 -0.27892628364E+03  0.29089280846E+03  0.41800000000E+01 0. -1.
        -11    1    1    2    0    0  0.32378574226E+02  0.24765134583E+02 -0.13257442573E+03  0.13869990021E+03  0.00000000000E+00 0. -1.
         11    1    1    2    0    0 -0.64414143432E+02  0.60285206482E+02 -0.22214990668E+03  0.23902733951E+03  0.00000000000E+00 0.  1.
</event>
<event>
 7    1  0.2749315E-009  0.1583104E+03  0.7561462E-02  0.1190618E+00
         -1   -1    0    0    0  501 -0.00000000000E+00  0.00000000000E+00  0.35704848508E+02  0.35704848508E+02  0.00000000000E+00 0.  1.
          1   -1    0    0  501    0  0.00000000000E+00 -0.00000000000E+00 -0.79834966588E+03  0.79834966588E+03  0.00000000000E+00 0. -1.
         25    2    1    2    0    0  0.12740604170E+02  0.12704690622E+03 -0.35904106319E+03  0.40107448590E+03  0.12508804424E+03 0.  0.
          5    1    3    3  502    0 -0.37750849869E+02 -0.37112636227E+01 -0.87562231302E+02  0.95517102626E+02  0.41800000000E+01 0. -1.
         -5    1    3    3    0  502  0.50491454039E+02  0.13075816984E+03 -0.27147883189E+03  0.30555738328E+03  0.41800000000E+01 0. -1.
        -11    1    1    2    0    0  0.60305554784E+01 -0.11657997757E+03 -0.39102338060E+03  0.40807663857E+03  0.00000000000E+00 0. -1.
         11    1    1    2    0    0 -0.18771159648E+02 -0.10466928652E+02 -0.12580373583E+02  0.24903389919E+02  0.00000000000E+00 0.  1.
</event>
<event>
 7    1  0.2749315E-009  0.1678068E+03  0.7561462E-02  0.1180154E+00
          1   -1    0    0  501    0  0.00000000000E+00  0.00000000000E+00  0.18942902327E+04  0.18942902327E+04  0.00000000000E+00 0. -1.
         -1   -1    0    0    0  501 -0.00000000000E+00 -0.00000000000E+00 -0.22556508554E+02  0.22556508554E+02  0.00000000000E+00 0.  1.
         25    2    1    2    0    0 -0.42504335353E+02 -0.12374213119E+03  0.15207205817E+04  0.15314559437E+04  0.12508991339E+03 0.  0.
          5    1    3    3  502    0 -0.37985591161E+02  0.14731384980E+02  0.27204764283E+03  0.27511326978E+03  0.41800000000E+01 0.  1.
         -5    1    3    3    0  502 -0.45187441913E+01 -0.13847351617E+03  0.12486729388E+04  0.12563426739E+04  0.41800000000E+01 0.  1.
        -11    1    1    2    0    0  0.13943663690E+02  0.12658034259E+03  0.25270336471E+03  0.28297702985E+03  0.00000000000E+00 0. -1.
         11    1    1    2    0    0  0.28560671662E+02 -0.28382114024E+01  0.98309777757E+02  0.10241376769E+03  0.00000000000E+00 0.  1.
</event>
<event>
 7    1  0.2749315E-009  0.1457803E+03  0.7561462E-02  0.1205756E+00
          1   -1    0    0  501    0  0.00000000000E+00  0.00000000000E+00  0.17624263165E+03  0.17624263165E+03  0.00000000000E+00 0. -1.
         -1   -1    0    0    0  501 -0.00000000000E+00 -0.00000000000E+00 -0.14137200723E+03  0.14137200723E+03  0.00000000000E+00 0.  1.
         25    2    1    2    0    0 -0.21458886606E+02  0.11024059699E+03 -0.54774739886E+01  0.16819825111E+03  0.12508867221E+03 0.  0.
          5    1    3    3  502    0 -0.64736389904E+02  0.97726520430E+02  0.15518765564E+02  0.11831981008E+03  0.41800000000E+01 0. -1.
         -5    1    3    3    0  502  0.43277503298E+02  0.12514076562E+02 -0.20996239552E+02  0.49878441026E+02  0.41800000000E+01 0. -1.
        -11    1    1    2    0    0  0.43489703387E+02 -0.85262302574E+02 -0.17592101582E+01  0.95729354752E+02  0.00000000000E+00 0.  1.
         11    1    1    2    0    0 -0.22030816780E+02 -0.24978294418E+02  0.42107308565E+02  0.53687033021E+02  0.00000000000E+00 0. -1.
</event>
<event>
 7    1  0.2749315E-009  0.1263460E+03  0.7561462E-02  0.1232981E+00
          2   -1    0    0  501    0  0.00000000000E+00  0.00000000000E+00  0.36243634723E+03  0.36243634723E+03  0.00000000000E+00 0. -1.
         -2   -1    0    0    0  501 -0.00000000000E+00 -0.00000000000E+00 -0.76000282116E+02  0.76000282116E+02  0.00000000000E+00 0.  1.
         25    2    1    2    0    0 -0.54439693233E+01  0.83521488633E+02  0.29863222697E+02  0.15344028478E+03  0.12508650230E+03 0.  0.
          5    1    3    3  502    0  0.39611467108E+02 -0.50674812442E+01 -0.16846860862E+02  0.43543504837E+02  0.41800000000E+01 0.  1.
         -5    1    3    3    0  502 -0.45055436432E+02  0.88588969877E+02  0.46710083559E+02  0.10989677994E+03  0.41800000000E+01 0.  1.
        -11    1    1    2    0    0 -0.30488168287E+02 -0.66805239735E+02  0.21659366083E+03  0.22870348133E+03  0.00000000000E+00 0. -1.
         11    1    1    2    0    0  0.35932137610E+02 -0.16716248898E+02  0.39979181583E+02  0.56292863228E+02  0.00000000000E+00 0.  1.
</event>
<event>
 7    1  0.2749315E-009  0.1291386E+03  0.7561462E-02  0.1228739E+00
          2   -1    0    0  501    0  0.00000000000E+00  0.00000000000E+00  0.75877029915E+03  0.75877029915E+03  0.00000000000E+00 0.  1.
         -2   -1    0    0    0  501 -0.00000000000E+00 -0.00000000000E+00 -0.31400814597E+02  0.31400814597E+02  0.00000000000E+00 0. -1.
         25    2    1    2    0    0  0.96177907723E+02 -0.71119613452E+01  0.51898547327E+03  0.54248887166E+03  0.12508990560E+03 0.  0.
          5    1    3    3  502    0  0.47856646472E+02  0.37832500296E+02  0.41346273056E+03  0.41795987685E+03  0.41800000000E+01 0.  1.
         -5    1    3    3    0  502  0.48321261251E+02 -0.44944461641E+02  0.10552274271E+03  0.12452899482E+03  0.41800000000E+01 0.  1.
        -11    1    1    2    0    0 -0.46714524802E+02  0.47889655322E+02  0.13182038989E+03  0.14782517074E+03  0.00000000000E+00 0.  1.
         11    1    1    2    0    0 -0.49463382921E+02 -0.40777693977E+02  0.76563621392E+02  0.99857071341E+02  0.00000000000E+00 0. -1.
</event>
<event>
 7    1  0.2749315E-009  0.1068017E+03  0.7561462E-02  0.1266610E+00
         -2   -1    0    0    0  501 -0.00000000000E+00  0.00000000000E+00  0.32557014136E+02  0.32557014136E+02  0.00000000000E+00 0.  1.
          2   -1    0    0  501    0  0.00000000000E+00 -0.00000000000E+00 -0.40211532487E+03  0.40211532487E+03  0.00000000000E+00 0. -1.
         25    2    1    2    0    0  0.35953165320E+02  0.11237820019E+01 -0.19570207877E+03  0.23503340762E+03  0.12508999193E+03 0.  0.
          5    1    3    3  502    0 -0.41808539989E+02  0.30617076403E+01 -0.11676202018E+03  0.12412964926E+03  0.41800000000E+01 0.  1.
         -5    1    3    3    0  502  0.77761705310E+02 -0.19379256383E+01 -0.78940058593E+02  0.11090375836E+03  0.41800000000E+01 0.  1.
        -11    1    1    2    0    0 -0.21970891401E+02  0.42458659508E+02 -0.11869777578E+03  0.12796335339E+03  0.00000000000E+00 0. -1.
         11    1    1    2    0    0 -0.13982273919E+02 -0.43582441510E+02 -0.55158456194E+02  0.71675578000E+02  0.00000000000E+00 0.  1.
</event>
<event>
 7    1  0.2749315E-009  0.9833634E+02  0.7561462E-02  0.1283834E+00
          2   -1    0    0  501    0  0.00000000000E+00  0.00000000000E+00  0.38548466816E+03  0.38548466816E+03  0.00000000000E+00 0. -1.
         -2   -1    0    0    0  501 -0.00000000000E+00 -0.00000000000E+00 -0.37891830034E+02  0.37891830034E+02  0.00000000000E+00 0.  1.
         25    2    1    2    0    0 -0.40593101566E+01 -0.15078430051E+02  0.10198054434E+03  0.16214605489E+03  0.12508986626E+03 0.  0.
          5    1    3    3  502    0 -0.52504295414E+02 -0.41225075971E+02  0.35475101784E+02  0.75711050530E+02  0.41800000000E+01 0. -1.
         -5    1    3    3    0  502  0.48444985258E+02  0.26146645920E+02  0.66505442560E+02  0.86435004365E+02  0.41800000000E+01 0. -1.
        -11    1    1    2    0    0 -0.16884059622E+02 -0.24526728652E+02  0.17562697502E+03  0.17813328224E+03  0.00000000000E+00 0. -1.
         11    1    1    2    0    0  0.20943369779E+02  0.39605158702E+02  0.69985318759E+02  0.83097161055E+02  0.00000000000E+00 0.  1.
</event>
<event>
 7    1  0.2749315E-009  0.1002637E+03  0.7561462E-02  0.1279742E+00
          2   -1    0    0  501    0  0.00000000000E+00  0.00000000000E+00  0.42773983309E+03  0.42773983309E+03  0.00000000000E+00 0. -1.
         -2   -1    0    0    0  501 -0.00000000000E+00 -0.00000000000E+00 -0.44749575095E+02  0.44749575095E+02  0.00000000000E+00 0.  1.
         25    2    1    2    0    0  0.62737263004E+02 -0.30811538283E+02  0.12574941574E+03  0.19064488121E+03  0.12508892882E+03 0.  0.
          5    1    3    3  502    0  0.52439918209E+02  0.14193605335E+00 -0.77319457632E+01  0.53171614165E+02  0.41800000000E+01 0. -1.
         -5    1    3    3    0  502  0.10297344795E+02 -0.30953474337E+02  0.13348136151E+03  0.13747326705E+03  0.41800000000E+01 0. -1.
        -11    1    1    2    0    0 -0.61068891921E+02  0.60108765797E+02  0.19740582524E+03  0.21520114573E+03  0.00000000000E+00 0. -1.
         11    1    1    2    0    0 -0.16683710827E+01 -0.29297227514E+02  0.59835017018E+02  0.66643381244E+02  0.00000000000E+00 0.  1.
</event>
<event>
 7    1  0.2749315E-009  0.4461013E+03  0.7561462E-02  0.1028891E+00
          2   -1    0    0  501    0  0.00000000000E+00  0.00000000000E+00  0.26657139192E+04  0.26657139192E+04  0.00000000000E+00 0.  1.
         -2   -1    0    0    0  501 -0.00000000000E+00 -0.00000000000E+00 -0.98105334392E+02  0.98105334392E+02  0.00000000000E+00 0. -1.
         25    2    1    2    0    0 -0.19509182773E+03  0.39871204234E+03  0.67255379550E+03  0.81548022926E+03  0.12508909829E+03 0.  0.
          5    1    3    3  502    0 -0.14832364731E+03  0.35210152821E+03  0.49037336278E+03  0.62165818409E+03  0.41800000000E+01 0. -1.
         -5    1    3    3    0  502 -0.46768180426E+02  0.46610514132E+02  0.18218043272E+03  0.19382204517E+03  0.41800000000E+01 0. -1.
        -11    1    1    2    0    0  0.53007285027E+02 -0.11636233207E+03  0.38914040709E+03  0.40960984000E+03  0.00000000000E+00 0. -1.
         11    1    1    2    0    0  0.14208454271E+03 -0.28234971027E+03  0.15059143822E+04  0.15387291844E+04  0.00000000000E+00 0.  1.
</event>
<event>
 7    1  0.2749315E-009  0.1404672E+03  0.7561462E-02  0.1212702E+00
          4   -1    0    0  501    0  0.00000000000E+00  0.00000000000E+00  0.20500737078E+03  0.20500737078E+03  0.00000000000E+00 0. -1.
         -4   -1    0    0    0  501 -0.00000000000E+00 -0.00000000000E+00 -0.13327849144E+03  0.13327849144E+03  0.00000000000E+00 0.  1.
         25    2    1    2    0    0 -0.29703231846E+02 -0.98746094888E+02  0.10285177517E+03  0.19198878532E+03  0.12509249696E+03 0.  0.
          5    1    3    3  502    0  0.32995076590E+02 -0.74390149276E+02  0.93378214361E+02  0.12393358183E+03  0.41800000000E+01 0.  1.
         -5    1    3    3    0  502 -0.62698308436E+02 -0.24355945612E+02  0.94735608053E+01  0.68055203488E+02  0.41800000000E+01 0.  1.
        -11    1    1    2    0    0  0.21707561989E+02  0.11334784111E+03 -0.45741546461E+02  0.12414201708E+03  0.00000000000E+00 0.  1.
         11    1    1    2    0    0  0.79956698571E+01 -0.14601746221E+02  0.14618650641E+02  0.22155059822E+02  0.00000000000E+00 0. -1.
</event>
<event>
 7    1  0.2749315E-009  0.1231329E+03  0.7561462E-02  0.1238016E+00
         -1   -1    0    0    0  501 -0.00000000000E+00  0.00000000000E+00  0.39326901118E+02  0.39326901118E+02  0.00000000000E+00 0. -1.
          1   -1    0    0  501    0  0.00000000000E+00 -0.00000000000E+00 -0.39526180068E+03  0.39526180068E+03  0.00000000000E+00 0.  1.
         25    2    1    2    0    0 -0.58985403206E+02  0.60101389299E+02 -0.18612028842E+03  0.23954315407E+03  0.12509478851E+03 0.  0.
          5    1    3    3  502    0 -0.67267683763E+01 -0.38269138977E+02 -0.54509888776E+02  0.67071430469E+02  0.41800000000E+01 0.  1.
         -5    1    3    3    0  502 -0.52258634829E+02  0.98370528276E+02 -0.13161039964E+03  0.17247172360E+03  0.41800000000E+01 0.  1.
        -11    1    1    2    0    0  0.46337597271E+02 -0.14739722711E+02 -0.79523240746E+02  0.93211470137E+02  0.00000000000E+00 0.  1.
         11    1    1    2    0    0  0.12647805935E+02 -0.45361666589E+02 -0.90291370394E+02  0.10183407759E+03  0.00000000000E+00 0. -1.
</event>
<event>
 7    1  0.2941291E-009  0.1492120E+03  0.7561462E-02  0.1201445E+00
         -1   -1    0    0    0  501 -0.00000000000E+00  0.00000000000E+00  0.94901797202E+02  0.94901797202E+02  0.00000000000E+00 0.  1.
          1   -1    0    0  501    0  0.00000000000E+00 -0.00000000000E+00 -0.44362860956E+03  0.44362860956E+03  0.00000000000E+00 0. -1.
         25    2    1    2    0    0  0.10624344810E+03 -0.61275349862E+02 -0.20239639834E+02  0.17635136157E+03  0.12509125046E+03 0.  0.
          5    1    3    3  502    0  0.54549828395E+02  0.35580571902E+02 -0.97184321878E+01  0.65981673206E+02  0.41800000000E+01 0.  1.
         -5    1    3    3    0  502  0.51693619709E+02 -0.96855921764E+02 -0.10521207647E+02  0.11036968836E+03  0.41800000000E+01 0.  1.
        -11    1    1    2    0    0 -0.12728048107E+02  0.12433091529E+02 -0.67257019883E+00  0.17805541953E+02  0.00000000000E+00 0.  1.
         11    1    1    2    0    0 -0.93515399997E+02  0.48842258333E+02 -0.32781460233E+03  0.34437350324E+03  0.00000000000E+00 0. -1.
</event>
<event>
 7    1  0.2749315E-009  0.1125027E+03  0.7561462E-02  0.1256004E+00
          1   -1    0    0  501    0  0.00000000000E+00  0.00000000000E+00  0.12222524429E+03  0.12222524429E+03  0.00000000000E+00 0. -1.
         -1   -1    0    0    0  501 -0.00000000000E+00 -0.00000000000E+00 -0.10797118868E+03  0.10797118868E+03  0.00000000000E+00 0.  1.
         25    2    1    2    0    0 -0.29506469048E+02  0.15546412833E+02  0.23318652032E+02  0.13153957639E+03  0.12508628205E+03 0.  0.
          5    1    3    3  502    0 -0.78051494363E+02  0.13182169293E+02  0.23773740446E+02  0.82755474106E+02  0.41800000000E+01 0. -1.
         -5    1    3    3    0  502  0.48545025316E+02  0.23642435400E+01 -0.45508841442E+00  0.48784102286E+02  0.41800000000E+01 0. -1.
        -11    1    1    2    0    0  0.30211410589E+02  0.35096385253E+02  0.36044956389E+01  0.46448659576E+02  0.00000000000E+00 0.  1.
         11    1    1    2    0    0 -0.70494154087E+00 -0.50642798086E+02 -0.12669092053E+02  0.52208197000E+02  0.00000000000E+00 0. -1.
</event>
<event>
 7    1  0.2749315E-009  0.1037857E+03  0.7561462E-02  0.1272531E+00
          2   -1    0    0  501    0  0.00000000000E+00  0.00000000000E+00  0.22715296861E+02  0.22715296861E+02  0.00000000000E+00 0. -1.
         -2   -1    0    0    0  501 -0.00000000000E+00 -0.00000000000E+00 -0.65011299225E+03  0.65011299225E+03  0.00000000000E+00 0.  1.
         25    2    1    2    0    0  0.18641383313E+01 -0.21215460339E+02 -0.49014242763E+03  0.50629962724E+03  0.12508454105E+03 0.  0.
          5    1    3    3  502    0  0.20740517607E+02  0.42212813416E+02 -0.32385023368E+03  0.32727440618E+03  0.41800000000E+01 0.  1.
         -5    1    3    3    0  502 -0.18876379276E+02 -0.63428273755E+02 -0.16629219395E+03  0.17902522106E+03  0.41800000000E+01 0.  1.
        -11    1    1    2    0    0 -0.11243539419E+02  0.56462026432E+02 -0.77943164803E+02  0.96899507465E+02  0.00000000000E+00 0.  1.
         11    1    1    2    0    0  0.93794010877E+01 -0.35246566093E+02 -0.59312102948E+02  0.69629154398E+02  0.00000000000E+00 0. -1.
</event>
<event>
 7    1  0.2749315E-009  0.7317549E+02  0.7561462E-02  0.1349616E+00
         -1   -1    0    0    0  501 -0.00000000000E+00  0.00000000000E+00  0.86900633656E+02  0.86900633656E+02  0.00000000000E+00 0.  1.
          1   -1    0    0  501    0  0.00000000000E+00 -0.00000000000E+00 -0.13714214684E+03  0.13714214684E+03  0.00000000000E+00 0. -1.
         25    2    1    2    0    0 -0.81275059785E+01 -0.10181418692E+02 -0.37964638272E+02  0.13137134702E+03  0.12508956559E+03 0.  0.
          5    1    3    3  502    0  0.21452599256E+02 -0.11367169150E+02  0.40499792402E+02  0.47403925301E+02  0.41800000000E+01 0.  1.
         -5    1    3    3    0  502 -0.29580105234E+02  0.11857504581E+01 -0.78464430675E+02  0.83967421724E+02  0.41800000000E+01 0.  1.
        -11    1    1    2    0    0  0.34403629771E+02 -0.28759641949E+02 -0.73011028885E+01  0.45431628298E+02  0.00000000000E+00 0. -1.
         11    1    1    2    0    0 -0.26276123793E+02  0.38941060641E+02 -0.49757720220E+01  0.47239805171E+02  0.00000000000E+00 0.  1.
</event>
<event>
 7    1  0.2749315E-009  0.8051144E+02  0.7561462E-02  0.1327606E+00
         -1   -1    0    0    0  501 -0.00000000000E+00  0.00000000000E+00  0.39288638972E+02  0.39288638972E+02  0.00000000000E+00 0.  1.
          1   -1    0    0  501    0  0.00000000000E+00 -0.00000000000E+00 -0.36034230028E+03  0.36034230028E+03  0.00000000000E+00 0. -1.
         25    2    1    2    0    0  0.30863112531E+02  0.34507678130E+02 -0.15087223987E+03  0.20138267146E+03  0.12509690658E+03 0.  0.
          5    1    3    3  502    0  0.20685328149E+02  0.41864119515E+02 -0.17099046071E+03  0.17730114878E+03  0.41800000000E+01 0.  1.
         -5    1    3    3    0  502  0.10177784382E+02 -0.73564413853E+01  0.20118220844E+02  0.24081522682E+02  0.41800000000E+01 0.  1.
        -11    1    1    2    0    0  0.28199251647E+02 -0.30751246984E+02 -0.58492048472E+02  0.71848150422E+02  0.00000000000E+00 0.  1.
         11    1    1    2    0    0 -0.59062364178E+02 -0.37564311463E+01 -0.11168937297E+03  0.12640011737E+03  0.00000000000E+00 0. -1.
</event>
<event>
 7    1  0.2749315E-009  0.1164674E+03  0.7561462E-02  0.1249041E+00
          1   -1    0    0  501    0  0.00000000000E+00  0.00000000000E+00  0.13040631943E+04  0.13040631943E+04  0.00000000000E+00 0.  1.
         -1   -1    0    0    0  501 -0.00000000000E+00 -0.00000000000E+00 -0.14848193071E+02  0.14848193071E+02  0.00000000000E+00 0. -1.
         25    2    1    2    0    0  0.21944988795E+02 -0.60484402792E+02  0.97030324351E+03  0.98044690245E+03  0.12509116131E+03 0.  0.
          5    1    3    3  502    0  0.49844643423E+01  0.29243855404E+02  0.79361845189E+02  0.84828195993E+02  0.41800000000E+01 0.  1.
         -5    1    3    3    0  502  0.16960524453E+02 -0.89728258196E+02  0.89094139832E+03  0.89561870646E+03  0.41800000000E+01 0.  1.
        -11    1    1    2    0    0 -0.46968412655E+02  0.94347923762E+00  0.16483884692E+03  0.17140235527E+03  0.00000000000E+00 0. -1.
         11    1    1    2    0    0  0.25023423860E+02  0.59540923555E+02  0.15407291076E+03  0.16706212961E+03  0.00000000000E+00 0.  1.
</event>
<event>
 7    1  0.2749315E-009  0.1339747E+03  0.7561462E-02  0.1221674E+00
          2   -1    0    0  501    0  0.00000000000E+00  0.00000000000E+00  0.22920713576E+03  0.22920713576E+03  0.00000000000E+00 0. -1.
         -2   -1    0    0    0  501 -0.00000000000E+00 -0.00000000000E+00 -0.10529498611E+03  0.10529498611E+03  0.00000000000E+00 0.  1.
         25    2    1    2    0    0 -0.43995894153E+00 -0.98125481466E+02  0.13363668201E+02  0.15955008100E+03  0.12509531183E+03 0.  0.
          5    1    3    3  502    0 -0.55173602083E+02 -0.73314555463E+02  0.30732894384E+02  0.96856252285E+02  0.41800000000E+01 0.  1.
         -5    1    3    3    0  502  0.54733643142E+02 -0.24810926003E+02 -0.17369226183E+02  0.62693828715E+02  0.41800000000E+01 0.  1.
        -11    1    1    2    0    0 -0.28709423693E+02  0.28852822596E+02  0.87234792997E+02  0.96263313312E+02  0.00000000000E+00 0. -1.
         11    1    1    2    0    0  0.29149382634E+02  0.69272658871E+02  0.23313688457E+02  0.78688727556E+02  0.00000000000E+00 0.  1.
</event>
<event>
 7    1  0.2749315E-009  0.1131687E+03  0.7561462E-02  0.1254812E+00
         -1   -1    0    0    0  501 -0.00000000000E+00  0.00000000000E+00  0.44584970170E+02  0.44584970170E+02  0.00000000000E+00 0.  1.
          1   -1    0    0  501    0  0.00000000000E+00 -0.00000000000E+00 -0.35043229469E+03  0.35043229469E+03  0.00000000000E+00 0. -1.
         25    2    1    2    0    0  0.48037355603E+02 -0.32051459273E+02 -0.13235623180E+03  0.19105285533E+03  0.12509251719E+03 0.  0.
          5    1    3    3  502    0 -0.10786974286E+02 -0.64786311622E+02 -0.89680363514E+02  0.11123697671E+03  0.41800000000E+01 0.  1.
         -5    1    3    3    0  502  0.58824329889E+02  0.32734852349E+02 -0.42675868284E+02  0.79815878615E+02  0.41800000000E+01 0.  1.
        -11    1    1    2    0    0 -0.64882206985E+02  0.10503783066E+02 -0.66373573975E+02  0.93410286180E+02  0.00000000000E+00 0.  1.
         11    1    1    2    0    0  0.16844851382E+02  0.21547676207E+02 -0.10711751875E+03  0.11055412336E+03  0.00000000000E+00 0. -1.
</event>
<event>
 7    1  0.2749315E-009  0.1271606E+03  0.7561462E-02  0.1231731E+00
         -3   -1    0    0    0  501 -0.00000000000E+00  0.00000000000E+00  0.93412895505E+03  0.93412895505E+03  0.00000000000E+00 0.  1.
          3   -1    0    0  501    0  0.00000000000E+00 -0.00000000000E+00 -0.20151403325E+02  0.20151403325E+02  0.00000000000E+00 0. -1.
         25    2    1    2    0    0 -0.85840364565E+02  0.11993156019E+02  0.48616855651E+03  0.50943048638E+03  0.12508857313E+03 0.  0.
          5    1    3    3  502    0 -0.11009975712E+03  0.71585182565E+01  0.46044957737E+03  0.47350236177E+03  0.41800000000E+01 0. -1.
         -5    1    3    3    0  502  0.24259392558E+02  0.48346377629E+01  0.25718979146E+02  0.35928124609E+02  0.41800000000E+01 0. -1.
        -11    1    1    2    0    0  0.96522059887E+02  0.72708082482E+01  0.30218158108E+03  0.31730597322E+03  0.00000000000E+00 0.  1.
         11    1    1    2    0    0 -0.10681695322E+02 -0.19263964268E+02  0.12562741413E+03  0.12754389878E+03  0.00000000000E+00 0. -1.
</event>
<event>
 7    1  0.2749315E-009  0.9717720E+02  0.7561462E-02  0.1286346E+00
          1   -1    0    0  501    0  0.00000000000E+00  0.00000000000E+00  0.13332550562E+03  0.13332550562E+03  0.00000000000E+00 0. -1.
         -1   -1    0    0    0  501 -0.00000000000E+00 -0.00000000000E+00 -0.11479089021E+03  0.11479089021E+03  0.00000000000E+00 0.  1.
         25    2    1    2    0    0 -0.21083032879E+02 -0.55058968691E+02  0.49055433998E+01  0.13836976964E+03  0.12508454935E+03 0.  0.
          5    1    3    3  502    0 -0.23145068848E+02  0.87304517516E+01  0.52805614284E+02  0.58462127054E+02  0.41800000000E+01 0. -1.
         -5    1    3    3    0  502  0.20620359684E+01 -0.63789420443E+02 -0.47900070884E+02  0.79907642585E+02  0.41800000000E+01 0. -1.
        -11    1    1    2    0    0  0.48220759581E+02  0.60767882410E+02  0.22254219626E+02  0.80704569130E+02  0.00000000000E+00 0. -1.
         11    1    1    2    0    0 -0.27137726702E+02 -0.57089137191E+01 -0.86251476163E+01  0.29042057052E+02  0.00000000000E+00 0.  1.
</event>
<event>
 7    1  0.2749315E-009  0.9315260E+02  0.7561462E-02  0.1295392E+00
          2   -1    0    0  501    0  0.00000000000E+00  0.00000000000E+00  0.23162305685E+03  0.23162305685E+03  0.00000000000E+00 0. -1.
         -2   -1    0    0    0  501 -0.00000000000E+00 -0.00000000000E+00 -0.73983281109E+02  0.73983281109E+02  0.00000000000E+00 0.  1.
         25    2    1    2    0    0  0.10911556446E+02  0.44531000723E+02  0.20472497344E+02  0.13478876676E+03  0.12508723519E+03 0.  0.
          5    1    3    3  502    0 -0.52568857320E+02  0.26449441727E+02  0.32816796845E+02  0.67509053340E+02  0.41800000000E+01 0. -1.
         -5    1    3    3    0  502  0.63480413766E+02  0.18081558995E+02 -0.12344299502E+02  0.67279713419E+02  0.41800000000E+01 0. -1.
        -11    1    1    2    0    0  0.48133384833E+01 -0.45177730910E+02  0.14590595370E+03  0.15281604275E+03  0.00000000000E+00 0. -1.
         11    1    1    2    0    0 -0.15724894929E+02  0.64673018674E+00 -0.87386753006E+01  0.18001528448E+02  0.00000000000E+00 0.  1.
</event>
<event>
 7    1  0.2749315E-009  0.1347817E+03  0.7561462E-02  0.1220528E+00
          2   -1    0    0  501    0  0.00000000000E+00  0.00000000000E+00  0.90006969992E+03  0.90006969992E+03  0.00000000000E+00 0. -1.
         -2   -1    0    0    0  501 -0.00000000000E+00 -0.00000000000E+00 -0.24069918423E+02  0.24069918423E+02  0.00000000000E+00 0.  1.
         25    2    1    2    0    0  0.10434766800E+03 -0.13407528481E+02  0.55336702605E+03  0.57700051009E+03  0.12508527288E+03 0.  0.
          5    1    3    3  502    0  0.11475388949E+03  0.21124932682E+02  0.31614603565E+03  0.33701707107E+03  0.41800000000E+01 0. -1.
         -5    1    3    3    0  502 -0.10406221495E+02 -0.34532461162E+02  0.23722099040E+03  0.23998343902E+03  0.41800000000E+01 0. -1.
        -11    1    1    2    0    0 -0.53665379573E+02 -0.18318096045E+02  0.85581568306E+02  0.10266318932E+03  0.00000000000E+00 0.  1.
         11    1    1    2    0    0 -0.50682288425E+02  0.31725624526E+02  0.23705118714E+03  0.24447591893E+03  0.00000000000E+00 0. -1.
</event>
<event>
 7    1  0.2749315E-009  0.7250437E+02  0.7561462E-02  0.1351778E+00
          4   -1    0    0  501    0  0.00000000000E+00  0.00000000000E+00  0.71374423203E+03  0.71374423203E+03  0.00000000000E+00 0. -1.
         -4   -1    0    0    0  501 -0.00000000000E+00 -0.00000000000E+00 -0.25188772374E+02  0.25188772374E+02  0.00000000000E+00 0.  1.
         25    2    1    2    0    0 -0.53746875856E+02 -0.39757441854E+02  0.48053089135E+03  0.50102605333E+03  0.12509111767E+03 0.  0.
          5    1    3    3  502    0 -0.12576949081E+02 -0.14263138822E+02  0.14915474336E+01  0.19527260202E+02  0.41800000000E+01 0. -1.
         -5    1    3    3    0  502 -0.41169926775E+02 -0.25494303032E+02  0.47903934392E+03  0.48149879313E+03  0.41800000000E+01 0. -1.
        -11    1    1    2    0    0  0.28880481653E+02  0.43061047173E+02  0.20635211443E+03  0.21276637689E+03  0.00000000000E+00 0. -1.
         11    1    1    2    0    0  0.24866394203E+02 -0.33036053187E+01  0.16724538747E+01  0.25140574192E+02  0.00000000000E+00 0.  1.
</event>
<event>
 7    1  0.2749315E-009  0.8096888E+02  0.7561462E-02  0.1326324E+00
          3   -1    0    0  501    0  0.00000000000E+00  0.00000000000E+00  0.13886020890E+04  0.13886020890E+04  0.00000000000E+00 0. -1.
         -3   -1    0    0    0  501 -0.00000000000E+00 -0.00000000000E+00 -0.21152595858E+02  0.21152595858E+02  0.00000000000E+00 0.  1.
         25    2    1    2    0    0  0.75781182472E+01 -0.63078729347E+01  0.12782315639E+04  0.12843757393E+04  0.12509153346E+03 0.  0.
          5    1    3    3  502    0 -0.15783909866E+02  0.28052220809E+02  0.11274808407E+04  0.11279479498E+04  0.41800000000E+01 0.  1.
         -5    1    3    3    0  502  0.23362028113E+02 -0.34360093744E+02  0.15075072320E+03  0.15642778955E+03  0.41800000000E+01 0.  1.
        -11    1    1    2    0    0  0.19852753988E+02 -0.33758330333E+02  0.45588261890E+02  0.60100302244E+02  0.00000000000E+00 0.  1.
         11    1    1    2    0    0 -0.27430872235E+02  0.40066203267E+02  0.43629667420E+02  0.65278643330E+02  0.00000000000E+00 0. -1.
</event>
<event>
 7    1  0.2749315E-009  0.1141181E+03  0.7561462E-02  0.1253128E+00
         -2   -1    0    0    0  501 -0.00000000000E+00  0.00000000000E+00  0.41803063112E+02  0.41803063112E+02  0.00000000000E+00 0.  1.
          2   -1    0    0  501    0  0.00000000000E+00 -0.00000000000E+00 -0.44551955246E+03  0.44551955246E+03  0.00000000000E+00 0. -1.
         25    2    1    2    0    0 -0.25309928886E+02 -0.49443698283E+02 -0.11196353768E+03  0.17683044158E+03  0.12509156446E+03 0.  0.
          5    1    3    3  502    0 -0.28833350779E+02  0.33412285930E+02 -0.10201814318E+02  0.45489475526E+02  0.41800000000E+01 0.  1.
         -5    1    3    3    0  502  0.35234218928E+01 -0.82855984213E+02 -0.10176172336E+03  0.13134096605E+03  0.41800000000E+01 0.  1.
        -11    1    1    2    0    0  0.56213782129E+02  0.25263237787E+02 -0.12745384012E+03  0.14157224956E+03  0.00000000000E+00 0.  1.
         11    1    1    2    0    0 -0.30903853242E+02  0.24180460497E+02 -0.16429911155E+03  0.16891992443E+03  0.00000000000E+00 0. -1.
</event>
<event>
 7    1  0.2749315E-009  0.1228260E+03  0.7561462E-02  0.1238507E+00
         -3   -1    0    0    0  501 -0.00000000000E+00  0.00000000000E+00  0.15754287852E+03  0.15754287852E+03  0.00000000000E+00 0.  1.
          3   -1    0    0  501    0  0.00000000000E+00 -0.00000000000E+00 -0.10991066793E+03  0.10991066793E+03  0.00000000000E+00 0. -1.
         25    2    1    2    0    0 -0.67400202943E+02  0.60541816273E+01 -0.61625451634E+01  0.14235229416E+03  0.12508700259E+03 0.  0.
          5    1    3    3  502    0  0.32717844394E+02  0.22372742502E+02  0.51988023670E+01  0.40193244394E+02  0.41800000000E+01 0. -1.
         -5    1    3    3    0  502 -0.10011804734E+03 -0.16318560875E+02 -0.11361347530E+02  0.10215904977E+03  0.41800000000E+01 0. -1.
        -11    1    1    2    0    0  0.85745976200E+02 -0.46646063321E+01  0.22455007817E+02  0.88760116960E+02  0.00000000000E+00 0. -1.
         11    1    1    2    0    0 -0.18345773257E+02 -0.13895752951E+01  0.31339747936E+02  0.36341135323E+02  0.00000000000E+00 0.  1.
</event>
<event>
 7    1  0.2749315E-009  0.8727127E+02  0.7561462E-02  0.1309598E+00
         -2   -1    0    0    0  501 -0.00000000000E+00  0.00000000000E+00  0.19011461241E+03  0.19011461241E+03  0.00000000000E+00 0.  1.
          2   -1    0    0  501    0  0.00000000000E+00 -0.00000000000E+00 -0.75602268510E+02  0.75602268510E+02  0.00000000000E+00 0. -1.
         25    2    1    2    0    0  0.17540811010E+02 -0.39974941182E+02  0.34060297755E+02  0.13680157401E+03  0.12509552668E+03 0.  0.
          5    1    3    3  502    0 -0.97976912772E+01  0.34738586153E+02  0.43384115991E+02  0.56589911138E+02  0.41800000000E+01 0.  1.
         -5    1    3    3    0  502  0.27338502287E+02 -0.74713527336E+02 -0.93238182356E+01  0.80211662872E+02  0.41800000000E+01 0.  1.
        -11    1    1    2    0    0 -0.26795777155E+01  0.43240780727E+02 -0.36225560751E+01  0.43474914228E+02  0.00000000000E+00 0. -1.
         11    1    1    2    0    0 -0.14861233294E+02 -0.32658395450E+01  0.84074602221E+02  0.85440392681E+02  0.00000000000E+00 0.  1.
</event>
<event>
 7    1  0.2749315E-009  0.3641880E+03  0.7561462E-02  0.1056938E+00
         -2   -1    0    0    0  501 -0.00000000000E+00  0.00000000000E+00  0.20498881490E+03  0.20498881490E+03  0.00000000000E+00 0. -1.
          2   -1    0    0  501    0  0.00000000000E+00 -0.00000000000E+00 -0.89363550670E+03  0.89363550670E+03  0.00000000000E+00 0.  1.
         25    2    1    2    0    0  0.30106122083E+03  0.17352218929E+03 -0.59374499732E+02  0.37405817907E+03  0.12508549575E+03 0.  0.
          5    1    3    3  502    0  0.65493444138E+02 -0.15199422538E+02 -0.77960830018E+01  0.67813457224E+02  0.41800000000E+01 0. -1.
         -5    1    3    3    0  502  0.23556777669E+03  0.18872161183E+03 -0.51578416730E+02  0.30624472184E+03  0.41800000000E+01 0. -1.
        -11    1    1    2    0    0 -0.75525382608E+02 -0.92678042452E+02 -0.21466741618E+03  0.24571406663E+03  0.00000000000E+00 0. -1.
         11    1    1    2    0    0 -0.22553583822E+03 -0.80844146839E+02 -0.41460477588E+03  0.47885207589E+03  0.00000000000E+00 0.  1.
</event>
<event>
 7    1  0.2749315E-009  0.1110754E+03  0.7561462E-02  0.1258591E+00
         -1   -1    0    0    0  501 -0.00000000000E+00  0.00000000000E+00  0.40220978668E+02  0.40220978668E+02  0.00000000000E+00 0.  1.
          1   -1    0    0  501    0  0.00000000000E+00 -0.00000000000E+00 -0.47828182295E+03  0.47828182295E+03  0.00000000000E+00 0. -1.
         25    2    1    2    0    0  0.26207517892E+02 -0.72262173484E+02 -0.17076170013E+03  0.22520353937E+03  0.12509364573E+03 0.  0.
          5    1    3    3  502    0  0.75910480281E+01 -0.81942766498E+02 -0.18290029416E+03  0.20060466345E+03  0.41800000000E+01 0.  1.
         -5    1    3    3    0  502  0.18616469864E+02  0.96805930146E+01  0.12138594035E+02  0.24598875919E+02  0.41800000000E+01 0.  1.
        -11    1    1    2    0    0  0.53708756072E+01 -0.20068218694E+02 -0.27968456154E+02  0.34839837055E+02  0.00000000000E+00 0.  1.
         11    1    1    2    0    0 -0.31578393500E+02  0.92330392178E+02 -0.23933068800E+03  0.25845942520E+03  0.00000000000E+00 0. -1.
</event>
<event>
 7    1  0.2749315E-009  0.1036490E+03  0.7561462E-02  0.1272804E+00
         -1   -1    0    0    0  501 -0.00000000000E+00  0.00000000000E+00  0.35534346854E+02  0.35534346854E+02  0.00000000000E+00 0.  1.
          1   -1    0    0  501    0  0.00000000000E+00 -0.00000000000E+00 -0.36369868176E+03  0.36369868176E+03  0.00000000000E+00 0. -1.
         25    2    1    2    0    0  0.55540103638E+01  0.24855203046E+02 -0.23542967856E+03  0.26781230829E+03  0.12509065023E+03 0.  0.
          5    1    3    3  502    0 -0.38829472622E+02  0.58667136239E+02 -0.11257243752E+03  0.13281410659E+03  0.41800000000E+01 0. -1.
         -5    1    3    3    0  502  0.44383482986E+02 -0.33811933193E+02 -0.12285724103E+03  0.13499820170E+03  0.41800000000E+01 0. -1.
        -11    1    1    2    0    0 -0.39061787078E+01 -0.52765617365E+02 -0.25766548191E+02  0.58850519231E+02  0.00000000000E+00 0.  1.
         11    1    1    2    0    0 -0.16478316560E+01  0.27910414319E+02 -0.66968108155E+02  0.72570201092E+02  0.00000000000E+00 0. -1.
</event>
<event>
 7    1  0.2749315E-009  0.9160875E+02  0.7561462E-02  0.1299002E+00
         -2   -1    0    0    0  501 -0.00000000000E+00  0.00000000000E+00  0.82916783474E+02  0.82916783474E+02  0.00000000000E+00 0.  1.
          2   -1    0    0  501    0  0.00000000000E+00 -0.00000000000E+00 -0.18263588139E+03  0.18263588139E+03  0.00000000000E+00 0. -1.
         25    2    1    2    0    0  0.52548666706E+02  0.23735196722E+01 -0.79736693427E+02  0.15739288495E+03  0.12509030332E+03 0.  0.
          5    1    3    3  502    0  0.24946950915E+02 -0.26638570902E+02 -0.10406030128E+03  0.11035389672E+03  0.41800000000E+01 0.  1.
         -5    1    3    3    0  502  0.27601715791E+02  0.29012090574E+02  0.24323607855E+02  0.47038988224E+02  0.41800000000E+01 0.  1.
        -11    1    1    2    0    0 -0.25234594734E+02 -0.47318663519E+02 -0.12147053630E+02  0.54985376242E+02  0.00000000000E+00 0. -1.
         11    1    1    2    0    0 -0.27314071972E+02  0.44945143847E+02 -0.78353508621E+01  0.53174403675E+02  0.00000000000E+00 0.  1.
</event>
<event>
 7    1  0.3361832E-009  0.1934464E+03  0.7561462E-02  0.1155389E+00
         -2   -1    0    0    0  501 -0.00000000000E+00  0.00000000000E+00  0.73094557044E+02  0.73094557044E+02  0.00000000000E+00 0.  1.
          2   -1    0    0  501    0  0.00000000000E+00 -0.00000000000E+00 -0.67999192663E+03  0.67999192663E+03  0.00000000000E+00 0. -1.
         25    2    1    2    0    0  0.17461855896E+02  0.17231287869E+03 -0.46290049835E+03  0.50982451237E+03  0.12509003742E+03 0.  0.
          5    1    3    3  502    0 -0.38999412605E+02  0.14604988680E+03 -0.32982391919E+03  0.36283992847E+03  0.41800000000E+01 0. -1.
         -5    1    3    3    0  502  0.56461268501E+02  0.26262991895E+02 -0.13307657916E+03  0.14698458390E+03  0.41800000000E+01 0. -1.
        -11    1    1    2    0    0 -0.87989019582E+01 -0.10897082276E+03 -0.31340063833E+02  0.11372889030E+03  0.00000000000E+00 0.  1.
         11    1    1    2    0    0 -0.86629539380E+01 -0.63342055938E+02 -0.11265680741E+03  0.12953308101E+03  0.00000000000E+00 0. -1.
</event>
<event>
 7    1  0.2749315E-009  0.8055879E+02  0.7561462E-02  0.1327473E+00
          2   -1    0    0  501    0  0.00000000000E+00  0.00000000000E+00  0.32482647755E+03  0.32482647755E+03  0.00000000000E+00 0. -1.
         -2   -1    0    0    0  501 -0.00000000000E+00 -0.00000000000E+00 -0.43719406675E+02  0.43719406675E+02  0.00000000000E+00 0.  1.
         25    2    1    2    0    0  0.46750590693E+02 -0.13934382027E+02  0.13857134009E+03  0.19294003428E+03  0.12507619999E+03 0.  0.
          5    1    3    3  502    0  0.50435578750E+02 -0.30802720177E+02  0.15671955755E+03  0.16754416520E+03  0.41800000000E+01 0. -1.
         -5    1    3    3    0  502 -0.36849880567E+01  0.16868338151E+02 -0.18148217469E+02  0.25395869078E+02  0.41800000000E+01 0. -1.
        -11    1    1    2    0    0 -0.42755022754E+02 -0.21909117183E+02  0.28177498591E+02  0.55695357197E+02  0.00000000000E+00 0.  1.
         11    1    1    2    0    0 -0.39955679392E+01  0.35843499210E+02  0.11435823219E+03  0.11991049274E+03  0.00000000000E+00 0. -1.
</event>
<event>
 7    1  0.2749315E-009  0.9479356E+02  0.7561462E-02  0.1291642E+00
          1   -1    0    0  501    0  0.00000000000E+00  0.00000000000E+00  0.78848532918E+03  0.78848532918E+03  0.00000000000E+00 0. -1.
         -1   -1    0    0    0  501 -0.00000000000E+00 -0.00000000000E+00 -0.14731593819E+02  0.14731593819E+02  0.00000000000E+00 0.  1.
         25    2    1    2    0    0  0.62204970856E+01 -0.19814635143E+02  0.42523267073E+03  0.44373564718E+03  0.12508871242E+03 0.  0.
          5    1    3    3  502    0 -0.32101949137E+02  0.29132402851E+02  0.65564792493E+02  0.78711158350E+02  0.41800000000E+01 0.  1.
         -5    1    3    3    0  502  0.38322446222E+02 -0.48947037994E+02  0.35966787824E+03  0.36502448883E+03  0.41800000000E+01 0.  1.
        -11    1    1    2    0    0  0.72974552496E+01 -0.30639963271E+02  0.80996966809E+02  0.86905516710E+02  0.00000000000E+00 0.  1.
         11    1    1    2    0    0 -0.13517952335E+02  0.50454598414E+02  0.26752409782E+03  0.27257575911E+03  0.00000000000E+00 0. -1.
</event>
<event>
 7    1  0.2749315E-009  0.1112117E+03  0.7561462E-02  0.1258342E+00
         -1   -1    0    0    0  501 -0.00000000000E+00  0.00000000000E+00  0.15471222147E+02  0.15471222147E+02  0.00000000000E+00 0.  1.
          1   -1    0    0  501    0  0.00000000000E+00 -0.00000000000E+00 -0.13926000878E+04  0.13926000878E+04  0.00000000000E+00 0. -1.
         25    2    1    2    0    0 -0.43881456677E+02 -0.21514246626E+02 -0.11454690254E+04  0.11533147592E+04  0.12508877041E+03 0.  0.
          5    1    3    3  502    0 -0.50902870283E+02  0.43065072020E+02 -0.68833302249E+03  0.69156744059E+03  0.41800000000E+01 0. -1.
         -5    1    3    3    0  502  0.70214136064E+01 -0.64579318647E+02 -0.45713600295E+03  0.46174731860E+03  0.41800000000E+01 0. -1.
        -11    1    1    2    0    0  0.50273323767E+02  0.44207644019E+02 -0.95842616114E+02  0.11690821158E+03  0.00000000000E+00 0.  1.
         11    1    1    2    0    0 -0.63918670901E+01 -0.22693397393E+02 -0.13581722411E+03  0.13784833918E+03  0.00000000000E+00 0. -1.
</event>
<event>
 7    1  0.2749315E-009  0.1575212E+03  0.7561462E-02  0.1191524E+00
          2   -1    0    0  501    0  0.00000000000E+00  0.00000000000E+00  0.23368779912E+03  0.23368779912E+03  0.00000000000E+00 0. -1.
         -2   -1    0    0    0  501 -0.00000000000E+00 -0.00000000000E+00 -0.13997156142E+03  0.13997156142E+03  0.00000000000E+00 0.  1.
         25    2    1    2    0    0  0.82060326774E+02 -0.12037030608E+03  0.61020175323E+02  0.20147663914E+03  0.12508583656E+03 0.  0.
          5    1    3    3  502    0  0.59551540188E+02 -0.11613415578E+03  0.94151434349E+02  0.16098289682E+03  0.41800000000E+01 0. -1.
         -5    1    3    3    0  502  0.22508786586E+02 -0.42361502988E+01 -0.33131259026E+02  0.40493742326E+02  0.41800000000E+01 0. -1.
        -11    1    1    2    0    0 -0.18775521020E+02  0.88223182550E+02 -0.76726160898E+01  0.90524688160E+02  0.00000000000E+00 0.  1.
         11    1    1    2    0    0 -0.63284805753E+02  0.32147123531E+02  0.40368678461E+02  0.81658033232E+02  0.00000000000E+00 0. -1.
</event>
<event>
 7    1  0.2749315E-009  0.1526086E+03  0.7561462E-02  0.1197304E+00
         -2   -1    0    0    0  501 -0.00000000000E+00  0.00000000000E+00  0.78107766808E+02  0.78107766808E+02  0.00000000000E+00 0.  1.
          2   -1    0    0  501    0  0.00000000000E+00 -0.00000000000E+00 -0.45383309097E+03  0.45383309097E+03  0.00000000000E+00 0. -1.
         25    2    1    2    0    0 -0.10261328663E+03  0.10793936684E+03 -0.24999569265E+03  0.31674345968E+03  0.12509268324E+03 0.  0.
          5    1    3    3  502    0 -0.42314306236E+02  0.76142664660E+02 -0.40047685079E+02  0.95966115759E+02  0.41800000000E+01 0. -1.
         -5    1    3    3    0  502 -0.60298980394E+02  0.31796702184E+02 -0.20994800757E+03  0.22077734392E+03  0.41800000000E+01 0. -1.
        -11    1    1    2    0    0  0.70427551897E+02 -0.83878299778E+02 -0.13511560318E+03  0.17393054782E+03  0.00000000000E+00 0. -1.
         11    1    1    2    0    0  0.32185734733E+02 -0.24061067065E+02  0.93859716644E+01  0.41266850288E+02  0.00000000000E+00 0.  1.
</event>
<event>
 7    1  0.2749315E-009  0.1255246E+03  0.7561462E-02  0.1234252E+00
          1   -1    0    0  501    0  0.00000000000E+00  0.00000000000E+00  0.59419445007E+03  0.59419445007E+03  0.00000000000E+00 0. -1.
         -1   -1    0    0    0  501 -0.00000000000E+00 -0.00000000000E+00 -0.45119087193E+02  0.45119087193E+02  0.00000000000E+00 0.  1.
         25    2    1    2    0    0 -0.28033388894E+02 -0.60710726023E+02  0.49271556751E+03  0.51272601717E+03  0.12509066738E+03 0.  0.
          5    1    3    3  502    0  0.48191925103E+02 -0.35747278627E+02  0.17639716326E+03  0.18636995783E+03  0.41800000000E+01 0. -1.
         -5    1    3    3    0  502 -0.76225313997E+02 -0.24963447396E+02  0.31631840425E+03  0.32635605934E+03  0.41800000000E+01 0. -1.
        -11    1    1    2    0    0 -0.29922675466E+02  0.37926823071E+02  0.11002363190E+02  0.49546568106E+02  0.00000000000E+00 0.  1.
         11    1    1    2    0    0  0.57956064360E+02  0.22783902952E+02  0.45357432176E+02  0.77040951989E+02  0.00000000000E+00 0. -1.
</event>
<event>
 7    1  0.3994600E-009  0.1351112E+03  0.7561462E-02  0.1220063E+00
         -2   -1    0    0    0  501 -0.00000000000E+00  0.00000000000E+00  0.31599450050E+02  0.31599450050E+02  0.00000000000E+00 0.  1.
          2   -1    0    0  501    0  0.00000000000E+00 -0.00000000000E+00 -0.69860268040E+03  0.69860268040E+03  0.00000000000E+00 0. -1.
         25    2    1    2    0    0  0.25900659123E+02 -0.98132612246E+02 -0.37410695085E+03  0.40731350917E+03  0.12508968922E+03 0.  0.
          5    1    3    3  502    0 -0.40321519184E+02 -0.83694653022E+02 -0.22574013251E+03  0.24414483341E+03  0.41800000000E+01 0. -1.
         -5    1    3    3    0  502  0.66222178307E+02 -0.14437959224E+02 -0.14836681834E+03  0.16316867577E+03  0.41800000000E+01 0. -1.
        -11    1    1    2    0    0  0.61812411346E+01  0.56120252825E+02 -0.53693341164E+02  0.77914474935E+02  0.00000000000E+00 0.  1.
         11    1    1    2    0    0 -0.32081900257E+02  0.42012359421E+02 -0.23920293834E+03  0.24497414634E+03  0.00000000000E+00 0. -1.
</event>
<event>
 7    1  0.2749315E-009  0.1913871E+03  0.7561462E-02  0.1157216E+00
         -2   -1    0    0    0  501 -0.00000000000E+00  0.00000000000E+00  0.10770318194E+03  0.10770318194E+03  0.00000000000E+00 0. -1.
          2   -1    0    0  501    0  0.00000000000E+00 -0.00000000000E+00 -0.35974870849E+03  0.35974870849E+03  0.00000000000E+00 0.  1.
         25    2    1    2    0    0 -0.15951303002E+03 -0.49433999591E+01 -0.86930289109E+02  0.22061824223E+03  0.12508672868E+03 0.  0.
          5    1    3    3  502    0 -0.17424095002E+03  0.14112935560E+02 -0.88771906218E+02  0.19610458268E+03  0.41800000000E+01 0.  1.
         -5    1    3    3    0  502  0.14727920003E+02 -0.19056335519E+02  0.18416171082E+01  0.24513659551E+02  0.41800000000E+01 0.  1.
        -11    1    1    2    0    0  0.56927146131E+02 -0.41908847814E+02 -0.62454361414E+02  0.94327083870E+02  0.00000000000E+00 0.  1.
         11    1    1    2    0    0  0.10258588389E+03  0.46852247773E+02 -0.10266087603E+03  0.15250656432E+03  0.00000000000E+00 0. -1.
</event>
<event>
 7    1  0.2749315E-009  0.1023799E+03  0.7561462E-02  0.1275369E+00
          2   -1    0    0  501    0  0.00000000000E+00  0.00000000000E+00  0.17937714483E+04  0.17937714483E+04  0.00000000000E+00 0. -1.
         -2   -1    0    0    0  501 -0.00000000000E+00 -0.00000000000E+00 -0.10796908374E+02  0.10796908374E+02  0.00000000000E+00 0.  1.
         25    2    1    2    0    0 -0.46693982238E+02 -0.13167039524E+02  0.14492389659E+04  0.14554362782E+04  0.12508989060E+03 0.  0.
          5    1    3    3  502    0 -0.51344946642E+02 -0.64052585458E+02  0.81844054689E+03  0.82255786328E+03  0.41800000000E+01 0. -1.
         -5    1    3    3    0  502  0.46509644040E+01  0.50885545934E+02  0.63079841903E+03  0.63287841495E+03  0.41800000000E+01 0. -1.
        -11    1    1    2    0    0 -0.24234912772E+01 -0.14647946951E+02  0.51219166884E+01  0.15705721582E+02  0.00000000000E+00 0.  1.
         11    1    1    2    0    0  0.49117473516E+02  0.27814986475E+02  0.32861365731E+03  0.33342635686E+03  0.00000000000E+00 0. -1.
</event>
<event>
 7    1  0.2749315E-009  0.1084710E+03  0.7561462E-02  0.1263428E+00
         -2   -1    0    0    0  501 -0.00000000000E+00  0.00000000000E+00  0.18572559968E+02  0.18572559968E+02  0.00000000000E+00 0.  1.
          2   -1    0    0  501    0  0.00000000000E+00 -0.00000000000E+00 -0.71931756546E+03  0.71931756546E+03  0.00000000000E+00 0. -1.
         25    2    1    2    0    0  0.23707062056E+02 -0.20458615415E+02 -0.51110834088E+03  0.52712576378E+03  0.12509698231E+03 0.  0.
          5    1    3    3  502    0 -0.91674861226E+01 -0.67044842187E+02 -0.34078274927E+03  0.34746137665E+03  0.41800000000E+01 0.  1.
         -5    1    3    3    0  502  0.32874548178E+02  0.46586226771E+02 -0.17032559161E+03  0.17966438713E+03  0.41800000000E+01 0.  1.
        -11    1    1    2    0    0  0.32851221439E+02  0.41585209858E+01 -0.68969593856E+02  0.76506868472E+02  0.00000000000E+00 0.  1.
         11    1    1    2    0    0 -0.56558283494E+02  0.16300094430E+02 -0.12066707075E+03  0.13425749317E+03  0.00000000000E+00 0. -1.
</event>
<event>
 7    1  0.2749315E-009  0.6180293E+02  0.7561462E-02  0.1390418E+00
          2   -1    0    0  501    0  0.00000000000E+00  0.00000000000E+00  0.58631371433E+02  0.58631371433E+02  0.00000000000E+00 0. -1.
         -2   -1    0    0    0  501 -0.00000000000E+00 -0.00000000000E+00 -0.22763377576E+03  0.22763377576E+03  0.00000000000E+00 0.  1.
         25    2    1    2    0    0 -0.90194539439E+01  0.24428924313E+02 -0.13440315782E+03  0.18544311340E+03  0.12508723589E+03 0.  0.
          5    1    3    3  502    0  0.67149893396E+00 -0.15412759292E+02 -0.14253864353E+03  0.14343200953E+03  0.41800000000E+01 0.  1.
         -5    1    3    3    0  502 -0.96909528779E+01  0.39841683605E+02  0.81354857096E+01  0.42011103864E+02  0.41800000000E+01 0.  1.
        -11    1    1    2    0    0 -0.22349734005E+02  0.55360849571E+01  0.20407500180E+02  0.30767270115E+02  0.00000000000E+00 0. -1.
         11    1    1    2    0    0  0.31369187949E+02 -0.29965009270E+02 -0.55006746688E+02  0.70054763680E+02  0.00000000000E+00 0.  1.
</event>
<event>
 7    1  0.2749315E-009  0.1164724E+03  0.7561462E-02  0.1249033E+00
          1   -1    0    0  501    0  0.00000000000E+00  0.00000000000E+00  0.15435997797E+04  0.15435997797E+04  0.00000000000E+00 0. -1.
         -1   -1    0    0    0  501 -0.00000000000E+00 -0.00000000000E+00 -0.95450497644E+01  0.95450497644E+01  0.00000000000E+00 0.  1.
         25    2    1    2    0    0 -0.29671696084E+02  0.34447937338E+02  0.10521794821E+04  0.10605642886E+04  0.12509147762E+03 0.  0.
          5    1    3    3  502    0 -0.52879553931E+02 -0.31868865151E+02  0.43364030243E+03  0.43803339608E+03  0.41800000000E+01 0. -1.
         -5    1    3    3    0  502  0.23207857847E+02  0.66316802490E+02  0.61853917969E+03  0.62253089254E+03  0.41800000000E+01 0. -1.
        -11    1    1    2    0    0  0.38292058724E+02  0.21605038660E+02  0.25244028505E+03  0.25624042806E+03  0.00000000000E+00 0. -1.
         11    1    1    2    0    0 -0.86203626402E+01 -0.56052975998E+02  0.22943496279E+03  0.23634011281E+03  0.00000000000E+00 0.  1.
</event>
<event>
 7    1  0.2749315E-009  0.1095387E+03  0.7561462E-02  0.1261427E+00
         -1   -1    0    0    0  501 -0.00000000000E+00  0.00000000000E+00  0.20794456158E+02  0.20794456158E+02  0.00000000000E+00 0. -1.
          1   -1    0    0  501    0  0.00000000000E+00 -0.00000000000E+00 -0.97155229622E+03  0.97155229622E+03  0.00000000000E+00 0.  1.
         25    2    1    2    0    0 -0.79684953403E+02 -0.38530700942E+02 -0.46224683088E+03  0.48698445690E+03  0.12508965540E+03 0.  0.
          5    1    3    3  502    0 -0.29020962262E+02 -0.39232079483E+02 -0.44560869598E+02  0.66215676471E+02  0.41800000000E+01 0.  1.
         -5    1    3    3    0  502 -0.50663991141E+02  0.70137854058E+00 -0.41768596128E+03  0.42076878043E+03  0.41800000000E+01 0.  1.
        -11    1    1    2    0    0  0.93481460124E+02  0.45313173343E+02 -0.46978469117E+03  0.48113378921E+03  0.00000000000E+00 0.  1.
         11    1    1    2    0    0 -0.13796506720E+02 -0.67824724007E+01 -0.18726318008E+02  0.24228506262E+02  0.00000000000E+00 0. -1.
</event>
<event>
 7    1  0.2749315E-009  0.3486788E+03  0.7561462E-02  0.1063159E+00
          1   -1    0    0  501    0  0.00000000000E+00  0.00000000000E+00  0.14334830162E+04  0.14334830162E+04  0.00000000000E+00 0. -1.
         -1   -1    0    0    0  501 -0.00000000000E+00 -0.00000000000E+00 -0.19824918144E+03  0.19824918144E+03  0.00000000000E+00 0.  1.
         25    2    1    2    0    0 -0.29762063502E+03  0.15893375816E+03  0.12304242941E+04  0.12819632079E+04  0.12509093086E+03 0.  0.
          5    1    3    3  502    0 -0.17467391593E+03  0.15984293300E+03  0.81465805994E+03  0.84837843393E+03  0.41800000000E+01 0.  1.
         -5    1    3    3    0  502 -0.12294671909E+03 -0.90917484162E+00  0.41576623418E+03  0.43358477397E+03  0.41800000000E+01 0.  1.
        -11    1    1    2    0    0  0.20533078510E+03 -0.11451859876E+03  0.45663613996E+02  0.23950032655E+03  0.00000000000E+00 0.  1.
         11    1    1    2    0    0  0.92289849917E+02 -0.44415159403E+02 -0.40854073328E+02  0.11026866323E+03  0.00000000000E+00 0. -1.
</event>
<event>
 7    1  0.2749315E-009  0.1246003E+03  0.7561462E-02  0.1235695E+00
         -2   -1    0    0    0  501 -0.00000000000E+00  0.00000000000E+00  0.19490410037E+02  0.19490410037E+02  0.00000000000E+00 0.  1.
          2   -1    0    0  501    0  0.00000000000E+00 -0.00000000000E+00 -0.79685219400E+03  0.79685219400E+03  0.00000000000E+00 0. -1.
         25    2    1    2    0    0 -0.33952058778E+02  0.51042916987E+02 -0.43605918119E+03  0.45776977463E+03  0.12508970938E+03 0.  0.
          5    1    3    3  502    0  0.12606326731E+02  0.82080880405E+02 -0.25470262607E+03  0.26793113020E+03  0.41800000000E+01 0.  1.
         -5    1    3    3    0  502 -0.46558385508E+02 -0.31037963418E+02 -0.18135655512E+03  0.18983864443E+03  0.41800000000E+01 0.  1.
        -11    1    1    2    0    0  0.32889843151E+02  0.20260455538E+02 -0.12030685194E+03  0.12635650543E+03  0.00000000000E+00 0.  1.
         11    1    1    2    0    0  0.10622156268E+01 -0.71303372525E+02 -0.22099575084E+03  0.23221632398E+03  0.00000000000E+00 0. -1.
</event>
<event>
 7    1  0.2749315E-009  0.6550659E+02  0.7561462E-02  0.1376076E+00
         -1   -1    0    0    0  501 -0.00000000000E+00  0.00000000000E+00  0.36989398470E+03  0.36989398470E+03  0.00000000000E+00 0.  1.
          1   -1    0    0  501    0  0.00000000000E+00 -0.00000000000E+00 -0.38512390135E+02  0.38512390135E+02  0.00000000000E+00 0. -1.
         25    2    1    2    0    0  0.15405059436E+02 -0.39257422477E+02  0.14561182778E+03  0.19654533493E+03  0.12509517664E+03 0.  0.
          5    1    3    3  502    0  0.44988743061E+01 -0.33408083444E+02 -0.13752760121E+02  0.36646292041E+02  0.41800000000E+01 0.  1.
         -5    1    3    3    0  502  0.10906185130E+02 -0.58493390326E+01  0.15936458790E+03  0.15989904289E+03  0.41800000000E+01 0.  1.
        -11    1    1    2    0    0 -0.44771180692E+02  0.21509421904E+02  0.16368547958E+03  0.17105569291E+03  0.00000000000E+00 0.  1.
         11    1    1    2    0    0  0.29366121256E+02  0.17748000573E+02  0.22084287210E+02  0.40805346997E+02  0.00000000000E+00 0. -1.
</event>
<event>
 7    1  0.2749315E-009  0.1246404E+03  0.7561462E-02  0.1235632E+00
         -2   -1    0    0    0  501 -0.00000000000E+00  0.00000000000E+00  0.12044252536E+03  0.12044252536E+03  0.00000000000E+00 0.  1.
          2   -1    0    0  501    0  0.00000000000E+00 -0.00000000000E+00 -0.16644845510E+03  0.16644845510E+03  0.00000000000E+00 0. -1.
         25    2    1    2    0    0  0.66235387254E+02  0.52187649400E+02 -0.60579289578E+02  0.16256657327E+03  0.12508942060E+03 0.  0.
          5    1    3    3  502    0  0.57458128738E+02 -0.14898344637E+02  0.14670415083E+02  0.61286953829E+02  0.41800000000E+01 0. -1.
         -5    1    3    3    0  502  0.87772585163E+01  0.67085994037E+02 -0.75249704660E+02  0.10127961944E+03  0.41800000000E+01 0. -1.
        -11    1    1    2    0    0  0.21956539032E+02 -0.82219589446E+01 -0.47052038267E+01  0.23912949592E+02  0.00000000000E+00 0. -1.
         11    1    1    2    0    0 -0.88191926286E+02 -0.43965690456E+02  0.19278563666E+02  0.10041145760E+03  0.00000000000E+00 0.  1.
</event>
<event>
 7    1  0.2749315E-009  0.1201426E+03  0.7561462E-02  0.1242862E+00
         -2   -1    0    0    0  501 -0.00000000000E+00  0.00000000000E+00  0.39016861408E+02  0.39016861408E+02  0.00000000000E+00 0.  1.
          2   -1    0    0  501    0  0.00000000000E+00 -0.00000000000E+00 -0.50119119024E+03  0.50119119024E+03  0.00000000000E+00 0. -1.
         25    2    1    2    0    0  0.13874544472E+02  0.84297017763E+02 -0.29626977607E+03  0.33275017356E+03  0.12509359539E+03 0.  0.
          5    1    3    3  502    0 -0.27320544487E+02  0.68263599524E+01 -0.54921015608E+01  0.28993911789E+02  0.41800000000E+01 0.  1.
         -5    1    3    3    0  502  0.41195088959E+02  0.77470657811E+02 -0.29077767451E+03  0.30375626177E+03  0.41800000000E+01 0.  1.
        -11    1    1    2    0    0  0.28941025560E+02  0.53927138587E+00 -0.47644025371E+02  0.55747887204E+02  0.00000000000E+00 0. -1.
         11    1    1    2    0    0 -0.42815570032E+02 -0.84836289149E+02 -0.11826052739E+03  0.15170999088E+03  0.00000000000E+00 0.  1.
</event>
<event>
 7    1  0.2749315E-009  0.2286589E+03  0.7561462E-02  0.1127587E+00
         -1   -1    0    0    0  501 -0.00000000000E+00  0.00000000000E+00  0.29197257791E+03  0.29197257791E+03  0.00000000000E+00 0.  1.
          1   -1    0    0  501    0  0.00000000000E+00 -0.00000000000E+00 -0.31580242200E+03  0.31580242200E+03  0.00000000000E+00 0. -1.
         25    2    1    2    0    0 -0.18990908920E+03 -0.86040717371E+02 -0.20441522884E+03  0.31764908548E+03  0.12508752345E+03 0.  0.
          5    1    3    3  502    0 -0.29165043315E+02  0.27686963209E+02 -0.64251517232E+02  0.75913750730E+02  0.41800000000E+01 0. -1.
         -5    1    3    3    0  502 -0.16074404588E+03 -0.11372768058E+03 -0.14016371161E+03  0.24173533475E+03  0.41800000000E+01 0. -1.
        -11    1    1    2    0    0  0.19412973022E+03  0.74997658232E+02  0.18403297799E+03  0.27781133505E+03  0.00000000000E+00 0.  1.
         11    1    1    2    0    0 -0.42206410298E+01  0.11043059139E+02 -0.34475932383E+01  0.12314579367E+02  0.00000000000E+00 0. -1.
</event>
<event>
 7    1  0.2749315E-009  0.1105755E+03  0.7561462E-02  0.1259508E+00
          1   -1    0    0  501    0  0.00000000000E+00  0.00000000000E+00  0.43153406125E+03  0.43153406125E+03  0.00000000000E+00 0. -1.
         -1   -1    0    0    0  501 -0.00000000000E+00 -0.00000000000E+00 -0.45709526585E+02  0.45709526585E+02  0.00000000000E+00 0.  1.
         25    2    1    2    0    0  0.17463718888E+02  0.49110481065E+02  0.33083084096E+03  0.35750835984E+03  0.12508541559E+03 0.  0.
          5    1    3    3  502    0  0.51248734596E+02 -0.48913229859E+01  0.59601720136E+02  0.78868214646E+02  0.41800000000E+01 0. -1.
         -5    1    3    3    0  502 -0.33785015707E+02  0.54001804051E+02  0.27122912083E+03  0.27864014519E+03  0.41800000000E+01 0. -1.
        -11    1    1    2    0    0  0.61350471607E+01 -0.72310663046E+02  0.31289578462E+02  0.79028529748E+02  0.00000000000E+00 0. -1.
         11    1    1    2    0    0 -0.23598766049E+02  0.23200181982E+02  0.23704115237E+02  0.40706698247E+02  0.00000000000E+00 0.  1.
</event>
<event>
 7    1  0.2749315E-009  0.1940109E+03  0.7561462E-02  0.1154893E+00
          4   -1    0    0  501    0  0.00000000000E+00  0.00000000000E+00  0.13209615759E+03  0.13209615759E+03  0.00000000000E+00 0. -1.
         -4   -1    0    0    0  501 -0.00000000000E+00 -0.00000000000E+00 -0.32984344807E+03  0.32984344807E+03  0.00000000000E+00 0.  1.
         25    2    1    2    0    0  0.16482565567E+03  0.50881225487E+02 -0.53705423122E+02  0.21974637876E+03  0.12509117726E+03 0.  0.
          5    1    3    3  502    0  0.24840536792E+02  0.67412384935E+02 -0.21304155847E+02  0.75052124334E+02  0.41800000000E+01 0.  1.
         -5    1    3    3    0  502  0.13998511888E+03 -0.16531159448E+02 -0.32401267276E+02  0.14469425442E+03  0.41800000000E+01 0.  1.
        -11    1    1    2    0    0 -0.10582836362E+03 -0.17545292216E+02 -0.13709186557E+03  0.17407371838E+03  0.00000000000E+00 0.  1.
         11    1    1    2    0    0 -0.58997292057E+02 -0.33335933271E+02 -0.69500017832E+01  0.68119508527E+02  0.00000000000E+00 0. -1.
</event>
<event>
 7    1  0.2749315E-009  0.2518803E+03  0.7561462E-02  0.1112122E+00
         -1   -1    0    0    0  501 -0.00000000000E+00  0.00000000000E+00  0.22625403430E+03  0.22625403430E+03  0.00000000000E+00 0.  1.
          1   -1    0    0  501    0  0.00000000000E+00 -0.00000000000E+00 -0.29831870983E+03  0.29831870983E+03  0.00000000000E+00 0. -1.
         25    2    1    2    0    0  0.66709132678E+02 -0.22202601057E+03 -0.87688955652E+02  0.27763640930E+03  0.12508782943E+03 0.  0.
          5    1    3    3  502    0  0.96598087915E+01 -0.19850188451E+03 -0.49168436511E+02  0.20477137888E+03  0.41800000000E+01 0. -1.
         -5    1    3    3    0  502  0.57049323886E+02 -0.23524126065E+02 -0.38520519142E+02  0.72865030419E+02  0.41800000000E+01 0. -1.
        -11    1    1    2    0    0 -0.80695230704E+02  0.15596590794E+03 -0.69388058137E+01  0.17574194640E+03  0.00000000000E+00 0. -1.
         11    1    1    2    0    0  0.13986098026E+02  0.66060102635E+02  0.22563085932E+02  0.71194388437E+02  0.00000000000E+00 0.  1.
</event>
<event>
 7    1  0.2749315E-009  0.1200769E+03  0.7561462E-02  0.1242970E+00
         -1   -1    0    0    0  501 -0.00000000000E+00  0.00000000000E+00  0.22669040023E+02  0.22669040023E+02  0.00000000000E+00 0.  1.
          1   -1    0    0  501    0  0.00000000000E+00 -0.00000000000E+00 -0.69352772709E+03  0.69352772709E+03  0.00000000000E+00 0. -1.
         25    2    1    2    0    0 -0.36666723923E+02 -0.41656794140E+02 -0.46043144092E+03  0.48033758022E+03  0.12508933623E+03 0.  0.
          5    1    3    3  502    0  0.36488676971E+02  0.16820952662E+02 -0.18596632466E+03  0.19030321674E+03  0.41800000000E+01 0. -1.
         -5    1    3    3    0  502 -0.73155400894E+02 -0.58477746802E+02 -0.27446511627E+03  0.29003436348E+03  0.41800000000E+01 0. -1.
        -11    1    1    2    0    0  0.57426039058E+02 -0.22201221380E+01 -0.12566335097E+03  0.13818088392E+03  0.00000000000E+00 0. -1.
         11    1    1    2    0    0 -0.20759315135E+02  0.43876916278E+02 -0.84763895182E+02  0.97678302981E+02  0.00000000000E+00 0.  1.
</event>
<event>
 7    1  0.2749315E-009  0.1715823E+03  0.7561462E-02  0.1176208E+00
         -1   -1    0    0    0  501 -0.00000000000E+00  0.00000000000E+00  0.47972389219E+03  0.47972389219E+03  0.00000000000E+00 0.  1.
          1   -1    0    0  501    0  0.00000000000E+00 -0.00000000000E+00 -0.82261667438E+02  0.82261667438E+02  0.00000000000E+00 0. -1.
         25    2    1    2    0    0  0.13365309399E+03 -0.87645849470E+02  0.14344151179E+03  0.24853130858E+03  0.12508956621E+03 0.  0.
          5    1    3    3  502    0 -0.32770358993E+01 -0.12300581271E+02  0.77831403818E+02  0.78976218472E+02  0.41800000000E+01 0. -1.
         -5    1    3    3    0  502  0.13693012989E+03 -0.75345268199E+02  0.65610107977E+02  0.16955509010E+03  0.41800000000E+01 0. -1.
        -11    1    1    2    0    0 -0.11246420707E+03  0.98600143842E+02  0.17151095085E+03  0.22756579818E+03  0.00000000000E+00 0. -1.
         11    1    1    2    0    0 -0.21188886917E+02 -0.10954294372E+02  0.82509762107E+02  0.85888452873E+02  0.00000000000E+00 0.  1.
</event>
<event>
 7    1  0.2749315E-009  0.8158131E+02  0.7561462E-02  0.1324623E+00
          2   -1    0    0  501    0  0.00000000000E+00  0.00000000000E+00  0.34844889367E+02  0.34844889367E+02  0.00000000000E+00 0. -1.
         -2   -1    0    0    0  501 -0.00000000000E+00 -0.00000000000E+00 -0.39858999420E+03  0.39858999420E+03  0.00000000000E+00 0.  1.
         25    2    1    2    0    0  0.18399100728E+02  0.35004994514E+02 -0.16573844459E+03  0.21137942190E+03  0.12509257148E+03 0.  0.
          5    1    3    3  502    0  0.27974443519E+02  0.41596399983E+02 -0.18320534334E+03  0.18998552632E+03  0.41800000000E+01 0.  1.
         -5    1    3    3    0  502 -0.95753427911E+01 -0.65914054694E+01  0.17466898759E+02  0.21393895575E+02  0.41800000000E+01 0.  1.
        -11    1    1    2    0    0 -0.31145510115E+02 -0.62705633334E+02 -0.13736909878E+03  0.15418271159E+03  0.00000000000E+00 0. -1.
         11    1    1    2    0    0  0.12746409387E+02  0.27700638821E+02 -0.60637561460E+02  0.67872750078E+02  0.00000000000E+00 0.  1.
</event>
<event>
 7    1  0.2749315E-009  0.1134962E+03  0.7561462E-02  0.1254229E+00
         -1   -1    0    0    0  501 -0.00000000000E+00  0.00000000000E+00  0.32735670217E+03  0.32735670217E+03  0.00000000000E+00 0.  1.
          1   -1    0    0  501    0  0.00000000000E+00 -0.00000000000E+00 -0.56638409572E+02  0.56638409572E+02  0.00000000000E+00 0. -1.
         25    2    1    2    0    0  0.36568604508E+02 -0.59450153821E+02  0.95226337007E+02  0.17200753954E+03  0.12508778827E+03 0.  0.
          5    1    3    3  502    0  0.67742340467E+02 -0.16440889368E+01  0.79121869184E+02  0.10425675184E+03  0.41800000000E+01 0. -1.
         -5    1    3    3    0  502 -0.31173735958E+02 -0.57806064884E+02  0.16104467822E+02  0.67750787706E+02  0.41800000000E+01 0. -1.
        -11    1    1    2    0    0 -0.16413184613E+02 -0.11169170023E+02 -0.19500012622E+01  0.19948571204E+02  0.00000000000E+00 0. -1.
         11    1    1    2    0    0 -0.20155419895E+02  0.70619323844E+02  0.17744195686E+03  0.19203900100E+03  0.00000000000E+00 0.  1.
</event>
<event>
 7    1  0.2749315E-009  0.7315065E+02  0.7561462E-02  0.1349695E+00
          2   -1    0    0  501    0  0.00000000000E+00  0.00000000000E+00  0.10868076107E+04  0.10868076107E+04  0.00000000000E+00 0. -1.
         -2   -1    0    0    0  501 -0.00000000000E+00 -0.00000000000E+00 -0.13185460942E+02  0.13185460942E+02  0.00000000000E+00 0.  1.
         25    2    1    2    0    0  0.10556630593E+02 -0.52823996496E+01  0.82891125061E+03  0.83837976899E+03  0.12508968569E+03 0.  0.
          5    1    3    3  502    0 -0.20069903817E+02 -0.98232252703E+01  0.24725940888E+02  0.33587815450E+02  0.41800000000E+01 0.  1.
         -5    1    3    3    0  502  0.30626534410E+02  0.45408256208E+01  0.80418530972E+03  0.80479195354E+03  0.41800000000E+01 0.  1.
        -11    1    1    2    0    0  0.23738340249E+02 -0.33178497383E+02  0.11636416577E+03  0.12330831506E+03  0.00000000000E+00 0.  1.
         11    1    1    2    0    0 -0.34294970842E+02  0.38460897033E+02  0.12834673339E+03  0.13830498761E+03  0.00000000000E+00 0. -1.
</event>
<event>
 7    1  0.2749315E-009  0.7875739E+02  0.7561462E-02  0.1332615E+00
          2   -1    0    0  501    0  0.00000000000E+00  0.00000000000E+00  0.51031024782E+03  0.51031024782E+03  0.00000000000E+00 0. -1.
         -2   -1    0    0    0  501 -0.00000000000E+00 -0.00000000000E+00 -0.26297575065E+02  0.26297575065E+02  0.00000000000E+00 0.  1.
         25    2    1    2    0    0 -0.60283273906E+01 -0.35226999029E+02  0.32744269055E+03  0.35234473976E+03  0.12510322878E+03 0.  0.
          5    1    3    3  502    0 -0.25312208203E+02 -0.30901782040E+02  0.32959238366E+03  0.33203048020E+03  0.41800000000E+01 0.  1.
         -5    1    3    3    0  502  0.19283880812E+02 -0.43252169888E+01 -0.21496931054E+01  0.20314259564E+02  0.41800000000E+01 0.  1.
        -11    1    1    2    0    0  0.22380165737E+02  0.61924137138E+02  0.10665891300E+03  0.12534589862E+03  0.00000000000E+00 0.  1.
         11    1    1    2    0    0 -0.16351838346E+02 -0.26697138109E+02  0.49911069203E+02  0.58917184501E+02  0.00000000000E+00 0. -1.
</event>
<event>
 7    1  0.2749315E-009  0.9726185E+02  0.7561462E-02  0.1286162E+00
          2   -1    0    0  501    0  0.00000000000E+00  0.00000000000E+00  0.32225979176E+03  0.32225979176E+03  0.00000000000E+00 0. -1.
         -2   -1    0    0    0  501 -0.00000000000E+00 -0.00000000000E+00 -0.40599889452E+02  0.40599889452E+02  0.00000000000E+00 0.  1.
         25    2    1    2    0    0  0.18636145727E+02 -0.29866709225E+02  0.14234990828E+03  0.19274435304E+03  0.12509021941E+03 0.  0.
          5    1    3    3  502    0 -0.42680432164E+02  0.12439602173E+02  0.18876823412E+02  0.48478550453E+02  0.41800000000E+01 0. -1.
         -5    1    3    3    0  502  0.61316577891E+02 -0.42306311398E+02  0.12347308487E+03  0.14426580259E+03  0.41800000000E+01 0. -1.
        -11    1    1    2    0    0 -0.67559859822E+01  0.50768869758E+02  0.13664216640E+03  0.14592533406E+03  0.00000000000E+00 0. -1.
         11    1    1    2    0    0 -0.11880159744E+02 -0.20902160533E+02  0.26678276195E+01  0.24189994103E+02  0.00000000000E+00 0.  1.
</event>
<event>
 7    1  0.2749315E-009  0.2132162E+03  0.7561462E-02  0.1139044E+00
          1   -1    0    0  501    0  0.00000000000E+00  0.00000000000E+00  0.16468696795E+04  0.16468696795E+04  0.00000000000E+00 0. -1.
         -1   -1    0    0    0  501 -0.00000000000E+00 -0.00000000000E+00 -0.40619654401E+02  0.40619654401E+02  0.00000000000E+00 0.  1.
         25    2    1    2    0    0  0.13561807336E+03 -0.15532472293E+03  0.11864244509E+04  0.12106892712E+04  0.12508997704E+03 0.  0.
          5    1    3    3  502    0  0.82441864601E+02 -0.11698910738E+03  0.10448942058E+04  0.10546584688E+04  0.41800000000E+01 0. -1.
         -5    1    3    3    0  502  0.53176208755E+02 -0.38335615546E+02  0.14153024518E+03  0.15603080240E+03  0.41800000000E+01 0. -1.
        -11    1    1    2    0    0 -0.90150988903E+02  0.14531703647E+03  0.26725462864E+03  0.31728422340E+03  0.00000000000E+00 0.  1.
         11    1    1    2    0    0 -0.45467084453E+02  0.10007686465E+02  0.15257094554E+03  0.15951583928E+03  0.00000000000E+00 0. -1.
</event>
<event>
 7    1  0.2749315E-009  0.7867640E+02  0.7561462E-02  0.1332850E+00
         -1   -1    0    0    0  501 -0.00000000000E+00  0.00000000000E+00  0.24540370043E+03  0.24540370043E+03  0.00000000000E+00 0.  1.
          1   -1    0    0  501    0  0.00000000000E+00 -0.00000000000E+00 -0.80358475373E+02  0.80358475373E+02  0.00000000000E+00 0. -1.
         25    2    1    2    0    0 -0.26361100058E+02 -0.35702726643E+02  0.13082205846E+01  0.13273854471E+03  0.12509283563E+03 0.  0.
          5    1    3    3  502    0 -0.10510267037E+01  0.24821070614E+02  0.46556119615E+02  0.52935195071E+02  0.41800000000E+01 0.  1.
         -5    1    3    3    0  502 -0.25310073354E+02 -0.60523797257E+02 -0.45247899031E+02  0.79803349643E+02  0.41800000000E+01 0.  1.
        -11    1    1    2    0    0 -0.66541665925E+01  0.32590421478E+02  0.15527716326E+03  0.15879990849E+03  0.00000000000E+00 0.  1.
         11    1    1    2    0    0  0.33015266650E+02  0.31123051649E+01  0.84598412121E+01  0.34223722602E+02  0.00000000000E+00 0. -1.
</event>
<event>
 7    1  0.2749315E-009  0.1326648E+03  0.7561462E-02  0.1223554E+00
         -1   -1    0    0    0  501 -0.00000000000E+00  0.00000000000E+00  0.30995521868E+02  0.30995521868E+02  0.00000000000E+00 0. -1.
          1   -1    0    0  501    0  0.00000000000E+00 -0.00000000000E+00 -0.68306657264E+03  0.68306657264E+03  0.00000000000E+00 0.  1.
         25    2    1    2    0    0 -0.37133068232E+02  0.97169847200E+02 -0.45357257516E+03  0.48186879758E+03  0.12509441708E+03 0.  0.
          5    1    3    3  502    0 -0.78788172730E+02  0.37357609351E+02 -0.20542089092E+03  0.22320031802E+03  0.41800000000E+01 0. -1.
         -5    1    3    3    0  502  0.41655104498E+02  0.59812237850E+02 -0.24815168424E+03  0.25866847956E+03  0.41800000000E+01 0. -1.
        -11    1    1    2    0    0  0.79222230015E+01 -0.40530270696E+02 -0.13900844564E+03  0.14501314567E+03  0.00000000000E+00 0.  1.
         11    1    1    2    0    0  0.29210845230E+02 -0.56639576504E+02 -0.59490029974E+02  0.87180151250E+02  0.00000000000E+00 0. -1.
</event>
<event>
 7    1  0.2749315E-009  0.1249658E+03  0.7561462E-02  0.1235123E+00
          2   -1    0    0  501    0  0.00000000000E+00  0.00000000000E+00  0.37774056359E+03  0.37774056359E+03  0.00000000000E+00 0. -1.
         -2   -1    0    0    0  501 -0.00000000000E+00 -0.00000000000E+00 -0.55666558699E+02  0.55666558699E+02  0.00000000000E+00 0.  1.
         25    2    1    2    0    0  0.18999974843E+02  0.69788174852E+02  0.26875622088E+03  0.30513657948E+03  0.12508811886E+03 0.  0.
          5    1    3    3  502    0 -0.23794893416E+02 -0.27030845436E+02  0.46841698287E+02  0.59232429092E+02  0.41800000000E+01 0.  1.
         -5    1    3    3    0  502  0.42794868259E+02  0.96819020288E+02  0.22191452259E+03  0.24590415039E+03  0.41800000000E+01 0.  1.
        -11    1    1    2    0    0 -0.28223825707E+02  0.80562284499E+01  0.38632953327E+02  0.48517957883E+02  0.00000000000E+00 0. -1.
         11    1    1    2    0    0  0.92238508639E+01 -0.77844403302E+02  0.14684830680E+02  0.79752584925E+02  0.00000000000E+00 0.  1.
</event>
<event>
 7    1  0.2749315E-009  0.1149779E+03  0.7561462E-02  0.1251620E+00
          2   -1    0    0  501    0  0.00000000000E+00  0.00000000000E+00  0.32695545618E+02  0.32695545618E+02  0.00000000000E+00 0. -1.
         -2   -1    0    0    0  501 -0.00000000000E+00 -0.00000000000E+00 -0.45439693782E+03  0.45439693782E+03  0.00000000000E+00 0.  1.
         25    2    1    2    0    0  0.36100165876E+02  0.26204025638E+02 -0.30284718830E+03  0.33068750115E+03  0.12509169045E+03 0.  0.
          5    1    3    3  502    0 -0.43048393687E+02 -0.11789380385E+02 -0.96792956478E+02  0.10667006381E+03  0.41800000000E+01 0.  1.
         -5    1    3    3    0  502  0.79148559563E+02  0.37993406023E+02 -0.20605423182E+03  0.22401743734E+03  0.41800000000E+01 0.  1.
        -11    1    1    2    0    0  0.15042460866E+02 -0.41262454900E+02 -0.76922591087E+02  0.88577372013E+02  0.00000000000E+00 0.  1.
         11    1    1    2    0    0 -0.51142626743E+02  0.15058429263E+02 -0.41931612811E+02  0.67827610270E+02  0.00000000000E+00 0. -1.
</event>
<event>
 7    1  0.2749315E-009  0.2905435E+03  0.7561462E-02  0.1090066E+00
         -2   -1    0    0    0  501 -0.00000000000E+00  0.00000000000E+00  0.16246564932E+03  0.16246564932E+03  0.00000000000E+00 0. -1.
          2   -1    0    0  501    0  0.00000000000E+00 -0.00000000000E+00 -0.13477959856E+04  0.13477959856E+04  0.00000000000E+00 0.  1.
         25    2    1    2    0    0  0.30170936011E+02 -0.28431557873E+03 -0.11674536743E+04  0.12084459283E+04  0.12509135174E+03 0.  0.
          5    1    3    3  502    0  0.33958893764E+02 -0.18601163694E+03 -0.51553891025E+03  0.54913693731E+03  0.41800000000E+01 0. -1.
         -5    1    3    3    0  502 -0.37879577532E+01 -0.98303941793E+02 -0.65191476409E+03  0.65930899101E+03  0.41800000000E+01 0. -1.
        -11    1    1    2    0    0 -0.34475558366E+02  0.60509728170E+02  0.24820562623E+02  0.73932750908E+02  0.00000000000E+00 0. -1.
         11    1    1    2    0    0  0.43046223545E+01  0.22380585056E+03 -0.42697224597E+02  0.22788295572E+03  0.00000000000E+00 0.  1.
</event>
<event>
 7    1  0.2749315E-009  0.1843271E+03  0.7561462E-02  0.1163680E+00
          1   -1    0    0  501    0  0.00000000000E+00  0.00000000000E+00  0.11593279950E+03  0.11593279950E+03  0.00000000000E+00 0. -1.
         -1   -1    0    0    0  501 -0.00000000000E+00 -0.00000000000E+00 -0.41408030186E+03  0.41408030186E+03  0.00000000000E+00 0.  1.
         25    2    1    2    0    0 -0.14830015440E+03 -0.97999568184E+01 -0.29695420902E+03  0.35484983556E+03  0.12509048163E+03 0.  0.
          5    1    3    3  502    0 -0.10382643889E+03 -0.65432972723E+02 -0.19368616408E+03  0.22933208648E+03  0.41800000000E+01 0.  1.
         -5    1    3    3    0  502 -0.44473715517E+02  0.55633015905E+02 -0.10326804494E+03  0.12551774909E+03  0.41800000000E+01 0.  1.
        -11    1    1    2    0    0  0.32294189112E+02  0.43066138613E+02 -0.73281020198E+01  0.54325942465E+02  0.00000000000E+00 0.  1.
         11    1    1    2    0    0  0.11600596529E+03 -0.33266181795E+02  0.61348086782E+01  0.12083732334E+03  0.00000000000E+00 0. -1.
</event>
<event>
 7    1  0.2749315E-009  0.1116093E+03  0.7561462E-02  0.1257618E+00
          2   -1    0    0  501    0  0.00000000000E+00  0.00000000000E+00  0.34965063365E+03  0.34965063365E+03  0.00000000000E+00 0. -1.
         -2   -1    0    0    0  501 -0.00000000000E+00 -0.00000000000E+00 -0.60324671943E+02  0.60324671943E+02  0.00000000000E+00 0.  1.
         25    2    1    2    0    0  0.96360712251E+02  0.67434239960E+01  0.14710440014E+03  0.21591325540E+03  0.12509184100E+03 0.  0.
          5    1    3    3  502    0  0.99605444453E+02 -0.43247125319E+01  0.39035607165E+02  0.10715035572E+03  0.41800000000E+01 0. -1.
         -5    1    3    3    0  502 -0.32447322022E+01  0.11068136528E+02  0.10806879297E+03  0.10876289969E+03  0.41800000000E+01 0. -1.
        -11    1    1    2    0    0 -0.46450354414E+02  0.24263837198E+02  0.12052654943E+03  0.13142685547E+03  0.00000000000E+00 0. -1.
         11    1    1    2    0    0 -0.49910357837E+02 -0.31007261194E+02  0.21695012136E+02  0.62635194721E+02  0.00000000000E+00 0.  1.
</event>
<event>
 7    1  0.2749315E-009  0.1154541E+03  0.7561462E-02  0.1250791E+00
          1   -1    0    0  501    0  0.00000000000E+00  0.00000000000E+00  0.17859470276E+03  0.17859470276E+03  0.00000000000E+00 0. -1.
         -1   -1    0    0    0  501 -0.00000000000E+00 -0.00000000000E+00 -0.15824293069E+03  0.15824293069E+03  0.00000000000E+00 0.  1.
         25    2    1    2    0    0 -0.41096999460E+02 -0.19315359734E+02 -0.10746777440E+03  0.17105183058E+03  0.12508940692E+03 0.  0.
          5    1    3    3  502    0  0.18812697894E+02  0.40908084397E+02 -0.21319380045E+02  0.49993772978E+02  0.41800000000E+01 0.  1.
         -5    1    3    3    0  502 -0.59909697354E+02 -0.60223444132E+02 -0.86148394355E+02  0.12105805760E+03  0.41800000000E+01 0.  1.
        -11    1    1    2    0    0 -0.42481498916E+01  0.47209435776E+02  0.85566813380E+02  0.97818490869E+02  0.00000000000E+00 0. -1.
         11    1    1    2    0    0  0.45345149352E+02 -0.27894076042E+02  0.42252733090E+02  0.67967312007E+02  0.00000000000E+00 0.  1.
</event>
<event>
 7    1  0.2749315E-009  0.1108569E+03  0.7561462E-02  0.1258991E+00
         -1   -1    0    0    0  501 -0.00000000000E+00  0.00000000000E+00  0.95382940926E+02  0.95382940926E+02  0.00000000000E+00 0.  1.
          1   -1    0    0  501    0  0.00000000000E+00 -0.00000000000E+00 -0.17213843204E+03  0.17213843204E+03  0.00000000000E+00 0. -1.
         25    2    1    2    0    0 -0.35820611859E+02 -0.55387446020E+02 -0.25018974170E+02  0.14361170220E+03  0.12508991378E+03 0.  0.
          5    1    3    3  502    0 -0.86596057172E+01 -0.76249703157E+02 -0.57688643002E+02  0.96096086987E+02  0.41800000000E+01 0. -1.
         -5    1    3    3    0  502 -0.27161006142E+02  0.20862257138E+02  0.32669668832E+02  0.47515615213E+02  0.41800000000E+01 0. -1.
        -11    1    1    2    0    0  0.44399832448E+02 -0.90825444244E+01 -0.93362226529E+01  0.46270971333E+02  0.00000000000E+00 0.  1.
         11    1    1    2    0    0 -0.85792205892E+01  0.64469990444E+02 -0.42400294293E+02  0.77638699435E+02  0.00000000000E+00 0. -1.
</event>
<event>
 7    1  0.2749315E-009  0.2221969E+03  0.7561462E-02  0.1132256E+00
         -2   -1    0    0    0  501 -0.00000000000E+00  0.00000000000E+00  0.77444372953E+03  0.77444372953E+03  0.00000000000E+00 0.  1.
          2   -1    0    0  501    0  0.00000000000E+00 -0.00000000000E+00 -0.71649448656E+02  0.71649448656E+02  0.00000000000E+00 0. -1.
         25    2    1    2    0    0  0.17509550843E+03 -0.84502052267E+02  0.22734536152E+03  0.32423539980E+03  0.12507456645E+03 0.  0.
          5    1    3    3  502    0  0.13268174738E+02 -0.66759508433E+02  0.62147318062E+02  0.92263958127E+02  0.41800000000E+01 0. -1.
         -5    1    3    3    0  502  0.16182733369E+03 -0.17742543835E+02  0.16519804346E+03  0.23197144168E+03  0.41800000000E+01 0. -1.
        -11    1    1    2    0    0 -0.13821530288E+02  0.45324695986E+02  0.13578915489E+03  0.14381953049E+03  0.00000000000E+00 0.  1.
         11    1    1    2    0    0 -0.16127397814E+03  0.39177356281E+02  0.33965976446E+03  0.37803824789E+03  0.00000000000E+00 0. -1.
</event>
<event>
 7    1  0.2749315E-009  0.1173036E+03  0.7561462E-02  0.1247613E+00
         -2   -1    0    0    0  501 -0.00000000000E+00  0.00000000000E+00  0.41180502548E+02  0.41180502548E+02  0.00000000000E+00 0.  1.
          2   -1    0    0  501    0  0.00000000000E+00 -0.00000000000E+00 -0.38173548774E+03  0.38173548774E+03  0.00000000000E+00 0. -1.
         25    2    1    2    0    0 -0.32076911922E+01  0.60990540341E+02 -0.16815918043E+03  0.21830026914E+03  0.12508941702E+03 0.  0.
          5    1    3    3  502    0  0.52957872065E+02  0.61719361264E+02 -0.83659401518E+02  0.11674837742E+03  0.41800000000E+01 0. -1.
         -5    1    3    3    0  502 -0.56165563257E+02 -0.72882092292E+00 -0.84499778912E+02  0.10155189172E+03  0.41800000000E+01 0. -1.
        -11    1    1    2    0    0  0.37803441892E+02 -0.44897755452E+02 -0.52334109749E+02  0.78636936021E+02  0.00000000000E+00 0.  1.
         11    1    1    2    0    0 -0.34595750700E+02 -0.16092784889E+02 -0.12006169501E+03  0.12597878512E+03  0.00000000000E+00 0. -1.
</event>
<event>
 7    1  0.2749315E-009  0.1565533E+03  0.7561462E-02  0.1192644E+00
         -2   -1    0    0    0  501 -0.00000000000E+00  0.00000000000E+00  0.23554050886E+02  0.23554050886E+02  0.00000000000E+00 0. -1.
          2   -1    0    0  501    0  0.00000000000E+00 -0.00000000000E+00 -0.14944169770E+04  0.14944169770E+04  0.00000000000E+00 0.  1.
         25    2    1    2    0    0 -0.37416885231E+02  0.11369531696E+03 -0.11617543076E+04  0.11745838389E+04  0.12508986776E+03 0.  0.
          5    1    3    3  502    0 -0.76009650780E+02  0.93834032519E+02 -0.99146012563E+03  0.99879574778E+03  0.41800000000E+01 0.  1.
         -5    1    3    3    0  502  0.38592765548E+02  0.19861284441E+02 -0.17029418199E+03  0.17578809115E+03  0.41800000000E+01 0.  1.
        -11    1    1    2    0    0  0.47030035317E+02 -0.14789201142E+02 -0.85569238950E+02  0.98755452238E+02  0.00000000000E+00 0. -1.
         11    1    1    2    0    0 -0.96131500859E+01 -0.98906115818E+02 -0.22353937957E+03  0.24463173674E+03  0.00000000000E+00 0.  1.
</event>
<event>
 7    1  0.2749315E-009  0.8738990E+02  0.7561462E-02  0.1309298E+00
          1   -1    0    0  501    0  0.00000000000E+00  0.00000000000E+00  0.93881199024E+03  0.93881199024E+03  0.00000000000E+00 0. -1.
         -1   -1    0    0    0  501 -0.00000000000E+00 -0.00000000000E+00 -0.17059549971E+02  0.17059549971E+02  0.00000000000E+00 0.  1.
         25    2    1    2    0    0  0.48590533058E+02  0.33224334967E+02  0.60695728556E+03  0.62250210243E+03  0.12508726830E+03 0.  0.
          5    1    3    3  502    0 -0.50923164794E+01  0.87544756192E+01 -0.16041864070E+01  0.11073316781E+02  0.41800000000E+01 0. -1.
         -5    1    3    3    0  502  0.53682849538E+02  0.24469859348E+02  0.60856147197E+03  0.61142878565E+03  0.41800000000E+01 0. -1.
        -11    1    1    2    0    0 -0.44954582370E+02  0.21501578226E+02  0.10062667960E+03  0.11228962993E+03  0.00000000000E+00 0.  1.
         11    1    1    2    0    0 -0.36359506886E+01 -0.54725913193E+02  0.21416847511E+03  0.22107980786E+03  0.00000000000E+00 0. -1.
</event>
<event>
 7    1  0.2749315E-009  0.2450799E+03  0.7561462E-02  0.1116454E+00
         -2   -1    0    0    0  501 -0.00000000000E+00  0.00000000000E+00  0.30473881224E+02  0.30473881224E+02  0.00000000000E+00 0.  1.
          2   -1    0    0  501    0  0.00000000000E+00 -0.00000000000E+00 -0.20587464995E+04  0.20587464995E+04  0.00000000000E+00 0. -1.
         25    2    1    2    0    0 -0.19504955044E+03 -0.10563823032E+03 -0.12143555637E+04  0.12407698971E+04  0.12508692808E+03 0.  0.
          5    1    3    3  502    0 -0.17477649897E+03 -0.31449033345E+02 -0.84465732033E+03  0.86313343550E+03  0.41800000000E+01 0. -1.
         -5    1    3    3    0  502 -0.20273051470E+02 -0.74189196971E+02 -0.36969824336E+03  0.37763646157E+03  0.41800000000E+01 0. -1.
        -11    1    1    2    0    0  0.69656579538E+02 -0.28200334165E+01 -0.17502779720E+03  0.18840042849E+03  0.00000000000E+00 0.  1.
         11    1    1    2    0    0  0.12539297091E+03  0.10845826373E+03 -0.63888925741E+03  0.66005005519E+03  0.00000000000E+00 0. -1.
</event>
<event>
 7    1  0.2749315E-009  0.1298385E+03  0.7561462E-02  0.1227696E+00
          1   -1    0    0  501    0  0.00000000000E+00  0.00000000000E+00  0.18574812957E+03  0.18574812957E+03  0.00000000000E+00 0. -1.
         -1   -1    0    0    0  501 -0.00000000000E+00 -0.00000000000E+00 -0.13313035809E+03  0.13313035809E+03  0.00000000000E+00 0.  1.
         25    2    1    2    0    0  0.35225983471E+02  0.10313081259E+03 -0.71249545868E+00  0.16590652316E+03  0.12509049669E+03 0.  0.
          5    1    3    3  502    0  0.15814899044E+01 -0.65777519788E+01  0.42484585762E+02  0.43222452022E+02  0.41800000000E+01 0.  1.
         -5    1    3    3    0  502  0.33644493567E+02  0.10970856456E+03 -0.43197081220E+02  0.12268407114E+03  0.41800000000E+01 0.  1.
        -11    1    1    2    0    0  0.25520855560E+02 -0.14218973387E+02 -0.62932795579E+01  0.29884755985E+02  0.00000000000E+00 0. -1.
         11    1    1    2    0    0 -0.60746839031E+02 -0.88911839199E+02  0.59623546496E+02  0.12308720851E+03  0.00000000000E+00 0.  1.
</event>
<event>
 7    1  0.2749315E-009  0.9882402E+02  0.7561462E-02  0.1282788E+00
          1   -1    0    0  501    0  0.00000000000E+00  0.00000000000E+00  0.34891728032E+03  0.34891728032E+03  0.00000000000E+00 0. -1.
         -1   -1    0    0    0  501 -0.00000000000E+00 -0.00000000000E+00 -0.38095093757E+02  0.38095093757E+02  0.00000000000E+00 0.  1.
         25    2    1    2    0    0  0.35999862754E+02  0.19074640122E+02  0.17197570225E+03  0.21652635298E+03  0.12509271504E+03 0.  0.
          5    1    3    3  502    0  0.26891261484E+02 -0.36860999848E+02  0.14785691866E+03  0.15479345609E+03  0.41800000000E+01 0. -1.
         -5    1    3    3    0  502  0.91086012701E+01  0.55935639971E+02  0.24118783589E+02  0.61732896885E+02  0.41800000000E+01 0. -1.
        -11    1    1    2    0    0 -0.28286085395E+02  0.32367646163E+02  0.87015878487E+02  0.97054264481E+02  0.00000000000E+00 0. -1.
         11    1    1    2    0    0 -0.77137773592E+01 -0.51442286285E+02  0.51830605831E+02  0.73431756619E+02  0.00000000000E+00 0.  1.
</event>
<event>
 7    1  0.2749315E-009  0.9786054E+02  0.7561462E-02  0.1284860E+00
         -1   -1    0    0    0  501 -0.00000000000E+00  0.00000000000E+00  0.11954096337E+03  0.11954096337E+03  0.00000000000E+00 0.  1.
          1   -1    0    0  501    0  0.00000000000E+00 -0.00000000000E+00 -0.11580949741E+03  0.11580949741E+03  0.00000000000E+00 0. -1.
         25    2    1    2    0    0  0.85307065433E+01  0.32508674088E+02  0.12018819550E+02  0.13008752648E+03  0.12509486671E+03 0.  0.
          5    1    3    3  502    0 -0.28894114053E+02 -0.15121310714E+02  0.48989184721E+02  0.58999461728E+02  0.41800000000E+01 0.  1.
         -5    1    3    3    0  502  0.37424820597E+02  0.47629984802E+02 -0.36970365171E+02  0.71088064749E+02  0.41800000000E+01 0.  1.
        -11    1    1    2    0    0 -0.27981641134E+01 -0.67051096264E+02  0.61452662849E+01  0.67390233196E+02  0.00000000000E+00 0.  1.
         11    1    1    2    0    0 -0.57325424298E+01  0.34542422176E+02 -0.14432619881E+02  0.37872701106E+02  0.00000000000E+00 0. -1.
</event>
<event>
 7    1  0.2749315E-009  0.1020101E+03  0.7561462E-02  0.1276125E+00
         -1   -1    0    0    0  501 -0.00000000000E+00  0.00000000000E+00  0.38034482107E+02  0.38034482107E+02  0.00000000000E+00 0.  1.
          1   -1    0    0  501    0  0.00000000000E+00 -0.00000000000E+00 -0.39258105274E+03  0.39258105274E+03  0.00000000000E+00 0. -1.
         25    2    1    2    0    0  0.39688147060E+01  0.51322583129E+02 -0.20529000482E+03  0.24585024833E+03  0.12509436235E+03 0.  0.
          5    1    3    3  502    0  0.58169579619E+01  0.77370396229E+02 -0.59993777036E+02  0.98166903260E+02  0.41800000000E+01 0.  1.
         -5    1    3    3    0  502 -0.18481432559E+01 -0.26047813101E+02 -0.14529622779E+03  0.14768334507E+03  0.41800000000E+01 0.  1.
        -11    1    1    2    0    0 -0.40110726114E+02 -0.49464269244E+02 -0.12755171518E+03  0.14256585961E+03  0.00000000000E+00 0. -1.
         11    1    1    2    0    0  0.36141911408E+02 -0.18583138841E+01 -0.21704850631E+02  0.42199426911E+02  0.00000000000E+00 0.  1.
</event>
<event>
 7    1  0.2749315E-009  0.1550628E+03  0.7561462E-02  0.1194386E+00
         -1   -1    0    0    0  501 -0.00000000000E+00  0.00000000000E+00  0.12693494460E+03  0.12693494460E+03  0.00000000000E+00 0.  1.
          1   -1    0    0  501    0  0.00000000000E+00 -0.00000000000E+00 -0.26081295272E+03  0.26081295272E+03  0.00000000000E+00 0. -1.
         25    2    1    2    0    0  0.87461100820E+02 -0.93873734197E+02 -0.14120827794E+03  0.22814038961E+03  0.12508612027E+03 0.  0.
          5    1    3    3  502    0  0.11050348721E+02 -0.75379204400E+02 -0.12697501992E+03  0.14813596035E+03  0.41800000000E+01 0.  1.
         -5    1    3    3    0  502  0.76410752099E+02 -0.18494529797E+02 -0.14233258020E+02  0.80004429269E+02  0.41800000000E+01 0.  1.
        -11    1    1    2    0    0 -0.12436250221E+02 -0.17099517722E+02 -0.11927458187E+02  0.24275874540E+02  0.00000000000E+00 0. -1.
         11    1    1    2    0    0 -0.75024850599E+02  0.11097325192E+03  0.19257728011E+02  0.13533163317E+03  0.00000000000E+00 0.  1.
</event>
<event>
 7    1  0.2749315E-009  0.1497254E+03  0.7561462E-02  0.1200811E+00
         -1   -1    0    0    0  501 -0.00000000000E+00  0.00000000000E+00  0.44786876610E+03  0.44786876610E+03  0.00000000000E+00 0.  1.
          1   -1    0    0  501    0  0.00000000000E+00 -0.00000000000E+00 -0.75824741178E+02  0.75824741178E+02  0.00000000000E+00 0. -1.
         25    2    1    2    0    0  0.24397641009E+02  0.11318285743E+03  0.63952608768E+02  0.18205011145E+03  0.12508678110E+03 0.  0.
          5    1    3    3  502    0  0.38092182299E+02 -0.14734562776E+02  0.86550588324E+01  0.41958361930E+02  0.41800000000E+01 0.  1.
         -5    1    3    3    0  502 -0.13694541289E+02  0.12791742021E+03  0.55297549936E+02  0.14009174952E+03  0.41800000000E+01 0.  1.
        -11    1    1    2    0    0 -0.33108720621E+01 -0.10788597960E+03  0.29934134825E+03  0.31820683406E+03  0.00000000000E+00 0.  1.
         11    1    1    2    0    0 -0.21086768947E+02 -0.52968778374E+01  0.87500679015E+01  0.23436561773E+02  0.00000000000E+00 0. -1.
</event>
<event>
 7    1  0.2749315E-009  0.8359547E+02  0.7561462E-02  0.1319147E+00
         -2   -1    0    0    0  501 -0.00000000000E+00  0.00000000000E+00  0.20583125753E+02  0.20583125753E+02  0.00000000000E+00 0.  1.
          2   -1    0    0  501    0  0.00000000000E+00 -0.00000000000E+00 -0.12936984524E+04  0.12936984524E+04  0.00000000000E+00 0. -1.
         25    2    1    2    0    0  0.66134154344E+01  0.50965061407E+02 -0.11255180409E+04  0.11336133084E+04  0.12508835963E+03 0.  0.
          5    1    3    3  502    0  0.45009306106E+02  0.60179927416E+02 -0.97648601621E+03  0.97938239394E+03  0.41800000000E+01 0.  1.
         -5    1    3    3    0  502 -0.38395890672E+02 -0.92148660094E+01 -0.14903202473E+03  0.15423091445E+03  0.41800000000E+01 0.  1.
        -11    1    1    2    0    0  0.10642595230E+01 -0.27675065499E+02 -0.15305902658E+03  0.15554455155E+03  0.00000000000E+00 0. -1.
         11    1    1    2    0    0 -0.76776749575E+01 -0.23289995907E+02  0.54617409014E+01  0.25123718192E+02  0.00000000000E+00 0.  1.
</event>
<event>
 7    1  0.2749315E-009  0.1504030E+03  0.7561462E-02  0.1199979E+00
          1   -1    0    0  501    0  0.00000000000E+00  0.00000000000E+00  0.23668581744E+03  0.23668581744E+03  0.00000000000E+00 0. -1.
         -1   -1    0    0    0  501 -0.00000000000E+00 -0.00000000000E+00 -0.12042873271E+03  0.12042873271E+03  0.00000000000E+00 0.  1.
         25    2    1    2    0    0 -0.13252142919E+03  0.14252927173E+02  0.59441138007E+02  0.19221590740E+03  0.12509448846E+03 0.  0.
          5    1    3    3  502    0 -0.26867084938E+02  0.28495650960E+02 -0.32740131589E+02  0.51217487181E+02  0.41800000000E+01 0. -1.
         -5    1    3    3    0  502 -0.10565434425E+03 -0.14242723786E+02  0.92181269596E+02  0.14099842022E+03  0.41800000000E+01 0. -1.
        -11    1    1    2    0    0  0.26634896562E+02  0.29865759743E+02  0.12473026943E+02  0.41916079504E+02  0.00000000000E+00 0.  1.
         11    1    1    2    0    0  0.10588653263E+03 -0.44118686916E+02  0.44342919779E+02  0.12298256325E+03  0.00000000000E+00 0. -1.
</event>
<event>
 7    1  0.2749315E-009  0.1151601E+03  0.7561462E-02  0.1251302E+00
          1   -1    0    0  501    0  0.00000000000E+00  0.00000000000E+00  0.28175353479E+03  0.28175353479E+03  0.00000000000E+00 0. -1.
         -1   -1    0    0    0  501 -0.00000000000E+00 -0.00000000000E+00 -0.73110437756E+02  0.73110437756E+02  0.00000000000E+00 0.  1.
         25    2    1    2    0    0  0.35192227269E+02 -0.52924451847E+02  0.28527356000E+02  0.14318218619E+03  0.12509131840E+03 0.  0.
          5    1    3    3  502    0 -0.16517016031E+02  0.26073102276E+02 -0.19927645712E+02  0.36975693968E+02  0.41800000000E+01 0. -1.
         -5    1    3    3    0  502  0.51709243300E+02 -0.78997554123E+02  0.48455001711E+02  0.10620649223E+03  0.41800000000E+01 0. -1.
        -11    1    1    2    0    0 -0.32441859845E+02  0.75367980715E+02  0.10512898553E+03  0.13336007793E+03  0.00000000000E+00 0.  1.
         11    1    1    2    0    0 -0.27503674246E+01 -0.22443528868E+02  0.74986755502E+02  0.78321708419E+02  0.00000000000E+00 0. -1.
</event>
<event>
 7    1  0.2749315E-009  0.9830465E+02  0.7561462E-02  0.1283902E+00
         -1   -1    0    0    0  501 -0.00000000000E+00  0.00000000000E+00  0.37069465526E+03  0.37069465526E+03  0.00000000000E+00 0.  1.
          1   -1    0    0  501    0  0.00000000000E+00 -0.00000000000E+00 -0.32249900887E+02  0.32249900887E+02  0.00000000000E+00 0. -1.
         25    2    1    2    0    0 -0.10273291117E+02  0.19844209340E+02  0.22606272655E+03  0.25932761223E+03  0.12508845260E+03 0.  0.
          5    1    3    3  502    0 -0.43880578021E+02  0.46797812909E+02  0.60780169914E+02  0.88471700986E+02  0.41800000000E+01 0.  1.
         -5    1    3    3    0  502  0.33607286905E+02 -0.26953603569E+02  0.16528255664E+03  0.17085591125E+03  0.41800000000E+01 0.  1.
        -11    1    1    2    0    0 -0.37147110021E+02  0.11796950956E+01  0.53539519275E+02  0.65174992041E+02  0.00000000000E+00 0.  1.
         11    1    1    2    0    0  0.47420401138E+02 -0.21023904436E+02  0.58842508546E+02  0.78441951874E+02  0.00000000000E+00 0. -1.
</event>
<event>
 7    1  0.2749315E-009  0.1241052E+03  0.7561462E-02  0.1236474E+00
          1   -1    0    0  501    0  0.00000000000E+00  0.00000000000E+00  0.10509048515E+03  0.10509048515E+03  0.00000000000E+00 0. -1.
         -1   -1    0    0    0  501 -0.00000000000E+00 -0.00000000000E+00 -0.18138593290E+03  0.18138593290E+03  0.00000000000E+00 0.  1.
         25    2    1    2    0    0 -0.50463664009E+02  0.67520128450E+02 -0.41639302879E+02  0.15648495781E+03  0.12509261108E+03 0.  0.
          5    1    3    3  502    0 -0.57915162752E+02  0.10051311939E+03 -0.38324860302E+02  0.12224287531E+03  0.41800000000E+01 0. -1.
         -5    1    3    3    0  502  0.74514987430E+01 -0.32992990941E+02 -0.33144425777E+01  0.34242082507E+02  0.41800000000E+01 0. -1.
        -11    1    1    2    0    0  0.44110587592E+02 -0.75747091269E+02 -0.57542877490E+02  0.10485489270E+03  0.00000000000E+00 0.  1.
         11    1    1    2    0    0  0.63530764171E+01  0.82269628198E+01  0.22886732622E+02  0.25136567533E+02  0.00000000000E+00 0. -1.
</event>
<event>
 7    1  0.2749315E-009  0.1554152E+03  0.7561462E-02  0.1193972E+00
          1   -1    0    0  501    0  0.00000000000E+00  0.00000000000E+00  0.78991920710E+03  0.78991920710E+03  0.00000000000E+00 0. -1.
         -1   -1    0    0    0  501 -0.00000000000E+00 -0.00000000000E+00 -0.35609050886E+02  0.35609050886E+02  0.00000000000E+00 0.  1.
         25    2    1    2    0    0  0.51365558557E+02 -0.11539973527E+03  0.34491642915E+03  0.38803413931E+03  0.12509048991E+03 0.  0.
          5    1    3    3  502    0  0.58039032380E+02 -0.13937370273E+03  0.31126606087E+03  0.34597339687E+03  0.41800000000E+01 0.  1.
         -5    1    3    3    0  502 -0.66734738227E+01  0.23973967467E+02  0.33650368277E+02  0.42060742435E+02  0.41800000000E+01 0.  1.
        -11    1    1    2    0    0 -0.11362427593E+02  0.81030655959E+02  0.34340910339E+03  0.35302249823E+03  0.00000000000E+00 0. -1.
         11    1    1    2    0    0 -0.40003130964E+02  0.34369079307E+02  0.65984623674E+02  0.84471620446E+02  0.00000000000E+00 0.  1.
</event>
<event>
 7    1  0.2749315E-009  0.8085852E+02  0.7561462E-02  0.1326633E+00
         -1   -1    0    0    0  501 -0.00000000000E+00  0.00000000000E+00  0.71510108058E+02  0.71510108058E+02  0.00000000000E+00 0.  1.
          1   -1    0    0  501    0  0.00000000000E+00 -0.00000000000E+00 -0.19146950075E+03  0.19146950075E+03  0.00000000000E+00 0. -1.
         25    2    1    2    0    0  0.16955465992E+02  0.35764482441E+02 -0.90355063158E+02  0.15930436416E+03  0.12508899621E+03 0.  0.
          5    1    3    3  502    0 -0.25330965265E+02  0.34776845470E+02 -0.10563501236E+03  0.11413726394E+03  0.41800000000E+01 0. -1.
         -5    1    3    3    0  502  0.42286431258E+02  0.98763697030E+00  0.15279949204E+02  0.45167100228E+02  0.41800000000E+01 0. -1.
        -11    1    1    2    0    0 -0.31303164968E+02 -0.47881820470E+02  0.11620264069E+02  0.58374544157E+02  0.00000000000E+00 0.  1.
         11    1    1    2    0    0  0.14347698976E+02  0.12117338029E+02 -0.41224593604E+02  0.45300700487E+02  0.00000000000E+00 0. -1.
</event>
<event>
 7    1  0.2749315E-009  0.1055834E+03  0.7561462E-02  0.1268974E+00
          2   -1    0    0  501    0  0.00000000000E+00  0.00000000000E+00  0.74648128300E+03  0.74648128300E+03  0.00000000000E+00 0. -1.
         -2   -1    0    0    0  501 -0.00000000000E+00 -0.00000000000E+00 -0.18338430165E+02  0.18338430165E+02  0.00000000000E+00 0.  1.
         25    2    1    2    0    0  0.94734325866E+01  0.13884214268E+02  0.28209069062E+03  0.30903681711E+03  0.12508428864E+03 0.  0.
          5    1    3    3  502    0 -0.21839376536E+02  0.59612754199E+02  0.98880262046E+02  0.11758153534E+03  0.41800000000E+01 0.  1.
         -5    1    3    3    0  502  0.31312809122E+02 -0.45728539931E+02  0.18321042857E+03  0.19145528177E+03  0.41800000000E+01 0.  1.
        -11    1    1    2    0    0  0.23275137143E+02  0.29518670942E+02  0.14110096417E+03  0.14602248469E+03  0.00000000000E+00 0. -1.
         11    1    1    2    0    0 -0.32748569730E+02 -0.43402885209E+02  0.30495119804E+03  0.30976041137E+03  0.00000000000E+00 0.  1.
</event>
<event>
 7    1  0.2749315E-009  0.9123786E+02  0.7561462E-02  0.1299881E+00
          2   -1    0    0  501    0  0.00000000000E+00  0.00000000000E+00  0.90913274279E+03  0.90913274279E+03  0.00000000000E+00 0. -1.
         -2   -1    0    0    0  501 -0.00000000000E+00 -0.00000000000E+00 -0.15575595642E+02  0.15575595642E+02  0.00000000000E+00 0.  1.
         25    2    1    2    0    0 -0.26795600928E+02 -0.20490352287E+02  0.68956433066E+03  0.70163009203E+03  0.12509181089E+03 0.  0.
          5    1    3    3  502    0 -0.42173038366E+02 -0.60548736543E+02  0.56506387341E+03  0.56987662532E+03  0.41800000000E+01 0.  1.
         -5    1    3    3    0  502  0.15377437438E+02  0.40058384256E+02  0.12450045726E+03  0.13175346670E+03  0.41800000000E+01 0.  1.
        -11    1    1    2    0    0  0.44068022179E+02  0.98003704501E+01  0.19619199750E+03  0.20131899494E+03  0.00000000000E+00 0. -1.
         11    1    1    2    0    0 -0.17272421252E+02  0.10689981837E+02  0.78008189857E+01  0.21759251467E+02  0.00000000000E+00 0.  1.
</event>
<event>
 7    1  0.2749315E-009  0.1647097E+03  0.7561462E-02  0.1183480E+00
          1   -1    0    0  501    0  0.00000000000E+00  0.00000000000E+00  0.16710628542E+04  0.16710628542E+04  0.00000000000E+00 0. -1.
         -1   -1    0    0    0  501 -0.00000000000E+00 -0.00000000000E+00 -0.18558897345E+02  0.18558897345E+02  0.00000000000E+00 0.  1.
         25    2    1    2    0    0 -0.15995226096E+02 -0.13759008752E+03  0.86555858422E+03  0.88545282732E+03  0.12509263468E+03 0.  0.
          5    1    3    3  502    0  0.14046164567E+02 -0.14858897320E+03  0.77663052178E+03  0.79085296829E+03  0.41800000000E+01 0. -1.
         -5    1    3    3    0  502 -0.30041390663E+02  0.10998885675E+02  0.88928062442E+02  0.94599859031E+02  0.41800000000E+01 0. -1.
        -11    1    1    2    0    0 -0.14780645915E+02  0.13573036546E+02  0.27467801598E+02  0.34017274132E+02  0.00000000000E+00 0. -1.
         11    1    1    2    0    0  0.30775872010E+02  0.12401705098E+03  0.75947757107E+03  0.77015165012E+03  0.00000000000E+00 0.  1.
</event>
<event>
 7    1  0.2749315E-009  0.3307241E+03  0.7561462E-02  0.1070817E+00
          2   -1    0    0  501    0  0.00000000000E+00  0.00000000000E+00  0.48148219156E+03  0.48148219156E+03  0.00000000000E+00 0. -1.
         -2   -1    0    0    0  501 -0.00000000000E+00 -0.00000000000E+00 -0.26262267871E+03  0.26262267871E+03  0.00000000000E+00 0.  1.
         25    2    1    2    0    0  0.19449577550E+03 -0.25016012726E+03 -0.11650203963E+02  0.34086711311E+03  0.12508383426E+03 0.  0.
          5    1    3    3  502    0  0.87087446349E+02 -0.20537795113E+03  0.53802403475E+01  0.22318321063E+03  0.41800000000E+01 0.  1.
         -5    1    3    3    0  502  0.10740832915E+03 -0.44782176130E+02 -0.17030444310E+02  0.11768390248E+03  0.41800000000E+01 0.  1.
        -11    1    1    2    0    0 -0.63650487337E+02  0.12764711549E+03  0.14919408999E+03  0.20640747835E+03  0.00000000000E+00 0.  1.
         11    1    1    2    0    0 -0.13084528816E+03  0.12251301177E+03  0.81315626831E+02  0.19683027880E+03  0.00000000000E+00 0. -1.
</event>
<event>
 7    1  0.2749315E-009  0.1520232E+03  0.7561462E-02  0.1198009E+00
         -2   -1    0    0    0  501 -0.00000000000E+00  0.00000000000E+00  0.50907917453E+03  0.50907917453E+03  0.00000000000E+00 0.  1.
          2   -1    0    0  501    0  0.00000000000E+00 -0.00000000000E+00 -0.54327528648E+02  0.54327528648E+02  0.00000000000E+00 0. -1.
         25    2    1    2    0    0  0.61432041606E+02  0.10631049539E+03  0.29201220301E+03  0.34058409541E+03  0.12510228683E+03 0.  0.
          5    1    3    3  502    0  0.35986605564E+02 -0.16783749482E+02  0.29969694906E+02  0.49923792319E+02  0.41800000000E+01 0.  1.
         -5    1    3    3    0  502  0.25445436042E+02  0.12309424488E+03  0.26204250811E+03  0.29066030309E+03  0.41800000000E+01 0.  1.
        -11    1    1    2    0    0 -0.86680364236E+01  0.84115821300E+01 -0.48244756743E+01  0.13006349792E+02  0.00000000000E+00 0. -1.
         11    1    1    2    0    0 -0.52764005182E+02 -0.11472207752E+03  0.16756391854E+03  0.20981625798E+03  0.00000000000E+00 0.  1.
</event>
<event>
 7    1  0.2749315E-009  0.1197873E+03  0.7561462E-02  0.1243448E+00
          2   -1    0    0  501    0  0.00000000000E+00  0.00000000000E+00  0.15905194925E+02  0.15905194925E+02  0.00000000000E+00 0. -1.
         -2   -1    0    0    0  501 -0.00000000000E+00 -0.00000000000E+00 -0.15981634147E+04  0.15981634147E+04  0.00000000000E+00 0.  1.
         25    2    1    2    0    0  0.41474279527E+02  0.79957430856E+02 -0.12258540974E+04  0.12355076043E+04  0.12508982939E+03 0.  0.
          5    1    3    3  502    0 -0.22997521479E+02 -0.54726712657E+00 -0.65361413147E+03  0.65403217868E+03  0.41800000000E+01 0. -1.
         -5    1    3    3    0  502  0.64471801006E+02  0.80504697982E+02 -0.57223996595E+03  0.58147542558E+03  0.41800000000E+01 0. -1.
        -11    1    1    2    0    0 -0.35308334512E+02 -0.26393602463E+01 -0.42999336006E+02  0.55700876164E+02  0.00000000000E+00 0. -1.
         11    1    1    2    0    0 -0.61659450153E+01 -0.77318070609E+02 -0.31340478638E+03  0.32286012924E+03  0.00000000000E+00 0.  1.
</event>
<event>
 7    1  0.2749315E-009  0.1709993E+03  0.7561462E-02  0.1176810E+00
         -2   -1    0    0    0  501 -0.00000000000E+00  0.00000000000E+00  0.10680369368E+03  0.10680369368E+03  0.00000000000E+00 0.  1.
          2   -1    0    0  501    0  0.00000000000E+00 -0.00000000000E+00 -0.28891880991E+03  0.28891880991E+03  0.00000000000E+00 0. -1.
         25    2    1    2    0    0 -0.41790003584E+02  0.12671933314E+03 -0.57594769648E+02  0.19175064717E+03  0.12508780679E+03 0.  0.
          5    1    3    3  502    0 -0.26681834477E+02 -0.19557734544E+02 -0.23336114362E+02  0.40699777703E+02  0.41800000000E+01 0.  1.
         -5    1    3    3    0  502 -0.15108169107E+02  0.14627706769E+03 -0.34258655287E+02  0.15105086947E+03  0.41800000000E+01 0.  1.
        -11    1    1    2    0    0  0.70123411556E+02 -0.10290885355E+03 -0.97095140374E+02  0.15790817354E+03  0.00000000000E+00 0. -1.
         11    1    1    2    0    0 -0.28333407971E+02 -0.23810479591E+02 -0.27425206208E+02  0.46063682887E+02  0.00000000000E+00 0.  1.
</event>
<event>
 7    1  0.2749315E-009  0.1232044E+03  0.7561462E-02  0.1237903E+00
          1   -1    0    0  501    0  0.00000000000E+00  0.00000000000E+00  0.81236048488E+03  0.81236048488E+03  0.00000000000E+00 0. -1.
         -1   -1    0    0    0  501 -0.00000000000E+00 -0.00000000000E+00 -0.22460774686E+02  0.22460774686E+02  0.00000000000E+00 0.  1.
         25    2    1    2    0    0 -0.52677011281E+02  0.13222917581E+02  0.26179318985E+03  0.29518119400E+03  0.12508617018E+03 0.  0.
          5    1    3    3  502    0 -0.51458286264E+02 -0.50118001951E+02  0.15608983510E+03  0.17187576433E+03  0.41800000000E+01 0. -1.
         -5    1    3    3    0  502 -0.12187250176E+01  0.63340919532E+02  0.10570335476E+03  0.12330542966E+03  0.41800000000E+01 0. -1.
        -11    1    1    2    0    0  0.67664708692E-01  0.37727797225E+02  0.18249055717E+03  0.18634965715E+03  0.00000000000E+00 0.  1.
         11    1    1    2    0    0  0.52609346573E+02 -0.50950714806E+02  0.34561596316E+03  0.35329040842E+03  0.00000000000E+00 0. -1.
</event>
<event>
 7    1  0.2749315E-009  0.1243379E+03  0.7561462E-02  0.1236108E+00
          2   -1    0    0  501    0  0.00000000000E+00  0.00000000000E+00  0.13442607211E+03  0.13442607211E+03  0.00000000000E+00 0. -1.
         -2   -1    0    0    0  501 -0.00000000000E+00 -0.00000000000E+00 -0.13100236064E+03  0.13100236064E+03  0.00000000000E+00 0.  1.
         25    2    1    2    0    0 -0.74285566343E+02  0.80090823602E+01  0.21406279260E+02  0.14727293153E+03  0.12509435160E+03 0.  0.
          5    1    3    3  502    0 -0.48868805436E+02  0.61043325941E+02  0.36526141172E+02  0.86406476468E+02  0.41800000000E+01 0.  1.
         -5    1    3    3    0  502 -0.25416760907E+02 -0.53034243581E+02 -0.15119861912E+02  0.60866455059E+02  0.41800000000E+01 0.  1.
        -11    1    1    2    0    0  0.70345295986E+02 -0.38821988769E+02  0.34410930094E+01  0.80420448895E+02  0.00000000000E+00 0. -1.
         11    1    1    2    0    0  0.39402703576E+01  0.30812906409E+02 -0.21423660798E+02  0.37735052323E+02  0.00000000000E+00 0.  1.
</event>
<event>
 7    1  0.2749315E-009  0.4870448E+03  0.7561462E-02  0.1017217E+00
         -1   -1    0    0    0  501 -0.00000000000E+00  0.00000000000E+00  0.52413862252E+03  0.52413862252E+03  0.00000000000E+00 0.  1.
          1   -1    0    0  501    0  0.00000000000E+00 -0.00000000000E+00 -0.51994876743E+03  0.51994876743E+03  0.00000000000E+00 0. -1.
         25    2    1    2    0    0 -0.45313010741E+03  0.15826648702E+03  0.17479015323E+03  0.52590295228E+03  0.12508853822E+03 0.  0.
          5    1    3    3  502    0 -0.24846414243E+03  0.50279641267E+02  0.14628238484E+03  0.29270886716E+03  0.41800000000E+01 0.  1.
         -5    1    3    3    0  502 -0.20466596498E+03  0.10798684575E+03  0.28507768393E+02  0.23319408512E+03  0.41800000000E+01 0.  1.
        -11    1    1    2    0    0  0.35265051372E+03 -0.79660120397E+02 -0.11979193086E+03  0.38086510251E+03  0.00000000000E+00 0.  1.
         11    1    1    2    0    0  0.10047959369E+03 -0.78606366621E+02 -0.50808367286E+02  0.13731933516E+03  0.00000000000E+00 0. -1.
</event>
<event>
 7    1  0.2749315E-009  0.1032383E+03  0.7561462E-02  0.1273630E+00
         -1   -1    0    0    0  501 -0.00000000000E+00  0.00000000000E+00  0.29263639507E+03  0.29263639507E+03  0.00000000000E+00 0.  1.
          1   -1    0    0  501    0  0.00000000000E+00 -0.00000000000E+00 -0.56570763281E+02  0.56570763281E+02  0.00000000000E+00 0. -1.
         25    2    1    2    0    0  0.55433235590E+02 -0.18242445584E+02  0.18589603512E+03  0.23154330836E+03  0.12509731151E+03 0.  0.
          5    1    3    3  502    0  0.70818980087E+02 -0.45777281803E+02  0.65060769963E+02  0.10658922862E+03  0.41800000000E+01 0. -1.
         -5    1    3    3    0  502 -0.15385744497E+02  0.27534836220E+02  0.12083526515E+03  0.12495407974E+03  0.41800000000E+01 0. -1.
        -11    1    1    2    0    0  0.13078672551E+02 -0.96539586835E+01 -0.12663914464E+02  0.20606438884E+02  0.00000000000E+00 0. -1.
         11    1    1    2    0    0 -0.68511908141E+02  0.27896404267E+02  0.62833511132E+02  0.97057411099E+02  0.00000000000E+00 0.  1.
</event>
<event>
 7    1  0.2749315E-009  0.6911934E+02  0.7561462E-02  0.1363114E+00
         -2   -1    0    0    0  501 -0.00000000000E+00  0.00000000000E+00  0.62116178994E+02  0.62116178994E+02  0.00000000000E+00 0.  1.
          2   -1    0    0  501    0  0.00000000000E+00 -0.00000000000E+00 -0.17934390210E+03  0.17934390210E+03  0.00000000000E+00 0. -1.
         25    2    1    2    0    0  0.49602096918E+02 -0.19277484039E+02 -0.56469082211E+02  0.14720084351E+03  0.12508933477E+03 0.  0.
          5    1    3    3  502    0  0.25357581579E+02  0.10314789559E+02  0.36944329325E+02  0.46170961614E+02  0.41800000000E+01 0.  1.
         -5    1    3    3    0  502  0.24244515340E+02 -0.29592273598E+02 -0.93413411536E+02  0.10102988189E+03  0.41800000000E+01 0.  1.
        -11    1    1    2    0    0 -0.39650634278E+02 -0.10207739927E+02 -0.34273955019E+02  0.53395456227E+02  0.00000000000E+00 0.  1.
         11    1    1    2    0    0 -0.99514626404E+01  0.29485223966E+02 -0.26484685880E+02  0.40863781362E+02  0.00000000000E+00 0. -1.
</event>
<event>
 7    1  0.2749315E-009  0.9297681E+02  0.7561462E-02  0.1295799E+00
          2   -1    0    0  501    0  0.00000000000E+00  0.00000000000E+00  0.22472407677E+03  0.22472407677E+03  0.00000000000E+00 0. -1.
         -2   -1    0    0    0  501 -0.00000000000E+00 -0.00000000000E+00 -0.63146669984E+02  0.63146669984E+02  0.00000000000E+00 0.  1.
         25    2    1    2    0    0  0.38997721540E+02  0.32945723456E+02  0.98541315508E+02  0.16722250856E+03  0.12508690391E+03 0.  0.
          5    1    3    3  502    0  0.55055865744E+02 -0.11391322506E+01 -0.64456387882E+01  0.55600940950E+02  0.41800000000E+01 0. -1.
         -5    1    3    3    0  502 -0.16058144205E+02  0.34084855707E+02  0.10498695430E+03  0.11162156761E+03  0.41800000000E+01 0. -1.
        -11    1    1    2    0    0 -0.62200291149E+02 -0.31101185717E+02  0.67538198232E+02  0.96941055248E+02  0.00000000000E+00 0.  1.
         11    1    1    2    0    0  0.23202569610E+02 -0.18445377393E+01 -0.45021069575E+01  0.23707182941E+02  0.00000000000E+00 0. -1.
</event>
<event>
 7    1  0.2749315E-009  0.1382630E+03  0.7561462E-02  0.1215685E+00
         -1   -1    0    0    0  501 -0.00000000000E+00  0.00000000000E+00  0.30651643896E+02  0.30651643896E+02  0.00000000000E+00 0.  1.
          1   -1    0    0  501    0  0.00000000000E+00 -0.00000000000E+00 -0.74853242059E+03  0.74853242059E+03  0.00000000000E+00 0. -1.
         25    2    1    2    0    0  0.59798565241E+02 -0.67508297510E+02 -0.52455113454E+03  0.54674984979E+03  0.12509303281E+03 0.  0.
          5    1    3    3  502    0  0.61145693405E+02 -0.99575678415E+02 -0.34421228128E+03  0.36352947409E+03  0.41800000000E+01 0.  1.
         -5    1    3    3    0  502 -0.13471281639E+01  0.32067380905E+02 -0.18033885327E+03  0.18322037570E+03  0.41800000000E+01 0.  1.
        -11    1    1    2    0    0  0.18534799833E+02 -0.63293794903E+01 -0.45744578178E+02  0.49761092053E+02  0.00000000000E+00 0. -1.
         11    1    1    2    0    0 -0.78333365073E+02  0.73837677001E+02 -0.14758506397E+03  0.18267312265E+03  0.00000000000E+00 0.  1.
</event>
<event>
 7    1  0.2749315E-009  0.1380964E+03  0.7561462E-02  0.1215914E+00
          2   -1    0    0  501    0  0.00000000000E+00  0.00000000000E+00  0.36527193334E+03  0.36527193334E+03  0.00000000000E+00 0.  1.
         -2   -1    0    0    0  501 -0.00000000000E+00 -0.00000000000E+00 -0.54491059506E+02  0.54491059506E+02  0.00000000000E+00 0. -1.
         25    2    1    2    0    0  0.83560613611E+02  0.37791665955E+02  0.16516940318E+03  0.22658109941E+03  0.12508987449E+03 0.  0.
          5    1    3    3  502    0 -0.29821828719E+02  0.15609242321E+02  0.15054722768E+02  0.37109392229E+02  0.41800000000E+01 0. -1.
         -5    1    3    3    0  502  0.11338244233E+03  0.22182423634E+02  0.15011468041E+03  0.18947170718E+03  0.41800000000E+01 0. -1.
        -11    1    1    2    0    0 -0.55100166444E+02  0.22872035464E+02  0.62151668874E+02  0.86150962224E+02  0.00000000000E+00 0. -1.
         11    1    1    2    0    0 -0.28460447168E+02 -0.60663701418E+02  0.83459801780E+02  0.10703093121E+03  0.00000000000E+00 0.  1.
</event>
<event>
 7    1  0.2749315E-009  0.1079391E+03  0.7561462E-02  0.1264435E+00
         -2   -1    0    0    0  501 -0.00000000000E+00  0.00000000000E+00  0.13368811743E+03  0.13368811743E+03  0.00000000000E+00 0.  1.
          2   -1    0    0  501    0  0.00000000000E+00 -0.00000000000E+00 -0.11502346546E+03  0.11502346546E+03  0.00000000000E+00 0. -1.
         25    2    1    2    0    0  0.35905669986E+02 -0.23392678899E+02 -0.30011208020E+02  0.13559312974E+03  0.12509352366E+03 0.  0.
          5    1    3    3  502    0 -0.40483030822E+02 -0.18629643118E+02 -0.37748895807E+02  0.58552462988E+02  0.41800000000E+01 0.  1.
         -5    1    3    3    0  502  0.76388700808E+02 -0.47630357812E+01  0.77376877868E+01  0.77040666750E+02  0.41800000000E+01 0.  1.
        -11    1    1    2    0    0 -0.25980478612E+01  0.51085421403E+02  0.47471681440E+02  0.69785605044E+02  0.00000000000E+00 0.  1.
         11    1    1    2    0    0 -0.33307622124E+02 -0.27692742504E+02  0.12041785552E+01  0.43332848106E+02  0.00000000000E+00 0. -1.
</event>
<event>
 7    1  0.2749315E-009  0.1656685E+03  0.7561462E-02  0.1182442E+00
         -2   -1    0    0    0  501 -0.00000000000E+00  0.00000000000E+00  0.70443786317E+02  0.70443786317E+02  0.00000000000E+00 0.  1.
          2   -1    0    0  501    0  0.00000000000E+00 -0.00000000000E+00 -0.57421106015E+03  0.57421106015E+03  0.00000000000E+00 0. -1.
         25    2    1    2    0    0  0.12563194038E+03 -0.54822472703E+02 -0.41875505708E+03  0.45803326308E+03  0.12509909791E+03 0.  0.
          5    1    3    3  502    0 -0.11864561867E+02  0.71598523463E+01 -0.17591856255E+01  0.14580756084E+02  0.41800000000E+01 0.  1.
         -5    1    3    3    0  502  0.13749650225E+03 -0.61982325049E+02 -0.41699587146E+03  0.44345250700E+03  0.41800000000E+01 0.  1.
        -11    1    1    2    0    0 -0.11151518174E+02  0.50185107619E+02 -0.22685399364E+02  0.56191892019E+02  0.00000000000E+00 0.  1.
         11    1    1    2    0    0 -0.11448042221E+03  0.46373650839E+01 -0.62326817382E+02  0.13042969136E+03  0.00000000000E+00 0. -1.
</event>
<event>
 7    1  0.2749315E-009  0.1123718E+03  0.7561462E-02  0.1256240E+00
         -1   -1    0    0    0  501 -0.00000000000E+00  0.00000000000E+00  0.13616828938E+03  0.13616828938E+03  0.00000000000E+00 0.  1.
          1   -1    0    0  501    0  0.00000000000E+00 -0.00000000000E+00 -0.11605058411E+03  0.11605058411E+03  0.00000000000E+00 0. -1.
         25    2    1    2    0    0 -0.43556280059E+02 -0.47412977549E+02  0.12634891926E+02  0.14125953719E+03  0.12509786721E+03 0.  0.
          5    1    3    3  502    0 -0.77880705813E+02 -0.58327348951E+02  0.28799908461E+02  0.10155979077E+03  0.41800000000E+01 0.  1.
         -5    1    3    3    0  502  0.34324425754E+02  0.10914371402E+02 -0.16165016535E+02  0.39699746423E+02  0.41800000000E+01 0.  1.
        -11    1    1    2    0    0 -0.10305094008E+02  0.34082973014E+02 -0.27827089059E+02  0.45190606297E+02  0.00000000000E+00 0. -1.
         11    1    1    2    0    0  0.53861374067E+02  0.13330004534E+02  0.35309902406E+02  0.65768729996E+02  0.00000000000E+00 0.  1.
</event>
<event>
 7    1  0.3059710E-009  0.1406116E+03  0.7561462E-02  0.1212508E+00
          1   -1    0    0  501    0  0.00000000000E+00  0.00000000000E+00  0.14311460518E+03  0.14311460518E+03  0.00000000000E+00 0. -1.
         -1   -1    0    0    0  501 -0.00000000000E+00 -0.00000000000E+00 -0.15178905520E+03  0.15178905520E+03  0.00000000000E+00 0.  1.
         25    2    1    2    0    0  0.89604426136E+02  0.32637408715E+02  0.23495762932E+02  0.15904493222E+03  0.12509630673E+03 0.  0.
          5    1    3    3  502    0 -0.53303839066E+01 -0.34367254616E+02 -0.12711575574E+02  0.37263624837E+02  0.41800000000E+01 0. -1.
         -5    1    3    3    0  502  0.94934810043E+02  0.67004663331E+02  0.36207338506E+02  0.12178130738E+03  0.41800000000E+01 0. -1.
        -11    1    1    2    0    0 -0.17107879118E+02 -0.52116371951E+02 -0.25515270338E+02  0.60496485630E+02  0.00000000000E+00 0. -1.
         11    1    1    2    0    0 -0.72496547018E+02  0.19478963236E+02 -0.66549426131E+01  0.75362242532E+02  0.00000000000E+00 0.  1.
</event>
<event>
 7    1  0.2749315E-009  0.8713519E+02  0.7561462E-02  0.1309941E+00
         -1   -1    0    0    0  501 -0.00000000000E+00  0.00000000000E+00  0.14840519102E+03  0.14840519102E+03  0.00000000000E+00 0.  1.
          1   -1    0    0  501    0  0.00000000000E+00 -0.00000000000E+00 -0.11149679196E+03  0.11149679196E+03  0.00000000000E+00 0. -1.
         25    2    1    2    0    0 -0.62247656162E+02 -0.28097956727E+02  0.27032288985E+02  0.14506043417E+03  0.12509004375E+03 0.  0.
          5    1    3    3  502    0 -0.75585186486E+02 -0.41016139299E+02 -0.25001665911E+02  0.89654892769E+02  0.41800000000E+01 0. -1.
         -5    1    3    3    0  502  0.13337530324E+02  0.12918182571E+02  0.52033954897E+02  0.55405541404E+02  0.41800000000E+01 0. -1.
        -11    1    1    2    0    0  0.27217656551E+02  0.18185525539E+02 -0.40885370879E+02  0.52374876794E+02  0.00000000000E+00 0. -1.
         11    1    1    2    0    0  0.35029999611E+02  0.99124311880E+01  0.50761480945E+02  0.62466672015E+02  0.00000000000E+00 0.  1.
</event>
<event>
 7    1  0.2749315E-009  0.9296828E+02  0.7561462E-02  0.1295819E+00
          2   -1    0    0  501    0  0.00000000000E+00  0.00000000000E+00  0.65198850615E+03  0.65198850615E+03  0.00000000000E+00 0.  1.
         -2   -1    0    0    0  501 -0.00000000000E+00 -0.00000000000E+00 -0.24332975284E+02  0.24332975284E+02  0.00000000000E+00 0. -1.
         25    2    1    2    0    0  0.53307401564E+02  0.31945475396E+02  0.31579972550E+03  0.34531021106E+03  0.12508989877E+03 0.  0.
          5    1    3    3  502    0  0.31822091781E+02 -0.24391177537E+02  0.23153483607E+02  0.46487969089E+02  0.41800000000E+01 0.  1.
         -5    1    3    3    0  502  0.21485309784E+02  0.56336652933E+02  0.29264624190E+03  0.29882224197E+03  0.41800000000E+01 0.  1.
        -11    1    1    2    0    0 -0.60619260034E+02 -0.92247983118E+01  0.29616861522E+03  0.30244940111E+03  0.00000000000E+00 0.  1.
         11    1    1    2    0    0  0.73118584698E+01 -0.22720677084E+02  0.15687190150E+02  0.28561869271E+02  0.00000000000E+00 0. -1.
</event>
<event>
 7    1  0.2749315E-009  0.8309249E+02  0.7561462E-02  0.1320498E+00
          3   -1    0    0  501    0  0.00000000000E+00  0.00000000000E+00  0.62091942152E+02  0.62091942152E+02  0.00000000000E+00 0. -1.
         -3   -1    0    0    0  501 -0.00000000000E+00 -0.00000000000E+00 -0.24282978191E+03  0.24282978191E+03  0.00000000000E+00 0.  1.
         25    2    1    2    0    0 -0.52648233727E+02  0.19475784869E+02 -0.88471338564E+02  0.16317644720E+03  0.12509289533E+03 0.  0.
          5    1    3    3  502    0 -0.53795652320E+02 -0.24125660774E+02 -0.10150765455E+03  0.11746189190E+03  0.41800000000E+01 0.  1.
         -5    1    3    3    0  502  0.11474185934E+01  0.43601445642E+02  0.13036315989E+02  0.45714555298E+02  0.41800000000E+01 0.  1.
        -11    1    1    2    0    0  0.34546254240E+02 -0.26812603737E+02 -0.10809431721E+03  0.11660506341E+03  0.00000000000E+00 0.  1.
         11    1    1    2    0    0  0.18101979486E+02  0.73368188684E+01  0.15827816014E+02  0.25140213448E+02  0.00000000000E+00 0. -1.
</event>
<event>
 7    1  0.2749315E-009  0.9940039E+02  0.7561462E-02  0.1281562E+00
          1   -1    0    0  501    0  0.00000000000E+00  0.00000000000E+00  0.22804810855E+03  0.22804810855E+03  0.00000000000E+00 0. -1.
         -1   -1    0    0    0  501 -0.00000000000E+00 -0.00000000000E+00 -0.89283415696E+02  0.89283415696E+02  0.00000000000E+00 0.  1.
         25    2    1    2    0    0 -0.36675732481E+02  0.79935316635E+02  0.10984580600E+03  0.18827833323E+03  0.12509142844E+03 0.  0.
          5    1    3    3  502    0 -0.23649805375E+02  0.90287738221E+02  0.18380718941E+02  0.95218234578E+02  0.41800000000E+01 0. -1.
         -5    1    3    3    0  502 -0.13025927105E+02 -0.10352421587E+02  0.91465087060E+02  0.93060098649E+02  0.41800000000E+01 0. -1.
        -11    1    1    2    0    0  0.27176523367E+02 -0.51391486276E+02 -0.28111574837E+02  0.64574831969E+02  0.00000000000E+00 0.  1.
         11    1    1    2    0    0  0.94992091139E+01 -0.28543830358E+02  0.57030461691E+02  0.64478359052E+02  0.00000000000E+00 0. -1.
</event>
<event>
 7    1  0.2749315E-009  0.1450191E+03  0.7561462E-02  0.1206731E+00
          2   -1    0    0  501    0  0.00000000000E+00  0.00000000000E+00  0.10503561799E+03  0.10503561799E+03  0.00000000000E+00 0. -1.
         -2   -1    0    0    0  501 -0.00000000000E+00 -0.00000000000E+00 -0.22358060851E+03  0.22358060851E+03  0.00000000000E+00 0.  1.
         25    2    1    2    0    0 -0.10741974814E+03 -0.11105693169E+02 -0.58161603540E+02  0.17518068302E+03  0.12507262237E+03 0.  0.
          5    1    3    3  502    0 -0.53240906968E+02 -0.57616397077E+02  0.64070022069E+01  0.78821097836E+02  0.41800000000E+01 0. -1.
         -5    1    3    3    0  502 -0.54178841171E+02  0.46510703907E+02 -0.64568605747E+02  0.96359585183E+02  0.41800000000E+01 0. -1.
        -11    1    1    2    0    0  0.42980389981E+02  0.49013085024E+02 -0.18605058265E+02  0.67791921491E+02  0.00000000000E+00 0.  1.
         11    1    1    2    0    0  0.64439358158E+02 -0.37907391854E+02 -0.41778328719E+02  0.85643621990E+02  0.00000000000E+00 0. -1.
</event>
<event>
 7    1  0.2749315E-009  0.8486014E+02  0.7561462E-02  0.1315799E+00
          2   -1    0    0  501    0  0.00000000000E+00  0.00000000000E+00  0.30824060215E+03  0.30824060215E+03  0.00000000000E+00 0. -1.
         -2   -1    0    0    0  501 -0.00000000000E+00 -0.00000000000E+00 -0.43678245839E+02  0.43678245839E+02  0.00000000000E+00 0.  1.
         25    2    1    2    0    0  0.20057734306E+02 -0.19527004222E+02  0.19723100826E+03  0.23522660712E+03  0.12509144447E+03 0.  0.
          5    1    3    3  502    0 -0.28176766040E+02  0.22133742227E+02  0.15383264391E+03  0.15800565629E+03  0.41800000000E+01 0. -1.
         -5    1    3    3    0  502  0.48234500345E+02 -0.41660746449E+02  0.43398364356E+02  0.77220950830E+02  0.41800000000E+01 0. -1.
        -11    1    1    2    0    0 -0.13622359130E+02 -0.23017250205E+02 -0.97059828444E+01  0.28452918624E+02  0.00000000000E+00 0.  1.
         11    1    1    2    0    0 -0.64353751755E+01  0.42544254427E+02  0.77037330891E+02  0.88239322239E+02  0.00000000000E+00 0. -1.
</event>
<event>
 7    1  0.2749315E-009  0.1488691E+03  0.7561462E-02  0.1201870E+00
          3   -1    0    0  501    0  0.00000000000E+00  0.00000000000E+00  0.22378490128E+03  0.22378490128E+03  0.00000000000E+00 0. -1.
         -3   -1    0    0    0  501 -0.00000000000E+00 -0.00000000000E+00 -0.19178721439E+03  0.19178721439E+03  0.00000000000E+00 0.  1.
         25    2    1    2    0    0  0.78088761667E+02  0.78319547443E+02  0.15393164839E+03  0.22709901794E+03  0.12508878992E+03 0.  0.
          5    1    3    3  502    0  0.95803456789E+01 -0.30703295952E+02  0.58085017319E+02  0.66526814463E+02  0.41800000000E+01 0.  1.
         -5    1    3    3    0  502  0.68508415988E+02  0.10902284339E+03  0.95846631072E+02  0.16057220348E+03  0.41800000000E+01 0.  1.
        -11    1    1    2    0    0 -0.20381733110E+02 -0.76039511157E+02 -0.98632509254E+02  0.12619744127E+03  0.00000000000E+00 0.  1.
         11    1    1    2    0    0 -0.57707028557E+02 -0.22800362852E+01 -0.23301452248E+02  0.62275656457E+02  0.00000000000E+00 0. -1.
</event>
<event>
 7    1  0.2749315E-009  0.1273283E+03  0.7561462E-02  0.1231475E+00
          2   -1    0    0  501    0  0.00000000000E+00  0.00000000000E+00  0.57452728138E+03  0.57452728138E+03  0.00000000000E+00 0. -1.
         -2   -1    0    0    0  501 -0.00000000000E+00 -0.00000000000E+00 -0.45772296604E+02  0.45772296604E+02  0.00000000000E+00 0.  1.
         25    2    1    2    0    0  0.68232245037E+02 -0.29081004070E+02  0.46253779129E+03  0.48486588717E+03  0.12510945653E+03 0.  0.
          5    1    3    3  502    0 -0.44307770567E+01  0.40468401055E+02  0.18929199053E+03  0.19366531271E+03  0.41800000000E+01 0.  1.
         -5    1    3    3    0  502  0.72663022093E+02 -0.69549405125E+02  0.27324580076E+03  0.29120057446E+03  0.41800000000E+01 0.  1.
        -11    1    1    2    0    0 -0.39944429975E+02 -0.28390625811E+02  0.95885764800E+01  0.49935217221E+02  0.00000000000E+00 0.  1.
         11    1    1    2    0    0 -0.28287815062E+02  0.57471629881E+02  0.56628617004E+02  0.85498473588E+02  0.00000000000E+00 0. -1.
</event>
<event>
 7    1  0.2749315E-009  0.3650294E+03  0.7561462E-02  0.1056610E+00
         -2   -1    0    0    0  501 -0.00000000000E+00  0.00000000000E+00  0.20934543100E+03  0.20934543100E+03  0.00000000000E+00 0.  1.
          2   -1    0    0  501    0  0.00000000000E+00 -0.00000000000E+00 -0.66430504549E+03  0.66430504549E+03  0.00000000000E+00 0. -1.
         25    2    1    2    0    0 -0.12976731325E+03  0.33238979470E+03 -0.21949765063E+03  0.43720599592E+03  0.12508930022E+03 0.  0.
          5    1    3    3  502    0 -0.11215178219E+03  0.17993876964E+03 -0.18129818661E+03  0.27900266654E+03  0.41800000000E+01 0.  1.
         -5    1    3    3    0  502 -0.17615531064E+02  0.15245102506E+03 -0.38199464016E+02  0.15820332938E+03  0.41800000000E+01 0.  1.
        -11    1    1    2    0    0  0.94069761371E+02 -0.13919000846E+03 -0.80880976240E+02  0.18645297203E+03  0.00000000000E+00 0.  1.
         11    1    1    2    0    0  0.35697551884E+02 -0.19319978624E+03 -0.15458098762E+03  0.24999150855E+03  0.00000000000E+00 0. -1.
</event>
<event>
 7    1  0.2749315E-009  0.1151359E+03  0.7561462E-02  0.1251344E+00
          3   -1    0    0  501    0  0.00000000000E+00  0.00000000000E+00  0.34372028167E+02  0.34372028167E+02  0.00000000000E+00 0. -1.
         -3   -1    0    0    0  501 -0.00000000000E+00 -0.00000000000E+00 -0.59915661878E+03  0.59915661878E+03  0.00000000000E+00 0.  1.
         25    2    1    2    0    0 -0.82589507504E+02 -0.22803160920E+02 -0.39989339831E+03  0.42767176096E+03  0.12508954476E+03 0.  0.
          5    1    3    3  502    0 -0.38881249678E+02  0.45976212110E+02 -0.99345485489E+02  0.11624354409E+03  0.41800000000E+01 0.  1.
         -5    1    3    3    0  502 -0.43708257826E+02 -0.68779373030E+02 -0.30054791282E+03  0.31142821686E+03  0.41800000000E+01 0.  1.
        -11    1    1    2    0    0  0.59199561332E+02  0.59752355182E+01 -0.16668533441E+03  0.17698670066E+03  0.00000000000E+00 0.  1.
         11    1    1    2    0    0  0.23389946172E+02  0.16827925402E+02  0.17941421114E+01  0.28870185333E+02  0.00000000000E+00 0. -1.
</event>
<event>
 7    1  0.2749315E-009  0.1408356E+03  0.7561462E-02  0.1212209E+00
         -2   -1    0    0    0  501 -0.00000000000E+00  0.00000000000E+00  0.42012211064E+02  0.42012211064E+02  0.00000000000E+00 0.  1.
          2   -1    0    0  501    0  0.00000000000E+00 -0.00000000000E+00 -0.62087547618E+03  0.62087547618E+03  0.00000000000E+00 0. -1.
         25    2    1    2    0    0  0.40155223933E+02 -0.10647859423E+03 -0.22551774520E+03  0.28187956144E+03  0.12509076992E+03 0.  0.
          5    1    3    3  502    0 -0.11121478382E+02 -0.11437535244E+03 -0.17461306657E+03  0.20907559385E+03  0.41800000000E+01 0. -1.
         -5    1    3    3    0  502  0.51276702315E+02  0.78967582071E+01 -0.50904678631E+02  0.72803967592E+02  0.41800000000E+01 0. -1.
        -11    1    1    2    0    0 -0.11230621765E+02  0.49176703104E+02 -0.50287814642E+02  0.71227377425E+02  0.00000000000E+00 0.  1.
         11    1    1    2    0    0 -0.28924602168E+02  0.57301891130E+02 -0.30305770527E+03  0.30978074837E+03  0.00000000000E+00 0. -1.
</event>
<event>
 7    1  0.2749315E-009  0.1060090E+03  0.7561462E-02  0.1268144E+00
          1   -1    0    0  501    0  0.00000000000E+00  0.00000000000E+00  0.85068484162E+03  0.85068484162E+03  0.00000000000E+00 0. -1.
         -1   -1    0    0    0  501 -0.00000000000E+00 -0.00000000000E+00 -0.16380828906E+02  0.16380828906E+02  0.00000000000E+00 0.  1.
         25    2    1    2    0    0  0.43535352735E+02  0.83022455854E+01  0.42180716377E+03  0.44219572174E+03  0.12510602982E+03 0.  0.
          5    1    3    3  502    0  0.64513821165E+01 -0.44791302480E+02  0.30674925273E+03  0.31009749686E+03  0.41800000000E+01 0.  1.
         -5    1    3    3    0  502  0.37083970619E+02  0.53093548066E+02  0.11505791104E+03  0.13209822488E+03  0.41800000000E+01 0.  1.
        -11    1    1    2    0    0  0.28701683306E+02  0.16825538741E+01  0.10781360091E+03  0.11158131633E+03  0.00000000000E+00 0.  1.
         11    1    1    2    0    0 -0.72237036041E+02 -0.99847994595E+01  0.30468324803E+03  0.31328863246E+03  0.00000000000E+00 0. -1.
</event>
<event>
 7    1  0.2749315E-009  0.7987827E+02  0.7561462E-02  0.1329397E+00
         -2   -1    0    0    0  501 -0.00000000000E+00  0.00000000000E+00  0.25577994275E+03  0.25577994275E+03  0.00000000000E+00 0.  1.
          2   -1    0    0  501    0  0.00000000000E+00 -0.00000000000E+00 -0.55799977590E+02  0.55799977590E+02  0.00000000000E+00 0. -1.
         25    2    1    2    0    0 -0.22003340938E+02 -0.20533642230E+02  0.16305710876E+03  0.20770325627E+03  0.12508894625E+03 0.  0.
          5    1    3    3  502    0 -0.25898204130E+02  0.42443056360E+02  0.24903735625E+02  0.55765566961E+02  0.41800000000E+01 0. -1.
         -5    1    3    3    0  502  0.38948631920E+01 -0.62976698590E+02  0.13815337313E+03  0.15193768931E+03  0.41800000000E+01 0. -1.
        -11    1    1    2    0    0 -0.54518908291E+01  0.18282342296E+02  0.63072259880E+02  0.65894439218E+02  0.00000000000E+00 0.  1.
         11    1    1    2    0    0  0.27455231767E+02  0.22512999337E+01 -0.26149403475E+02  0.37982224855E+02  0.00000000000E+00 0. -1.
</event>
<event>
 7    1  0.2749315E-009  0.9223887E+02  0.7561462E-02  0.1297519E+00
          1   -1    0    0  501    0  0.00000000000E+00  0.00000000000E+00  0.40304600850E+02  0.40304600850E+02  0.00000000000E+00 0. -1.
         -1   -1    0    0    0  501 -0.00000000000E+00 -0.00000000000E+00 -0.34025534263E+03  0.34025534263E+03  0.00000000000E+00 0.  1.
         25    2    1    2    0    0 -0.38874390670E+02 -0.12965014945E+02 -0.15389390068E+03  0.20251441607E+03  0.12509774654E+03 0.  0.
          5    1    3    3  502    0  0.35769212940E+02 -0.76678728498E+01 -0.10922647963E+03  0.11526547237E+03  0.41800000000E+01 0.  1.
         -5    1    3    3    0  502 -0.74643603610E+02 -0.52971420951E+01 -0.44667421050E+02  0.87248943704E+02  0.41800000000E+01 0.  1.
        -11    1    1    2    0    0 -0.61034642814E+01  0.25336743179E+02 -0.12351814609E+03  0.12623761422E+03  0.00000000000E+00 0.  1.
         11    1    1    2    0    0  0.44977854951E+02 -0.12371728234E+02 -0.22538695008E+02  0.51807913181E+02  0.00000000000E+00 0. -1.
</event>
<event>
 7    1  0.2749315E-009  0.1170924E+03  0.7561462E-02  0.1247972E+00
          2   -1    0    0  501    0  0.00000000000E+00  0.00000000000E+00  0.16432005610E+03  0.16432005610E+03  0.00000000000E+00 0. -1.
         -2   -1    0    0    0  501 -0.00000000000E+00 -0.00000000000E+00 -0.14309454395E+03  0.14309454395E+03  0.00000000000E+00 0.  1.
         25    2    1    2    0    0 -0.85875403328E+02 -0.40980716358E+02 -0.40372530907E+02  0.16227022851E+03  0.12509069429E+03 0.  0.
          5    1    3    3  502    0 -0.71726699393E+02 -0.49877811161E+02 -0.80330760114E+02  0.11875613194E+03  0.41800000000E+01 0.  1.
         -5    1    3    3    0  502 -0.14148703935E+02  0.88970948026E+01  0.39958229207E+02  0.43514096570E+02  0.41800000000E+01 0.  1.
        -11    1    1    2    0    0 -0.10900944846E+02  0.30212091915E+02  0.49672832616E+01  0.32500384605E+02  0.00000000000E+00 0.  1.
         11    1    1    2    0    0  0.96776348174E+02  0.10768624443E+02  0.56630759799E+02  0.11264398694E+03  0.00000000000E+00 0. -1.
</event>
<event>
 7    1  0.2749315E-009  0.1337897E+03  0.7561462E-02  0.1221938E+00
         -2   -1    0    0    0  501 -0.00000000000E+00  0.00000000000E+00  0.64277828237E+02  0.64277828237E+02  0.00000000000E+00 0.  1.
          2   -1    0    0  501    0  0.00000000000E+00 -0.00000000000E+00 -0.37535794931E+03  0.37535794931E+03  0.00000000000E+00 0. -1.
         25    2    1    2    0    0  0.72334007883E+02  0.51877485447E+02 -0.26451560024E+03  0.30584110317E+03  0.12508715132E+03 0.  0.
          5    1    3    3  502    0  0.10485159071E+03  0.46245505780E+02 -0.23449521554E+03  0.26103252937E+03  0.41800000000E+01 0.  1.
         -5    1    3    3    0  502 -0.32517582831E+02  0.56319796673E+01 -0.30020384701E+02  0.44808573797E+02  0.41800000000E+01 0.  1.
        -11    1    1    2    0    0 -0.27844915056E+02  0.20573251709E+02 -0.32755750735E+02  0.47660646099E+02  0.00000000000E+00 0.  1.
         11    1    1    2    0    0 -0.44489092828E+02 -0.72450737157E+02 -0.13808770094E+02  0.86134028274E+02  0.00000000000E+00 0. -1.
</event>
<event>
 7    1  0.2749315E-009  0.7906816E+02  0.7561462E-02  0.1331717E+00
          1   -1    0    0  501    0  0.00000000000E+00  0.00000000000E+00  0.12003887395E+03  0.12003887395E+03  0.00000000000E+00 0. -1.
         -1   -1    0    0    0  501 -0.00000000000E+00 -0.00000000000E+00 -0.13255172746E+03  0.13255172746E+03  0.00000000000E+00 0.  1.
         25    2    1    2    0    0 -0.40198427761E+02  0.47437189381E+02 -0.36520248916E+02  0.14437425525E+03  0.12507596279E+03 0.  0.
          5    1    3    3  502    0 -0.14754877859E+02  0.45587300344E+02 -0.80258847964E+02  0.93567427291E+02  0.41800000000E+01 0. -1.
         -5    1    3    3    0  502 -0.25443549903E+02  0.18498890373E+01  0.43738599048E+02  0.50806827964E+02  0.41800000000E+01 0. -1.
        -11    1    1    2    0    0  0.41925378127E+02 -0.59065188639E+02  0.44198459768E+02  0.84852446552E+02  0.00000000000E+00 0. -1.
         11    1    1    2    0    0 -0.17269503659E+01  0.11627999257E+02 -0.20191064366E+02  0.23363899600E+02  0.00000000000E+00 0.  1.
</event>
<event>
 7    1  0.3609639E-009  0.2169236E+03  0.7561462E-02  0.1136198E+00
         -2   -1    0    0    0  501 -0.00000000000E+00  0.00000000000E+00  0.25151740036E+03  0.25151740036E+03  0.00000000000E+00 0.  1.
          2   -1    0    0  501    0  0.00000000000E+00 -0.00000000000E+00 -0.20905967459E+03  0.20905967459E+03  0.00000000000E+00 0. -1.
         25    2    1    2    0    0  0.85758481997E+02  0.17606983348E+03 -0.25862217006E+02  0.23382149888E+03  0.12509410688E+03 0.  0.
          5    1    3    3  502    0  0.10944686734E+03  0.94144689625E+02  0.60872782973E+00  0.14442881397E+03  0.41800000000E+01 0.  1.
         -5    1    3    3    0  502 -0.23688385341E+02  0.81925143853E+02 -0.26470944836E+02  0.89392684913E+02  0.41800000000E+01 0.  1.
        -11    1    1    2    0    0 -0.23499381395E+02 -0.11298450742E+03  0.75381635626E+02  0.13784088955E+03  0.00000000000E+00 0.  1.
         11    1    1    2    0    0 -0.62259100603E+02 -0.63085326054E+02 -0.70616928548E+01  0.88914686510E+02  0.00000000000E+00 0. -1.
</event>
<event>
 7    1  0.2749315E-009  0.1103609E+03  0.7561462E-02  0.1259903E+00
          1   -1    0    0  501    0  0.00000000000E+00  0.00000000000E+00  0.56231142011E+02  0.56231142011E+02  0.00000000000E+00 0. -1.
         -1   -1    0    0    0  501 -0.00000000000E+00 -0.00000000000E+00 -0.40068795508E+03  0.40068795508E+03  0.00000000000E+00 0.  1.
         25    2    1    2    0    0 -0.99252675821E+02 -0.98609247222E+01 -0.22972582737E+03  0.27994594613E+03  0.12508974979E+03 0.  0.
          5    1    3    3  502    0 -0.88112353839E+02 -0.26621464675E+02 -0.23991796194E+03  0.25700309364E+03  0.41800000000E+01 0.  1.
         -5    1    3    3    0  502 -0.11140321982E+02  0.16760539953E+02  0.10192134571E+02  0.22942852493E+02  0.41800000000E+01 0.  1.
        -11    1    1    2    0    0  0.22625447175E+02  0.20663332567E+02 -0.91016907365E+02  0.96036251483E+02  0.00000000000E+00 0.  1.
         11    1    1    2    0    0  0.76627228646E+02 -0.10802407844E+02 -0.23714078339E+02  0.80936899476E+02  0.00000000000E+00 0. -1.
</event>
<event>
 7    1  0.2749315E-009  0.7651471E+02  0.7561462E-02  0.1339244E+00
          2   -1    0    0  501    0  0.00000000000E+00  0.00000000000E+00  0.11393799014E+03  0.11393799014E+03  0.00000000000E+00 0. -1.
         -2   -1    0    0    0  501 -0.00000000000E+00 -0.00000000000E+00 -0.21168939912E+03  0.21168939912E+03  0.00000000000E+00 0.  1.
         25    2    1    2    0    0 -0.53831193935E+02 -0.26115605968E+02 -0.65748165856E+02  0.15346180444E+03  0.12509149369E+03 0.  0.
          5    1    3    3  502    0  0.49706659376E+01 -0.32650379906E+02  0.27344205066E+02  0.43080538280E+02  0.41800000000E+01 0.  1.
         -5    1    3    3    0  502 -0.58801859873E+02  0.65347739381E+01 -0.93092370921E+02  0.11038126616E+03  0.41800000000E+01 0.  1.
        -11    1    1    2    0    0  0.20599233552E+02  0.54996827778E+01 -0.95358236829E+02  0.97712682210E+02  0.00000000000E+00 0.  1.
         11    1    1    2    0    0  0.33231960383E+02  0.20615923190E+02  0.63354993706E+02  0.74452902612E+02  0.00000000000E+00 0. -1.
</event>
<event>
 7    1  0.2749315E-009  0.1289781E+03  0.7561462E-02  0.1228980E+00
          2   -1    0    0  501    0  0.00000000000E+00  0.00000000000E+00  0.61013993393E+03  0.61013993393E+03  0.00000000000E+00 0. -1.
         -2   -1    0    0    0  501 -0.00000000000E+00 -0.00000000000E+00 -0.43673607241E+02  0.43673607241E+02  0.00000000000E+00 0.  1.
         25    2    1    2    0    0  0.74112637037E+02  0.95678236264E+02  0.32781357755E+03  0.37115346520E+03  0.12508455235E+03 0.  0.
          5    1    3    3  502    0  0.37913243309E+02  0.42316478157E+02  0.26217664860E+02  0.62713130145E+02  0.41800000000E+01 0. -1.
         -5    1    3    3    0  502  0.36199393728E+02  0.53361758107E+02  0.30159591269E+03  0.30844033505E+03  0.41800000000E+01 0. -1.
        -11    1    1    2    0    0 -0.14122822823E+02 -0.69493187320E+02  0.18466384811E+03  0.19781176407E+03  0.00000000000E+00 0. -1.
         11    1    1    2    0    0 -0.59989814213E+02 -0.26185048943E+02  0.53988901025E+02  0.84848311895E+02  0.00000000000E+00 0.  1.
</event>
<event>
 7    1  0.2749315E-009  0.1128244E+03  0.7561462E-02  0.1255427E+00
         -1   -1    0    0    0  501 -0.00000000000E+00  0.00000000000E+00  0.39507520004E+03  0.39507520004E+03  0.00000000000E+00 0.  1.
          1   -1    0    0  501    0  0.00000000000E+00 -0.00000000000E+00 -0.61694776469E+02  0.61694776469E+02  0.00000000000E+00 0. -1.
         25    2    1    2    0    0  0.55453977624E+02 -0.80397092717E+02  0.10015881960E+03  0.18766447432E+03  0.12508928662E+03 0.  0.
          5    1    3    3  502    0  0.27045521823E+01 -0.29791071706E+02 -0.27273246333E+02  0.40695514758E+02  0.41800000000E+01 0.  1.
         -5    1    3    3    0  502  0.52749425442E+02 -0.50606021011E+02  0.12743206593E+03  0.14696895956E+03  0.41800000000E+01 0.  1.
        -11    1    1    2    0    0 -0.75346142471E+01  0.73415194804E+02  0.19134733120E+03  0.20508623162E+03  0.00000000000E+00 0.  1.
         11    1    1    2    0    0 -0.47919363377E+02  0.69818979133E+01  0.41874272768E+02  0.64019270573E+02  0.00000000000E+00 0. -1.
</event>
<event>
 7    1  0.2749315E-009  0.1039763E+03  0.7561462E-02  0.1272150E+00
          2   -1    0    0  501    0  0.00000000000E+00  0.00000000000E+00  0.59717695824E+03  0.59717695824E+03  0.00000000000E+00 0. -1.
         -2   -1    0    0    0  501 -0.00000000000E+00 -0.00000000000E+00 -0.20964231160E+02  0.20964231160E+02  0.00000000000E+00 0.  1.
         25    2    1    2    0    0  0.20118054804E+02 -0.11360590298E+02  0.40214200714E+03  0.42178419391E+03  0.12509961306E+03 0.  0.
          5    1    3    3  502    0  0.21759963962E+02 -0.62778905517E+02  0.14555673446E+03  0.16005912144E+03  0.41800000000E+01 0.  1.
         -5    1    3    3    0  502 -0.16419091579E+01  0.51418315219E+02  0.25658527268E+03  0.26172507247E+03  0.41800000000E+01 0.  1.
        -11    1    1    2    0    0  0.15418366271E+02  0.40800832619E+02  0.69447374928E+02  0.82008364483E+02  0.00000000000E+00 0.  1.
         11    1    1    2    0    0 -0.35536421075E+02 -0.29440242321E+02  0.10462334502E+03  0.11434863101E+03  0.00000000000E+00 0. -1.
</event>
<event>
 7    1  0.2749315E-009  0.1442593E+03  0.7561462E-02  0.1207710E+00
          4   -1    0    0  501    0  0.00000000000E+00  0.00000000000E+00  0.14089864417E+03  0.14089864417E+03  0.00000000000E+00 0. -1.
         -4   -1    0    0    0  501 -0.00000000000E+00 -0.00000000000E+00 -0.19837025884E+03  0.19837025884E+03  0.00000000000E+00 0.  1.
         25    2    1    2    0    0 -0.88220476391E+02  0.60705195960E+02 -0.99516678060E+02  0.19239840299E+03  0.12508238480E+03 0.  0.
          5    1    3    3  502    0 -0.99114330807E+02 -0.33761562087E+01 -0.65412198072E+02  0.11887504809E+03  0.41800000000E+01 0. -1.
         -5    1    3    3    0  502  0.10893854416E+02  0.64081352168E+02 -0.34104479987E+02  0.73523354895E+02  0.41800000000E+01 0. -1.
        -11    1    1    2    0    0 -0.28651038723E+01 -0.26768738107E+02  0.41738695646E+02  0.49667825342E+02  0.00000000000E+00 0. -1.
         11    1    1    2    0    0  0.91085580263E+02 -0.33936457853E+02  0.30636774430E+00  0.97202674679E+02  0.00000000000E+00 0.  1.
</event>
<event>
 7    1  0.2749315E-009  0.8904459E+02  0.7561462E-02  0.1305182E+00
          2   -1    0    0  501    0  0.00000000000E+00  0.00000000000E+00  0.69975958949E+03  0.69975958949E+03  0.00000000000E+00 0. -1.
         -2   -1    0    0    0  501 -0.00000000000E+00 -0.00000000000E+00 -0.25075240596E+02  0.25075240596E+02  0.00000000000E+00 0.  1.
         25    2    1    2    0    0 -0.29246449472E+02 -0.94713219178E+01  0.46327509254E+03  0.48084908427E+03  0.12508784803E+03 0.  0.
          5    1    3    3  502    0 -0.63610042534E+02 -0.11866259802E+02  0.12517186387E+03  0.14096990295E+03  0.41800000000E+01 0.  1.
         -5    1    3    3    0  502  0.34363593061E+02  0.23949378847E+01  0.33810322867E+03  0.33987918132E+03  0.41800000000E+01 0.  1.
        -11    1    1    2    0    0  0.51662558224E+02 -0.49401583785E+01  0.21104676235E+03  0.21733421495E+03  0.00000000000E+00 0. -1.
         11    1    1    2    0    0 -0.22416108751E+02  0.14411480296E+02  0.36249399882E+00  0.26651530871E+02  0.00000000000E+00 0.  1.
</event>
<event>
 7    1  0.2749315E-009  0.2985240E+03  0.7561462E-02  0.1085981E+00
          1   -1    0    0  501    0  0.00000000000E+00  0.00000000000E+00  0.10755607052E+04  0.10755607052E+04  0.00000000000E+00 0. -1.
         -1   -1    0    0    0  501 -0.00000000000E+00 -0.00000000000E+00 -0.95756670293E+02  0.95756670293E+02  0.00000000000E+00 0.  1.
         25    2    1    2    0    0  0.24326894684E+03  0.14272219330E+03  0.69093447965E+03  0.75669562795E+03  0.12509361790E+03 0.  0.
          5    1    3    3  502    0  0.58869459475E+02  0.92107486152E+02  0.33806828335E+03  0.35532666501E+03  0.41800000000E+01 0.  1.
         -5    1    3    3    0  502  0.18439948736E+03  0.50614707150E+02  0.35286619630E+03  0.40136896294E+03  0.41800000000E+01 0.  1.
        -11    1    1    2    0    0 -0.23741606720E+03 -0.15448376283E+03  0.28240397403E+03  0.39997953259E+03  0.00000000000E+00 0. -1.
         11    1    1    2    0    0 -0.58528796357E+01  0.11761569533E+02  0.64655812279E+01  0.14642214946E+02  0.00000000000E+00 0.  1.
</event>
<event>
 7    1  0.2749315E-009  0.1126711E+03  0.7561462E-02  0.1255702E+00
          1   -1    0    0  501    0  0.00000000000E+00  0.00000000000E+00  0.34060754379E+03  0.34060754379E+03  0.00000000000E+00 0.  1.
         -1   -1    0    0    0  501 -0.00000000000E+00 -0.00000000000E+00 -0.56046964029E+02  0.56046964029E+02  0.00000000000E+00 0. -1.
         25    2    1    2    0    0  0.33581734447E+02 -0.58308685651E+02  0.79805883244E+02  0.16291918040E+03  0.12508415020E+03 0.  0.
          5    1    3    3  502    0 -0.27984233930E+02 -0.43902357249E+02  0.84542601497E+02  0.99375339942E+02  0.41800000000E+01 0. -1.
         -5    1    3    3    0  502  0.61565968377E+02 -0.14406328402E+02 -0.47367182530E+01  0.63543840457E+02  0.41800000000E+01 0. -1.
        -11    1    1    2    0    0 -0.56493726179E+02  0.11532660234E+02  0.13398165863E+03  0.14586167488E+03  0.00000000000E+00 0.  1.
         11    1    1    2    0    0  0.22911991732E+02  0.46776025417E+02  0.70773037883E+02  0.87873652536E+02  0.00000000000E+00 0. -1.
</event>
<event>
 7    1  0.2749315E-009  0.1310256E+03  0.7561462E-02  0.1225942E+00
         -2   -1    0    0    0  501 -0.00000000000E+00  0.00000000000E+00  0.52736176634E+02  0.52736176634E+02  0.00000000000E+00 0.  1.
          2   -1    0    0  501    0  0.00000000000E+00 -0.00000000000E+00 -0.51162626165E+03  0.51162626165E+03  0.00000000000E+00 0. -1.
         25    2    1    2    0    0  0.84897871087E+02 -0.85599491012E+02 -0.19735248412E+03  0.26292400049E+03  0.12508439418E+03 0.  0.
          5    1    3    3  502    0 -0.10424442544E+02 -0.27206740165E+02 -0.12792272548E+03  0.13126527267E+03  0.41800000000E+01 0. -1.
         -5    1    3    3    0  502  0.95322313631E+02 -0.58392750847E+02 -0.69429758635E+02  0.13165872782E+03  0.41800000000E+01 0. -1.
        -11    1    1    2    0    0 -0.67853382005E+02  0.72129926151E+02 -0.26159733102E+03  0.27971408848E+03  0.00000000000E+00 0. -1.
         11    1    1    2    0    0 -0.17044489082E+02  0.13469564861E+02  0.59730124116E-01  0.21724349318E+02  0.00000000000E+00 0.  1.
</event>
<event>
 7    1  0.2749315E-009  0.9635629E+02  0.7561462E-02  0.1288150E+00
          2   -1    0    0  501    0  0.00000000000E+00  0.00000000000E+00  0.13642524581E+03  0.13642524581E+03  0.00000000000E+00 0. -1.
         -2   -1    0    0    0  501 -0.00000000000E+00 -0.00000000000E+00 -0.13391876424E+03  0.13391876424E+03  0.00000000000E+00 0.  1.
         25    2    1    2    0    0 -0.53167767953E+02 -0.12830364733E+02 -0.57602248698E+02  0.14817600259E+03  0.12508668546E+03 0.  0.
          5    1    3    3  502    0 -0.55372300209E+02  0.19726120391E+02  0.21323291122E+02  0.62668705112E+02  0.41800000000E+01 0. -1.
         -5    1    3    3    0  502  0.22045322570E+01 -0.32556485124E+02 -0.78925539820E+02  0.85507297478E+02  0.41800000000E+01 0. -1.
        -11    1    1    2    0    0  0.66863129278E+02 -0.16190427559E+02  0.58045723232E+02  0.90011743605E+02  0.00000000000E+00 0.  1.
         11    1    1    2    0    0 -0.13695361326E+02  0.29020792291E+02  0.20630070353E+01  0.32156263855E+02  0.00000000000E+00 0. -1.
</event>
<event>
 7    1  0.2749315E-009  0.1272860E+03  0.7561462E-02  0.1231539E+00
          1   -1    0    0  501    0  0.00000000000E+00  0.00000000000E+00  0.82474098422E+03  0.82474098422E+03  0.00000000000E+00 0. -1.
         -1   -1    0    0    0  501 -0.00000000000E+00 -0.00000000000E+00 -0.30669326155E+02  0.30669326155E+02  0.00000000000E+00 0.  1.
         25    2    1    2    0    0 -0.70976443236E+02  0.85438577042E+02  0.52350602087E+03  0.54958474348E+03  0.12508968958E+03 0.  0.
          5    1    3    3  502    0 -0.10397410359E+02  0.87310068680E+01  0.35084748242E+03  0.35113496685E+03  0.41800000000E+01 0. -1.
         -5    1    3    3    0  502 -0.60579032877E+02  0.76707570174E+02  0.17265853845E+03  0.19844977664E+03  0.41800000000E+01 0. -1.
        -11    1    1    2    0    0 -0.17977113417E+02 -0.37259952505E+02  0.75817207526E+02  0.86369726320E+02  0.00000000000E+00 0. -1.
         11    1    1    2    0    0  0.88953556653E+02 -0.48178624536E+02  0.19474842967E+03  0.21945584057E+03  0.00000000000E+00 0.  1.
</event>
<event>
 7    1  0.2749315E-009  0.2526706E+03  0.7561462E-02  0.1111629E+00
          1   -1    0    0  501    0  0.00000000000E+00  0.00000000000E+00  0.65215957764E+02  0.65215957764E+02  0.00000000000E+00 0. -1.
         -1   -1    0    0    0  501 -0.00000000000E+00 -0.00000000000E+00 -0.13418758388E+04  0.13418758388E+04  0.00000000000E+00 0.  1.
         25    2    1    2    0    0  0.17722865374E+03 -0.14939940229E+03 -0.10037599490E+04  0.10377430611E+04  0.12508576431E+03 0.  0.
          5    1    3    3  502    0  0.28367682445E+02  0.20545440399E+02 -0.18725206370E+03  0.19054565933E+03  0.41800000000E+01 0.  1.
         -5    1    3    3    0  502  0.14886097130E+03 -0.16994484269E+03 -0.81650788531E+03  0.84719740173E+03  0.41800000000E+01 0.  1.
        -11    1    1    2    0    0 -0.10451170093E+03  0.13372121877E+03 -0.22098365610E+03  0.27863566936E+03  0.00000000000E+00 0.  1.
         11    1    1    2    0    0 -0.72716952814E+02  0.15678183522E+02 -0.51916275963E+02  0.90713066176E+02  0.00000000000E+00 0. -1.
</event>
<event>
 7    1  0.2749315E-009  0.3806136E+03  0.7561462E-02  0.1050707E+00
         -2   -1    0    0    0  501 -0.00000000000E+00  0.00000000000E+00  0.57792001665E+03  0.57792001665E+03  0.00000000000E+00 0. -1.
          2   -1    0    0  501    0  0.00000000000E+00 -0.00000000000E+00 -0.28025714859E+03  0.28025714859E+03  0.00000000000E+00 0.  1.
         25    2    1    2    0    0 -0.19200789584E+03  0.31765511002E+03  0.26648832601E+03  0.47374624029E+03  0.12509065235E+03 0.  0.
          5    1    3    3  502    0 -0.18801821490E+03  0.26091361246E+03  0.17559281704E+03  0.36643836057E+03  0.41800000000E+01 0. -1.
         -5    1    3    3    0  502 -0.39896809385E+01  0.56741497558E+02  0.90895508973E+02  0.10730787972E+03  0.41800000000E+01 0. -1.
        -11    1    1    2    0    0  0.16078258307E+03 -0.17973910335E+03  0.30022053978E+02  0.24301956303E+03  0.00000000000E+00 0. -1.
         11    1    1    2    0    0  0.31225312771E+02 -0.13791600667E+03  0.11524880729E+01  0.14141136192E+03  0.00000000000E+00 0.  1.
</event>
<event>
 7    1  0.2749315E-009  0.8204523E+02  0.7561462E-02  0.1323346E+00
          2   -1    0    0  501    0  0.00000000000E+00  0.00000000000E+00  0.11391072395E+03  0.11391072395E+03  0.00000000000E+00 0. -1.
         -2   -1    0    0    0  501 -0.00000000000E+00 -0.00000000000E+00 -0.13547112133E+03  0.13547112133E+03  0.00000000000E+00 0.  1.
         25    2    1    2    0    0  0.19940941148E+02 -0.41500308927E+02  0.26677771587E+02  0.13592942337E+03  0.12508072540E+03 0.  0.
          5    1    3    3  502    0  0.39144495061E+02 -0.38565690541E+02 -0.38868254321E+02  0.67437508661E+02  0.41800000000E+01 0. -1.
         -5    1    3    3    0  502 -0.19203553913E+02 -0.29346183865E+01  0.65546025908E+02  0.68491914707E+02  0.41800000000E+01 0. -1.
        -11    1    1    2    0    0 -0.30039141578E+02 -0.13683948922E+02  0.80552392905E+01  0.33977748084E+02  0.00000000000E+00 0. -1.
         11    1    1    2    0    0  0.10098200430E+02  0.55184257849E+02 -0.56293408259E+02  0.79474673825E+02  0.00000000000E+00 0.  1.
</event>
<event>
 7    1  0.2749315E-009  0.1227952E+03  0.7561462E-02  0.1238556E+00
         -2   -1    0    0    0  501 -0.00000000000E+00  0.00000000000E+00  0.10263572910E+03  0.10263572910E+03  0.00000000000E+00 0.  1.
          2   -1    0    0  501    0  0.00000000000E+00 -0.00000000000E+00 -0.25915185179E+03  0.25915185179E+03  0.00000000000E+00 0. -1.
         25    2    1    2    0    0 -0.75866132530E+02 -0.92342592793E+02 -0.89419813404E+02  0.19475379345E+03  0.12510120912E+03 0.  0.
          5    1    3    3  502    0 -0.22307425285E+02 -0.45561346731E+01 -0.88867157340E+02  0.91832584847E+02  0.41800000000E+01 0.  1.
         -5    1    3    3    0  502 -0.53558707245E+02 -0.87786458120E+02 -0.55265606381E+00  0.10292120860E+03  0.41800000000E+01 0.  1.
        -11    1    1    2    0    0  0.55532688394E+02  0.68731693119E+02  0.49879469025E+01  0.88503134033E+02  0.00000000000E+00 0.  1.
         11    1    1    2    0    0  0.20333444136E+02  0.23610899674E+02 -0.72084256191E+02  0.78530653407E+02  0.00000000000E+00 0. -1.
</event>
<event>
 7    1  0.2749315E-009  0.1216844E+03  0.7561462E-02  0.1240344E+00
         -2   -1    0    0    0  501 -0.00000000000E+00  0.00000000000E+00  0.11092705676E+03  0.11092705676E+03  0.00000000000E+00 0.  1.
          2   -1    0    0  501    0  0.00000000000E+00 -0.00000000000E+00 -0.29009137972E+03  0.29009137972E+03  0.00000000000E+00 0. -1.
         25    2    1    2    0    0 -0.98369044002E+02 -0.29188114054E+02 -0.20315426613E+03  0.25970848389E+03  0.12509366866E+03 0.  0.
          5    1    3    3  502    0 -0.70307356171E+02 -0.10319173886E+02 -0.21272326055E+03  0.22431733696E+03  0.41800000000E+01 0.  1.
         -5    1    3    3    0  502 -0.28061687831E+02 -0.18868940168E+02  0.95689944199E+01  0.35391146933E+02  0.41800000000E+01 0.  1.
        -11    1    1    2    0    0  0.12344154492E+01 -0.26244590400E+02  0.11823184060E+02  0.28811282306E+02  0.00000000000E+00 0. -1.
         11    1    1    2    0    0  0.97134628553E+02  0.55432704454E+02  0.12166759105E+02  0.11249867028E+03  0.00000000000E+00 0.  1.
</event>
<event>
 7    1  0.2749315E-009  0.1025443E+03  0.7561462E-02  0.1275035E+00
          2   -1    0    0  501    0  0.00000000000E+00  0.00000000000E+00  0.10471951803E+04  0.10471951803E+04  0.00000000000E+00 0.  1.
         -2   -1    0    0    0  501 -0.00000000000E+00 -0.00000000000E+00 -0.18218405653E+02  0.18218405653E+02  0.00000000000E+00 0. -1.
         25    2    1    2    0    0  0.68867882750E+02 -0.49296633729E+02  0.50202547192E+03  0.52425979584E+03  0.12508323509E+03 0.  0.
          5    1    3    3  502    0  0.55699233643E+02 -0.30154007086E+02  0.49579761135E+03  0.49984438838E+03  0.41800000000E+01 0. -1.
         -5    1    3    3    0  502  0.13168649107E+02 -0.19142626644E+02  0.62278605710E+01  0.24415407460E+02  0.41800000000E+01 0. -1.
        -11    1    1    2    0    0 -0.68730958350E+02  0.69532655311E+02  0.48260129870E+03  0.49240506526E+03  0.00000000000E+00 0.  1.
         11    1    1    2    0    0 -0.13692439961E+00 -0.20236021582E+02  0.44350004045E+02  0.48748724871E+02  0.00000000000E+00 0. -1.
</event>
<event>
 7    1  0.2749315E-009  0.1415759E+03  0.7561462E-02  0.1211224E+00
         -1   -1    0    0    0  501 -0.00000000000E+00  0.00000000000E+00  0.14510521308E+04  0.14510521308E+04  0.00000000000E+00 0.  1.
          1   -1    0    0  501    0  0.00000000000E+00 -0.00000000000E+00 -0.24202180876E+02  0.24202180876E+02  0.00000000000E+00 0. -1.
         25    2    1    2    0    0  0.10492150163E+03 -0.11776374953E+02  0.11881731920E+04  0.11993957465E+04  0.12508964050E+03 0.  0.
          5    1    3    3  502    0 -0.25239347669E+02  0.49383038037E+01  0.35351158875E+03  0.35447048861E+03  0.41800000000E+01 0. -1.
         -5    1    3    3    0  502  0.13016084930E+03 -0.16714678757E+02  0.83466160321E+03  0.84492525790E+03  0.41800000000E+01 0. -1.
        -11    1    1    2    0    0 -0.11412400017E+03  0.16738566700E+02  0.23902197096E+03  0.26539775740E+03  0.00000000000E+00 0.  1.
         11    1    1    2    0    0  0.92024985366E+01 -0.49621917469E+01 -0.34521302941E+00  0.10460807726E+02  0.00000000000E+00 0. -1.
</event>
<event>
 7    1  0.2749315E-009  0.1334856E+03  0.7561462E-02  0.1222373E+00
          2   -1    0    0  501    0  0.00000000000E+00  0.00000000000E+00  0.13762945933E+03  0.13762945933E+03  0.00000000000E+00 0. -1.
         -2   -1    0    0    0  501 -0.00000000000E+00 -0.00000000000E+00 -0.15263205777E+03  0.15263205777E+03  0.00000000000E+00 0.  1.
         25    2    1    2    0    0  0.80041888501E+02 -0.42113551422E+02 -0.39517997310E+02  0.15935170217E+03  0.12510410763E+03 0.  0.
          5    1    3    3  502    0  0.19615505876E+02 -0.71583244128E+02 -0.52163852993E+02  0.90815576140E+02  0.41800000000E+01 0.  1.
         -5    1    3    3    0  502  0.60426382625E+02  0.29469692706E+02  0.12645855682E+02  0.68536126031E+02  0.41800000000E+01 0.  1.
        -11    1    1    2    0    0 -0.27528568055E+02  0.63004418397E+02 -0.13197195785E+01  0.68768600803E+02  0.00000000000E+00 0.  1.
         11    1    1    2    0    0 -0.52513320446E+02 -0.20890866975E+02  0.25835118458E+02  0.62141214125E+02  0.00000000000E+00 0. -1.
</event>
<event>
 7    1  0.2749315E-009  0.4729622E+03  0.7561462E-02  0.1021087E+00
          1   -1    0    0  501    0  0.00000000000E+00  0.00000000000E+00  0.93735377978E+03  0.93735377978E+03  0.00000000000E+00 0. -1.
         -1   -1    0    0    0  501 -0.00000000000E+00 -0.00000000000E+00 -0.29692825252E+03  0.29692825252E+03  0.00000000000E+00 0.  1.
         25    2    1    2    0    0  0.39260240793E+03 -0.24074825515E+03  0.59402209519E+03  0.76197657903E+03  0.12509869845E+03 0.  0.
          5    1    3    3  502    0  0.14939528742E+03 -0.16298663073E+03  0.25485299117E+03  0.33741830598E+03  0.41800000000E+01 0. -1.
         -5    1    3    3    0  502  0.24320712051E+03 -0.77761624417E+02  0.33916910402E+03  0.42455827306E+03  0.41800000000E+01 0. -1.
        -11    1    1    2    0    0 -0.54561160770E+02  0.75492080407E+02 -0.29636568634E+00  0.93145382608E+02  0.00000000000E+00 0. -1.
         11    1    1    2    0    0 -0.33804124716E+03  0.16525617474E+03  0.46699797752E+02  0.37916007066E+03  0.00000000000E+00 0.  1.
</event>
<event>
 7    1  0.2749315E-009  0.2355989E+03  0.7561462E-02  0.1122760E+00
         -1   -1    0    0    0  501 -0.00000000000E+00  0.00000000000E+00  0.37834516583E+02  0.37834516583E+02  0.00000000000E+00 0.  1.
          1   -1    0    0  501    0  0.00000000000E+00 -0.00000000000E+00 -0.15062181623E+04  0.15062181623E+04  0.00000000000E+00 0. -1.
         25    2    1    2    0    0  0.14431154070E+03 -0.15342516408E+03 -0.68182927442E+03  0.72450192031E+03  0.12508705498E+03 0.  0.
          5    1    3    3  502    0  0.13743014436E+03 -0.58585477868E+02 -0.39780586562E+03  0.42495444687E+03  0.41800000000E+01 0. -1.
         -5    1    3    3    0  502  0.68813963488E+01 -0.94839686212E+02 -0.28402340880E+03  0.29954747343E+03  0.41800000000E+01 0. -1.
        -11    1    1    2    0    0 -0.93802094992E+02  0.39192126682E+02 -0.42647064138E+03  0.43841996279E+03  0.00000000000E+00 0.  1.
         11    1    1    2    0    0 -0.50509445711E+02  0.11423303740E+03 -0.36008372993E+03  0.38113079579E+03  0.00000000000E+00 0. -1.
</event>
<event>
 7    1  0.2749315E-009  0.1116112E+03  0.7561462E-02  0.1257615E+00
          2   -1    0    0  501    0  0.00000000000E+00  0.00000000000E+00  0.11505676446E+03  0.11505676446E+03  0.00000000000E+00 0. -1.
         -2   -1    0    0    0  501 -0.00000000000E+00 -0.00000000000E+00 -0.14842709199E+03  0.14842709199E+03  0.00000000000E+00 0.  1.
         25    2    1    2    0    0 -0.16752698502E+02  0.25847623916E+02  0.47632670908E+02  0.13735107836E+03  0.12509074634E+03 0.  0.
          5    1    3    3  502    0  0.75606827371E+01  0.73152315246E+02  0.16173376836E+02  0.75415354322E+02  0.41800000000E+01 0.  1.
         -5    1    3    3    0  502 -0.24313381239E+02 -0.47304691329E+02  0.31459294072E+02  0.61935724042E+02  0.41800000000E+01 0.  1.
        -11    1    1    2    0    0  0.52337759537E+02 -0.18649421203E+00 -0.37813914407E+02  0.64569094591E+02  0.00000000000E+00 0.  1.
         11    1    1    2    0    0 -0.35585061035E+02 -0.25661129704E+02 -0.43189084027E+02  0.61563683496E+02  0.00000000000E+00 0. -1.
</event>
<event>
 7    1  0.2749315E-009  0.1085350E+03  0.7561462E-02  0.1263307E+00
          2   -1    0    0  501    0  0.00000000000E+00  0.00000000000E+00  0.58399332337E+03  0.58399332337E+03  0.00000000000E+00 0. -1.
         -2   -1    0    0    0  501 -0.00000000000E+00 -0.00000000000E+00 -0.22876396150E+02  0.22876396150E+02  0.00000000000E+00 0.  1.
         25    2    1    2    0    0  0.14045679426E+02 -0.11539283511E+02  0.22619427367E+03  0.25911252923E+03  0.12508004313E+03 0.  0.
          5    1    3    3  502    0 -0.15010461758E+02 -0.64221380831E+02  0.11780732830E+03  0.13507678824E+03  0.41800000000E+01 0.  1.
         -5    1    3    3    0  502  0.29056141184E+02  0.52682097320E+02  0.10838694537E+03  0.12403574100E+03  0.41800000000E+01 0.  1.
        -11    1    1    2    0    0 -0.51866798154E+01  0.50477647061E+02  0.22905688069E+03  0.23461020670E+03  0.00000000000E+00 0. -1.
         11    1    1    2    0    0 -0.88589996105E+01 -0.38938363551E+02  0.10586577286E+03  0.11314698358E+03  0.00000000000E+00 0.  1.
</event>
<event>
 7    1  0.2749315E-009  0.1206333E+03  0.7561462E-02  0.1242056E+00
         -3   -1    0    0    0  501 -0.00000000000E+00  0.00000000000E+00  0.18832123742E+03  0.18832123742E+03  0.00000000000E+00 0.  1.
          3   -1    0    0  501    0  0.00000000000E+00 -0.00000000000E+00 -0.86569494995E+02  0.86569494995E+02  0.00000000000E+00 0. -1.
         25    2    1    2    0    0  0.22158120647E+02 -0.62910449303E+02  0.50206082029E+02  0.15039190163E+03  0.12509343092E+03 0.  0.
          5    1    3    3  502    0 -0.49860657742E+02 -0.33191987434E+02  0.38929688338E+02  0.71559669189E+02  0.41800000000E+01 0.  1.
         -5    1    3    3    0  502  0.72018778389E+02 -0.29718461869E+02  0.11276393690E+02  0.78832232438E+02  0.41800000000E+01 0.  1.
        -11    1    1    2    0    0 -0.44016614258E+02  0.88618778581E+01 -0.25423592727E+01  0.44971755587E+02  0.00000000000E+00 0. -1.
         11    1    1    2    0    0  0.21858493611E+02  0.54048571445E+02  0.54088019667E+02  0.79527075199E+02  0.00000000000E+00 0.  1.
</event>
<event>
 7    1  0.2749315E-009  0.2410948E+03  0.7561462E-02  0.1119066E+00
         -2   -1    0    0    0  501 -0.00000000000E+00  0.00000000000E+00  0.13739721730E+03  0.13739721730E+03  0.00000000000E+00 0. -1.
          2   -1    0    0  501    0  0.00000000000E+00 -0.00000000000E+00 -0.49112473596E+03  0.49112473596E+03  0.00000000000E+00 0.  1.
         25    2    1    2    0    0  0.22039256547E+03  0.42101232670E+02 -0.94405369136E+02  0.27368915177E+03  0.12509189170E+03 0.  0.
          5    1    3    3  502    0  0.18483653076E+02 -0.32471047485E+02 -0.32468953075E+02  0.49676147894E+02  0.41800000000E+01 0.  1.
         -5    1    3    3    0  502  0.20190891239E+03  0.74572280156E+02 -0.61936416061E+02  0.22401300387E+03  0.41800000000E+01 0.  1.
        -11    1    1    2    0    0 -0.73547799479E+02  0.84016560052E+01 -0.34689917462E+02  0.81751189627E+02  0.00000000000E+00 0. -1.
         11    1    1    2    0    0 -0.14684476599E+03 -0.50502888676E+02 -0.22463223206E+03  0.27308161187E+03  0.00000000000E+00 0.  1.
</event>
<event>
 7    1  0.2749315E-009  0.1369588E+03  0.7561462E-02  0.1217481E+00
          1   -1    0    0  501    0  0.00000000000E+00  0.00000000000E+00  0.32048191730E+02  0.32048191730E+02  0.00000000000E+00 0. -1.
         -1   -1    0    0    0  501 -0.00000000000E+00 -0.00000000000E+00 -0.76961616103E+03  0.76961616103E+03  0.00000000000E+00 0.  1.
         25    2    1    2    0    0  0.29339881323E+02  0.97126986147E+02 -0.26863550357E+03  0.31321940558E+03  0.12508749809E+03 0.  0.
          5    1    3    3  502    0  0.49838177323E+02  0.61677627966E+01 -0.34237404281E+02  0.60922553039E+02  0.41800000000E+01 0. -1.
         -5    1    3    3    0  502 -0.20498296000E+02  0.90959223350E+02 -0.23439809929E+03  0.25229685254E+03  0.41800000000E+01 0. -1.
        -11    1    1    2    0    0  0.12197143646E+02 -0.86447482276E+02 -0.37735046677E+03  0.38731810218E+03  0.00000000000E+00 0.  1.
         11    1    1    2    0    0 -0.41537024969E+02 -0.10679503871E+02 -0.91581998951E+02  0.10112684499E+03  0.00000000000E+00 0. -1.
</event>
<event>
 7    1  0.2749315E-009  0.2095370E+03  0.7561462E-02  0.1141933E+00
         -1   -1    0    0    0  501 -0.00000000000E+00  0.00000000000E+00  0.10184991032E+03  0.10184991032E+03  0.00000000000E+00 0.  1.
          1   -1    0    0  501    0  0.00000000000E+00 -0.00000000000E+00 -0.48417393005E+03  0.48417393005E+03  0.00000000000E+00 0. -1.
         25    2    1    2    0    0 -0.16174159820E+03  0.95168668688E+02 -0.13567500232E+03  0.26319810167E+03  0.12509242335E+03 0.  0.
          5    1    3    3  502    0  0.11531959648E+02 -0.15506276111E+02 -0.95580805083E+01  0.21960418829E+02  0.41800000000E+01 0. -1.
         -5    1    3    3    0  502 -0.17327355785E+03  0.11067494480E+03 -0.12611692182E+03  0.24123768284E+03  0.41800000000E+01 0. -1.
        -11    1    1    2    0    0  0.13314830394E+03 -0.54335895235E+02 -0.12202766045E+03  0.18860437499E+03  0.00000000000E+00 0.  1.
         11    1    1    2    0    0  0.28593294263E+02 -0.40832773453E+02 -0.12462135696E+03  0.13422136370E+03  0.00000000000E+00 0. -1.
</event>
<event>
 7    1  0.2749315E-009  0.1078536E+03  0.7561462E-02  0.1264597E+00
         -2   -1    0    0    0  501 -0.00000000000E+00  0.00000000000E+00  0.52378972266E+02  0.52378972266E+02  0.00000000000E+00 0.  1.
          2   -1    0    0  501    0  0.00000000000E+00 -0.00000000000E+00 -0.97673055280E+03  0.97673055280E+03  0.00000000000E+00 0. -1.
         25    2    1    2    0    0  0.26362696889E+02 -0.13660543022E+02 -0.92569087999E+03  0.93457629041E+03  0.12509050749E+03 0.  0.
          5    1    3    3  502    0  0.59953544084E+02  0.29980610450E+02 -0.36128848054E+03  0.36747803066E+03  0.41800000000E+01 0.  1.
         -5    1    3    3    0  502 -0.33590847195E+02 -0.43641153472E+02 -0.56440239946E+03  0.56709825974E+03  0.41800000000E+01 0.  1.
        -11    1    1    2    0    0  0.13370220940E+02  0.42282765784E+02 -0.68883855751E+01  0.44878112106E+02  0.00000000000E+00 0. -1.
         11    1    1    2    0    0 -0.39732917830E+02 -0.28622222762E+02  0.82276850317E+01  0.49655122556E+02  0.00000000000E+00 0.  1.
</event>
<event>
 7    1  0.2749315E-009  0.1102799E+03  0.7561462E-02  0.1260052E+00
          1   -1    0    0  501    0  0.00000000000E+00  0.00000000000E+00  0.13076795153E+03  0.13076795153E+03  0.00000000000E+00 0. -1.
         -1   -1    0    0    0  501 -0.00000000000E+00 -0.00000000000E+00 -0.17849405554E+03  0.17849405554E+03  0.00000000000E+00 0.  1.
         25    2    1    2    0    0  0.57980691395E+01  0.89092224971E+02 -0.75388379062E+02  0.17117862024E+03  0.12509064782E+03 0.  0.
          5    1    3    3  502    0 -0.14042259507E+02 -0.16133851029E+02 -0.58840415104E+02  0.62746737371E+02  0.41800000000E+01 0. -1.
         -5    1    3    3    0  502  0.19840328646E+02  0.10522607600E+03 -0.16547963958E+02  0.10843188287E+03  0.41800000000E+01 0. -1.
        -11    1    1    2    0    0  0.75895668291E+01 -0.24889910544E+02 -0.37492146595E+02  0.45637377531E+02  0.00000000000E+00 0.  1.
         11    1    1    2    0    0 -0.13387635969E+02 -0.64202314427E+02  0.65154421651E+02  0.92446009298E+02  0.00000000000E+00 0. -1.
</event>
<event>
 7    1  0.2749315E-009  0.6263388E+02  0.7561462E-02  0.1387100E+00
         -2   -1    0    0    0  501 -0.00000000000E+00  0.00000000000E+00  0.14321007853E+03  0.14321007853E+03  0.00000000000E+00 0.  1.
          2   -1    0    0  501    0  0.00000000000E+00 -0.00000000000E+00 -0.10862286656E+03  0.10862286656E+03  0.00000000000E+00 0. -1.
         25    2    1    2    0    0 -0.21139519512E+02 -0.43755191362E+02  0.60473491913E+02  0.14719338240E+03  0.12508977792E+03 0.  0.
          5    1    3    3  502    0 -0.85814711011E+01  0.18127542758E+01 -0.37283432344E+02  0.38528618606E+02  0.41800000000E+01 0.  1.
         -5    1    3    3    0  502 -0.12558048411E+02 -0.45567945638E+02  0.97756924257E+02  0.10866476379E+03  0.41800000000E+01 0.  1.
        -11    1    1    2    0    0  0.16697558851E+01 -0.10409693539E+02 -0.43252548129E+02  0.44518902996E+02  0.00000000000E+00 0. -1.
         11    1    1    2    0    0  0.19469763627E+02  0.54164884902E+02  0.17366268183E+02  0.60120659700E+02  0.00000000000E+00 0.  1.
</event>
<event>
 7    1  0.2749315E-009  0.1401970E+03  0.7561462E-02  0.1213064E+00
          1   -1    0    0  501    0  0.00000000000E+00  0.00000000000E+00  0.89586814264E+02  0.89586814264E+02  0.00000000000E+00 0. -1.
         -1   -1    0    0    0  501 -0.00000000000E+00 -0.00000000000E+00 -0.34623124374E+03  0.34623124374E+03  0.00000000000E+00 0.  1.
         25    2    1    2    0    0  0.91793916891E+02 -0.91815526389E+02 -0.79648471008E+02  0.19709662856E+03  0.12508792105E+03 0.  0.
          5    1    3    3  502    0  0.93675142898E+02 -0.86001479573E+02 -0.10855863094E+03  0.16725350710E+03  0.41800000000E+01 0.  1.
         -5    1    3    3    0  502 -0.18812260075E+01 -0.58140468162E+01  0.28910159929E+02  0.29843121466E+02  0.41800000000E+01 0.  1.
        -11    1    1    2    0    0 -0.39113869939E+02 -0.89374481309E+00 -0.96602413863E+01  0.40299055386E+02  0.00000000000E+00 0. -1.
         11    1    1    2    0    0 -0.52680046952E+02  0.92709271202E+02 -0.16733571708E+03  0.19842237405E+03  0.00000000000E+00 0.  1.
</event>
<event>
 7    1  0.2749315E-009  0.9285789E+02  0.7561462E-02  0.1296075E+00
          1   -1    0    0  501    0  0.00000000000E+00  0.00000000000E+00  0.39955810579E+03  0.39955810579E+03  0.00000000000E+00 0. -1.
         -1   -1    0    0    0  501 -0.00000000000E+00 -0.00000000000E+00 -0.44217024280E+02  0.44217024280E+02  0.00000000000E+00 0.  1.
         25    2    1    2    0    0  0.62296904862E+02  0.34900679358E+02  0.14917735807E+03  0.20735895992E+03  0.12507954399E+03 0.  0.
          5    1    3    3  502    0  0.52986146369E+02  0.25618617015E+02  0.14826148436E+01  0.59021316417E+02  0.41800000000E+01 0.  1.
         -5    1    3    3    0  502  0.93107584932E+01  0.92820623430E+01  0.14769474322E+03  0.14833764351E+03  0.41800000000E+01 0.  1.
        -11    1    1    2    0    0 -0.81780312194E+02 -0.11687174194E+02  0.17158363766E+03  0.19043517064E+03  0.00000000000E+00 0. -1.
         11    1    1    2    0    0  0.19483407332E+02 -0.23213505164E+02  0.34580085783E+02  0.45980999511E+02  0.00000000000E+00 0.  1.
</event>
<event>
 7    1  0.2749315E-009  0.7536517E+02  0.7561462E-02  0.1342744E+00
         -2   -1    0    0    0  501 -0.00000000000E+00  0.00000000000E+00  0.37452161111E+02  0.37452161111E+02  0.00000000000E+00 0.  1.
          2   -1    0    0  501    0  0.00000000000E+00 -0.00000000000E+00 -0.33451189675E+03  0.33451189675E+03  0.00000000000E+00 0. -1.
         25    2    1    2    0    0 -0.69436257841E+01  0.24403553536E+01 -0.21805630392E+03  0.25149596037E+03  0.12508995614E+03 0.  0.
          5    1    3    3  502    0 -0.10367693673E+02  0.44381608444E+02 -0.20058642934E+03  0.20574159588E+03  0.41800000000E+01 0. -1.
         -5    1    3    3    0  502  0.34240678888E+01 -0.41941253091E+02 -0.17469874583E+02  0.45754364488E+02  0.41800000000E+01 0. -1.
        -11    1    1    2    0    0  0.21599779376E+02 -0.26693005066E+02  0.22539049364E+01  0.34411438156E+02  0.00000000000E+00 0.  1.
         11    1    1    2    0    0 -0.14656153592E+02  0.24252649712E+02 -0.81257336652E+02  0.86056659335E+02  0.00000000000E+00 0. -1.
</event>
<event>
 7    1  0.2749315E-009  0.9969544E+02  0.7561462E-02  0.1280938E+00
          2   -1    0    0  501    0  0.00000000000E+00  0.00000000000E+00  0.37090694900E+03  0.37090694900E+03  0.00000000000E+00 0. -1.
         -2   -1    0    0    0  501 -0.00000000000E+00 -0.00000000000E+00 -0.38149297648E+02  0.38149297648E+02  0.00000000000E+00 0.  1.
         25    2    1    2    0    0  0.42648446018E+02 -0.45360126009E+01  0.22299859110E+03  0.25925944685E+03  0.12509046242E+03 0.  0.
          5    1    3    3  502    0  0.12279650120E+02 -0.60016303310E+02  0.67028316871E+02  0.90901122835E+02  0.41800000000E+01 0. -1.
         -5    1    3    3    0  502  0.30368795898E+02  0.55480290709E+02  0.15597027423E+03  0.16835832401E+03  0.41800000000E+01 0. -1.
        -11    1    1    2    0    0 -0.11362585287E+01 -0.24128668096E+02  0.93837563763E+02  0.96896708306E+02  0.00000000000E+00 0. -1.
         11    1    1    2    0    0 -0.41512187489E+02  0.28664680697E+02  0.15921496487E+02  0.52900091493E+02  0.00000000000E+00 0.  1.
</event>
<event>
 7    1  0.2749315E-009  0.1882766E+03  0.7561462E-02  0.1160025E+00
          2   -1    0    0  501    0  0.00000000000E+00  0.00000000000E+00  0.16094312383E+04  0.16094312383E+04  0.00000000000E+00 0. -1.
         -2   -1    0    0    0  501 -0.00000000000E+00 -0.00000000000E+00 -0.27647527255E+02  0.27647527255E+02  0.00000000000E+00 0.  1.
         25    2    1    2    0    0  0.17812953106E+03 -0.18245131389E+02  0.70439893441E+03  0.73748720308E+03  0.12508597547E+03 0.  0.
          5    1    3    3  502    0  0.89775927155E+02 -0.54393622337E+01  0.14275957858E+03  0.16878114063E+03  0.41800000000E+01 0. -1.
         -5    1    3    3    0  502  0.88353603905E+02 -0.12805769155E+02  0.56163935583E+03  0.56870606245E+03  0.41800000000E+01 0. -1.
        -11    1    1    2    0    0 -0.33353882009E+02  0.38518683444E+02  0.18144211066E+03  0.18846063234E+03  0.00000000000E+00 0. -1.
         11    1    1    2    0    0 -0.14477564905E+03 -0.20273552055E+02  0.69594266594E+03  0.71113093010E+03  0.00000000000E+00 0.  1.
</event>
<event>
 7    1  0.2749315E-009  0.9219778E+02  0.7561462E-02  0.1297615E+00
          2   -1    0    0  501    0  0.00000000000E+00  0.00000000000E+00  0.19982041798E+03  0.19982041798E+03  0.00000000000E+00 0. -1.
         -2   -1    0    0    0  501 -0.00000000000E+00 -0.00000000000E+00 -0.72366963599E+02  0.72366963599E+02  0.00000000000E+00 0.  1.
         25    2    1    2    0    0  0.12740036438E+02  0.30569688505E+02  0.27504692504E+02  0.13228953739E+03  0.12508876532E+03 0.  0.
          5    1    3    3  502    0 -0.13649224725E+02 -0.24902668940E+02 -0.34518924079E+02  0.44894017146E+02  0.41800000000E+01 0. -1.
         -5    1    3    3    0  502  0.26389261163E+02  0.55472357445E+02  0.62023616583E+02  0.87395520247E+02  0.41800000000E+01 0. -1.
        -11    1    1    2    0    0 -0.42977386954E+02  0.94080715014E+01  0.66142777808E+02  0.79438244284E+02  0.00000000000E+00 0. -1.
         11    1    1    2    0    0  0.30237350516E+02 -0.39977760006E+02  0.33805984069E+02  0.60459599901E+02  0.00000000000E+00 0.  1.
</event>
<event>
 7    1  0.2749315E-009  0.2962777E+03  0.7561462E-02  0.1087116E+00
          2   -1    0    0  501    0  0.00000000000E+00  0.00000000000E+00  0.16033280790E+04  0.16033280790E+04  0.00000000000E+00 0.  1.
         -2   -1    0    0    0  501 -0.00000000000E+00 -0.00000000000E+00 -0.81467989026E+02  0.81467989026E+02  0.00000000000E+00 0. -1.
         25    2    1    2    0    0  0.18503371642E+03  0.22171325513E+03  0.12094726441E+04  0.12497464462E+04  0.12509140437E+03 0.  0.
          5    1    3    3  502    0  0.94477150298E+02  0.15227259064E+03  0.50036541513E+03  0.53150342882E+03  0.41800000000E+01 0.  1.
         -5    1    3    3    0  502  0.90556566122E+02  0.69440664489E+02  0.70910722893E+03  0.71824301742E+03  0.41800000000E+01 0.  1.
        -11    1    1    2    0    0 -0.54651897269E+02 -0.12609021438E+03  0.11013908649E+03  0.17611414029E+03  0.00000000000E+00 0.  1.
         11    1    1    2    0    0 -0.13038181915E+03 -0.95623040742E+02  0.20224835943E+03  0.25893548149E+03  0.00000000000E+00 0. -1.
</event>
<event>
 7    1  0.2749315E-009  0.1299119E+03  0.7561462E-02  0.1227586E+00
         -2   -1    0    0    0  501 -0.00000000000E+00  0.00000000000E+00  0.73617731953E+02  0.73617731953E+02  0.00000000000E+00 0.  1.
          2   -1    0    0  501    0  0.00000000000E+00 -0.00000000000E+00 -0.32211272547E+03  0.32211272547E+03  0.00000000000E+00 0. -1.
         25    2    1    2    0    0  0.96596418990E+02  0.69104961014E+01 -0.19423163013E+03  0.25050284068E+03  0.12508846442E+03 0.  0.
          5    1    3    3  502    0  0.68102037768E+02 -0.43816922210E+02 -0.50859106336E+02  0.95717978027E+02  0.41800000000E+01 0.  1.
         -5    1    3    3    0  502  0.28494381222E+02  0.50727418312E+02 -0.14337252379E+03  0.15478486266E+03  0.41800000000E+01 0.  1.
        -11    1    1    2    0    0 -0.15384651932E+02  0.28045397249E+02  0.12596256343E+02  0.34378736099E+02  0.00000000000E+00 0.  1.
         11    1    1    2    0    0 -0.81211767059E+02 -0.34955893351E+02 -0.66859619737E+02  0.11084888064E+03  0.00000000000E+00 0. -1.
</event>
<event>
 7    1  0.2749315E-009  0.9618561E+02  0.7561462E-02  0.1288528E+00
         -2   -1    0    0    0  501 -0.00000000000E+00  0.00000000000E+00  0.14517416835E+02  0.14517416835E+02  0.00000000000E+00 0.  1.
          2   -1    0    0  501    0  0.00000000000E+00 -0.00000000000E+00 -0.81751158995E+03  0.81751158995E+03  0.00000000000E+00 0. -1.
         25    2    1    2    0    0  0.38802374962E+01  0.24333112313E+01 -0.42915699347E+03  0.44704010582E+03  0.12509258141E+03 0.  0.
          5    1    3    3  502    0  0.41566946622E+02 -0.34207340381E+02 -0.99625027823E+02  0.11331624666E+03  0.41800000000E+01 0.  1.
         -5    1    3    3    0  502 -0.37686709126E+02  0.36640651613E+02 -0.32953196564E+03  0.33372385917E+03  0.41800000000E+01 0.  1.
        -11    1    1    2    0    0 -0.24048065018E+02 -0.37878143360E+02 -0.26481721371E+03  0.26859117605E+03  0.00000000000E+00 0. -1.
         11    1    1    2    0    0  0.20167827522E+02  0.35444832129E+02 -0.10901996594E+03  0.11639772491E+03  0.00000000000E+00 0.  1.
</event>
<event>
 7    1  0.2749315E-009  0.1153458E+03  0.7561462E-02  0.1250979E+00
         -4   -1    0    0    0  501 -0.00000000000E+00  0.00000000000E+00  0.44105567725E+02  0.44105567725E+02  0.00000000000E+00 0.  1.
          4   -1    0    0  501    0  0.00000000000E+00 -0.00000000000E+00 -0.33162545195E+03  0.33162545195E+03  0.00000000000E+00 0. -1.
         25    2    1    2    0    0  0.48857852486E+02 -0.21834121521E+00 -0.20326192687E+03  0.24362148040E+03  0.12509547304E+03 0.  0.
          5    1    3    3  502    0  0.76054057893E+02 -0.39898550128E+02 -0.12788254407E+03  0.15410234100E+03  0.41800000000E+01 0. -1.
         -5    1    3    3    0  502 -0.27196205407E+02  0.39680208913E+02 -0.75379382804E+02  0.89519139404E+02  0.41800000000E+01 0. -1.
        -11    1    1    2    0    0 -0.70278906920E+02  0.13004237182E+02 -0.79152111305E+02  0.10664563595E+03  0.00000000000E+00 0. -1.
         11    1    1    2    0    0  0.21421054434E+02 -0.12785895967E+02 -0.51058460523E+01  0.25463903327E+02  0.00000000000E+00 0.  1.
</event>
<event>
 7    1  0.2749315E-009  0.1093170E+03  0.7561462E-02  0.1261840E+00
          2   -1    0    0  501    0  0.00000000000E+00  0.00000000000E+00  0.60791727631E+03  0.60791727631E+03  0.00000000000E+00 0. -1.
         -2   -1    0    0    0  501 -0.00000000000E+00 -0.00000000000E+00 -0.34472815357E+02  0.34472815357E+02  0.00000000000E+00 0.  1.
         25    2    1    2    0    0 -0.94660738763E+02 -0.12702332439E+02  0.25394708237E+03  0.29876070163E+03  0.12508729543E+03 0.  0.
          5    1    3    3  502    0 -0.10482897174E+03 -0.34002410530E+01  0.10277499785E+03  0.14690421212E+03  0.41800000000E+01 0. -1.
         -5    1    3    3    0  502  0.10168232982E+02 -0.93020913858E+01  0.15117208452E+03  0.15185648950E+03  0.41800000000E+01 0. -1.
        -11    1    1    2    0    0  0.62628320123E+02  0.21210081585E+02  0.29525017357E+03  0.30256377681E+03  0.00000000000E+00 0. -1.
         11    1    1    2    0    0  0.32032418639E+02 -0.85077491462E+01  0.24247205012E+02  0.41065613234E+02  0.00000000000E+00 0.  1.
</event>
<event>
 7    1  0.2749315E-009  0.1033229E+03  0.7561462E-02  0.1273460E+00
          1   -1    0    0  501    0  0.00000000000E+00  0.00000000000E+00  0.25244334506E+04  0.25244334506E+04  0.00000000000E+00 0. -1.
         -1   -1    0    0    0  501 -0.00000000000E+00 -0.00000000000E+00 -0.77146139127E+01  0.77146139127E+01  0.00000000000E+00 0.  1.
         25    2    1    2    0    0  0.55792201346E+02  0.20549421285E+02  0.20019355718E+04  0.20067207629E+04  0.12508852217E+03 0.  0.
          5    1    3    3  502    0 -0.12032834820E+02 -0.19821374413E+02  0.13214586242E+04  0.13216686589E+04  0.41800000000E+01 0. -1.
         -5    1    3    3    0  502  0.67825036166E+02  0.40370795698E+02  0.68047694753E+03  0.68505210400E+03  0.41800000000E+01 0. -1.
        -11    1    1    2    0    0 -0.43698423307E+02  0.29388506705E+02  0.29973107527E+03  0.30432212211E+03  0.00000000000E+00 0. -1.
         11    1    1    2    0    0 -0.12093778039E+02 -0.49937927990E+02  0.21505218967E+03  0.22110517950E+03  0.00000000000E+00 0.  1.
</event>
<event>
 7    1  0.2749315E-009  0.1154568E+03  0.7561462E-02  0.1250786E+00
          3   -1    0    0  501    0  0.00000000000E+00  0.00000000000E+00  0.89407178759E+02  0.89407178759E+02  0.00000000000E+00 0. -1.
         -3   -1    0    0    0  501 -0.00000000000E+00 -0.00000000000E+00 -0.20671537432E+03  0.20671537432E+03  0.00000000000E+00 0.  1.
         25    2    1    2    0    0 -0.77410515724E+02  0.25122035199E+02 -0.65633277242E+02  0.16303012849E+03  0.12509033183E+03 0.  0.
          5    1    3    3  502    0 -0.28315021488E+02 -0.49013808747E+02 -0.88501531780E+01  0.57444682095E+02  0.41800000000E+01 0.  1.
         -5    1    3    3    0  502 -0.49095494236E+02  0.74135843945E+02 -0.56783124064E+02  0.10558544639E+03  0.41800000000E+01 0.  1.
        -11    1    1    2    0    0  0.49153283728E+02 -0.29878852515E+01 -0.75407018812E+02  0.90062152126E+02  0.00000000000E+00 0.  1.
         11    1    1    2    0    0  0.28257231996E+02 -0.22134149947E+02  0.23732100497E+02  0.43030272460E+02  0.00000000000E+00 0. -1.
</event>
<event>
 7    1  0.2749315E-009  0.9470386E+02  0.7561462E-02  0.1291844E+00
          2   -1    0    0  501    0  0.00000000000E+00  0.00000000000E+00  0.11969356482E+03  0.11969356482E+03  0.00000000000E+00 0. -1.
         -2   -1    0    0    0  501 -0.00000000000E+00 -0.00000000000E+00 -0.12030119392E+03  0.12030119392E+03  0.00000000000E+00 0.  1.
         25    2    1    2    0    0 -0.19442039924E+02 -0.36168315803E+02 -0.25178488900E+02  0.13404410940E+03  0.12509087487E+03 0.  0.
          5    1    3    3  502    0  0.34674752746E+02  0.62500000997E-01  0.31932731798E+02  0.47323505199E+02  0.41800000000E+01 0. -1.
         -5    1    3    3    0  502 -0.54116792670E+02 -0.36230815804E+02 -0.57111220697E+02  0.86720604197E+02  0.41800000000E+01 0. -1.
        -11    1    1    2    0    0 -0.42185952913E+01 -0.24105099644E+02  0.32535708286E+02  0.40711481044E+02  0.00000000000E+00 0. -1.
         11    1    1    2    0    0  0.23660635215E+02  0.60273415448E+02 -0.79648484865E+01  0.65239168296E+02  0.00000000000E+00 0.  1.
</event>
<event>
 7    1  0.2749315E-009  0.1565850E+03  0.7561462E-02  0.1192607E+00
          1   -1    0    0  501    0  0.00000000000E+00  0.00000000000E+00  0.73295717345E+03  0.73295717345E+03  0.00000000000E+00 0. -1.
         -1   -1    0    0    0  501 -0.00000000000E+00 -0.00000000000E+00 -0.36838386152E+02  0.36838386152E+02  0.00000000000E+00 0.  1.
         25    2    1    2    0    0  0.70761353674E+02 -0.94152589354E+02  0.48894304086E+03  0.51825255934E+03  0.12509411977E+03 0.  0.
          5    1    3    3  502    0  0.10577370343E+03 -0.57044456054E+02  0.35823885338E+03  0.37788185293E+03  0.41800000000E+01 0.  1.
         -5    1    3    3    0  502 -0.35012349759E+02 -0.37108133301E+02  0.13070418747E+03  0.14037070640E+03  0.41800000000E+01 0.  1.
        -11    1    1    2    0    0 -0.90768539514E+01  0.77240021893E+02  0.99294046821E+02  0.12612580225E+03  0.00000000000E+00 0.  1.
         11    1    1    2    0    0 -0.61684499723E+02  0.16912567462E+02  0.10788169962E+03  0.12541719801E+03  0.00000000000E+00 0. -1.
</event>
<event>
 7    1  0.2749315E-009  0.1219206E+03  0.7561462E-02  0.1239962E+00
          2   -1    0    0  501    0  0.00000000000E+00  0.00000000000E+00  0.67055292748E+03  0.67055292748E+03  0.00000000000E+00 0. -1.
         -2   -1    0    0    0  501 -0.00000000000E+00 -0.00000000000E+00 -0.28282100004E+02  0.28282100004E+02  0.00000000000E+00 0.  1.
         25    2    1    2    0    0 -0.76669616430E+02 -0.27186217687E+02  0.28752252023E+03  0.32393538514E+03  0.12509042166E+03 0.  0.
          5    1    3    3  502    0 -0.14749378637E+02  0.48275766170E+02  0.82221711480E+02  0.96571093026E+02  0.41800000000E+01 0.  1.
         -5    1    3    3    0  502 -0.61920237793E+02 -0.75461983857E+02  0.20530080875E+03  0.22736429212E+03  0.41800000000E+01 0.  1.
        -11    1    1    2    0    0  0.52358447770E+02 -0.77439289984E+01  0.30443373742E+03  0.30900044655E+03  0.00000000000E+00 0. -1.
         11    1    1    2    0    0  0.24311168660E+02  0.34930146685E+02  0.50314569823E+02  0.65899195788E+02  0.00000000000E+00 0.  1.
</event>
<event>
 7    1  0.3005489E-009  0.1222335E+03  0.7561462E-02  0.1239457E+00
         -1   -1    0    0    0  501 -0.00000000000E+00  0.00000000000E+00  0.19767582011E+02  0.19767582011E+02  0.00000000000E+00 0.  1.
          1   -1    0    0  501    0  0.00000000000E+00 -0.00000000000E+00 -0.80939233221E+03  0.80939233221E+03  0.00000000000E+00 0. -1.
         25    2    1    2    0    0 -0.27141261993E+02 -0.57472224509E+02 -0.47207057668E+03  0.49248081304E+03  0.12508803761E+03 0.  0.
          5    1    3    3  502    0 -0.58658362957E+02  0.92264869613E+01 -0.28890014034E+03  0.29496897310E+03  0.41800000000E+01 0.  1.
         -5    1    3    3    0  502  0.31517100965E+02 -0.66698711471E+02 -0.18317043634E+03  0.19751183993E+03  0.41800000000E+01 0.  1.
        -11    1    1    2    0    0 -0.30510905681E+02  0.40973293960E+02 -0.12615620051E+03  0.13610699141E+03  0.00000000000E+00 0.  1.
         11    1    1    2    0    0  0.57652167673E+02  0.16498930549E+02 -0.19139797301E+03  0.20057210978E+03  0.00000000000E+00 0. -1.
</event>
<event>
 7    1  0.2749315E-009  0.1134832E+03  0.7561462E-02  0.1254252E+00
         -2   -1    0    0    0  501 -0.00000000000E+00  0.00000000000E+00  0.78040771479E+03  0.78040771479E+03  0.00000000000E+00 0. -1.
          2   -1    0    0  501    0  0.00000000000E+00 -0.00000000000E+00 -0.37614105195E+02  0.37614105195E+02  0.00000000000E+00 0.  1.
         25    2    1    2    0    0  0.84381350026E+01 -0.96900278979E+02  0.60735101215E+03  0.62768245179E+03  0.12509653127E+03 0.  0.
          5    1    3    3  502    0  0.22792801916E+01 -0.11220722642E+03  0.30781516499E+03  0.32766340195E+03  0.41800000000E+01 0. -1.
         -5    1    3    3    0  502  0.61588548110E+01  0.15306947445E+02  0.29953584715E+03  0.30001904983E+03  0.41800000000E+01 0. -1.
        -11    1    1    2    0    0 -0.34053860674E+01  0.78132220252E+02  0.31035366229E+02  0.84139375162E+02  0.00000000000E+00 0.  1.
         11    1    1    2    0    0 -0.50327489352E+01  0.18768058727E+02  0.10440723121E+03  0.10619999303E+03  0.00000000000E+00 0. -1.
</event>
<event>
 7    1  0.2749315E-009  0.1823699E+03  0.7561462E-02  0.1165529E+00
         -1   -1    0    0    0  501 -0.00000000000E+00  0.00000000000E+00  0.68977888056E+02  0.68977888056E+02  0.00000000000E+00 0.  1.
          1   -1    0    0  501    0  0.00000000000E+00 -0.00000000000E+00 -0.61416029232E+03  0.61416029232E+03  0.00000000000E+00 0. -1.
         25    2    1    2    0    0  0.10875464538E+03 -0.12892489969E+03 -0.35346281578E+03  0.41113487093E+03  0.12508683905E+03 0.  0.
          5    1    3    3  502    0  0.76169665307E+02 -0.53859829146E+02 -0.29774827018E+03  0.31204839994E+03  0.41800000000E+01 0. -1.
         -5    1    3    3    0  502  0.32584980076E+02 -0.75065070542E+02 -0.55714545599E+02  0.99086470991E+02  0.41800000000E+01 0. -1.
        -11    1    1    2    0    0 -0.96587869057E+02  0.48503745784E+02 -0.13455183690E+03  0.17258628745E+03  0.00000000000E+00 0. -1.
         11    1    1    2    0    0 -0.12166776326E+02  0.80421153904E+02 -0.57167751590E+02  0.99417021999E+02  0.00000000000E+00 0.  1.
</event>
<event>
 7    1  0.2749315E-009  0.1483532E+03  0.7561462E-02  0.1202511E+00
          2   -1    0    0  501    0  0.00000000000E+00  0.00000000000E+00  0.63792189618E+03  0.63792189618E+03  0.00000000000E+00 0. -1.
         -2   -1    0    0    0  501 -0.00000000000E+00 -0.00000000000E+00 -0.53762220861E+02  0.53762220861E+02  0.00000000000E+00 0.  1.
         25    2    1    2    0    0 -0.33927342898E+02  0.11709402390E+03  0.46917468999E+03  0.50063495413E+03  0.12509353515E+03 0.  0.
          5    1    3    3  502    0  0.11342476307E+02  0.12745368013E+03  0.34062543070E+03  0.36389043514E+03  0.41800000000E+01 0. -1.
         -5    1    3    3    0  502 -0.45269819204E+02 -0.10359656231E+02  0.12854925929E+03  0.13674451899E+03  0.41800000000E+01 0. -1.
        -11    1    1    2    0    0  0.62944856044E+01 -0.31020474680E+02  0.92682324708E+02  0.97938264798E+02  0.00000000000E+00 0. -1.
         11    1    1    2    0    0  0.27632857293E+02 -0.86073549223E+02  0.22302660624E+02  0.93110898121E+02  0.00000000000E+00 0.  1.
</event>
<event>
 7    1  0.2749315E-009  0.1173114E+03  0.7561462E-02  0.1247599E+00
         -2   -1    0    0    0  501 -0.00000000000E+00  0.00000000000E+00  0.32699571600E+03  0.32699571600E+03  0.00000000000E+00 0.  1.
          2   -1    0    0  501    0  0.00000000000E+00 -0.00000000000E+00 -0.57819685906E+02  0.57819685906E+02  0.00000000000E+00 0. -1.
         25    2    1    2    0    0  0.77808656007E+02  0.13558289223E+02  0.12265117967E+03  0.19217208681E+03  0.12509510349E+03 0.  0.
          5    1    3    3  502    0  0.51945415081E+02  0.51218204826E+02  0.12655017197E+03  0.14613024697E+03  0.41800000000E+01 0. -1.
         -5    1    3    3    0  502  0.25863240926E+02 -0.37659915604E+02 -0.38989923017E+01  0.46041839835E+02  0.41800000000E+01 0. -1.
        -11    1    1    2    0    0 -0.23625837134E+02  0.35461322064E+02  0.92277661153E+02  0.10164080032E+03  0.00000000000E+00 0.  1.
         11    1    1    2    0    0 -0.54182818873E+02 -0.49019611286E+02  0.54247189269E+02  0.91002514774E+02  0.00000000000E+00 0. -1.
</event>
<event>
 7    1  0.2749315E-009  0.9274968E+02  0.7561462E-02  0.1296326E+00
         -2   -1    0    0    0  501 -0.00000000000E+00  0.00000000000E+00  0.53736912018E+02  0.53736912018E+02  0.00000000000E+00 0.  1.
          2   -1    0    0  501    0  0.00000000000E+00 -0.00000000000E+00 -0.31171694411E+03  0.31171694411E+03  0.00000000000E+00 0. -1.
         25    2    1    2    0    0  0.17837616088E+02 -0.68122998695E+02 -0.15233263318E+03  0.20931431038E+03  0.12509326881E+03 0.  0.
          5    1    3    3  502    0  0.19492190385E+02 -0.59895290648E+02 -0.68123444872E+01  0.63492296896E+02  0.41800000000E+01 0.  1.
         -5    1    3    3    0  502 -0.16545742965E+01 -0.82277080475E+01 -0.14552028870E+03  0.14582201349E+03  0.41800000000E+01 0.  1.
        -11    1    1    2    0    0  0.35046751069E+02  0.15265733996E+02 -0.49974498099E+02  0.62918740095E+02  0.00000000000E+00 0.  1.
         11    1    1    2    0    0 -0.52884367157E+02  0.52857264699E+02 -0.55672900814E+02  0.93220805650E+02  0.00000000000E+00 0. -1.
</event>
<event>
 7    1  0.2749315E-009  0.8987041E+02  0.7561462E-02  0.1303166E+00
         -3   -1    0    0    0  501 -0.00000000000E+00  0.00000000000E+00  0.24923008588E+02  0.24923008588E+02  0.00000000000E+00 0.  1.
          3   -1    0    0  501    0  0.00000000000E+00 -0.00000000000E+00 -0.54236903564E+03  0.54236903564E+03  0.00000000000E+00 0. -1.
         25    2    1    2    0    0  0.36403097333E+01  0.17566595954E+02 -0.37598555071E+03  0.39665756065E+03  0.12510095495E+03 0.  0.
          5    1    3    3  502    0  0.26415384224E+02 -0.24838850222E+02 -0.29808086724E+02  0.47124679714E+02  0.41800000000E+01 0. -1.
         -5    1    3    3    0  502 -0.22775074490E+02  0.42405446176E+02 -0.34617746398E+03  0.34953288093E+03  0.41800000000E+01 0. -1.
        -11    1    1    2    0    0  0.10723211449E+02  0.36988463949E+02 -0.66051269449E+02  0.76458511134E+02  0.00000000000E+00 0. -1.
         11    1    1    2    0    0 -0.14363521183E+02 -0.54555059903E+02 -0.75409206898E+02  0.94175972449E+02  0.00000000000E+00 0.  1.
</event>
<event>
 7    1  0.2749315E-009  0.1553076E+03  0.7561462E-02  0.1194099E+00
          1   -1    0    0  501    0  0.00000000000E+00  0.00000000000E+00  0.65806440893E+03  0.65806440893E+03  0.00000000000E+00 0. -1.
         -1   -1    0    0    0  501 -0.00000000000E+00 -0.00000000000E+00 -0.61202281758E+02  0.61202281758E+02  0.00000000000E+00 0.  1.
         25    2    1    2    0    0  0.13594214735E+03 -0.51110307804E+02  0.46389621294E+03  0.50193649092E+03  0.12509202030E+03 0.  0.
          5    1    3    3  502    0  0.58379795257E+02 -0.30308867476E+02  0.56904633492E+02  0.87077193655E+02  0.41800000000E+01 0. -1.
         -5    1    3    3    0  502  0.77562352097E+02 -0.20801440327E+02  0.40699157945E+03  0.41485929727E+03  0.41800000000E+01 0. -1.
        -11    1    1    2    0    0 -0.39540472602E+02  0.55086494526E+02  0.87422873812E+02  0.11063783132E+03  0.00000000000E+00 0.  1.
         11    1    1    2    0    0 -0.96401674752E+02 -0.39761867223E+01  0.45543040416E+02  0.10669236845E+03  0.00000000000E+00 0. -1.
</event>
<event>
 7    1  0.2749315E-009  0.7212494E+02  0.7561462E-02  0.1353013E+00
         -3   -1    0    0    0  501 -0.00000000000E+00  0.00000000000E+00  0.63592564203E+03  0.63592564203E+03  0.00000000000E+00 0.  1.
          3   -1    0    0  501    0  0.00000000000E+00 -0.00000000000E+00 -0.22651090259E+02  0.22651090259E+02  0.00000000000E+00 0. -1.
         25    2    1    2    0    0  0.35590161694E+02  0.15664578648E+02  0.43782521477E+03  0.45700101496E+03  0.12508785053E+03 0.  0.
          5    1    3    3  502    0  0.23355484059E+02  0.40003954035E+02  0.50342058145E+02  0.68538968421E+02  0.41800000000E+01 0. -1.
         -5    1    3    3    0  502  0.12234677635E+02 -0.24339375386E+02  0.38748315662E+03  0.38846204654E+03  0.41800000000E+01 0. -1.
        -11    1    1    2    0    0 -0.18312790112E+02  0.22069159656E+02  0.15038110372E+03  0.15309109198E+03  0.00000000000E+00 0.  1.
         11    1    1    2    0    0 -0.17277371582E+02 -0.37733738305E+02  0.25068233288E+02  0.48484625351E+02  0.00000000000E+00 0. -1.
</event>
<event>
 7    1  0.3051713E-009  0.1857444E+03  0.7561462E-02  0.1162357E+00
         -4   -1    0    0    0  501 -0.00000000000E+00  0.00000000000E+00  0.46113705814E+02  0.46113705814E+02  0.00000000000E+00 0.  1.
          4   -1    0    0  501    0  0.00000000000E+00 -0.00000000000E+00 -0.87897159009E+03  0.87897159009E+03  0.00000000000E+00 0. -1.
         25    2    1    2    0    0  0.87275025630E+02 -0.14200242490E+03 -0.36906857750E+03  0.42384097776E+03  0.12509172939E+03 0.  0.
          5    1    3    3  502    0  0.26196359679E+02 -0.11572577548E+03 -0.31936674000E+03  0.34072172133E+03  0.41800000000E+01 0. -1.
         -5    1    3    3    0  502  0.61078665951E+02 -0.26276649415E+02 -0.49701837498E+02  0.83119256430E+02  0.41800000000E+01 0. -1.
        -11    1    1    2    0    0 -0.93167268188E+02  0.76994447990E+02 -0.24949661126E+03  0.27723066914E+03  0.00000000000E+00 0.  1.
         11    1    1    2    0    0  0.58922425581E+01  0.65007976909E+02 -0.21429269552E+03  0.22401364900E+03  0.00000000000E+00 0. -1.
</event>
<event>
 7    1  0.2749315E-009  0.8004801E+02  0.7561462E-02  0.1328915E+00
          1   -1    0    0  501    0  0.00000000000E+00  0.00000000000E+00  0.22809800028E+03  0.22809800028E+03  0.00000000000E+00 0. -1.
         -1   -1    0    0    0  501 -0.00000000000E+00 -0.00000000000E+00 -0.65366329036E+02  0.65366329036E+02  0.00000000000E+00 0.  1.
         25    2    1    2    0    0  0.89048763523E+01  0.54628904578E+02  0.89442552158E+02  0.16343429472E+03  0.12508870659E+03 0.  0.
          5    1    3    3  502    0  0.40526004187E+01  0.17850149261E+02 -0.31604610752E+02  0.36761055746E+02  0.41800000000E+01 0. -1.
         -5    1    3    3    0  502  0.48522759336E+01  0.36778755317E+02  0.12104716291E+03  0.12667323898E+03  0.41800000000E+01 0. -1.
        -11    1    1    2    0    0 -0.43609436728E+02 -0.53825184187E+02  0.63470169583E+02  0.93954222105E+02  0.00000000000E+00 0. -1.
         11    1    1    2    0    0  0.34704560375E+02 -0.80372039023E+00  0.98189495043E+01  0.36075812488E+02  0.00000000000E+00 0.  1.
</event>
<event>
 7    1  0.2749315E-009  0.9029926E+02  0.7561462E-02  0.1302129E+00
         -2   -1    0    0    0  501 -0.00000000000E+00  0.00000000000E+00  0.12518120224E+03  0.12518120224E+03  0.00000000000E+00 0.  1.
          2   -1    0    0  501    0  0.00000000000E+00 -0.00000000000E+00 -0.11201954429E+03  0.11201954429E+03  0.00000000000E+00 0. -1.
         25    2    1    2    0    0 -0.23027731290E+02 -0.42821599737E+02  0.57487538657E+01  0.13433086355E+03  0.12509103453E+03 0.  0.
          5    1    3    3  502    0 -0.20239591287E+01 -0.68860849036E+02  0.45150265322E+02  0.82473824934E+02  0.41800000000E+01 0. -1.
         -5    1    3    3    0  502 -0.21003772162E+02  0.26039249299E+02 -0.39401511457E+02  0.51857038617E+02  0.41800000000E+01 0. -1.
        -11    1    1    2    0    0 -0.86378678545E+01 -0.11863572824E+02  0.31889036849E+02  0.35103672064E+02  0.00000000000E+00 0.  1.
         11    1    1    2    0    0  0.31665599145E+02  0.54685172561E+02 -0.24476132757E+02  0.67766210916E+02  0.00000000000E+00 0. -1.
</event>
<event>
 7    1  0.2749315E-009  0.9404546E+02  0.7561462E-02  0.1293341E+00
         -1   -1    0    0    0  501 -0.00000000000E+00  0.00000000000E+00  0.31880461097E+02  0.31880461097E+02  0.00000000000E+00 0.  1.
          1   -1    0    0  501    0  0.00000000000E+00 -0.00000000000E+00 -0.51619393491E+03  0.51619393491E+03  0.00000000000E+00 0. -1.
         25    2    1    2    0    0 -0.90002388580E+01 -0.74477181841E+01 -0.42611476370E+03  0.44424974955E+03  0.12509026872E+03 0.  0.
          5    1    3    3  502    0  0.26723490759E+02  0.37843869393E+02 -0.32030414695E+03  0.32366421236E+03  0.41800000000E+01 0.  1.
         -5    1    3    3    0  502 -0.35723729617E+02 -0.45291587577E+02 -0.10581061675E+03  0.12058553719E+03  0.41800000000E+01 0.  1.
        -11    1    1    2    0    0  0.40372457049E+02 -0.17158950131E+02 -0.42178392241E+02  0.60855415781E+02  0.00000000000E+00 0. -1.
         11    1    1    2    0    0 -0.31372218191E+02  0.24606668315E+02 -0.16020317866E+02  0.42969230670E+02  0.00000000000E+00 0.  1.
</event>
<event>
 7    1  0.2749315E-009  0.8713584E+02  0.7561462E-02  0.1309940E+00
          2   -1    0    0  501    0  0.00000000000E+00  0.00000000000E+00  0.72347027678E+03  0.72347027678E+03  0.00000000000E+00 0. -1.
         -2   -1    0    0    0  501 -0.00000000000E+00 -0.00000000000E+00 -0.15311044819E+02  0.15311044819E+02  0.00000000000E+00 0.  1.
         25    2    1    2    0    0 -0.83477329758E+00  0.20143081520E+02  0.53184583346E+03  0.54672914526E+03  0.12508527944E+03 0.  0.
          5    1    3    3  502    0 -0.50124975672E+02  0.12605959293E+02  0.43144652290E+03  0.43455149053E+03  0.41800000000E+01 0.  1.
         -5    1    3    3    0  502  0.49290202375E+02  0.75371222261E+01  0.10039931056E+03  0.11217765474E+03  0.41800000000E+01 0.  1.
        -11    1    1    2    0    0 -0.31887419034E+02  0.33991337623E+01  0.49445457461E+02  0.58933987363E+02  0.00000000000E+00 0.  1.
         11    1    1    2    0    0  0.32722192332E+02 -0.23542215282E+02  0.12686794104E+03  0.13311818897E+03  0.00000000000E+00 0. -1.
</event>
<event>
 7    1  0.2749315E-009  0.1199650E+03  0.7561462E-02  0.1243155E+00
         -3   -1    0    0    0  501 -0.00000000000E+00  0.00000000000E+00  0.78154750689E+03  0.78154750689E+03  0.00000000000E+00 0.  1.
          3   -1    0    0  501    0  0.00000000000E+00 -0.00000000000E+00 -0.22497497799E+02  0.22497497799E+02  0.00000000000E+00 0. -1.
         25    2    1    2    0    0  0.30300984000E+02  0.12010099658E+02  0.24468234822E+03  0.27672816155E+03  0.12508649703E+03 0.  0.
          5    1    3    3  502    0  0.50519045046E+02 -0.42393497037E+02  0.91513671547E+02  0.11287872689E+03  0.41800000000E+01 0. -1.
         -5    1    3    3    0  502 -0.20218061046E+02  0.54403596694E+02  0.15316867667E+03  0.16384943467E+03  0.41800000000E+01 0. -1.
        -11    1    1    2    0    0 -0.64630673829E+02 -0.35807516218E+02  0.35110200117E+03  0.35879230405E+03  0.00000000000E+00 0.  1.
         11    1    1    2    0    0  0.34329689829E+02  0.23797416561E+02  0.16326565970E+03  0.16852453909E+03  0.00000000000E+00 0. -1.
</event>
<event>
 7    1  0.2749315E-009  0.1104621E+03  0.7561462E-02  0.1259717E+00
         -4   -1    0    0    0  501 -0.00000000000E+00  0.00000000000E+00  0.36819882483E+03  0.36819882483E+03  0.00000000000E+00 0.  1.
          4   -1    0    0  501    0  0.00000000000E+00 -0.00000000000E+00 -0.43405651083E+02  0.43405651083E+02  0.00000000000E+00 0. -1.
         25    2    1    2    0    0  0.14528459743E+02 -0.46400351053E+02  0.12309091742E+03  0.18210880600E+03  0.12509266386E+03 0.  0.
          5    1    3    3  502    0  0.71502533622E+01  0.37340202843E+02  0.77408255517E+02  0.86341920836E+02  0.41800000000E+01 0.  1.
         -5    1    3    3    0  502  0.73782063813E+01 -0.83740553895E+02  0.45682661905E+02  0.95766885168E+02  0.41800000000E+01 0.  1.
        -11    1    1    2    0    0 -0.42043255946E+02 -0.27998244944E+01  0.13868356635E+03  0.14494345781E+03  0.00000000000E+00 0. -1.
         11    1    1    2    0    0  0.27514796203E+02  0.49200175547E+02  0.63018689982E+02  0.84552212100E+02  0.00000000000E+00 0.  1.
</event>
<event>
 7    1  0.2749315E-009  0.1111560E+03  0.7561462E-02  0.1258444E+00
         -2   -1    0    0    0  501 -0.00000000000E+00  0.00000000000E+00  0.30620755537E+02  0.30620755537E+02  0.00000000000E+00 0.  1.
          2   -1    0    0  501    0  0.00000000000E+00 -0.00000000000E+00 -0.52160131560E+03  0.52160131560E+03  0.00000000000E+00 0. -1.
         25    2    1    2    0    0 -0.17389922691E+02 -0.27028120420E+02 -0.39467495487E+03  0.41526944165E+03  0.12508980960E+03 0.  0.
          5    1    3    3  502    0 -0.59680231234E+02  0.22178318274E+02 -0.18064585955E+03  0.19158289791E+03  0.41800000000E+01 0.  1.
         -5    1    3    3    0  502  0.42290308542E+02 -0.49206438694E+02 -0.21402909532E+03  0.22368654374E+03  0.41800000000E+01 0.  1.
        -11    1    1    2    0    0  0.34610943666E+02 -0.22346679134E+02 -0.61902398425E+02  0.74358580007E+02  0.00000000000E+00 0. -1.
         11    1    1    2    0    0 -0.17221020975E+02  0.49374799554E+02 -0.34403206774E+02  0.62594049483E+02  0.00000000000E+00 0.  1.
</event>
<event>
 7    1  0.2749315E-009  0.1157485E+03  0.7561462E-02  0.1250280E+00
         -2   -1    0    0    0  501 -0.00000000000E+00  0.00000000000E+00  0.24028802212E+03  0.24028802212E+03  0.00000000000E+00 0.  1.
          2   -1    0    0  501    0  0.00000000000E+00 -0.00000000000E+00 -0.97752905250E+02  0.97752905250E+02  0.00000000000E+00 0. -1.
         25    2    1    2    0    0  0.39600112917E+02 -0.10088241660E+03  0.72117516534E+02  0.18054001965E+03  0.12509329152E+03 0.  0.
          5    1    3    3  502    0  0.48553508223E+02 -0.49294754983E+02 -0.22028021153E+02  0.72733225870E+02  0.41800000000E+01 0. -1.
         -5    1    3    3    0  502 -0.89533953062E+01 -0.51587661615E+02  0.94145537687E+02  0.10780679378E+03  0.41800000000E+01 0. -1.
        -11    1    1    2    0    0 -0.48104628690E+01  0.33274879501E+02 -0.20190603661E+02  0.39217580687E+02  0.00000000000E+00 0. -1.
         11    1    1    2    0    0 -0.34789650048E+02  0.67607537098E+02  0.90608203998E+02  0.11828332704E+03  0.00000000000E+00 0.  1.
</event>
<event>
 7    1  0.2749315E-009  0.5970812E+02  0.7561462E-02  0.1399061E+00
          1   -1    0    0  501    0  0.00000000000E+00  0.00000000000E+00  0.10407753118E+03  0.10407753118E+03  0.00000000000E+00 0. -1.
         -1   -1    0    0    0  501 -0.00000000000E+00 -0.00000000000E+00 -0.11596645385E+03  0.11596645385E+03  0.00000000000E+00 0.  1.
         25    2    1    2    0    0  0.14800456173E+02  0.57126103507E+01  0.70562889367E+01  0.12629099198E+03  0.12509171045E+03 0.  0.
          5    1    3    3  502    0  0.41604572901E+02  0.18727964498E+00  0.56102235869E+02  0.69970771251E+02  0.41800000000E+01 0. -1.
         -5    1    3    3    0  502 -0.26804116728E+02  0.55253307057E+01 -0.49045946932E+02  0.56320220734E+02  0.41800000000E+01 0. -1.
        -11    1    1    2    0    0  0.17218193234E+02  0.82309936171E+00 -0.47390456739E+02  0.50428157419E+02  0.00000000000E+00 0.  1.
         11    1    1    2    0    0 -0.32018649407E+02 -0.65357097124E+01  0.28445245127E+02  0.43324835622E+02  0.00000000000E+00 0. -1.
</event>
<event>
 7    1  0.2749315E-009  0.1237603E+03  0.7561462E-02  0.1237020E+00
         -1   -1    0    0    0  501 -0.00000000000E+00  0.00000000000E+00  0.99351799406E+02  0.99351799406E+02  0.00000000000E+00 0.  1.
          1   -1    0    0  501    0  0.00000000000E+00 -0.00000000000E+00 -0.21639300905E+03  0.21639300905E+03  0.00000000000E+00 0. -1.
         25    2    1    2    0    0  0.90201566887E+02 -0.14350770598E+02 -0.23957408472E+02  0.15672782645E+03  0.12508951546E+03 0.  0.
          5    1    3    3  502    0  0.97255718845E+02  0.29477414777E+02 -0.40067409411E+02  0.10931817107E+03  0.41800000000E+01 0. -1.
         -5    1    3    3    0  502 -0.70541519580E+01 -0.43828185374E+02  0.16110000940E+02  0.47409655381E+02  0.41800000000E+01 0. -1.
        -11    1    1    2    0    0 -0.71553711343E+02  0.29300789787E+02 -0.16864790945E+02  0.79138429747E+02  0.00000000000E+00 0.  1.
         11    1    1    2    0    0 -0.18647855544E+02 -0.14950019189E+02 -0.76219010230E+02  0.79878552257E+02  0.00000000000E+00 0. -1.
</event>
<event>
 7    1  0.2749315E-009  0.7268387E+02  0.7561462E-02  0.1351197E+00
          1   -1    0    0  501    0  0.00000000000E+00  0.00000000000E+00  0.31894551883E+02  0.31894551883E+02  0.00000000000E+00 0. -1.
         -1   -1    0    0    0  501 -0.00000000000E+00 -0.00000000000E+00 -0.40686198345E+03  0.40686198345E+03  0.00000000000E+00 0.  1.
         25    2    1    2    0    0 -0.30877732918E+02 -0.12741218138E+02 -0.24007043089E+03  0.27275656347E+03  0.12508620267E+03 0.  0.
          5    1    3    3  502    0 -0.47968679697E+02 -0.37829675556E+02 -0.46794945022E+02  0.77066969995E+02  0.41800000000E+01 0.  1.
         -5    1    3    3    0  502  0.17090946779E+02  0.25088457418E+02 -0.19327548586E+03  0.19568959347E+03  0.41800000000E+01 0.  1.
        -11    1    1    2    0    0  0.19740038644E+02  0.28209417296E+02 -0.14165301291E+03  0.14577728361E+03  0.00000000000E+00 0.  1.
         11    1    1    2    0    0  0.11137694274E+02 -0.15468199158E+02  0.67560122324E+01  0.20222688254E+02  0.00000000000E+00 0. -1.
</event>
<event>
 7    1  0.2749315E-009  0.9119702E+02  0.7561462E-02  0.1299979E+00
         -2   -1    0    0    0  501 -0.00000000000E+00  0.00000000000E+00  0.53462321347E+02  0.53462321347E+02  0.00000000000E+00 0.  1.
          2   -1    0    0  501    0  0.00000000000E+00 -0.00000000000E+00 -0.30463443000E+03  0.30463443000E+03  0.00000000000E+00 0. -1.
         25    2    1    2    0    0 -0.25433673808E+02  0.40102527279E+02 -0.20012172735E+03  0.24072935987E+03  0.12508730747E+03 0.  0.
          5    1    3    3  502    0  0.32245613861E+02 -0.86950678613E+01 -0.85084995531E+01  0.34716721951E+02  0.41800000000E+01 0. -1.
         -5    1    3    3    0  502 -0.57679287669E+02  0.48797595140E+02 -0.19161322779E+03  0.20601263792E+03  0.41800000000E+01 0. -1.
        -11    1    1    2    0    0  0.15241417550E+02  0.12361202054E+02 -0.60045689209E+02  0.63171076591E+02  0.00000000000E+00 0. -1.
         11    1    1    2    0    0  0.10192256259E+02 -0.52463729333E+02  0.89953078989E+01  0.54196314887E+02  0.00000000000E+00 0.  1.
</event>
<event>
 7    1  0.2749315E-009  0.2035472E+03  0.7561462E-02  0.1146780E+00
         -2   -1    0    0    0  501 -0.00000000000E+00  0.00000000000E+00  0.15027878335E+03  0.15027878335E+03  0.00000000000E+00 0.  1.
          2   -1    0    0  501    0  0.00000000000E+00 -0.00000000000E+00 -0.30977005087E+03  0.30977005087E+03  0.00000000000E+00 0. -1.
         25    2    1    2    0    0 -0.18499587913E+03 -0.11606425257E+02 -0.67996085198E+02  0.23372985068E+03  0.12509193057E+03 0.  0.
          5    1    3    3  502    0  0.91720966414E+01 -0.20332362985E+02 -0.26595155006E+02  0.34961507564E+02  0.41800000000E+01 0. -1.
         -5    1    3    3    0  502 -0.19416797577E+03  0.87259377285E+01 -0.41400930192E+02  0.19876834311E+03  0.41800000000E+01 0. -1.
        -11    1    1    2    0    0  0.33135887663E+02  0.18546975289E+02  0.14873285723E+02  0.40782250695E+02  0.00000000000E+00 0.  1.
         11    1    1    2    0    0  0.15185999146E+03 -0.69405500327E+01 -0.10636846805E+03  0.18553673285E+03  0.00000000000E+00 0. -1.
</event>
<event>
 7    1  0.2749315E-009  0.8480049E+02  0.7561462E-02  0.1315955E+00
          2   -1    0    0  501    0  0.00000000000E+00  0.00000000000E+00  0.18461099723E+03  0.18461099723E+03  0.00000000000E+00 0. -1.
         -2   -1    0    0    0  501 -0.00000000000E+00 -0.00000000000E+00 -0.75696924394E+02  0.75696924394E+02  0.00000000000E+00 0.  1.
         25    2    1    2    0    0 -0.25707051056E+02  0.24712230168E+02  0.99345183964E+02  0.16367135134E+03  0.12508916372E+03 0.  0.
          5    1    3    3  502    0  0.40113031901E+02 -0.27336983357E+01  0.80047786436E+02  0.89675241557E+02  0.41800000000E+01 0. -1.
         -5    1    3    3    0  502 -0.65820082957E+02  0.27445928504E+02  0.19297397528E+02  0.73996109785E+02  0.41800000000E+01 0. -1.
        -11    1    1    2    0    0  0.73258853650E+01  0.13488598889E+02 -0.33101534736E+02  0.36487292285E+02  0.00000000000E+00 0.  1.
         11    1    1    2    0    0  0.18381165691E+02 -0.38200829057E+02  0.42670423610E+02  0.60149278000E+02  0.00000000000E+00 0. -1.
</event>
<event>
 7    1  0.2749315E-009  0.7750617E+02  0.7561462E-02  0.1336281E+00
         -2   -1    0    0    0  501 -0.00000000000E+00  0.00000000000E+00  0.88181983449E+02  0.88181983449E+02  0.00000000000E+00 0.  1.
          2   -1    0    0  501    0  0.00000000000E+00 -0.00000000000E+00 -0.22507965336E+03  0.22507965336E+03  0.00000000000E+00 0. -1.
         25    2    1    2    0    0 -0.15797434193E+02  0.34825998837E+02 -0.15867856497E+03  0.20563784087E+03  0.12508247477E+03 0.  0.
          5    1    3    3  502    0  0.32613721699E+02  0.15073833898E+02 -0.14767935182E+03  0.15204452856E+03  0.41800000000E+01 0. -1.
         -5    1    3    3    0  502 -0.48411155893E+02  0.19752164938E+02 -0.10999213151E+02  0.53593312312E+02  0.41800000000E+01 0. -1.
        -11    1    1    2    0    0  0.36122922359E+02 -0.23888209722E+02  0.53224752572E+02  0.68617682632E+02  0.00000000000E+00 0.  1.
         11    1    1    2    0    0 -0.20325488166E+02 -0.10937789114E+02 -0.31443857517E+02  0.39006113309E+02  0.00000000000E+00 0. -1.
</event>
<event>
 7    1  0.2749315E-009  0.1179752E+03  0.7561462E-02  0.1246475E+00
          2   -1    0    0  501    0  0.00000000000E+00  0.00000000000E+00  0.13536991609E+03  0.13536991609E+03  0.00000000000E+00 0. -1.
         -2   -1    0    0    0  501 -0.00000000000E+00 -0.00000000000E+00 -0.14895768123E+03  0.14895768123E+03  0.00000000000E+00 0.  1.
         25    2    1    2    0    0  0.39673109560E+02 -0.78330718215E+02  0.16111724388E+02  0.15367814947E+03  0.12509088266E+03 0.  0.
          5    1    3    3  502    0 -0.81543801395E+00 -0.71032974969E+02 -0.41791271873E+02  0.82524731304E+02  0.41800000000E+01 0. -1.
         -5    1    3    3    0  502  0.40488547574E+02 -0.72977432463E+01  0.57902996261E+02  0.71153418170E+02  0.41800000000E+01 0. -1.
        -11    1    1    2    0    0 -0.58263211479E+02  0.85540570023E+02 -0.36248922878E+02  0.10966209619E+03  0.00000000000E+00 0. -1.
         11    1    1    2    0    0  0.18590101918E+02 -0.72098518074E+01  0.65494333493E+01  0.20987351658E+02  0.00000000000E+00 0.  1.
</event>
<event>
 7    1  0.2749315E-009  0.8527011E+02  0.7561462E-02  0.1314728E+00
          1   -1    0    0  501    0  0.00000000000E+00  0.00000000000E+00  0.67757184839E+02  0.67757184839E+02  0.00000000000E+00 0. -1.
         -1   -1    0    0    0  501 -0.00000000000E+00 -0.00000000000E+00 -0.24914620528E+03  0.24914620528E+03  0.00000000000E+00 0.  1.
         25    2    1    2    0    0 -0.63534266597E+02 -0.30803618228E+01 -0.61147636965E+02  0.15307167368E+03  0.12508322076E+03 0.  0.
          5    1    3    3  502    0  0.18311801717E+02 -0.95240790883E+01  0.25874197341E+02  0.33361304721E+02  0.41800000000E+01 0.  1.
         -5    1    3    3    0  502 -0.81846068314E+02  0.64437172655E+01 -0.87021834307E+02  0.11971036896E+03  0.41800000000E+01 0.  1.
        -11    1    1    2    0    0  0.32410874414E+02  0.12530177610E+02 -0.12608403568E+03  0.13078476281E+03  0.00000000000E+00 0.  1.
         11    1    1    2    0    0  0.31123392183E+02 -0.94498157872E+01  0.58426521985E+01  0.33046953628E+02  0.00000000000E+00 0. -1.
</event>
<event>
 7    1  0.2749315E-009  0.1029536E+03  0.7561462E-02  0.1274205E+00
         -1   -1    0    0    0  501 -0.00000000000E+00  0.00000000000E+00  0.21178795356E+03  0.21178795356E+03  0.00000000000E+00 0.  1.
          1   -1    0    0  501    0  0.00000000000E+00 -0.00000000000E+00 -0.73853513903E+02  0.73853513903E+02  0.00000000000E+00 0. -1.
         25    2    1    2    0    0 -0.22750556452E+02 -0.60282141453E+02  0.80869411981E+02  0.16229107613E+03  0.12508799783E+03 0.  0.
          5    1    3    3  502    0 -0.37474982714E+02  0.14018439085E+02  0.76344935450E+02  0.86295495437E+02  0.41800000000E+01 0.  1.
         -5    1    3    3    0  502  0.14724426262E+02 -0.74300580538E+02  0.45244765313E+01  0.75995580694E+02  0.41800000000E+01 0.  1.
        -11    1    1    2    0    0  0.38135117906E+02  0.63527200772E+02  0.11289230204E+02  0.74949577545E+02  0.00000000000E+00 0. -1.
         11    1    1    2    0    0 -0.15384561455E+02 -0.32450593190E+01  0.45775797469E+02  0.48400813785E+02  0.00000000000E+00 0.  1.
</event>
<event>
 7    1  0.2749315E-009  0.1491312E+03  0.7561462E-02  0.1201545E+00
         -2   -1    0    0    0  501 -0.00000000000E+00  0.00000000000E+00  0.12808929685E+03  0.12808929685E+03  0.00000000000E+00 0.  1.
          2   -1    0    0  501    0  0.00000000000E+00 -0.00000000000E+00 -0.23622663978E+03  0.23622663978E+03  0.00000000000E+00 0. -1.
         25    2    1    2    0    0 -0.92954030418E+02 -0.83482240431E+02 -0.11255521155E+03  0.20958702542E+03  0.12509320261E+03 0.  0.
          5    1    3    3  502    0  0.11450830611E+01 -0.42257976583E+02 -0.96614085203E+02  0.10554052141E+03  0.41800000000E+01 0. -1.
         -5    1    3    3    0  502 -0.94099113479E+02 -0.41224263847E+02 -0.15941126351E+02  0.10404650401E+03  0.41800000000E+01 0. -1.
        -11    1    1    2    0    0  0.66667298336E+02  0.12992116844E+01 -0.94187086343E+01  0.67341879175E+02  0.00000000000E+00 0. -1.
         11    1    1    2    0    0  0.26286732082E+02  0.82183028747E+02  0.13836577264E+02  0.87387032035E+02  0.00000000000E+00 0.  1.
</event>
<event>
 7    1  0.2749315E-009  0.9848106E+02  0.7561462E-02  0.1283523E+00
         -3   -1    0    0    0  501 -0.00000000000E+00  0.00000000000E+00  0.51682544429E+03  0.51682544429E+03  0.00000000000E+00 0.  1.
          3   -1    0    0  501    0  0.00000000000E+00 -0.00000000000E+00 -0.30825057471E+02  0.30825057471E+02  0.00000000000E+00 0. -1.
         25    2    1    2    0    0 -0.29576426747E+02  0.71577380827E+01  0.14711758299E+03  0.19548833529E+03  0.12508440262E+03 0.  0.
          5    1    3    3  502    0 -0.36170972637E+02 -0.45687138278E+02  0.27676629501E+02  0.64646129707E+02  0.41800000000E+01 0. -1.
         -5    1    3    3    0  502  0.65945458901E+01  0.52844876361E+02  0.11944095348E+03  0.13084220559E+03  0.41800000000E+01 0. -1.
        -11    1    1    2    0    0  0.54871455924E+02 -0.17789419179E+02  0.29361737172E+03  0.29922984659E+03  0.00000000000E+00 0.  1.
         11    1    1    2    0    0 -0.25295029177E+02  0.10631681096E+02  0.45265432110E+02  0.52932319882E+02  0.00000000000E+00 0. -1.
</event>
<event>
 7    1  0.2749315E-009  0.1502813E+03  0.7561462E-02  0.1200128E+00
          1   -1    0    0  501    0  0.00000000000E+00  0.00000000000E+00  0.60471249769E+02  0.60471249769E+02  0.00000000000E+00 0. -1.
         -1   -1    0    0    0  501 -0.00000000000E+00 -0.00000000000E+00 -0.46351558166E+03  0.46351558166E+03  0.00000000000E+00 0.  1.
         25    2    1    2    0    0 -0.39136723167E+02 -0.11708633340E+03 -0.27079575802E+03  0.32282856445E+03  0.12508815649E+03 0.  0.
          5    1    3    3  502    0  0.39028522185E+02 -0.39204199105E+02 -0.14605299451E+03  0.15623426121E+03  0.41800000000E+01 0. -1.
         -5    1    3    3    0  502 -0.78165245352E+02 -0.77882134293E+02 -0.12474276352E+03  0.16659430324E+03  0.41800000000E+01 0. -1.
        -11    1    1    2    0    0 -0.57881260243E+01  0.67523322631E+02 -0.20298984834E+02  0.70745673276E+02  0.00000000000E+00 0. -1.
         11    1    1    2    0    0  0.44924849191E+02  0.49563010768E+02 -0.11194958904E+03  0.13041259370E+03  0.00000000000E+00 0.  1.
</event>
<event>
 7    1  0.2749315E-009  0.1209416E+03  0.7561462E-02  0.1241552E+00
          2   -1    0    0  501    0  0.00000000000E+00  0.00000000000E+00  0.64442559449E+03  0.64442559449E+03  0.00000000000E+00 0. -1.
         -2   -1    0    0    0  501 -0.00000000000E+00 -0.00000000000E+00 -0.26955332439E+02  0.26955332439E+02  0.00000000000E+00 0.  1.
         25    2    1    2    0    0  0.37552033643E+02 -0.57070381125E+02  0.41221371553E+03  0.43615889665E+03  0.12508897722E+03 0.  0.
          5    1    3    3  502    0  0.74348249629E+02 -0.24428427473E+02  0.33841946461E+03  0.34737532543E+03  0.41800000000E+01 0. -1.
         -5    1    3    3    0  502 -0.36796215986E+02 -0.32641953651E+02  0.73794250922E+02  0.88783571218E+02  0.41800000000E+01 0. -1.
        -11    1    1    2    0    0 -0.36365383295E+02 -0.16947303592E+02  0.59801878009E+02  0.72013309983E+02  0.00000000000E+00 0. -1.
         11    1    1    2    0    0 -0.11866503482E+01  0.74017684717E+02  0.14545466851E+03  0.16320872030E+03  0.00000000000E+00 0.  1.
</event>
<event>
 7    1  0.2749315E-009  0.2091956E+03  0.7561462E-02  0.1142205E+00
          1   -1    0    0  501    0  0.00000000000E+00  0.00000000000E+00  0.75343881675E+03  0.75343881675E+03  0.00000000000E+00 0. -1.
         -1   -1    0    0    0  501 -0.00000000000E+00 -0.00000000000E+00 -0.79453800233E+02  0.79453800233E+02  0.00000000000E+00 0.  1.
         25    2    1    2    0    0  0.11047644775E+03  0.16963487151E+03  0.20579052342E+03  0.31460598712E+03  0.12508458125E+03 0.  0.
          5    1    3    3  502    0  0.88785912586E+02  0.70145771401E+02  0.17446621901E+03  0.20798870521E+03  0.41800000000E+01 0. -1.
         -5    1    3    3    0  502  0.21690535160E+02  0.99489100108E+02  0.31324304405E+02  0.10661728191E+03  0.41800000000E+01 0. -1.
        -11    1    1    2    0    0 -0.16677483766E+02 -0.39110325880E+02  0.31394705407E+02  0.52852469978E+02  0.00000000000E+00 0.  1.
         11    1    1    2    0    0 -0.93798963980E+02 -0.13052454563E+03  0.43679978770E+03  0.46543415988E+03  0.00000000000E+00 0. -1.
</event>
<event>
 7    1  0.2749315E-009  0.9023769E+02  0.7561462E-02  0.1302277E+00
         -2   -1    0    0    0  501 -0.00000000000E+00  0.00000000000E+00  0.57343506697E+02  0.57343506697E+02  0.00000000000E+00 0.  1.
          2   -1    0    0  501    0  0.00000000000E+00 -0.00000000000E+00 -0.23274203976E+03  0.23274203976E+03  0.00000000000E+00 0. -1.
         25    2    1    2    0    0  0.18171985227E+02  0.13005719507E+02 -0.14774218283E+03  0.19486936649E+03  0.12508775968E+03 0.  0.
          5    1    3    3  502    0 -0.45712824711E+02  0.14454771657E+02 -0.11113280546E+03  0.12110563825E+03  0.41800000000E+01 0.  1.
         -5    1    3    3    0  502  0.63884809938E+02 -0.14490521501E+01 -0.36609377371E+02  0.73763728244E+02  0.41800000000E+01 0.  1.
        -11    1    1    2    0    0 -0.11496439597E+02  0.26163518373E+02 -0.43824128168E+02  0.52318754063E+02  0.00000000000E+00 0. -1.
         11    1    1    2    0    0 -0.66755456307E+01 -0.39169237879E+02  0.16167777935E+02  0.42897425900E+02  0.00000000000E+00 0.  1.
</event>
<event>
 7    1  0.2749315E-009  0.1133387E+03  0.7561462E-02  0.1254509E+00
         -1   -1    0    0    0  501 -0.00000000000E+00  0.00000000000E+00  0.20960598590E+02  0.20960598590E+02  0.00000000000E+00 0.  1.
          1   -1    0    0  501    0  0.00000000000E+00 -0.00000000000E+00 -0.82359716438E+03  0.82359716438E+03  0.00000000000E+00 0. -1.
         25    2    1    2    0    0  0.59738795616E+02  0.18027124196E+02 -0.55586959704E+03  0.57317893198E+03  0.12509747497E+03 0.  0.
          5    1    3    3  502    0  0.69656319836E+02 -0.25131196844E+02 -0.17993137475E+03  0.19461847797E+03  0.41800000000E+01 0.  1.
         -5    1    3    3    0  502 -0.99175242196E+01  0.43158321040E+02 -0.37593822229E+03  0.37856045401E+03  0.41800000000E+01 0.  1.
        -11    1    1    2    0    0 -0.56000154339E+02  0.27472054951E+02 -0.10176647696E+03  0.11936141304E+03  0.00000000000E+00 0.  1.
         11    1    1    2    0    0 -0.37386412772E+01 -0.45499179147E+02 -0.14500049179E+03  0.15201741795E+03  0.00000000000E+00 0. -1.
</event>
<event>
 7    1  0.2749315E-009  0.1123482E+03  0.7561462E-02  0.1256282E+00
          1   -1    0    0  501    0  0.00000000000E+00  0.00000000000E+00  0.66976979605E+03  0.66976979605E+03  0.00000000000E+00 0. -1.
         -1   -1    0    0    0  501 -0.00000000000E+00 -0.00000000000E+00 -0.20315611839E+02  0.20315611839E+02  0.00000000000E+00 0.  1.
         25    2    1    2    0    0  0.17112872440E+01 -0.38781598548E+02  0.32402464184E+03  0.34949454743E+03  0.12509008463E+03 0.  0.
          5    1    3    3  502    0 -0.36739411185E+02 -0.70120025603E+02  0.22702740448E+03  0.24046936834E+03  0.41800000000E+01 0. -1.
         -5    1    3    3    0  502  0.38450698429E+02  0.31338427055E+02  0.96997237359E+02  0.10902517909E+03  0.41800000000E+01 0. -1.
        -11    1    1    2    0    0 -0.38830527518E+02  0.43404087145E+02  0.24591809866E+03  0.25272007418E+03  0.00000000000E+00 0. -1.
         11    1    1    2    0    0  0.37119240274E+02 -0.46224885974E+01  0.79511443716E+02  0.87870786279E+02  0.00000000000E+00 0.  1.
</event>
<event>
 7    1  0.2749315E-009  0.1896896E+03  0.7561462E-02  0.1158742E+00
          2   -1    0    0  501    0  0.00000000000E+00  0.00000000000E+00  0.13721359789E+04  0.13721359789E+04  0.00000000000E+00 0. -1.
         -2   -1    0    0    0  501 -0.00000000000E+00 -0.00000000000E+00 -0.32392648296E+02  0.32392648296E+02  0.00000000000E+00 0.  1.
         25    2    1    2    0    0 -0.17276201741E+03 -0.98484730143E+01  0.51703998517E+03  0.55939500078E+03  0.12509481825E+03 0.  0.
          5    1    3    3  502    0 -0.17994131084E+02  0.27459039420E+02  0.21888793759E+03  0.22137567441E+03  0.41800000000E+01 0.  1.
         -5    1    3    3    0  502 -0.15476788633E+03 -0.37307512434E+02  0.29815204758E+03  0.33801932637E+03  0.41800000000E+01 0.  1.
        -11    1    1    2    0    0  0.76597956978E+02 -0.30889123668E+02  0.25941080461E+03  0.27224134609E+03  0.00000000000E+00 0.  1.
         11    1    1    2    0    0  0.96164060434E+02  0.40737596683E+02  0.56329254079E+03  0.57289228029E+03  0.00000000000E+00 0. -1.
</event>
<event>
 7    1  0.2749315E-009  0.9696239E+02  0.7561462E-02  0.1286816E+00
          1   -1    0    0  501    0  0.00000000000E+00  0.00000000000E+00  0.50062704618E+02  0.50062704618E+02  0.00000000000E+00 0. -1.
         -1   -1    0    0    0  501 -0.00000000000E+00 -0.00000000000E+00 -0.30689162273E+03  0.30689162273E+03  0.00000000000E+00 0.  1.
         25    2    1    2    0    0  0.33566372657E+02 -0.14583779607E+02 -0.21631905401E+03  0.25254826479E+03  0.12508918786E+03 0.  0.
          5    1    3    3  502    0 -0.27586930460E+02 -0.44254550097E+02 -0.14401672830E+03  0.15322465326E+03  0.41800000000E+01 0.  1.
         -5    1    3    3    0  502  0.61153303117E+02  0.29670770490E+02 -0.72302325706E+02  0.99323611524E+02  0.41800000000E+01 0.  1.
        -11    1    1    2    0    0  0.18670555057E+02  0.97119266851E+01  0.16638319363E+02  0.26828060259E+02  0.00000000000E+00 0. -1.
         11    1    1    2    0    0 -0.52236927713E+02  0.48718529223E+01 -0.57148183464E+02  0.77578002301E+02  0.00000000000E+00 0.  1.
</event>
<event>
 7    1  0.2749315E-009  0.5853017E+02  0.7561462E-02  0.1404106E+00
         -1   -1    0    0    0  501 -0.00000000000E+00  0.00000000000E+00  0.42360472729E+02  0.42360472729E+02  0.00000000000E+00 0.  1.
          1   -1    0    0  501    0  0.00000000000E+00 -0.00000000000E+00 -0.25284496908E+03  0.25284496908E+03  0.00000000000E+00 0. -1.
         25    2    1    2    0    0 -0.27652665343E+02 -0.28736947089E+02 -0.16369974712E+03  0.20984769545E+03  0.12509183047E+03 0.  0.
          5    1    3    3  502    0 -0.11231699494E+02  0.10418069700E+01  0.19804833609E+02  0.23171971638E+02  0.41800000000E+01 0. -1.
         -5    1    3    3    0  502 -0.16420965849E+02 -0.29778754059E+02 -0.18350458073E+03  0.18667572382E+03  0.41800000000E+01 0. -1.
        -11    1    1    2    0    0 -0.38190900127E+01  0.37820071326E+02 -0.30721288699E+02  0.48874746270E+02  0.00000000000E+00 0. -1.
         11    1    1    2    0    0  0.31471755356E+02 -0.90831242371E+01 -0.16063460531E+02  0.36483000086E+02  0.00000000000E+00 0.  1.
</event>
<event>
 7    1  0.2749315E-009  0.1014624E+03  0.7561462E-02  0.1277250E+00
          1   -1    0    0  501    0  0.00000000000E+00  0.00000000000E+00  0.37928332427E+02  0.37928332427E+02  0.00000000000E+00 0. -1.
         -1   -1    0    0    0  501 -0.00000000000E+00 -0.00000000000E+00 -0.31883620062E+03  0.31883620062E+03  0.00000000000E+00 0.  1.
         25    2    1    2    0    0 -0.81951168276E+01  0.18624166414E+02 -0.16344283940E+03  0.20682961332E+03  0.12510358780E+03 0.  0.
          5    1    3    3  502    0 -0.23184875634E+02  0.60891124802E+02 -0.42837475968E+02  0.78088342825E+02  0.41800000000E+01 0. -1.
         -5    1    3    3    0  502  0.14989758806E+02 -0.42266958388E+02 -0.12060536343E+03  0.12874127049E+03  0.41800000000E+01 0. -1.
        -11    1    1    2    0    0 -0.33425357963E+02  0.17279630529E+02 -0.56114414688E+02  0.67562324722E+02  0.00000000000E+00 0.  1.
         11    1    1    2    0    0  0.41620474790E+02 -0.35903796943E+02 -0.61350614113E+02  0.82372595011E+02  0.00000000000E+00 0. -1.
</event>
<event>
 7    1  0.2749315E-009  0.1409196E+03  0.7561462E-02  0.1212097E+00
          2   -1    0    0  501    0  0.00000000000E+00  0.00000000000E+00  0.42466606895E+03  0.42466606895E+03  0.00000000000E+00 0. -1.
         -2   -1    0    0    0  501 -0.00000000000E+00 -0.00000000000E+00 -0.63445386629E+02  0.63445386629E+02  0.00000000000E+00 0.  1.
         25    2    1    2    0    0  0.10781817759E+03  0.54078704753E+02  0.10699416783E+03  0.20407182202E+03  0.12509312877E+03 0.  0.
          5    1    3    3  502    0  0.11068439102E+03  0.88113871617E+01  0.11258245434E+03  0.15818013903E+03  0.41800000000E+01 0.  1.
         -5    1    3    3    0  502 -0.28662134288E+01  0.45267317592E+02 -0.55882865077E+01  0.45891682988E+02  0.41800000000E+01 0.  1.
        -11    1    1    2    0    0 -0.94049122283E+02 -0.32360417144E+02  0.21796600990E+03  0.23958634241E+03  0.00000000000E+00 0. -1.
         11    1    1    2    0    0 -0.13769055305E+02 -0.21718287609E+02  0.36260504597E+02  0.44453291153E+02  0.00000000000E+00 0.  1.
</event>
<event>
 7    1  0.2749315E-009  0.1054268E+03  0.7561462E-02  0.1269281E+00
          1   -1    0    0  501    0  0.00000000000E+00  0.00000000000E+00  0.94323948535E+03  0.94323948535E+03  0.00000000000E+00 0. -1.
         -1   -1    0    0    0  501 -0.00000000000E+00 -0.00000000000E+00 -0.26021733260E+02  0.26021733260E+02  0.00000000000E+00 0.  1.
         25    2    1    2    0    0  0.19530416104E+01 -0.18290951980E+02  0.83141836110E+03  0.84097910168E+03  0.12510389679E+03 0.  0.
          5    1    3    3  502    0  0.29988601136E+02  0.42867676038E+02  0.23645921084E+03  0.24221351044E+03  0.41800000000E+01 0. -1.
         -5    1    3    3    0  502 -0.28035559525E+02 -0.61158628018E+02  0.59495915025E+03  0.59876559123E+03  0.41800000000E+01 0. -1.
        -11    1    1    2    0    0  0.26889808514E+02 -0.26458187789E+02  0.17233873914E+02  0.41474135472E+02  0.00000000000E+00 0.  1.
         11    1    1    2    0    0 -0.28842850125E+02  0.44749139769E+02  0.68565517084E+02  0.86807981467E+02  0.00000000000E+00 0. -1.
</event>
<event>
 7    1  0.2749315E-009  0.1833258E+03  0.7561462E-02  0.1164623E+00
         -1   -1    0    0    0  501 -0.00000000000E+00  0.00000000000E+00  0.10369045099E+03  0.10369045099E+03  0.00000000000E+00 0.  1.
          1   -1    0    0  501    0  0.00000000000E+00 -0.00000000000E+00 -0.44327340561E+03  0.44327340561E+03  0.00000000000E+00 0. -1.
         25    2    1    2    0    0 -0.58593255267E+02 -0.16874874609E+03 -0.11856529629E+03  0.24822458401E+03  0.12509358798E+03 0.  0.
          5    1    3    3  502    0 -0.17100020565E+02 -0.88179829507E+02 -0.12863258216E+03  0.15694555307E+03  0.41800000000E+01 0.  1.
         -5    1    3    3    0  502 -0.41493234703E+02 -0.80568916583E+02  0.10067285870E+02  0.91279030945E+02  0.41800000000E+01 0.  1.
        -11    1    1    2    0    0  0.49652629718E+02  0.64596892192E+02 -0.15498368653E+03  0.17509450365E+03  0.00000000000E+00 0. -1.
         11    1    1    2    0    0  0.89406255495E+01  0.10415185390E+03 -0.66033971805E+02  0.12364476895E+03  0.00000000000E+00 0.  1.
</event>
<event>
 7    1  0.2749315E-009  0.6423897E+02  0.7561462E-02  0.1380857E+00
          2   -1    0    0  501    0  0.00000000000E+00  0.00000000000E+00  0.14548448311E+03  0.14548448311E+03  0.00000000000E+00 0. -1.
         -2   -1    0    0    0  501 -0.00000000000E+00 -0.00000000000E+00 -0.10478461457E+03  0.10478461457E+03  0.00000000000E+00 0.  1.
         25    2    1    2    0    0  0.31831831079E+02 -0.50428552125E+02  0.42166553540E+02  0.14484981103E+03  0.12508854935E+03 0.  0.
          5    1    3    3  502    0  0.62204192589E+01 -0.25239211690E+02 -0.44070708321E+02  0.51336255750E+02  0.41800000000E+01 0.  1.
         -5    1    3    3    0  502  0.25611411820E+02 -0.25189340434E+02  0.86237261861E+02  0.93513555276E+02  0.41800000000E+01 0.  1.
        -11    1    1    2    0    0  0.33596775434E+01  0.17399624781E+02 -0.39941899667E+02  0.43696564221E+02  0.00000000000E+00 0.  1.
         11    1    1    2    0    0 -0.35191508622E+02  0.33028927344E+02  0.38475214664E+02  0.61722722429E+02  0.00000000000E+00 0. -1.
</event>
<event>
 7    1  0.2749315E-009  0.1101466E+03  0.7561462E-02  0.1260299E+00
         -1   -1    0    0    0  501 -0.00000000000E+00  0.00000000000E+00  0.23699326292E+02  0.23699326292E+02  0.00000000000E+00 0.  1.
          1   -1    0    0  501    0  0.00000000000E+00 -0.00000000000E+00 -0.60326308355E+03  0.60326308355E+03  0.00000000000E+00 0. -1.
         25    2    1    2    0    0 -0.16056064474E+02  0.42994347322E+02 -0.36356619598E+03  0.38721459416E+03  0.12509377269E+03 0.  0.
          5    1    3    3  502    0  0.45835405702E+02  0.36327254755E+02 -0.96160523116E+02  0.11262713909E+03  0.41800000000E+01 0. -1.
         -5    1    3    3    0  502 -0.61891470176E+02  0.66670925662E+01 -0.26740567286E+03  0.27458745507E+03  0.41800000000E+01 0. -1.
        -11    1    1    2    0    0  0.51296814166E+02 -0.12819203446E+02 -0.78605636686E+02  0.94734055331E+02  0.00000000000E+00 0.  1.
         11    1    1    2    0    0 -0.35240749693E+02 -0.30175143876E+02 -0.13739192459E+03  0.14501376035E+03  0.00000000000E+00 0. -1.
</event>
<event>
 7    1  0.2875267E-009  0.1156096E+03  0.7561462E-02  0.1250521E+00
          2   -1    0    0  501    0  0.00000000000E+00  0.00000000000E+00  0.64606145997E+03  0.64606145997E+03  0.00000000000E+00 0. -1.
         -2   -1    0    0    0  501 -0.00000000000E+00 -0.00000000000E+00 -0.24621879082E+02  0.24621879082E+02  0.00000000000E+00 0.  1.
         25    2    1    2    0    0 -0.61353561956E+02  0.72673991027E+01  0.38776350536E+03  0.41210180002E+03  0.12510109047E+03 0.  0.
          5    1    3    3  502    0 -0.43664891516E+00 -0.41893794332E+02  0.50026506372E+02  0.65386576647E+02  0.41800000000E+01 0.  1.
         -5    1    3    3    0  502 -0.60916913040E+02  0.49161193434E+02  0.33773699899E+03  0.34671522338E+03  0.41800000000E+01 0.  1.
        -11    1    1    2    0    0  0.23931254841E+02 -0.49084226001E+02  0.11560969473E+03  0.12785760719E+03  0.00000000000E+00 0.  1.
         11    1    1    2    0    0  0.37422307115E+02  0.41816826898E+02  0.11806638079E+03  0.13072393184E+03  0.00000000000E+00 0. -1.
</event>
<event>
 7    1  0.2749315E-009  0.1133973E+03  0.7561462E-02  0.1254405E+00
         -1   -1    0    0    0  501 -0.00000000000E+00  0.00000000000E+00  0.85650353323E+02  0.85650353323E+02  0.00000000000E+00 0.  1.
          1   -1    0    0  501    0  0.00000000000E+00 -0.00000000000E+00 -0.17121619488E+03  0.17121619488E+03  0.00000000000E+00 0. -1.
         25    2    1    2    0    0  0.18460277129E+02 -0.45061585662E+02 -0.70203002098E+02  0.15148371408E+03  0.12509007072E+03 0.  0.
          5    1    3    3  502    0  0.65747058544E+02 -0.14251550674E+02 -0.87951518562E+01  0.67975065281E+02  0.41800000000E+01 0. -1.
         -5    1    3    3    0  502 -0.47286781415E+02 -0.30810034988E+02 -0.61407850241E+02  0.83508648796E+02  0.41800000000E+01 0. -1.
        -11    1    1    2    0    0  0.62804125484E+01  0.68458671460E+02 -0.18485616943E+02  0.71188140259E+02  0.00000000000E+00 0. -1.
         11    1    1    2    0    0 -0.24740689678E+02 -0.23397085798E+02  0.31227774820E+01  0.34194693869E+02  0.00000000000E+00 0.  1.
</event>
<event>
 7    1  0.2749931E-009  0.8436557E+02  0.7561462E-02  0.1317100E+00
          2   -1    0    0  501    0  0.00000000000E+00  0.00000000000E+00  0.30189131285E+02  0.30189131285E+02  0.00000000000E+00 0. -1.
         -2   -1    0    0    0  501 -0.00000000000E+00 -0.00000000000E+00 -0.46922626616E+03  0.46922626616E+03  0.00000000000E+00 0.  1.
         25    2    1    2    0    0 -0.14435533241E+02  0.41070816739E+02 -0.29440119373E+03  0.32282373256E+03  0.12509157777E+03 0.  0.
          5    1    3    3  502    0 -0.46408188390E+02  0.62849326056E+02 -0.25777549941E+03  0.26938715305E+03  0.41800000000E+01 0.  1.
         -5    1    3    3    0  502  0.31972655149E+02 -0.21778509317E+02 -0.36625694323E+02  0.53436579513E+02  0.41800000000E+01 0.  1.
        -11    1    1    2    0    0  0.21023190905E+02 -0.18281991081E+02 -0.14975432242E+03  0.15232387481E+03  0.00000000000E+00 0.  1.
         11    1    1    2    0    0 -0.65876576640E+01 -0.22788825658E+02  0.51183812676E+01  0.24267790076E+02  0.00000000000E+00 0. -1.
</event>
<event>
 7    1  0.2749315E-009  0.1262728E+03  0.7561462E-02  0.1233093E+00
          1   -1    0    0  501    0  0.00000000000E+00  0.00000000000E+00  0.14102061063E+03  0.14102061063E+03  0.00000000000E+00 0. -1.
         -1   -1    0    0    0  501 -0.00000000000E+00 -0.00000000000E+00 -0.33566901516E+03  0.33566901516E+03  0.00000000000E+00 0.  1.
         25    2    1    2    0    0 -0.78770440377E+02  0.17789900853E+01 -0.28711902681E+03  0.32294438868E+03  0.12509114895E+03 0.  0.
          5    1    3    3  502    0 -0.16784660801E+02 -0.49789467493E+02 -0.50763879247E+02  0.73178957001E+02  0.41800000000E+01 0.  1.
         -5    1    3    3    0  502 -0.61985779576E+02  0.51568457578E+02 -0.23635514756E+03  0.24976543168E+03  0.41800000000E+01 0.  1.
        -11    1    1    2    0    0  0.66647712127E+02 -0.40861919602E+02  0.41915105474E+02  0.88704509875E+02  0.00000000000E+00 0.  1.
         11    1    1    2    0    0  0.12122728250E+02  0.39082929516E+02  0.50555516800E+02  0.65040727231E+02  0.00000000000E+00 0. -1.
</event>
<event>
 7    1  0.2749315E-009  0.1218004E+03  0.7561462E-02  0.1240156E+00
          2   -1    0    0  501    0  0.00000000000E+00  0.00000000000E+00  0.86608943519E+03  0.86608943519E+03  0.00000000000E+00 0. -1.
         -2   -1    0    0    0  501 -0.00000000000E+00 -0.00000000000E+00 -0.23540326396E+02  0.23540326396E+02  0.00000000000E+00 0.  1.
         25    2    1    2    0    0  0.19075823861E+02 -0.79986351173E+02  0.60446713692E+03  0.62272719169E+03  0.12508769815E+03 0.  0.
          5    1    3    3  502    0  0.49959133600E+02 -0.84719336829E+02  0.28132451850E+03  0.29805073087E+03  0.41800000000E+01 0.  1.
         -5    1    3    3    0  502 -0.30883309739E+02  0.47329856557E+01  0.32314261842E+03  0.32467646082E+03  0.41800000000E+01 0.  1.
        -11    1    1    2    0    0 -0.39590296895E+02  0.10179347577E+02  0.13262161628E+03  0.13877861446E+03  0.00000000000E+00 0.  1.
         11    1    1    2    0    0  0.20514473034E+02  0.69807003596E+02  0.10546035559E+03  0.12812395544E+03  0.00000000000E+00 0. -1.
</event>
<event>
 7    1  0.2749315E-009  0.9839745E+02  0.7561462E-02  0.1283702E+00
          1   -1    0    0  501    0  0.00000000000E+00  0.00000000000E+00  0.42405309388E+02  0.42405309388E+02  0.00000000000E+00 0. -1.
         -1   -1    0    0    0  501 -0.00000000000E+00 -0.00000000000E+00 -0.29872437709E+03  0.29872437709E+03  0.00000000000E+00 0.  1.
         25    2    1    2    0    0  0.26206515605E+02 -0.11162335171E+02 -0.16981835205E+03  0.21282558248E+03  0.12508028093E+03 0.  0.
          5    1    3    3  502    0  0.67409266029E+02  0.26261068632E+02 -0.96029878045E+02  0.12030321172E+03  0.41800000000E+01 0. -1.
         -5    1    3    3    0  502 -0.41202750424E+02 -0.37423403804E+02 -0.73788474010E+02  0.92522370763E+02  0.41800000000E+01 0. -1.
        -11    1    1    2    0    0  0.49185047781E+01 -0.22286083988E+02  0.73049797525E+01  0.23962970558E+02  0.00000000000E+00 0. -1.
         11    1    1    2    0    0 -0.31125020383E+02  0.33448419160E+02 -0.93805695402E+02  0.10434113344E+03  0.00000000000E+00 0.  1.
</event>
<event>
 7    1  0.2749315E-009  0.9499473E+02  0.7561462E-02  0.1291188E+00
         -2   -1    0    0    0  501 -0.00000000000E+00  0.00000000000E+00  0.24928600189E+02  0.24928600189E+02  0.00000000000E+00 0.  1.
          2   -1    0    0  501    0  0.00000000000E+00 -0.00000000000E+00 -0.51724874356E+03  0.51724874356E+03  0.00000000000E+00 0. -1.
         25    2    1    2    0    0 -0.85304184478E+01 -0.22551004257E+02 -0.22536708982E+03  0.25888070552E+03  0.12509028213E+03 0.  0.
          5    1    3    3  502    0  0.20425464836E+02 -0.50739002950E+02 -0.36964059622E+02  0.66147261001E+02  0.41800000000E+01 0.  1.
         -5    1    3    3    0  502 -0.28955883284E+02  0.28187998694E+02 -0.18840303020E+03  0.19273344452E+03  0.41800000000E+01 0.  1.
        -11    1    1    2    0    0 -0.37373194181E+02 -0.94516318383E+01 -0.12055399841E+03  0.12656759270E+03  0.00000000000E+00 0.  1.
         11    1    1    2    0    0  0.45903612629E+02  0.32002636095E+02 -0.14639905514E+03  0.15672904554E+03  0.00000000000E+00 0. -1.
</event>
<event>
 7    1  0.2749315E-009  0.3121361E+03  0.7561462E-02  0.1079327E+00
          1   -1    0    0  501    0  0.00000000000E+00  0.00000000000E+00  0.14019442673E+04  0.14019442673E+04  0.00000000000E+00 0. -1.
         -1   -1    0    0    0  501 -0.00000000000E+00 -0.00000000000E+00 -0.91483977114E+02  0.91483977114E+02  0.00000000000E+00 0.  1.
         25    2    1    2    0    0  0.26648275238E+03 -0.15996648818E+03  0.37238791357E+03  0.50092417229E+03  0.12509969445E+03 0.  0.
          5    1    3    3  502    0  0.43572100938E+02 -0.43634975389E+02  0.14441524284E+02  0.63471009768E+02  0.41800000000E+01 0. -1.
         -5    1    3    3    0  502  0.22291065145E+03 -0.11633151279E+03  0.35794638928E+03  0.43745316252E+03  0.41800000000E+01 0. -1.
        -11    1    1    2    0    0 -0.12248547547E+03  0.79714869433E+02  0.58288021719E+03  0.60092137564E+03  0.00000000000E+00 0. -1.
         11    1    1    2    0    0 -0.14399727691E+03  0.80251618744E+02  0.35519215943E+03  0.39158269649E+03  0.00000000000E+00 0.  1.
</event>
<event>
 7    1  0.2749315E-009  0.1042148E+03  0.7561462E-02  0.1271674E+00
          2   -1    0    0  501    0  0.00000000000E+00  0.00000000000E+00  0.43206301545E+03  0.43206301545E+03  0.00000000000E+00 0. -1.
         -2   -1    0    0    0  501 -0.00000000000E+00 -0.00000000000E+00 -0.33534066111E+02  0.33534066111E+02  0.00000000000E+00 0.  1.
         25    2    1    2    0    0  0.12780121280E+02  0.20983225462E+02  0.31872013121E+03  0.34326883242E+03  0.12508933616E+03 0.  0.
          5    1    3    3  502    0  0.61261306276E+02 -0.66280995684E+01  0.10024047517E+03  0.11773913798E+03  0.41800000000E+01 0. -1.
         -5    1    3    3    0  502 -0.48481184996E+02  0.27611325030E+02  0.21847965605E+03  0.22552969444E+03  0.41800000000E+01 0. -1.
        -11    1    1    2    0    0 -0.12191636250E+02 -0.55183820683E+02  0.61528469144E+02  0.83544255187E+02  0.00000000000E+00 0.  1.
         11    1    1    2    0    0 -0.58848503032E+00  0.34200595221E+02  0.18280348983E+02  0.38783993955E+02  0.00000000000E+00 0. -1.
</event>
<event>
 7    1  0.2749315E-009  0.2065590E+03  0.7561462E-02  0.1144320E+00
         -1   -1    0    0    0  501 -0.00000000000E+00  0.00000000000E+00  0.39758175933E+03  0.39758175933E+03  0.00000000000E+00 0.  1.
          1   -1    0    0  501    0  0.00000000000E+00 -0.00000000000E+00 -0.13445998373E+03  0.13445998373E+03  0.00000000000E+00 0. -1.
         25    2    1    2    0    0  0.16663559633E+03  0.98137051292E+02  0.20144411978E+03  0.30598601493E+03  0.12509758247E+03 0.  0.
          5    1    3    3  502    0 -0.85075879622E+01  0.16796981499E+02  0.69351041519E+02  0.71983032724E+02  0.41800000000E+01 0. -1.
         -5    1    3    3    0  502  0.17514318429E+03  0.81340069793E+02  0.13209307826E+03  0.23400298221E+03  0.41800000000E+01 0. -1.
        -11    1    1    2    0    0 -0.23979207251E+02  0.51849499613E+01 -0.20231848243E+02  0.31799587573E+02  0.00000000000E+00 0. -1.
         11    1    1    2    0    0 -0.14265638908E+03 -0.10332200125E+03  0.81909504060E+02  0.19425614055E+03  0.00000000000E+00 0.  1.
</event>
<event>
 7    1  0.2749315E-009  0.9643906E+02  0.7561462E-02  0.1287967E+00
         -2   -1    0    0    0  501 -0.00000000000E+00  0.00000000000E+00  0.17341016185E+02  0.17341016185E+02  0.00000000000E+00 0. -1.
          2   -1    0    0  501    0  0.00000000000E+00 -0.00000000000E+00 -0.84518565676E+03  0.84518565676E+03  0.00000000000E+00 0.  1.
         25    2    1    2    0    0 -0.37334041637E+01  0.34023855334E+02 -0.61436344787E+03  0.62790242993E+03  0.12508978534E+03 0.  0.
          5    1    3    3  502    0  0.19946582527E+02  0.61409304304E+02 -0.55115760313E+03  0.55494246972E+03  0.41800000000E+01 0. -1.
         -5    1    3    3    0  502 -0.23679986691E+02 -0.27385448970E+02 -0.63205844745E+02  0.72959960217E+02  0.41800000000E+01 0. -1.
        -11    1    1    2    0    0 -0.33493509077E+02 -0.41939063189E+02 -0.16160200123E+03  0.17028184570E+03  0.00000000000E+00 0.  1.
         11    1    1    2    0    0  0.37226913240E+02  0.79152078557E+01 -0.51879191475E+02  0.64342397320E+02  0.00000000000E+00 0. -1.
</event>
<event>
 7    1  0.2749315E-009  0.9687612E+02  0.7561462E-02  0.1287006E+00
         -1   -1    0    0    0  501 -0.00000000000E+00  0.00000000000E+00  0.58759114261E+02  0.58759114261E+02  0.00000000000E+00 0.  1.
          1   -1    0    0  501    0  0.00000000000E+00 -0.00000000000E+00 -0.27978384045E+03  0.27978384045E+03  0.00000000000E+00 0. -1.
         25    2    1    2    0    0 -0.66453954271E+02 -0.12180081197E+01 -0.10994035572E+03  0.17930984183E+03  0.12509007146E+03 0.  0.
          5    1    3    3  502    0 -0.90466569656E+02 -0.15768796040E+02 -0.11820710417E+03  0.14974393821E+03  0.41800000000E+01 0. -1.
         -5    1    3    3    0  502  0.24012615385E+02  0.14550787920E+02  0.82667484532E+01  0.29565903617E+02  0.41800000000E+01 0. -1.
        -11    1    1    2    0    0  0.12116487872E+02 -0.12488528679E+02  0.13893322044E+02  0.22266500047E+02  0.00000000000E+00 0.  1.
         11    1    1    2    0    0  0.54337466399E+02  0.13706536799E+02 -0.12497769251E+03  0.13696661283E+03  0.00000000000E+00 0. -1.
</event>
<event>
 7    1  0.2749315E-009  0.1852715E+03  0.7561462E-02  0.1162797E+00
          1   -1    0    0  501    0  0.00000000000E+00  0.00000000000E+00  0.77108050527E+03  0.77108050527E+03  0.00000000000E+00 0. -1.
         -1   -1    0    0    0  501 -0.00000000000E+00 -0.00000000000E+00 -0.98653769452E+02  0.98653769452E+02  0.00000000000E+00 0.  1.
         25    2    1    2    0    0  0.14869140032E+03 -0.42992287600E+02  0.65974922732E+03  0.68911111192E+03  0.12509041650E+03 0.  0.
          5    1    3    3  502    0  0.81469578483E+02 -0.81405322400E+02  0.30644698663E+03  0.32740089607E+03  0.41800000000E+01 0.  1.
         -5    1    3    3    0  502  0.67221821835E+02  0.38413034800E+02  0.35330224069E+03  0.36171021585E+03  0.41800000000E+01 0.  1.
        -11    1    1    2    0    0 -0.73190391468E+02  0.66289417834E+02  0.21675832872E+02  0.10109877374E+03  0.00000000000E+00 0.  1.
         11    1    1    2    0    0 -0.75501008849E+02 -0.23297130234E+02 -0.89983243773E+01  0.79524389064E+02  0.00000000000E+00 0. -1.
</event>
<event>
 7    1  0.2749315E-009  0.8652618E+02  0.7561462E-02  0.1311489E+00
         -1   -1    0    0    0  501 -0.00000000000E+00  0.00000000000E+00  0.77816420888E+02  0.77816420888E+02  0.00000000000E+00 0.  1.
          1   -1    0    0  501    0  0.00000000000E+00 -0.00000000000E+00 -0.21735848991E+03  0.21735848991E+03  0.00000000000E+00 0. -1.
         25    2    1    2    0    0  0.22679904361E+02  0.47718290590E+02 -0.12239982503E+03  0.18281070324E+03  0.12508646103E+03 0.  0.
          5    1    3    3  502    0  0.44725952917E+02  0.61799365798E+02 -0.13371646612E+03  0.15400369538E+03  0.41800000000E+01 0. -1.
         -5    1    3    3    0  502 -0.22046048556E+02 -0.14081075208E+02  0.11316641096E+02  0.28807007857E+02  0.41800000000E+01 0. -1.
        -11    1    1    2    0    0 -0.11997143709E+02  0.73474808605E+01  0.33787975473E+02  0.36599784408E+02  0.00000000000E+00 0.  1.
         11    1    1    2    0    0 -0.10682760653E+02 -0.55065771451E+02 -0.50930219464E+02  0.75764423150E+02  0.00000000000E+00 0. -1.
</event>
<event>
 7    1  0.2749315E-009  0.1767221E+03  0.7561462E-02  0.1171014E+00
          2   -1    0    0  501    0  0.00000000000E+00  0.00000000000E+00  0.17709291364E+04  0.17709291364E+04  0.00000000000E+00 0. -1.
         -2   -1    0    0    0  501 -0.00000000000E+00 -0.00000000000E+00 -0.25446693065E+02  0.25446693065E+02  0.00000000000E+00 0.  1.
         25    2    1    2    0    0  0.52277022381E+02 -0.16052562867E+03  0.12063955411E+04  0.12245568858E+04  0.12509196769E+03 0.  0.
          5    1    3    3  502    0 -0.14777373229E+02 -0.11617610282E+02  0.46402589942E+03  0.46442528717E+03  0.41800000000E+01 0.  1.
         -5    1    3    3    0  502  0.67054395610E+02 -0.14890801839E+03  0.74236964171E+03  0.76013159864E+03  0.41800000000E+01 0.  1.
        -11    1    1    2    0    0 -0.17577441982E+02  0.22763781923E+02  0.23873227986E+02  0.37377630323E+02  0.00000000000E+00 0.  1.
         11    1    1    2    0    0 -0.34699580399E+02  0.13776184675E+03  0.51521367417E+03  0.53444131329E+03  0.00000000000E+00 0. -1.
</event>
<event>
 7    1  0.2749315E-009  0.1153223E+03  0.7561462E-02  0.1251019E+00
         -1   -1    0    0    0  501 -0.00000000000E+00  0.00000000000E+00  0.23006695947E+03  0.23006695947E+03  0.00000000000E+00 0.  1.
          1   -1    0    0  501    0  0.00000000000E+00 -0.00000000000E+00 -0.77598418325E+02  0.77598418325E+02  0.00000000000E+00 0. -1.
         25    2    1    2    0    0 -0.59969058409E+02  0.50541132980E+02  0.74352367375E+02  0.16530627280E+03  0.12508874931E+03 0.  0.
          5    1    3    3  502    0 -0.90329546815E+02  0.49825973829E+01  0.59724606813E+02  0.10848388988E+03  0.41800000000E+01 0.  1.
         -5    1    3    3    0  502  0.30360488405E+02  0.45558535597E+02  0.14627760562E+02  0.56822382923E+02  0.41800000000E+01 0.  1.
        -11    1    1    2    0    0  0.12264552545E+02 -0.31511350591E+02 -0.14234103249E+02  0.36687793073E+02  0.00000000000E+00 0. -1.
         11    1    1    2    0    0  0.47704505864E+02 -0.19029782389E+02  0.92350277024E+02  0.10567131192E+03  0.00000000000E+00 0.  1.
</event>
<event>
 7    1  0.2749315E-009  0.7772534E+02  0.7561462E-02  0.1335633E+00
         -1   -1    0    0    0  501 -0.00000000000E+00  0.00000000000E+00  0.17207377300E+03  0.17207377300E+03  0.00000000000E+00 0.  1.
          1   -1    0    0  501    0  0.00000000000E+00 -0.00000000000E+00 -0.83825007401E+02  0.83825007401E+02  0.00000000000E+00 0. -1.
         25    2    1    2    0    0 -0.52434025448E+02 -0.73881732728E+01  0.51581708220E+02  0.14529415095E+03  0.12508319451E+03 0.  0.
          5    1    3    3  502    0 -0.14576296761E+02 -0.10684751465E+02 -0.41070017417E+02  0.45064965015E+02  0.41800000000E+01 0.  1.
         -5    1    3    3    0  502 -0.37857728686E+02  0.32965781923E+01  0.92651725638E+02  0.10022918593E+03  0.41800000000E+01 0.  1.
        -11    1    1    2    0    0  0.55313007768E+02  0.38521033403E+02  0.41219641978E+02  0.79009225586E+02  0.00000000000E+00 0.  1.
         11    1    1    2    0    0 -0.28789823206E+01 -0.31132860130E+02 -0.45525845996E+01  0.31595403869E+02  0.00000000000E+00 0. -1.
</event>
<event>
 7    1  0.2749315E-009  0.8545728E+02  0.7561462E-02  0.1314241E+00
          1   -1    0    0  501    0  0.00000000000E+00  0.00000000000E+00  0.16036402217E+03  0.16036402217E+03  0.00000000000E+00 0. -1.
         -1   -1    0    0    0  501 -0.00000000000E+00 -0.00000000000E+00 -0.97422757262E+02  0.97422757262E+02  0.00000000000E+00 0.  1.
         25    2    1    2    0    0  0.43693441255E+02  0.28671806093E+02  0.42174669443E+01  0.13563579560E+03  0.12509233688E+03 0.  0.
          5    1    3    3  502    0  0.55216178844E+02 -0.26948445520E+02 -0.30718636684E+02  0.68819707656E+02  0.41800000000E+01 0. -1.
         -5    1    3    3    0  502 -0.11522737589E+02  0.55620251613E+02  0.34936103629E+02  0.66816087941E+02  0.41800000000E+01 0. -1.
        -11    1    1    2    0    0 -0.90833284404E+01 -0.77015024715E+01 -0.25812942838E+02  0.28427592473E+02  0.00000000000E+00 0.  1.
         11    1    1    2    0    0 -0.34610112815E+02 -0.20970303621E+02  0.84536740802E+02  0.93723391362E+02  0.00000000000E+00 0. -1.
</event>
<event>
 7    1  0.2749315E-009  0.1426738E+03  0.7561462E-02  0.1209776E+00
         -2   -1    0    0    0  501 -0.00000000000E+00  0.00000000000E+00  0.90629378819E+01  0.90629378819E+01  0.00000000000E+00 0.  1.
          2   -1    0    0  501    0  0.00000000000E+00 -0.00000000000E+00 -0.31125374055E+04  0.31125374055E+04  0.00000000000E+00 0. -1.
         25    2    1    2    0    0  0.78722486461E+02  0.69000795358E+02 -0.23787866882E+04  0.23843724357E+04  0.12508982624E+03 0.  0.
          5    1    3    3  502    0 -0.27295597246E+02  0.16612924403E+02 -0.22027904024E+03  0.22262382365E+03  0.41800000000E+01 0.  1.
         -5    1    3    3    0  502  0.10601808371E+03  0.52387870955E+02 -0.21585076480E+04  0.21617486121E+04  0.41800000000E+01 0.  1.
        -11    1    1    2    0    0 -0.81897374596E+02 -0.18203580486E+02 -0.48403441760E+03  0.49125132848E+03  0.00000000000E+00 0.  1.
         11    1    1    2    0    0  0.31748881356E+01 -0.50797214872E+02 -0.24065336180E+03  0.24597657917E+03  0.00000000000E+00 0. -1.
</event>
<event>
 7    1  0.2749315E-009  0.1135421E+03  0.7561462E-02  0.1254148E+00
         -2   -1    0    0    0  501 -0.00000000000E+00  0.00000000000E+00  0.21963743385E+03  0.21963743385E+03  0.00000000000E+00 0.  1.
          2   -1    0    0  501    0  0.00000000000E+00 -0.00000000000E+00 -0.81563079797E+02  0.81563079797E+02  0.00000000000E+00 0. -1.
         25    2    1    2    0    0 -0.49425357909E+02 -0.70909448987E+02  0.41420064285E+02  0.15758554801E+03  0.12508623928E+03 0.  0.
          5    1    3    3  502    0 -0.45429327551E+02  0.12024243983E+02  0.55953935082E+02  0.73189626972E+02  0.41800000000E+01 0. -1.
         -5    1    3    3    0  502 -0.39960303579E+01 -0.82933692971E+02 -0.14533870797E+02  0.84395921043E+02  0.41800000000E+01 0. -1.
        -11    1    1    2    0    0  0.57021016450E+02  0.55407963977E+02  0.98121415270E+02  0.12629034375E+03  0.00000000000E+00 0.  1.
         11    1    1    2    0    0 -0.75956585409E+01  0.15501485010E+02 -0.14671255034E+01  0.17324621884E+02  0.00000000000E+00 0. -1.
</event>
<event>
 7    1  0.2749315E-009  0.1161617E+03  0.7561462E-02  0.1249567E+00
         -1   -1    0    0    0  501 -0.00000000000E+00  0.00000000000E+00  0.79952231721E+02  0.79952231721E+02  0.00000000000E+00 0.  1.
          1   -1    0    0  501    0  0.00000000000E+00 -0.00000000000E+00 -0.22026796929E+03  0.22026796929E+03  0.00000000000E+00 0. -1.
         25    2    1    2    0    0  0.67667615784E+02 -0.36196456804E+02 -0.93224508378E+02  0.17386304007E+03  0.12509379693E+03 0.  0.
          5    1    3    3  502    0  0.34815301612E+01  0.37279311649E+02 -0.59743733104E+02  0.70630405454E+02  0.41800000000E+01 0.  1.
         -5    1    3    3    0  502  0.64186085623E+02 -0.73475768453E+02 -0.33480775274E+02  0.10323263462E+03  0.41800000000E+01 0.  1.
        -11    1    1    2    0    0 -0.58033501160E+02 -0.15358762518E+01  0.83024519115E+01  0.58644495739E+02  0.00000000000E+00 0.  1.
         11    1    1    2    0    0 -0.96341146235E+01  0.37732333056E+02 -0.55393681105E+02  0.67712665202E+02  0.00000000000E+00 0. -1.
</event>
<event>
 7    1  0.2749315E-009  0.8580581E+02  0.7561462E-02  0.1313339E+00
         -1   -1    0    0    0  501 -0.00000000000E+00  0.00000000000E+00  0.61295005845E+02  0.61295005845E+02  0.00000000000E+00 0.  1.
          1   -1    0    0  501    0  0.00000000000E+00 -0.00000000000E+00 -0.22535714054E+03  0.22535714054E+03  0.00000000000E+00 0. -1.
         25    2    1    2    0    0 -0.36918499875E+02  0.23356532107E+01 -0.62044979897E+02  0.14444908627E+03  0.12509007988E+03 0.  0.
          5    1    3    3  502    0 -0.58046375030E+02  0.35982941035E+02  0.25820514907E+01  0.68471111350E+02  0.41800000000E+01 0.  1.
         -5    1    3    3    0  502  0.21127875155E+02 -0.33647287824E+02 -0.64627031387E+02  0.75977974917E+02  0.41800000000E+01 0.  1.
        -11    1    1    2    0    0  0.91695478100E+01 -0.25496149344E+02 -0.10253550925E+03  0.10605500882E+03  0.00000000000E+00 0.  1.
         11    1    1    2    0    0  0.27748952065E+02  0.23160496133E+02  0.51835444636E+00  0.36148051305E+02  0.00000000000E+00 0. -1.
</event>
<event>
 7    1  0.2749315E-009  0.1067290E+03  0.7561462E-02  0.1266750E+00
          2   -1    0    0  501    0  0.00000000000E+00  0.00000000000E+00  0.30437506043E+02  0.30437506043E+02  0.00000000000E+00 0. -1.
         -2   -1    0    0    0  501 -0.00000000000E+00 -0.00000000000E+00 -0.88823830757E+03  0.88823830757E+03  0.00000000000E+00 0.  1.
         25    2    1    2    0    0 -0.48093883436E+02 -0.35478085711E+02 -0.76089082081E+03  0.77341712260E+03  0.12508992024E+03 0.  0.
          5    1    3    3  502    0  0.28855140272E+02 -0.29849844088E+02 -0.48851121946E+03  0.49029003278E+03  0.41800000000E+01 0.  1.
         -5    1    3    3    0  502 -0.76949023708E+02 -0.56282416227E+01 -0.27237960135E+03  0.28312708981E+03  0.41800000000E+01 0.  1.
        -11    1    1    2    0    0 -0.12958982282E+02 -0.11580663310E+02  0.44281095082E+01  0.17934746675E+02  0.00000000000E+00 0. -1.
         11    1    1    2    0    0  0.61052865718E+02  0.47058749021E+02 -0.10133809022E+03  0.12732394434E+03  0.00000000000E+00 0.  1.
</event>
<event>
 7    1  0.2749315E-009  0.1063699E+03  0.7561462E-02  0.1267444E+00
         -2   -1    0    0    0  501 -0.00000000000E+00  0.00000000000E+00  0.28680146299E+02  0.28680146299E+02  0.00000000000E+00 0.  1.
          2   -1    0    0  501    0  0.00000000000E+00 -0.00000000000E+00 -0.68233434026E+03  0.68233434026E+03  0.00000000000E+00 0. -1.
         25    2    1    2    0    0  0.49816166783E+02  0.38346078913E+02 -0.51027187747E+03  0.52912934609E+03  0.12509357985E+03 0.  0.
          5    1    3    3  502    0  0.75093171555E+02  0.64797759402E+02 -0.31024522083E+03  0.32574116026E+03  0.41800000000E+01 0.  1.
         -5    1    3    3    0  502 -0.25277004772E+02 -0.26451680489E+02 -0.20002665664E+03  0.20338818583E+03  0.41800000000E+01 0.  1.
        -11    1    1    2    0    0 -0.42176826310E+02 -0.50476613031E+01 -0.14142403243E+03  0.14766556983E+03  0.00000000000E+00 0. -1.
         11    1    1    2    0    0 -0.76393404738E+01 -0.33298417610E+02 -0.19582840548E+01  0.34219570638E+02  0.00000000000E+00 0.  1.
</event>
<event>
 7    1  0.2749315E-009  0.1419254E+03  0.7561462E-02  0.1210761E+00
         -1   -1    0    0    0  501 -0.00000000000E+00  0.00000000000E+00  0.60763793583E+02  0.60763793583E+02  0.00000000000E+00 0.  1.
          1   -1    0    0  501    0  0.00000000000E+00 -0.00000000000E+00 -0.38432292147E+03  0.38432292147E+03  0.00000000000E+00 0. -1.
         25    2    1    2    0    0 -0.36343593247E+02 -0.89431944554E+02 -0.24016894496E+03  0.28748007693E+03  0.12507894721E+03 0.  0.
          5    1    3    3  502    0 -0.82840497957E+02 -0.64506469899E+02 -0.16007506539E+03  0.19148141351E+03  0.41800000000E+01 0.  1.
         -5    1    3    3    0  502  0.46496904710E+02 -0.24925474655E+02 -0.80093879565E+02  0.95998663418E+02  0.41800000000E+01 0.  1.
        -11    1    1    2    0    0 -0.97292105178E+01  0.77703497930E+02 -0.76666673443E+02  0.10959137715E+03  0.00000000000E+00 0. -1.
         11    1    1    2    0    0  0.46072803765E+02  0.11728446624E+02 -0.67235094892E+01  0.48015260979E+02  0.00000000000E+00 0.  1.
</event>
<event>
 7    1  0.2749315E-009  0.1446111E+03  0.7561462E-02  0.1207256E+00
         -2   -1    0    0    0  501 -0.00000000000E+00  0.00000000000E+00  0.95924062634E+02  0.95924062634E+02  0.00000000000E+00 0. -1.
          2   -1    0    0  501    0  0.00000000000E+00 -0.00000000000E+00 -0.28199589373E+03  0.28199589373E+03  0.00000000000E+00 0.  1.
         25    2    1    2    0    0  0.97686159663E+02  0.21589991304E+02 -0.18270525307E+03  0.24297547075E+03  0.12508859410E+03 0.  0.
          5    1    3    3  502    0  0.96202318627E+02 -0.31611892265E+02 -0.87829375095E+02  0.13411066092E+03  0.41800000000E+01 0. -1.
         -5    1    3    3    0  502  0.14838410361E+01  0.53201883568E+02 -0.94875877975E+02  0.10886480984E+03  0.41800000000E+01 0. -1.
        -11    1    1    2    0    0 -0.32238482185E+02 -0.52888740435E+02 -0.68301641678E+01  0.62315244852E+02  0.00000000000E+00 0.  1.
         11    1    1    2    0    0 -0.65447677479E+02  0.31298749132E+02  0.34635861386E+01  0.72629240761E+02  0.00000000000E+00 0. -1.
</event>
