<event>
 6    1  0.7270761E-006  0.1181314E+03  0.7546771E-02  0.1257555E+00
         -3   -1    0    0    0  501 -0.00000000000E+00  0.00000000000E+00  0.27507306391E+02  0.27507306391E+02  0.00000000000E+00 0.  1.
          3   -1    0    0  501    0  0.00000000000E+00 -0.00000000000E+00 -0.41171461892E+03  0.41171461892E+03  0.00000000000E+00 0. -1.
          5    1    1    2  502    0  0.33759836347E+02  0.12937565451E+02 -0.10077410272E+02  0.37825273928E+02  0.47000000000E+01 0. -1.
         -5    1    1    2    0  502 -0.41428886978E+02  0.63566194883E+01 -0.18912296450E+03  0.19376879261E+03  0.47000000000E+01 0.  1.
        -11    1    1    2    0    0  0.35050315734E+02 -0.35039384159E+02 -0.15952042246E+03  0.16704205535E+03  0.00000000000E+00 0. -1.
         11    1    1    2    0    0 -0.27381265103E+02  0.15745199220E+02 -0.25486515296E+02  0.40585803417E+02  0.00000000000E+00 0.  1.
<mgrwt>
<rscale>  0 0.11164424E+03</rscale>
<asrwt>0</asrwt>
<pdfrwt beam="2">  1        3 0.63340709E-01 0.11813138E+03</pdfrwt>
<pdfrwt beam="1">  1       -3 0.42318934E-02 0.11813138E+03</pdfrwt>
<totfact> 0.16390320E+03</totfact>
</mgrwt>
</event>
<event>
 6    1  0.7270761E-006  0.1327991E+03  0.7546771E-02  0.1236542E+00
          1   -1    0    0  501    0  0.00000000000E+00  0.00000000000E+00  0.18562038704E+02  0.18562038704E+02  0.00000000000E+00 0. -1.
         -1   -1    0    0    0  501 -0.00000000000E+00 -0.00000000000E+00 -0.74141155400E+03  0.74141155400E+03  0.00000000000E+00 0.  1.
          5    1    1    2  502    0  0.52001853372E+02 -0.16306340365E+02 -0.57162182772E+02  0.79118231966E+02  0.47000000000E+01 0.  1.
         -5    1    1    2    0  502 -0.71728578153E+01  0.15733515259E+02 -0.32437690477E+03  0.32487145110E+03  0.47000000000E+01 0.  1.
        -11    1    1    2    0    0 -0.57130102578E+02  0.33222532895E+02 -0.23313134883E+03  0.24231758319E+03  0.00000000000E+00 0. -1.
         11    1    1    2    0    0  0.12301107021E+02 -0.32649707790E+02 -0.10817907892E+03  0.11366632645E+03  0.00000000000E+00 0.  1.
<mgrwt>
<rscale>  0 0.12406232E+03</rscale>
<asrwt>0</asrwt>
<pdfrwt beam="1">  1        1 0.28556986E-02 0.13279905E+03</pdfrwt>
<pdfrwt beam="2">  1       -1 0.11406330E+00 0.13279905E+03</pdfrwt>
<totfact> 0.26274036E+03</totfact>
</mgrwt>
</event>
<event>
 6    1  0.7270761E-006  0.1324806E+03  0.7546771E-02  0.1237068E+00
          1   -1    0    0  501    0  0.00000000000E+00  0.00000000000E+00  0.28847899216E+03  0.28847899216E+03  0.00000000000E+00 0. -1.
         -1   -1    0    0    0  501 -0.00000000000E+00 -0.00000000000E+00 -0.51556347570E+02  0.51556347570E+02  0.00000000000E+00 0.  1.
          5    1    1    2  502    0 -0.57269434000E+02  0.63221401452E+02  0.40590302735E+02  0.94585391833E+02  0.47000000000E+01 0. -1.
         -5    1    1    2    0  502  0.37297931529E+02 -0.24132738256E+02  0.43355916725E+02  0.62252311340E+02  0.47000000000E+01 0. -1.
        -11    1    1    2    0    0 -0.22457277752E+00 -0.51580919454E+02  0.33778898175E+02  0.61657567634E+02  0.00000000000E+00 0.  1.
         11    1    1    2    0    0  0.20196075248E+02  0.12492256259E+02  0.11919752695E+03  0.12154006892E+03  0.00000000000E+00 0. -1.
<mgrwt>
<rscale>  0 0.12372960E+03</rscale>
<asrwt>0</asrwt>
<pdfrwt beam="1">  1        1 0.44381382E-01 0.13248055E+03</pdfrwt>
<pdfrwt beam="2">  1       -1 0.79317460E-02 0.13248055E+03</pdfrwt>
<totfact> 0.76234074E+03</totfact>
</mgrwt>
</event>
<event>
 6    1  0.7270761E-006  0.1155482E+03  0.7546771E-02  0.1261424E+00
          2   -1    0    0  501    0  0.00000000000E+00  0.00000000000E+00  0.13227249215E+03  0.13227249215E+03  0.00000000000E+00 0. -1.
         -2   -1    0    0    0  501 -0.00000000000E+00 -0.00000000000E+00 -0.11087734058E+03  0.11087734058E+03  0.00000000000E+00 0.  1.
          5    1    1    2  502    0 -0.15674009133E+02 -0.67858289475E+01  0.35151064180E+02  0.39362537390E+02  0.47000000000E+01 0. -1.
         -5    1    1    2    0  502  0.47560443229E+01  0.14816277697E+02 -0.84896877018E+02  0.86439063911E+02  0.47000000000E+01 0.  1.
        -11    1    1    2    0    0  0.46739402287E+02  0.12668543190E+02  0.54090784917E+02  0.72600803891E+02  0.00000000000E+00 0.  1.
         11    1    1    2    0    0 -0.35821437476E+02 -0.20698991939E+02  0.17050179489E+02  0.44747427533E+02  0.00000000000E+00 0. -1.
<mgrwt>
<rscale>  0 0.10953984E+03</rscale>
<asrwt>0</asrwt>
<pdfrwt beam="1">  1        2 0.20349614E-01 0.11554825E+03</pdfrwt>
<pdfrwt beam="2">  1       -2 0.17058052E-01 0.11554825E+03</pdfrwt>
<totfact> 0.70270840E+03</totfact>
</mgrwt>
</event>
<event>
 6    1  0.7270761E-006  0.2923272E+03  0.7546771E-02  0.1090680E+00
          1   -1    0    0  501    0  0.00000000000E+00  0.00000000000E+00  0.70209555898E+03  0.70209555898E+03  0.00000000000E+00 0. -1.
         -1   -1    0    0    0  501 -0.00000000000E+00 -0.00000000000E+00 -0.17294428462E+03  0.17294428462E+03  0.00000000000E+00 0.  1.
          5    1    1    2  502    0 -0.81514511953E+02 -0.41389457146E+02 -0.52785577280E+02  0.10566981589E+03  0.47000000000E+01 0. -1.
         -5    1    1    2    0  502 -0.15378332769E+03 -0.78885626411E+02  0.71987555783E+02  0.18728735173E+03  0.47000000000E+01 0. -1.
        -11    1    1    2    0    0  0.15810008183E+02 -0.90773101234E+01  0.95953247492E+01  0.20601557584E+02  0.00000000000E+00 0.  1.
         11    1    1    2    0    0  0.21948783146E+03  0.12935239368E+03  0.50035397110E+03  0.56148111839E+03  0.00000000000E+00 0. -1.
<mgrwt>
<rscale>  0 0.28936657E+03</rscale>
<asrwt>0</asrwt>
<pdfrwt beam="1">  1        1 0.10801470E+00 0.29232719E+03</pdfrwt>
<pdfrwt beam="2">  1       -1 0.26606813E-01 0.29232719E+03</pdfrwt>
<totfact> 0.35372537E+02</totfact>
</mgrwt>
</event>
<event>
 6    1  0.7270761E-006  0.1379283E+03  0.7546771E-02  0.1227995E+00
         -2   -1    0    0    0  501 -0.00000000000E+00  0.00000000000E+00  0.28803767695E+03  0.28803767695E+03  0.00000000000E+00 0. -1.
          2   -1    0    0  501    0  0.00000000000E+00 -0.00000000000E+00 -0.68968817508E+02  0.68968817508E+02  0.00000000000E+00 0.  1.
          5    1    1    2  502    0 -0.69578628157E+02  0.23535567559E+02  0.20743467018E+03  0.22010529487E+03  0.47000000000E+01 0. -1.
         -5    1    1    2    0  502  0.24662787391E+02  0.13652288496E+02 -0.50093779348E+00  0.28582844535E+02  0.47000000000E+01 0. -1.
        -11    1    1    2    0    0 -0.37374580787E+01 -0.26571894254E+02 -0.32010749461E+02  0.41769872375E+02  0.00000000000E+00 0.  1.
         11    1    1    2    0    0  0.48653298846E+02 -0.10615961801E+02  0.44145876515E+02  0.66548482678E+02  0.00000000000E+00 0. -1.
<mgrwt>
<rscale>  0 0.12963728E+03</rscale>
<asrwt>0</asrwt>
<pdfrwt beam="2">  1        2 0.10610587E-01 0.13792832E+03</pdfrwt>
<pdfrwt beam="1">  1       -2 0.44313488E-01 0.13792832E+03</pdfrwt>
<totfact> 0.27950735E+03</totfact>
</mgrwt>
</event>
<event>
 6    1  0.7270761E-006  0.1311698E+03  0.7546771E-02  0.1238405E+00
         -2   -1    0    0    0  501 -0.00000000000E+00  0.00000000000E+00  0.15884632732E+03  0.15884632732E+03  0.00000000000E+00 0.  1.
          2   -1    0    0  501    0  0.00000000000E+00 -0.00000000000E+00 -0.85172669768E+02  0.85172669768E+02  0.00000000000E+00 0. -1.
          5    1    1    2  502    0  0.34911660992E+02 -0.66752172945E+02  0.21142902215E+01  0.75506535407E+02  0.47000000000E+01 0.  1.
         -5    1    1    2    0  502 -0.22286914306E+01  0.44147385550E+02  0.46640152640E+02  0.64430990639E+02  0.47000000000E+01 0.  1.
        -11    1    1    2    0    0 -0.33001132906E+02 -0.29857746886E+02 -0.30876126847E+01  0.44610460368E+02  0.00000000000E+00 0. -1.
         11    1    1    2    0    0  0.31816334427E+00  0.52462534281E+02  0.28006827378E+02  0.59471010676E+02  0.00000000000E+00 0.  1.
<mgrwt>
<rscale>  0 0.12288932E+03</rscale>
<asrwt>0</asrwt>
<pdfrwt beam="2">  1        2 0.13103488E-01 0.13116980E+03</pdfrwt>
<pdfrwt beam="1">  1       -2 0.24437897E-01 0.13116980E+03</pdfrwt>
<totfact> 0.64177117E+03</totfact>
</mgrwt>
</event>
<event>
 6    1  0.7270761E-006  0.3974878E+03  0.7546771E-02  0.1044653E+00
          2   -1    0    0  501    0  0.00000000000E+00  0.00000000000E+00  0.94462248770E+02  0.94462248770E+02  0.00000000000E+00 0. -1.
         -2   -1    0    0    0  501 -0.00000000000E+00 -0.00000000000E+00 -0.41814742687E+03  0.41814742687E+03  0.00000000000E+00 0.  1.
          5    1    1    2  502    0 -0.26543426670E+02 -0.15722436996E+03 -0.27053825741E+03  0.31406543066E+03  0.47000000000E+01 0. -1.
         -5    1    1    2    0  502 -0.19124597865E+01  0.22416907331E+02 -0.17768840853E+02  0.29051625462E+02  0.47000000000E+01 0. -1.
        -11    1    1    2    0    0 -0.21743269441E+02  0.89850323163E+02 -0.42470081024E+02  0.10173277800E+03  0.00000000000E+00 0.  1.
         11    1    1    2    0    0  0.50199155897E+02  0.44957139471E+02  0.70920011840E+01  0.67759841521E+02  0.00000000000E+00 0. -1.
<mgrwt>
<rscale>  0 0.39748784E+03</rscale>
<asrwt>0</asrwt>
<pdfrwt beam="1">  1        2 0.14532654E-01 0.39748784E+03</pdfrwt>
<pdfrwt beam="2">  1       -2 0.64330370E-01 0.39748784E+03</pdfrwt>
<totfact> 0.93108711E+02</totfact>
</mgrwt>
</event>
<event>
 6    1  0.7270761E-006  0.1309050E+03  0.7546771E-02  0.1238176E+00
         -1   -1    0    0    0  501 -0.00000000000E+00  0.00000000000E+00  0.24814112459E+03  0.24814112459E+03  0.00000000000E+00 0. -1.
          1   -1    0    0  501    0  0.00000000000E+00 -0.00000000000E+00 -0.63464633366E+02  0.63464633366E+02  0.00000000000E+00 0.  1.
          5    1    1    2  502    0 -0.32048495320E+02  0.17322701518E+02 -0.68741466804E+01  0.37370120855E+02  0.47000000000E+01 0.  1.
         -5    1    1    2    0  502  0.21016168685E+02  0.19957857306E+02  0.16649320442E+03  0.16906233327E+03  0.47000000000E+01 0.  1.
        -11    1    1    2    0    0 -0.33612893308E+02  0.10750720675E+02  0.93918599788E+00  0.35302785469E+02  0.00000000000E+00 0.  1.
         11    1    1    2    0    0  0.44645219942E+02 -0.48031279499E+02  0.24118247490E+02  0.69870518360E+02  0.00000000000E+00 0. -1.
<mgrwt>
<rscale>  0 0.12303287E+03</rscale>
<asrwt>0</asrwt>
<pdfrwt beam="2">  1        1 0.97637899E-02 0.13090498E+03</pdfrwt>
<pdfrwt beam="1">  1       -1 0.38175557E-01 0.13090498E+03</pdfrwt>
<totfact> 0.42467830E+03</totfact>
</mgrwt>
</event>
<event>
 6    1  0.7270761E-006  0.1362103E+03  0.7546771E-02  0.1230524E+00
         -2   -1    0    0    0  501 -0.00000000000E+00  0.00000000000E+00  0.23224162269E+03  0.23224162269E+03  0.00000000000E+00 0.  1.
          2   -1    0    0  501    0  0.00000000000E+00 -0.00000000000E+00 -0.73375700975E+02  0.73375700975E+02  0.00000000000E+00 0. -1.
          5    1    1    2  502    0 -0.72607497886E+02 -0.59928752849E+02  0.10026246990E+03  0.13761525002E+03  0.47000000000E+01 0.  1.
         -5    1    1    2    0  502  0.25831442530E+02  0.32714366065E+02  0.44243980836E+02  0.60968131105E+02  0.47000000000E+01 0.  1.
        -11    1    1    2    0    0  0.45031512985E+02  0.39815443250E+02 -0.25424995049E+02  0.65265128944E+02  0.00000000000E+00 0. -1.
         11    1    1    2    0    0  0.17445423715E+01 -0.12601056465E+02  0.39784466031E+02  0.41768813600E+02  0.00000000000E+00 0.  1.
<mgrwt>
<rscale>  0 0.12795341E+03</rscale>
<asrwt>0</asrwt>
<pdfrwt beam="2">  1        2 0.11288569E-01 0.13621030E+03</pdfrwt>
<pdfrwt beam="1">  1       -2 0.35729480E-01 0.13621030E+03</pdfrwt>
<totfact> 0.38925385E+03</totfact>
</mgrwt>
</event>
<event>
 6    1  0.7270761E-006  0.1370699E+03  0.7546771E-02  0.1229267E+00
         -1   -1    0    0    0  501 -0.00000000000E+00  0.00000000000E+00  0.80251034199E+02  0.80251034199E+02  0.00000000000E+00 0.  1.
          1   -1    0    0  501    0  0.00000000000E+00 -0.00000000000E+00 -0.19928963708E+03  0.19928963708E+03  0.00000000000E+00 0. -1.
          5    1    1    2  502    0  0.33188056736E+01 -0.40635831535E+02  0.93097015131E+00  0.41051698882E+02  0.47000000000E+01 0.  1.
         -5    1    1    2    0  502 -0.33553867232E+02  0.88066531680E+02 -0.30553523478E+02  0.99182578134E+02  0.47000000000E+01 0.  1.
        -11    1    1    2    0    0  0.43410481300E+02 -0.60396730166E+02 -0.35708310037E+02  0.82506474335E+02  0.00000000000E+00 0.  1.
         11    1    1    2    0    0 -0.13175419742E+02  0.12966030021E+02 -0.53707739515E+02  0.56799919927E+02  0.00000000000E+00 0. -1.
<mgrwt>
<rscale>  0 0.12878706E+03</rscale>
<asrwt>0</asrwt>
<pdfrwt beam="2">  1        1 0.30659944E-01 0.13706990E+03</pdfrwt>
<pdfrwt beam="1">  1       -1 0.12346313E-01 0.13706990E+03</pdfrwt>
<totfact> 0.61483857E+03</totfact>
</mgrwt>
</event>
<event>
 6    1  0.7270761E-006  0.1457249E+03  0.7546771E-02  0.1214956E+00
         -1   -1    0    0    0  501 -0.00000000000E+00  0.00000000000E+00  0.79659215403E+02  0.79659215403E+02  0.00000000000E+00 0.  1.
          1   -1    0    0  501    0  0.00000000000E+00 -0.00000000000E+00 -0.25266620045E+03  0.25266620045E+03  0.00000000000E+00 0. -1.
          5    1    1    2  502    0 -0.57695715268E+01  0.49429652054E+02 -0.30834296630E+02  0.58731782763E+02  0.47000000000E+01 0.  1.
         -5    1    1    2    0  502  0.80372421882E+02 -0.42798946588E+02 -0.48989373155E+01  0.91310271136E+02  0.47000000000E+01 0.  1.
        -11    1    1    2    0    0 -0.11301619627E+02 -0.23277612564E+01  0.14059270043E+02  0.18188132196E+02  0.00000000000E+00 0.  1.
         11    1    1    2    0    0 -0.63301230728E+02 -0.43029442102E+01 -0.15133302114E+03  0.16409522975E+03  0.00000000000E+00 0. -1.
<mgrwt>
<rscale>  0 0.13879765E+03</rscale>
<asrwt>0</asrwt>
<pdfrwt beam="2">  1        1 0.38871723E-01 0.14572493E+03</pdfrwt>
<pdfrwt beam="1">  1       -1 0.12255264E-01 0.14572493E+03</pdfrwt>
<totfact> 0.46501099E+03</totfact>
</mgrwt>
</event>
<event>
 6    1  0.7270761E-006  0.3989262E+03  0.7546771E-02  0.1045091E+00
         -2   -1    0    0    0  501 -0.00000000000E+00  0.00000000000E+00  0.35676692120E+03  0.35676692120E+03  0.00000000000E+00 0.  1.
          2   -1    0    0  501    0  0.00000000000E+00 -0.00000000000E+00 -0.44923882797E+03  0.44923882797E+03  0.00000000000E+00 0. -1.
          5    1    1    2  502    0 -0.24345432447E+02  0.24274987699E+01 -0.32313905932E+02  0.40802835047E+02  0.47000000000E+01 0.  1.
         -5    1    1    2    0  502 -0.22194410678E+03 -0.29027839931E+03 -0.88181013100E+02  0.37592381770E+03  0.47000000000E+01 0.  1.
        -11    1    1    2    0    0  0.20815124823E+03  0.20978649050E+03 -0.69781987686E+01  0.29561124639E+03  0.00000000000E+00 0. -1.
         11    1    1    2    0    0  0.38138290998E+02  0.78064410045E+02  0.35001211039E+02  0.93667850035E+02  0.00000000000E+00 0.  1.
<mgrwt>
<rscale>  0 0.39623479E+03</rscale>
<asrwt>0</asrwt>
<pdfrwt beam="2">  1        2 0.69113666E-01 0.39892616E+03</pdfrwt>
<pdfrwt beam="1">  1       -2 0.54887219E-01 0.39892616E+03</pdfrwt>
<totfact> 0.22311461E+02</totfact>
</mgrwt>
</event>
<event>
 6    1  0.7270761E-006  0.2141056E+03  0.7546771E-02  0.1141908E+00
          2   -1    0    0  501    0  0.00000000000E+00  0.00000000000E+00  0.41565041985E+03  0.41565041985E+03  0.00000000000E+00 0. -1.
         -2   -1    0    0    0  501 -0.00000000000E+00 -0.00000000000E+00 -0.10144153205E+03  0.10144153205E+03  0.00000000000E+00 0.  1.
          5    1    1    2  502    0 -0.14169103729E+02  0.33540673619E+02 -0.19182629454E+02  0.41422259234E+02  0.47000000000E+01 0.  1.
         -5    1    1    2    0  502 -0.52674771768E+02  0.12692844389E+03  0.17918198805E+03  0.22586220642E+03  0.47000000000E+01 0.  1.
        -11    1    1    2    0    0  0.36812336582E+02 -0.33659052904E+02  0.26867794520E+01  0.49952965386E+02  0.00000000000E+00 0.  1.
         11    1    1    2    0    0  0.30031538915E+02 -0.12681006461E+03  0.15152274975E+03  0.19985452086E+03  0.00000000000E+00 0. -1.
<mgrwt>
<rscale>  0 0.20956898E+03</rscale>
<asrwt>0</asrwt>
<pdfrwt beam="1">  1        2 0.63946218E-01 0.21410556E+03</pdfrwt>
<pdfrwt beam="2">  1       -2 0.15606390E-01 0.21410556E+03</pdfrwt>
<totfact> 0.24288935E+03</totfact>
</mgrwt>
</event>
<event>
 6    1  0.7270761E-006  0.1259256E+03  0.7546771E-02  0.1250567E+00
          1   -1    0    0  501    0  0.00000000000E+00  0.00000000000E+00  0.46763539210E+02  0.46763539210E+02  0.00000000000E+00 0. -1.
         -1   -1    0    0    0  501 -0.00000000000E+00 -0.00000000000E+00 -0.27409606537E+03  0.27409606537E+03  0.00000000000E+00 0.  1.
          5    1    1    2  502    0  0.39832484103E+02 -0.25785606269E+02 -0.14083437164E+03  0.14868737174E+03  0.47000000000E+01 0. -1.
         -5    1    1    2    0  502 -0.42774964223E+02  0.40726128090E+02 -0.39298810944E+02  0.71097128037E+02  0.47000000000E+01 0. -1.
        -11    1    1    2    0    0  0.14729004466E+02  0.25699868674E+02 -0.50590438881E+02  0.58624391925E+02  0.00000000000E+00 0.  1.
         11    1    1    2    0    0 -0.11786524345E+02 -0.40640390496E+02  0.33910953094E+01  0.42450712870E+02  0.00000000000E+00 0. -1.
<mgrwt>
<rscale>  0 0.11558276E+03</rscale>
<asrwt>0</asrwt>
<pdfrwt beam="1">  1        1 0.71943904E-02 0.12592562E+03</pdfrwt>
<pdfrwt beam="2">  1       -1 0.42168627E-01 0.12592562E+03</pdfrwt>
<totfact> 0.53504593E+03</totfact>
</mgrwt>
</event>
<event>
 6    1  0.7270761E-006  0.3173197E+03  0.7546771E-02  0.1076889E+00
         -2   -1    0    0    0  501 -0.00000000000E+00  0.00000000000E+00  0.65405621468E+02  0.65405621468E+02  0.00000000000E+00 0. -1.
          2   -1    0    0  501    0  0.00000000000E+00 -0.00000000000E+00 -0.38487443314E+03  0.38487443314E+03  0.00000000000E+00 0.  1.
          5    1    1    2  502    0 -0.83287130076E+02 -0.20986105788E+01  0.19448616585E+02  0.85682488816E+02  0.47000000000E+01 0.  1.
         -5    1    1    2    0  502  0.98295558550E+00 -0.11018301412E+02 -0.72747001192E+02  0.73733203851E+02  0.47000000000E+01 0.  1.
        -11    1    1    2    0    0  0.77091567626E+02 -0.23037343516E+02 -0.19237103168E+03  0.20851964614E+03  0.00000000000E+00 0.  1.
         11    1    1    2    0    0  0.52126068646E+01  0.36154255506E+02 -0.73799395378E+02  0.82344715797E+02  0.00000000000E+00 0. -1.
<mgrwt>
<rscale>  0 0.31731972E+03</rscale>
<asrwt>0</asrwt>
<pdfrwt beam="2">  1        2 0.59211452E-01 0.31731972E+03</pdfrwt>
<pdfrwt beam="1">  1       -2 0.10062403E-01 0.31731972E+03</pdfrwt>
<totfact> 0.54727169E+03</totfact>
</mgrwt>
</event>
<event>
 6    1  0.7270761E-006  0.1353513E+03  0.7546771E-02  0.1231480E+00
         -2   -1    0    0    0  501 -0.00000000000E+00  0.00000000000E+00  0.12429744526E+03  0.12429744526E+03  0.00000000000E+00 0.  1.
          2   -1    0    0  501    0  0.00000000000E+00 -0.00000000000E+00 -0.12262582720E+03  0.12262582720E+03  0.00000000000E+00 0. -1.
          5    1    1    2  502    0 -0.18352838625E+02  0.25242459279E+02 -0.45699563671E+02  0.55538712226E+02  0.47000000000E+01 0.  1.
         -5    1    1    2    0  502 -0.33297003492E+02 -0.20126994615E+02  0.72537965373E+02  0.82447757848E+02  0.47000000000E+01 0.  1.
        -11    1    1    2    0    0  0.25503497139E+02 -0.23815189356E+02  0.29384833830E+02  0.45618637305E+02  0.00000000000E+00 0.  1.
         11    1    1    2    0    0  0.26146344978E+02  0.18699724693E+02 -0.54551617477E+02  0.63318165076E+02  0.00000000000E+00 0. -1.
<mgrwt>
<rscale>  0 0.12732476E+03</rscale>
<asrwt>0</asrwt>
<pdfrwt beam="2">  1        2 0.18865512E-01 0.13535127E+03</pdfrwt>
<pdfrwt beam="1">  1       -2 0.19122684E-01 0.13535127E+03</pdfrwt>
<totfact> 0.64020291E+03</totfact>
</mgrwt>
</event>
<event>
 6    1  0.7270761E-006  0.2433131E+03  0.7546771E-02  0.1117605E+00
          2   -1    0    0  501    0  0.00000000000E+00  0.00000000000E+00  0.64083306655E+02  0.64083306655E+02  0.00000000000E+00 0. -1.
         -2   -1    0    0    0  501 -0.00000000000E+00 -0.00000000000E+00 -0.23095433440E+03  0.23095433440E+03  0.00000000000E+00 0.  1.
          5    1    1    2  502    0 -0.41674410120E+01 -0.56404031309E+00 -0.15608530868E+03  0.15621267327E+03  0.47000000000E+01 0.  1.
         -5    1    1    2    0  502  0.10575025946E+02  0.52518660968E+02 -0.45874456649E+01  0.53973841640E+02  0.47000000000E+01 0.  1.
        -11    1    1    2    0    0  0.18929288271E+02 -0.52594766132E+02  0.68998400921E+01  0.56321711375E+02  0.00000000000E+00 0. -1.
         11    1    1    2    0    0 -0.25336873204E+02  0.64014547646E+00 -0.13098113499E+02  0.28529414772E+02  0.00000000000E+00 0.  1.
<mgrwt>
<rscale>  0 0.24331311E+03</rscale>
<asrwt>0</asrwt>
<pdfrwt beam="1">  1        2 0.98589704E-02 0.24331311E+03</pdfrwt>
<pdfrwt beam="2">  1       -2 0.35531436E-01 0.24331311E+03</pdfrwt>
<totfact> 0.48094241E+03</totfact>
</mgrwt>
</event>
<event>
 6    1  0.7270761E-006  0.1851535E+03  0.7546771E-02  0.1167862E+00
         -1   -1    0    0    0  501 -0.00000000000E+00  0.00000000000E+00  0.13801491613E+03  0.13801491613E+03  0.00000000000E+00 0.  1.
          1   -1    0    0  501    0  0.00000000000E+00 -0.00000000000E+00 -0.26998082887E+03  0.26998082887E+03  0.00000000000E+00 0. -1.
          5    1    1    2  502    0 -0.10239649247E+02  0.29555434839E+02  0.36850455128E+02  0.48563568530E+02  0.47000000000E+01 0.  1.
         -5    1    1    2    0  502 -0.12384815075E+03 -0.55547491603E+02 -0.20314807698E+02  0.13732687166E+03  0.47000000000E+01 0.  1.
        -11    1    1    2    0    0  0.11060051297E+03  0.97689215329E+00 -0.57098204159E+02  0.12447342169E+03  0.00000000000E+00 0.  1.
         11    1    1    2    0    0  0.23487287029E+02  0.25015164611E+02 -0.91403356012E+02  0.97631883126E+02  0.00000000000E+00 0. -1.
<mgrwt>
<rscale>  0 0.17993915E+03</rscale>
<asrwt>0</asrwt>
<pdfrwt beam="2">  1        1 0.41535512E-01 0.18515353E+03</pdfrwt>
<pdfrwt beam="1">  1       -1 0.21233064E-01 0.18515353E+03</pdfrwt>
<totfact> 0.18100300E+03</totfact>
</mgrwt>
</event>
<event>
 6    1  0.7270761E-006  0.1360714E+03  0.7546771E-02  0.1230975E+00
         -1   -1    0    0    0  501 -0.00000000000E+00  0.00000000000E+00  0.27869789548E+02  0.27869789548E+02  0.00000000000E+00 0.  1.
          1   -1    0    0  501    0  0.00000000000E+00 -0.00000000000E+00 -0.54586487650E+03  0.54586487650E+03  0.00000000000E+00 0. -1.
          5    1    1    2  502    0 -0.68659949896E+02 -0.42653683450E+02 -0.22438442835E+03  0.23854556612E+03  0.47000000000E+01 0. -1.
         -5    1    1    2    0  502  0.18853647948E+02  0.22420552095E+02 -0.79707524557E+01  0.30720743674E+02  0.47000000000E+01 0. -1.
        -11    1    1    2    0    0  0.70803603725E+02  0.97798682846E+00 -0.24361122075E+03  0.25369377926E+03  0.00000000000E+00 0. -1.
         11    1    1    2    0    0 -0.20997301777E+02  0.19255144527E+02 -0.42028685406E+02  0.50774577001E+02  0.00000000000E+00 0.  1.
<mgrwt>
<rscale>  0 0.12765662E+03</rscale>
<asrwt>0</asrwt>
<pdfrwt beam="2">  1        1 0.83979205E-01 0.13607136E+03</pdfrwt>
<pdfrwt beam="1">  1       -1 0.42876603E-02 0.13607136E+03</pdfrwt>
<totfact> 0.85011573E+03</totfact>
</mgrwt>
</event>
<event>
 6    1  0.7270761E-006  0.3259531E+03  0.7546771E-02  0.1072942E+00
         -4   -1    0    0    0  501 -0.00000000000E+00  0.00000000000E+00  0.44357123223E+03  0.44357123223E+03  0.00000000000E+00 0.  1.
          4   -1    0    0  501    0  0.00000000000E+00 -0.00000000000E+00 -0.59880699342E+02  0.59880699342E+02  0.00000000000E+00 0. -1.
          5    1    1    2  502    0 -0.69100134541E+02  0.12902903541E+03  0.18709278805E+03  0.23759023951E+03  0.47000000000E+01 0.  1.
         -5    1    1    2    0  502  0.10608241944E+02 -0.24217905686E+02  0.34072616220E+02  0.43382887513E+02  0.47000000000E+01 0.  1.
        -11    1    1    2    0    0  0.15044840709E+01 -0.88646100885E+02  0.71599792200E+02  0.11396019006E+03  0.00000000000E+00 0. -1.
         11    1    1    2    0    0  0.56987408526E+02 -0.16165028836E+02  0.90925336417E+02  0.10851861449E+03  0.00000000000E+00 0.  1.
<mgrwt>
<rscale>  0 0.32595310E+03</rscale>
<asrwt>0</asrwt>
<pdfrwt beam="2">  1        4 0.92124156E-02 0.32595310E+03</pdfrwt>
<pdfrwt beam="1">  1       -4 0.68241726E-01 0.32595310E+03</pdfrwt>
<totfact> 0.33508800E+02</totfact>
</mgrwt>
</event>
<event>
 6    1  0.7270761E-006  0.1462330E+03  0.7546771E-02  0.1214616E+00
         -2   -1    0    0    0  501 -0.00000000000E+00  0.00000000000E+00  0.15364938696E+03  0.15364938696E+03  0.00000000000E+00 0.  1.
          2   -1    0    0  501    0  0.00000000000E+00 -0.00000000000E+00 -0.14067939999E+03  0.14067939999E+03  0.00000000000E+00 0. -1.
          5    1    1    2  502    0  0.15591383682E+02  0.74365000752E+02  0.10874546985E+02  0.76899872263E+02  0.47000000000E+01 0.  1.
         -5    1    1    2    0  502 -0.59954450143E+02 -0.12777249421E+02  0.58842573030E+02  0.85101895370E+02  0.47000000000E+01 0.  1.
        -11    1    1    2    0    0 -0.97604047366E+01 -0.27275751180E+02 -0.61588082692E+02  0.68061178602E+02  0.00000000000E+00 0. -1.
         11    1    1    2    0    0  0.54123471199E+02 -0.34312000152E+02  0.48409496454E+01  0.64265840713E+02  0.00000000000E+00 0.  1.
<mgrwt>
<rscale>  0 0.13904772E+03</rscale>
<asrwt>0</asrwt>
<pdfrwt beam="2">  1        2 0.21642985E-01 0.14623302E+03</pdfrwt>
<pdfrwt beam="1">  1       -2 0.23638367E-01 0.14623302E+03</pdfrwt>
<totfact> 0.38348146E+03</totfact>
</mgrwt>
</event>
<event>
 6    1  0.7270761E-006  0.1600310E+03  0.7546771E-02  0.1197911E+00
          3   -1    0    0  501    0  0.00000000000E+00  0.00000000000E+00  0.33213100550E+03  0.33213100550E+03  0.00000000000E+00 0. -1.
         -3   -1    0    0    0  501 -0.00000000000E+00 -0.00000000000E+00 -0.64571671116E+02  0.64571671116E+02  0.00000000000E+00 0.  1.
          5    1    1    2  502    0 -0.67773540153E+02 -0.58115072118E+02  0.79597418671E+02  0.11970151800E+03  0.47000000000E+01 0.  1.
         -5    1    1    2    0  502  0.56081714624E+02 -0.41121732371E+02  0.43066573671E+02  0.81932748984E+02  0.47000000000E+01 0.  1.
        -11    1    1    2    0    0  0.42316380855E+02  0.46318521209E+02  0.10417665543E+03  0.12160944467E+03  0.00000000000E+00 0.  1.
         11    1    1    2    0    0 -0.30624555326E+02  0.52918283280E+02  0.40718686608E+02  0.73458964962E+02  0.00000000000E+00 0. -1.
<mgrwt>
<rscale>  0 0.15210413E+03</rscale>
<asrwt>0</asrwt>
<pdfrwt beam="1">  1        3 0.51097077E-01 0.16003101E+03</pdfrwt>
<pdfrwt beam="2">  1       -3 0.99341034E-02 0.16003101E+03</pdfrwt>
<totfact> 0.67648518E+02</totfact>
</mgrwt>
</event>
<event>
 6    1  0.7270761E-006  0.1267218E+03  0.7546771E-02  0.1247585E+00
         -2   -1    0    0    0  501 -0.00000000000E+00  0.00000000000E+00  0.11148657425E+03  0.11148657425E+03  0.00000000000E+00 0.  1.
          2   -1    0    0  501    0  0.00000000000E+00 -0.00000000000E+00 -0.15256167677E+03  0.15256167677E+03  0.00000000000E+00 0. -1.
          5    1    1    2  502    0  0.54332049577E+02 -0.79114341676E+01  0.36270902483E+02  0.65971439038E+02  0.47000000000E+01 0. -1.
         -5    1    1    2    0  502 -0.62894841717E+02  0.26689270629E+02  0.11436377976E+02  0.69433126262E+02  0.47000000000E+01 0. -1.
        -11    1    1    2    0    0 -0.40939126055E+02 -0.99248232275E+01 -0.48279416932E+02  0.64073522281E+02  0.00000000000E+00 0. -1.
         11    1    1    2    0    0  0.49501918195E+02 -0.88530132336E+01 -0.40502966041E+02  0.64570163438E+02  0.00000000000E+00 0.  1.
<mgrwt>
<rscale>  0 0.11731981E+03</rscale>
<asrwt>0</asrwt>
<pdfrwt beam="2">  1        2 0.23471027E-01 0.12672179E+03</pdfrwt>
<pdfrwt beam="1">  1       -2 0.17151781E-01 0.12672179E+03</pdfrwt>
<totfact> 0.59789703E+03</totfact>
</mgrwt>
</event>
<event>
 6    1  0.7270761E-006  0.1734712E+03  0.7546771E-02  0.1180570E+00
          2   -1    0    0  501    0  0.00000000000E+00  0.00000000000E+00  0.81779059769E+03  0.81779059769E+03  0.00000000000E+00 0. -1.
         -2   -1    0    0    0  501 -0.00000000000E+00 -0.00000000000E+00 -0.32969355863E+02  0.32969355863E+02  0.00000000000E+00 0.  1.
          5    1    1    2  502    0  0.11105742892E+03 -0.47681761667E+02  0.20485546899E+03  0.23789736461E+03  0.47000000000E+01 0. -1.
         -5    1    1    2    0  502 -0.27313969046E+02 -0.38643868888E+02  0.14508468506E+03  0.15267959047E+03  0.47000000000E+01 0. -1.
        -11    1    1    2    0    0 -0.92267894300E+02  0.47370968805E+02  0.36780282084E+03  0.38214694558E+03  0.00000000000E+00 0. -1.
         11    1    1    2    0    0  0.85244344271E+01  0.38954661749E+02  0.67078266941E+02  0.78036052887E+02  0.00000000000E+00 0.  1.
<mgrwt>
<rscale>  0 0.16741579E+03</rscale>
<asrwt>0</asrwt>
<pdfrwt beam="1">  1        2 0.12581392E+00 0.17347117E+03</pdfrwt>
<pdfrwt beam="2">  1       -2 0.50722092E-02 0.17347117E+03</pdfrwt>
<totfact> 0.64664389E+03</totfact>
</mgrwt>
</event>
<event>
 6    1  0.7270761E-006  0.1339432E+03  0.7546771E-02  0.1234907E+00
         -3   -1    0    0    0  501 -0.00000000000E+00  0.00000000000E+00  0.48244522296E+02  0.48244522296E+02  0.00000000000E+00 0.  1.
          3   -1    0    0  501    0  0.00000000000E+00 -0.00000000000E+00 -0.29039695989E+03  0.29039695989E+03  0.00000000000E+00 0. -1.
          5    1    1    2  502    0  0.34415075740E+02  0.57454531787E+02 -0.27218339940E+02  0.72445487714E+02  0.47000000000E+01 0. -1.
         -5    1    1    2    0  502 -0.35796710137E+02 -0.93439848222E+01 -0.12436956718E+03  0.12984064753E+03  0.47000000000E+01 0. -1.
        -11    1    1    2    0    0 -0.25320538429E+01 -0.63894078309E+02 -0.24758743538E+02  0.68570109531E+02  0.00000000000E+00 0.  1.
         11    1    1    2    0    0  0.39136882404E+01  0.15783531344E+02 -0.65805786936E+02  0.67785237417E+02  0.00000000000E+00 0. -1.
<mgrwt>
<rscale>  0 0.12510421E+03</rscale>
<asrwt>0</asrwt>
<pdfrwt beam="2">  1        3 0.44676455E-01 0.13394322E+03</pdfrwt>
<pdfrwt beam="1">  1       -3 0.74222343E-02 0.13394322E+03</pdfrwt>
<totfact> 0.13846798E+03</totfact>
</mgrwt>
</event>
<event>
 6    1  0.7270761E-006  0.1899863E+03  0.7546771E-02  0.1188339E+00
         -3   -1    0    0    0  501 -0.00000000000E+00  0.00000000000E+00  0.57089906258E+03  0.57089906258E+03  0.00000000000E+00 0.  1.
          3   -1    0    0  501    0  0.00000000000E+00 -0.00000000000E+00 -0.35959869660E+02  0.35959869660E+02  0.00000000000E+00 0. -1.
          5    1    1    2  502    0 -0.47396980233E+02  0.79581725232E+02  0.10372467967E+03  0.13914245901E+03  0.47000000000E+01 0. -1.
         -5    1    1    2    0  502  0.15877299926E+02 -0.74591880754E+02  0.26298241074E+03  0.27385740027E+03  0.47000000000E+01 0.  1.
        -11    1    1    2    0    0  0.53459265754E+02  0.44265824059E+01  0.50305750961E+02  0.73540167980E+02  0.00000000000E+00 0. -1.
         11    1    1    2    0    0 -0.21939585446E+02 -0.94164268844E+01  0.11792635156E+03  0.12031890498E+03  0.00000000000E+00 0.  1.
<mgrwt>
<rscale>  0 0.16031757E+03</rscale>
<asrwt>0</asrwt>
<pdfrwt beam="2">  1        3 0.55322880E-02 0.18998630E+03</pdfrwt>
<pdfrwt beam="1">  1       -3 0.87830619E-01 0.18998630E+03</pdfrwt>
<totfact> 0.57104927E+02</totfact>
</mgrwt>
</event>
<event>
 6    1  0.7270761E-006  0.2722204E+03  0.7546771E-02  0.1100016E+00
          1   -1    0    0  501    0  0.00000000000E+00  0.00000000000E+00  0.51159937950E+03  0.51159937950E+03  0.00000000000E+00 0. -1.
         -1   -1    0    0    0  501 -0.00000000000E+00 -0.00000000000E+00 -0.36211892691E+02  0.36211892691E+02  0.00000000000E+00 0.  1.
          5    1    1    2  502    0  0.60829033025E+01  0.95915908376E+01 -0.10562077567E+02  0.16206412617E+02  0.47000000000E+01 0.  1.
         -5    1    1    2    0  502  0.34251811122E+02 -0.81287845485E+02  0.26087205429E+03  0.27542189292E+03  0.47000000000E+01 0.  1.
        -11    1    1    2    0    0 -0.21024001808E+02 -0.65573643876E+01  0.61139859767E+01  0.22855819921E+02  0.00000000000E+00 0.  1.
         11    1    1    2    0    0 -0.19310712617E+02  0.78253619035E+02  0.21896352411E+03  0.23332714673E+03  0.00000000000E+00 0. -1.
<mgrwt>
<rscale>  0 0.27222037E+03</rscale>
<asrwt>0</asrwt>
<pdfrwt beam="1">  1        1 0.78707592E-01 0.27222037E+03</pdfrwt>
<pdfrwt beam="2">  1       -1 0.55710608E-02 0.27222037E+03</pdfrwt>
<totfact> 0.65121812E+03</totfact>
</mgrwt>
</event>
<event>
 6    1  0.7270761E-006  0.1271335E+03  0.7546771E-02  0.1246768E+00
         -2   -1    0    0    0  501 -0.00000000000E+00  0.00000000000E+00  0.41216389761E+03  0.41216389761E+03  0.00000000000E+00 0. -1.
          2   -1    0    0  501    0  0.00000000000E+00 -0.00000000000E+00 -0.31891622100E+02  0.31891622100E+02  0.00000000000E+00 0.  1.
          5    1    1    2  502    0 -0.31032600356E+02  0.62313058968E+02  0.19892124782E+03  0.21080249628E+03  0.47000000000E+01 0.  1.
         -5    1    1    2    0  502  0.10751361581E+02 -0.50810494759E+02  0.76969200043E+02  0.92971210107E+02  0.47000000000E+01 0.  1.
        -11    1    1    2    0    0  0.12099937281E+02  0.20908925445E+02 -0.60481319583E+01  0.24903243677E+02  0.00000000000E+00 0.  1.
         11    1    1    2    0    0  0.81813014942E+01 -0.32411489653E+02  0.11042995960E+03  0.11537856965E+03  0.00000000000E+00 0. -1.
<mgrwt>
<rscale>  0 0.11780208E+03</rscale>
<asrwt>0</asrwt>
<pdfrwt beam="2">  1        2 0.49064037E-02 0.12713349E+03</pdfrwt>
<pdfrwt beam="1">  1       -2 0.63409826E-01 0.12713349E+03</pdfrwt>
<totfact> 0.36004570E+03</totfact>
</mgrwt>
</event>
<event>
 6    1  0.7270761E-006  0.1415654E+03  0.7546771E-02  0.1221647E+00
          3   -1    0    0  501    0  0.00000000000E+00  0.00000000000E+00  0.13880732610E+03  0.13880732610E+03  0.00000000000E+00 0. -1.
         -3   -1    0    0    0  501 -0.00000000000E+00 -0.00000000000E+00 -0.13665403282E+03  0.13665403282E+03  0.00000000000E+00 0.  1.
          5    1    1    2  502    0 -0.98001960662E+01  0.36643928377E+02  0.19847876374E+02  0.43067964038E+02  0.47000000000E+01 0.  1.
         -5    1    1    2    0  502 -0.51564767423E+02 -0.62258383552E+02 -0.70251964230E+02  0.10720289194E+03  0.47000000000E+01 0.  1.
        -11    1    1    2    0    0  0.64969968579E+02 -0.38125662328E+01  0.26922606887E+00  0.65082293761E+02  0.00000000000E+00 0. -1.
         11    1    1    2    0    0 -0.36050050902E+01  0.29427021408E+02  0.52288155069E+02  0.60108209183E+02  0.00000000000E+00 0.  1.
<mgrwt>
<rscale>  0 0.13399395E+03</rscale>
<asrwt>0</asrwt>
<pdfrwt beam="1">  1        3 0.21354973E-01 0.14156538E+03</pdfrwt>
<pdfrwt beam="2">  1       -3 0.21023697E-01 0.14156538E+03</pdfrwt>
<totfact> 0.95193759E+02</totfact>
</mgrwt>
</event>
<event>
 6    1  0.7270761E-006  0.1273205E+03  0.7546771E-02  0.1247409E+00
          1   -1    0    0  501    0  0.00000000000E+00  0.00000000000E+00  0.23663407250E+03  0.23663407250E+03  0.00000000000E+00 0. -1.
         -1   -1    0    0    0  501 -0.00000000000E+00 -0.00000000000E+00 -0.54881974354E+02  0.54881974354E+02  0.00000000000E+00 0.  1.
          5    1    1    2  502    0  0.29571646766E+02 -0.65241099665E+01 -0.28749115071E+02  0.42019613523E+02  0.47000000000E+01 0.  1.
         -5    1    1    2    0  502 -0.21663533237E+02  0.29376283486E+02  0.94211001727E+02  0.10114384583E+03  0.47000000000E+01 0.  1.
        -11    1    1    2    0    0  0.39232183900E+02 -0.16332583449E+02  0.39540457639E+02  0.58046234383E+02  0.00000000000E+00 0.  1.
         11    1    1    2    0    0 -0.47140297429E+02 -0.65195900708E+01  0.76749753852E+02  0.90306353114E+02  0.00000000000E+00 0. -1.
<mgrwt>
<rscale>  0 0.11742371E+03</rscale>
<asrwt>0</asrwt>
<pdfrwt beam="1">  1        1 0.36405241E-01 0.12732053E+03</pdfrwt>
<pdfrwt beam="2">  1       -1 0.84433808E-02 0.12732053E+03</pdfrwt>
<totfact> 0.88334568E+03</totfact>
</mgrwt>
</event>
<event>
 6    1  0.7270761E-006  0.1335763E+03  0.7546771E-02  0.1235695E+00
         -1   -1    0    0    0  501 -0.00000000000E+00  0.00000000000E+00  0.25156527633E+02  0.25156527633E+02  0.00000000000E+00 0.  1.
          1   -1    0    0  501    0  0.00000000000E+00 -0.00000000000E+00 -0.63063173270E+03  0.63063173270E+03  0.00000000000E+00 0. -1.
          5    1    1    2  502    0  0.11983865033E+02 -0.40007384209E+02 -0.35610021378E+02  0.55085092674E+02  0.47000000000E+01 0.  1.
         -5    1    1    2    0  502  0.82773558777E+01  0.82517330089E+02 -0.18536365924E+03  0.20312410135E+03  0.47000000000E+01 0.  1.
        -11    1    1    2    0    0 -0.33813653663E+02 -0.51802486303E+02 -0.37152726280E+03  0.37664222780E+03  0.00000000000E+00 0.  1.
         11    1    1    2    0    0  0.13552432753E+02  0.92925404228E+01 -0.12974261654E+02  0.20936838503E+02  0.00000000000E+00 0. -1.
<mgrwt>
<rscale>  0 0.12460033E+03</rscale>
<asrwt>0</asrwt>
<pdfrwt beam="2">  1        1 0.97020259E-01 0.13357627E+03</pdfrwt>
<pdfrwt beam="1">  1       -1 0.38702353E-02 0.13357627E+03</pdfrwt>
<totfact> 0.81185184E+03</totfact>
</mgrwt>
</event>
<event>
 6    1  0.7270761E-006  0.2683014E+03  0.7546771E-02  0.1102256E+00
          3   -1    0    0  501    0  0.00000000000E+00  0.00000000000E+00  0.19651874640E+03  0.19651874640E+03  0.00000000000E+00 0. -1.
         -3   -1    0    0    0  501 -0.00000000000E+00 -0.00000000000E+00 -0.91576066824E+02  0.91576066824E+02  0.00000000000E+00 0.  1.
          5    1    1    2  502    0 -0.49850438347E+01 -0.44843715942E+01 -0.38138332777E+02  0.39007469511E+02  0.47000000000E+01 0. -1.
         -5    1    1    2    0  502  0.80819439817E+02 -0.20014931432E+02  0.72102949765E+02  0.11024202782E+03  0.47000000000E+01 0.  1.
        -11    1    1    2    0    0 -0.64693188918E+02 -0.13244921117E+02  0.10756961440E+02  0.66905521799E+02  0.00000000000E+00 0.  1.
         11    1    1    2    0    0 -0.11141207064E+02  0.37744224144E+02  0.60221101143E+02  0.71939794092E+02  0.00000000000E+00 0. -1.
<mgrwt>
<rscale>  0 0.26830143E+03</rscale>
<asrwt>0</asrwt>
<pdfrwt beam="1">  1        3 0.30233653E-01 0.26830143E+03</pdfrwt>
<pdfrwt beam="2">  1       -3 0.14088626E-01 0.26830143E+03</pdfrwt>
<totfact> 0.11099190E+03</totfact>
</mgrwt>
</event>
<event>
 6    1  0.7270761E-006  0.1411982E+03  0.7546771E-02  0.1222690E+00
         -2   -1    0    0    0  501 -0.00000000000E+00  0.00000000000E+00  0.16685485419E+03  0.16685485419E+03  0.00000000000E+00 0.  1.
          2   -1    0    0  501    0  0.00000000000E+00 -0.00000000000E+00 -0.12303644859E+03  0.12303644859E+03  0.00000000000E+00 0. -1.
          5    1    1    2  502    0 -0.19066292994E+02  0.26164804176E+02  0.56881566083E+02  0.65618008703E+02  0.47000000000E+01 0.  1.
         -5    1    1    2    0  502  0.35293007960E+02 -0.89789086541E+02  0.34481776014E+02  0.10256100307E+03  0.47000000000E+01 0.  1.
        -11    1    1    2    0    0 -0.14041506415E+02 -0.19248698062E+02  0.39035084584E+01  0.24143604904E+02  0.00000000000E+00 0.  1.
         11    1    1    2    0    0 -0.21852085512E+01  0.82872980426E+02 -0.51448444949E+02  0.97568686108E+02  0.00000000000E+00 0. -1.
<mgrwt>
<rscale>  0 0.13326521E+03</rscale>
<asrwt>0</asrwt>
<pdfrwt beam="2">  1        2 0.18928684E-01 0.14119816E+03</pdfrwt>
<pdfrwt beam="1">  1       -2 0.25669978E-01 0.14119816E+03</pdfrwt>
<totfact> 0.38567740E+03</totfact>
</mgrwt>
</event>
<event>
 6    1  0.7270761E-006  0.1815599E+03  0.7546771E-02  0.1172151E+00
          1   -1    0    0  501    0  0.00000000000E+00  0.00000000000E+00  0.75564310708E+03  0.75564310708E+03  0.00000000000E+00 0.  1.
         -1   -1    0    0    0  501 -0.00000000000E+00 -0.00000000000E+00 -0.39956332072E+02  0.39956332072E+02  0.00000000000E+00 0. -1.
          5    1    1    2  502    0  0.34360844709E+02  0.67582133589E+02  0.27940614703E+03  0.28954774637E+03  0.47000000000E+01 0. -1.
         -5    1    1    2    0  502  0.41550357646E+02  0.40001597811E+02  0.21191132316E+02  0.61625596441E+02  0.47000000000E+01 0. -1.
        -11    1    1    2    0    0 -0.96230969520E+02 -0.88242021145E+02  0.33340654801E+03  0.35806002297E+03  0.00000000000E+00 0.  1.
         11    1    1    2    0    0  0.20319767165E+02 -0.19341710255E+02  0.81682947655E+02  0.86366073379E+02  0.00000000000E+00 0. -1.
<mgrwt>
<rscale>  0 0.17557912E+03</rscale>
<asrwt>0</asrwt>
<pdfrwt beam="1">  1        1 0.11625277E+00 0.18155989E+03</pdfrwt>
<pdfrwt beam="2">  1       -1 0.61471286E-02 0.18155989E+03</pdfrwt>
<totfact> 0.31987297E+03</totfact>
</mgrwt>
</event>
<event>
 6    1  0.7270761E-006  0.2815456E+03  0.7546771E-02  0.1094848E+00
         -2   -1    0    0    0  501 -0.00000000000E+00  0.00000000000E+00  0.13732395841E+03  0.13732395841E+03  0.00000000000E+00 0.  1.
          2   -1    0    0  501    0  0.00000000000E+00 -0.00000000000E+00 -0.14430827709E+03  0.14430827709E+03  0.00000000000E+00 0. -1.
          5    1    1    2  502    0  0.38515948583E+02 -0.96863453204E+02  0.51639948560E+02  0.11642500225E+03  0.47000000000E+01 0.  1.
         -5    1    1    2    0  502 -0.23595160560E+02  0.11947371374E+02 -0.26206987221E+02  0.37528222231E+02  0.47000000000E+01 0.  1.
        -11    1    1    2    0    0  0.46137163549E+01  0.56989867235E+02  0.23805018656E+02  0.61933918487E+02  0.00000000000E+00 0. -1.
         11    1    1    2    0    0 -0.19534504378E+02  0.27926214595E+02 -0.56222298681E+02  0.65745092530E+02  0.00000000000E+00 0.  1.
<mgrwt>
<rscale>  0 0.28154562E+03</rscale>
<asrwt>0</asrwt>
<pdfrwt beam="2">  1        2 0.22201274E-01 0.28154562E+03</pdfrwt>
<pdfrwt beam="1">  1       -2 0.21126763E-01 0.28154562E+03</pdfrwt>
<totfact> 0.46814172E+03</totfact>
</mgrwt>
</event>
<event>
 6    1  0.7270761E-006  0.1483213E+03  0.7546771E-02  0.1217695E+00
         -1   -1    0    0    0  501 -0.00000000000E+00  0.00000000000E+00  0.15532936853E+03  0.15532936853E+03  0.00000000000E+00 0.  1.
          1   -1    0    0  501    0  0.00000000000E+00 -0.00000000000E+00 -0.10763273221E+03  0.10763273221E+03  0.00000000000E+00 0. -1.
          5    1    1    2  502    0  0.30521685046E+01 -0.31594775394E+02  0.71869388864E+02  0.78707335239E+02  0.47000000000E+01 0. -1.
         -5    1    1    2    0  502 -0.72166973391E+02 -0.83679254788E+01 -0.24788885832E+02  0.76906911822E+02  0.47000000000E+01 0. -1.
        -11    1    1    2    0    0  0.39577072095E+02  0.21626365789E+02 -0.35366432491E+02  0.57313426699E+02  0.00000000000E+00 0. -1.
         11    1    1    2    0    0  0.29537732792E+02  0.18336335083E+02  0.35982565785E+02  0.50034426980E+02  0.00000000000E+00 0.  1.
<mgrwt>
<rscale>  0 0.13680415E+03</rscale>
<asrwt>0</asrwt>
<pdfrwt beam="2">  1        1 0.16558882E-01 0.14832134E+03</pdfrwt>
<pdfrwt beam="1">  1       -1 0.23896826E-01 0.14832134E+03</pdfrwt>
<totfact> 0.47187695E+03</totfact>
</mgrwt>
</event>
<event>
 6    1  0.1357697E-005  0.2490392E+03  0.7546771E-02  0.1116543E+00
         -3   -1    0    0    0  501 -0.00000000000E+00  0.00000000000E+00  0.17975614405E+03  0.17975614405E+03  0.00000000000E+00 0.  1.
          3   -1    0    0  501    0  0.00000000000E+00 -0.00000000000E+00 -0.35403276379E+03  0.35403276379E+03  0.00000000000E+00 0. -1.
          5    1    1    2  502    0 -0.29121449039E+02 -0.49129905047E+02  0.31310825410E+02  0.65301333462E+02  0.47000000000E+01 0. -1.
         -5    1    1    2    0  502  0.79690388495E+02 -0.16024747942E+03 -0.42409815010E+02  0.18398504039E+03  0.47000000000E+01 0. -1.
        -11    1    1    2    0    0 -0.72545711449E+02  0.12048039230E+03 -0.86861862755E+02  0.16529787772E+03  0.00000000000E+00 0. -1.
         11    1    1    2    0    0  0.21976771993E+02  0.88896992162E+02 -0.76315767393E+02  0.11920465627E+03  0.00000000000E+00 0.  1.
<mgrwt>
<rscale>  0 0.24494325E+03</rscale>
<asrwt>0</asrwt>
<pdfrwt beam="2">  1        3 0.54466579E-01 0.24903917E+03</pdfrwt>
<pdfrwt beam="1">  1       -3 0.27654791E-01 0.24903917E+03</pdfrwt>
<totfact> 0.10442593E+02</totfact>
</mgrwt>
</event>
<event>
 6    1  0.7270761E-006  0.3098695E+03  0.7546771E-02  0.1086080E+00
         -1   -1    0    0    0  501 -0.00000000000E+00  0.00000000000E+00  0.19591071728E+03  0.19591071728E+03  0.00000000000E+00 0.  1.
          1   -1    0    0  501    0  0.00000000000E+00 -0.00000000000E+00 -0.13565701213E+04  0.13565701213E+04  0.00000000000E+00 0. -1.
          5    1    1    2  502    0 -0.57035363973E+02 -0.23122453118E+02 -0.37657847973E+02  0.72304108429E+02  0.47000000000E+01 0. -1.
         -5    1    1    2    0  502  0.25010602031E+02 -0.22385482416E+03  0.86793940935E+02  0.24143692902E+03  0.47000000000E+01 0.  1.
        -11    1    1    2    0    0  0.26069530483E+02  0.23214463135E+03 -0.11925980152E+04  0.12152616081E+04  0.00000000000E+00 0. -1.
         11    1    1    2    0    0  0.59552314585E+01  0.14832645934E+02 -0.17197481766E+02  0.23478192993E+02  0.00000000000E+00 0.  1.
<mgrwt>
<rscale>  0 0.29832714E+03</rscale>
<asrwt>0</asrwt>
<pdfrwt beam="2">  1        1 0.20870310E+00 0.30986946E+03</pdfrwt>
<pdfrwt beam="1">  1       -1 0.30140110E-01 0.30986946E+03</pdfrwt>
<totfact> 0.90731255E+01</totfact>
</mgrwt>
</event>
<event>
 6    1  0.7270761E-006  0.1462975E+03  0.7546771E-02  0.1215408E+00
         -3   -1    0    0    0  501 -0.00000000000E+00  0.00000000000E+00  0.42218262015E+02  0.42218262015E+02  0.00000000000E+00 0.  1.
          3   -1    0    0  501    0  0.00000000000E+00 -0.00000000000E+00 -0.50980425001E+03  0.50980425001E+03  0.00000000000E+00 0. -1.
          5    1    1    2  502    0 -0.54692639421E+02  0.13112607415E+01 -0.14282041879E+03  0.15301230746E+03  0.47000000000E+01 0. -1.
         -5    1    1    2    0  502 -0.64460335494E+01  0.43823990673E+02  0.87853707112E+01  0.45402271370E+02  0.47000000000E+01 0. -1.
        -11    1    1    2    0    0 -0.19993496835E+02 -0.48882772743E+01 -0.11834739781E+03  0.12012385999E+03  0.00000000000E+00 0. -1.
         11    1    1    2    0    0  0.81132169805E+02 -0.40246974141E+02 -0.21520354211E+03  0.23348407321E+03  0.00000000000E+00 0.  1.
<mgrwt>
<rscale>  0 0.13846595E+03</rscale>
<asrwt>0</asrwt>
<pdfrwt beam="2">  1        3 0.78431424E-01 0.14629747E+03</pdfrwt>
<pdfrwt beam="1">  1       -3 0.64951172E-02 0.14629747E+03</pdfrwt>
<totfact> 0.54709399E+02</totfact>
</mgrwt>
</event>
<event>
 6    1  0.7270761E-006  0.3584359E+03  0.7546771E-02  0.1059205E+00
         -2   -1    0    0    0  501 -0.00000000000E+00  0.00000000000E+00  0.11042924270E+03  0.11042924270E+03  0.00000000000E+00 0.  1.
          2   -1    0    0  501    0  0.00000000000E+00 -0.00000000000E+00 -0.29085664856E+03  0.29085664856E+03  0.00000000000E+00 0. -1.
          5    1    1    2  502    0 -0.13797109722E+02 -0.21429991633E+02  0.46841955128E+02  0.53533760734E+02  0.47000000000E+01 0.  1.
         -5    1    1    2    0  502  0.88366744992E+02  0.42237234045E+02 -0.84931370297E+01  0.98421994172E+02  0.47000000000E+01 0.  1.
        -11    1    1    2    0    0 -0.53302214769E+02  0.77515665774E+01 -0.40126999619E+02  0.67166874143E+02  0.00000000000E+00 0.  1.
         11    1    1    2    0    0 -0.21267420501E+02 -0.28558808990E+02 -0.17864922433E+03  0.18216326222E+03  0.00000000000E+00 0. -1.
<mgrwt>
<rscale>  0 0.35843593E+03</rscale>
<asrwt>0</asrwt>
<pdfrwt beam="2">  1        2 0.44747176E-01 0.35843593E+03</pdfrwt>
<pdfrwt beam="1">  1       -2 0.16989114E-01 0.35843593E+03</pdfrwt>
<totfact> 0.31541473E+03</totfact>
</mgrwt>
</event>
<event>
 6    1  0.7270761E-006  0.1329534E+03  0.7546771E-02  0.1236925E+00
          2   -1    0    0  501    0  0.00000000000E+00  0.00000000000E+00  0.11398657564E+03  0.11398657564E+03  0.00000000000E+00 0.  1.
         -2   -1    0    0    0  501 -0.00000000000E+00 -0.00000000000E+00 -0.12242357103E+03  0.12242357103E+03  0.00000000000E+00 0. -1.
          5    1    1    2  502    0  0.41164591786E+02  0.48066050238E+02 -0.62299643038E+01  0.63763400612E+02  0.47000000000E+01 0.  1.
         -5    1    1    2    0  502 -0.67939103208E+02 -0.11528682523E+02 -0.18035124693E+02  0.71386189058E+02  0.47000000000E+01 0.  1.
        -11    1    1    2    0    0  0.33331020437E+01  0.19604291106E+02  0.32569354925E+02  0.38160197579E+02  0.00000000000E+00 0.  1.
         11    1    1    2    0    0  0.23441409379E+02 -0.56141658821E+02 -0.16741261320E+02  0.63100359424E+02  0.00000000000E+00 0. -1.
<mgrwt>
<rscale>  0 0.12382031E+03</rscale>
<asrwt>0</asrwt>
<pdfrwt beam="1">  1        2 0.17536396E-01 0.13295344E+03</pdfrwt>
<pdfrwt beam="2">  1       -2 0.18834395E-01 0.13295344E+03</pdfrwt>
<totfact> 0.71308205E+03</totfact>
</mgrwt>
</event>
<event>
 6    1  0.7270761E-006  0.1624824E+03  0.7546771E-02  0.1193358E+00
          2   -1    0    0  501    0  0.00000000000E+00  0.00000000000E+00  0.13637485077E+03  0.13637485077E+03  0.00000000000E+00 0.  1.
         -2   -1    0    0    0  501 -0.00000000000E+00 -0.00000000000E+00 -0.17416193404E+03  0.17416193404E+03  0.00000000000E+00 0. -1.
          5    1    1    2  502    0 -0.11373823009E+00 -0.43119735865E+02 -0.72307877647E+02  0.84319889275E+02  0.47000000000E+01 0. -1.
         -5    1    1    2    0  502 -0.83375970978E+02 -0.18681397760E+02  0.17141232156E+02  0.87272326648E+02  0.47000000000E+01 0. -1.
        -11    1    1    2    0    0  0.44721528096E+01 -0.95298753386E+01 -0.22839570315E+02  0.25148849812E+02  0.00000000000E+00 0. -1.
         11    1    1    2    0    0  0.79017556398E+02  0.71331008964E+02  0.40219132537E+02  0.11379571908E+03  0.00000000000E+00 0.  1.
<mgrwt>
<rscale>  0 0.15594055E+03</rscale>
<asrwt>0</asrwt>
<pdfrwt beam="1">  1        2 0.20980746E-01 0.16248240E+03</pdfrwt>
<pdfrwt beam="2">  1       -2 0.26794144E-01 0.16248240E+03</pdfrwt>
<totfact> 0.32062854E+03</totfact>
</mgrwt>
</event>
<event>
 6    1  0.7270761E-006  0.3385008E+03  0.7546771E-02  0.1067436E+00
         -1   -1    0    0    0  501 -0.00000000000E+00  0.00000000000E+00  0.12352761748E+03  0.12352761748E+03  0.00000000000E+00 0.  1.
          1   -1    0    0  501    0  0.00000000000E+00 -0.00000000000E+00 -0.23189713227E+03  0.23189713227E+03  0.00000000000E+00 0. -1.
          5    1    1    2  502    0  0.12694247441E+03 -0.97115629165E+01  0.21192033279E+02  0.12915068152E+03  0.47000000000E+01 0.  1.
         -5    1    1    2    0  502 -0.15825298813E+02 -0.32266853912E+02 -0.23712819516E+02  0.43312558840E+02  0.47000000000E+01 0.  1.
        -11    1    1    2    0    0 -0.54689044225E+02  0.24400746107E+01  0.22291338530E+01  0.54788817838E+02  0.00000000000E+00 0. -1.
         11    1    1    2    0    0 -0.56428131371E+02  0.39538342218E+02 -0.10807786241E+03  0.12817269155E+03  0.00000000000E+00 0.  1.
<mgrwt>
<rscale>  0 0.33850081E+03</rscale>
<asrwt>0</asrwt>
<pdfrwt beam="2">  1        1 0.35676482E-01 0.33850081E+03</pdfrwt>
<pdfrwt beam="1">  1       -1 0.19004249E-01 0.33850081E+03</pdfrwt>
<totfact> 0.26698021E+03</totfact>
</mgrwt>
</event>
<event>
 6    1  0.7270761E-006  0.1316019E+03  0.7546771E-02  0.1238099E+00
          1   -1    0    0  501    0  0.00000000000E+00  0.00000000000E+00  0.16901290125E+02  0.16901290125E+02  0.00000000000E+00 0. -1.
         -1   -1    0    0    0  501 -0.00000000000E+00 -0.00000000000E+00 -0.93848372577E+03  0.93848372577E+03  0.00000000000E+00 0.  1.
          5    1    1    2  502    0 -0.20379074234E+02 -0.62298797928E+02 -0.17845336203E+03  0.19016871276E+03  0.47000000000E+01 0. -1.
         -5    1    1    2    0  502  0.10796812947E+02  0.22271734126E+02 -0.51781953653E+03  0.51843202421E+03  0.47000000000E+01 0. -1.
        -11    1    1    2    0    0 -0.18241143061E+02 -0.13765206747E+02 -0.13622304910E+02  0.26604274243E+02  0.00000000000E+00 0. -1.
         11    1    1    2    0    0  0.27823404347E+02  0.53792270550E+02 -0.21168723216E+03  0.22018000468E+03  0.00000000000E+00 0.  1.
<mgrwt>
<rscale>  0 0.12308103E+03</rscale>
<asrwt>0</asrwt>
<pdfrwt beam="1">  1        1 0.26001981E-02 0.13160188E+03</pdfrwt>
<pdfrwt beam="2">  1       -1 0.14438213E+00 0.13160188E+03</pdfrwt>
<totfact> 0.16919946E+03</totfact>
</mgrwt>
</event>
<event>
 6    1  0.7270761E-006  0.1536041E+03  0.7546771E-02  0.1204663E+00
         -2   -1    0    0    0  501 -0.00000000000E+00  0.00000000000E+00  0.28382532050E+03  0.28382532050E+03  0.00000000000E+00 0.  1.
          2   -1    0    0  501    0  0.00000000000E+00 -0.00000000000E+00 -0.81218722875E+02  0.81218722875E+02  0.00000000000E+00 0. -1.
          5    1    1    2  502    0  0.82964190158E+02 -0.17469485494E+02  0.14737023666E+03  0.17008326321E+03  0.47000000000E+01 0. -1.
         -5    1    1    2    0  502 -0.25684616742E+02 -0.51072321661E+02  0.30615314365E+02  0.65018989924E+02  0.47000000000E+01 0. -1.
        -11    1    1    2    0    0 -0.42929575689E+02 -0.11960736653E+02  0.17439743406E+02  0.47855536149E+02  0.00000000000E+00 0.  1.
         11    1    1    2    0    0 -0.14349997727E+02  0.80502543809E+02  0.71813031939E+01  0.82086254087E+02  0.00000000000E+00 0. -1.
<mgrwt>
<rscale>  0 0.14664067E+03</rscale>
<asrwt>0</asrwt>
<pdfrwt beam="2">  1        2 0.12495188E-01 0.15360408E+03</pdfrwt>
<pdfrwt beam="1">  1       -2 0.43665434E-01 0.15360408E+03</pdfrwt>
<totfact> 0.23731290E+03</totfact>
</mgrwt>
</event>
<event>
 6    1  0.7270761E-006  0.1603554E+03  0.7546771E-02  0.1196136E+00
          2   -1    0    0  501    0  0.00000000000E+00  0.00000000000E+00  0.13892167884E+03  0.13892167884E+03  0.00000000000E+00 0.  1.
         -2   -1    0    0    0  501 -0.00000000000E+00 -0.00000000000E+00 -0.15734444202E+03  0.15734444202E+03  0.00000000000E+00 0. -1.
          5    1    1    2  502    0 -0.15511778694E+02 -0.69516172287E+02  0.12234264220E+02  0.72421548649E+02  0.47000000000E+01 0.  1.
         -5    1    1    2    0  502  0.86590531073E+02 -0.14636290062E+01 -0.14604549251E+02  0.87951379411E+02  0.47000000000E+01 0.  1.
        -11    1    1    2    0    0 -0.62661287143E+02  0.26142005734E+02  0.27092594054E+02  0.73101641724E+02  0.00000000000E+00 0.  1.
         11    1    1    2    0    0 -0.84174652363E+01  0.44837795559E+02 -0.43145072200E+02  0.62791551078E+02  0.00000000000E+00 0. -1.
<mgrwt>
<rscale>  0 0.15358518E+03</rscale>
<asrwt>0</asrwt>
<pdfrwt beam="1">  1        2 0.21372566E-01 0.16035541E+03</pdfrwt>
<pdfrwt beam="2">  1       -2 0.24206837E-01 0.16035541E+03</pdfrwt>
<totfact> 0.37511492E+03</totfact>
</mgrwt>
</event>
<event>
 6    1  0.7270761E-006  0.1129196E+03  0.7546771E-02  0.1265660E+00
          4   -1    0    0  501    0  0.00000000000E+00  0.00000000000E+00  0.16604423470E+03  0.16604423470E+03  0.00000000000E+00 0. -1.
         -4   -1    0    0    0  501 -0.00000000000E+00 -0.00000000000E+00 -0.10515334716E+03  0.10515334716E+03  0.00000000000E+00 0.  1.
          5    1    1    2  502    0  0.30287498793E+02 -0.16110393987E+02  0.16533337722E+02  0.38370804445E+02  0.47000000000E+01 0. -1.
         -5    1    1    2    0  502 -0.50294054518E+02  0.84858880019E+01 -0.69548499468E+02  0.86374683753E+02  0.47000000000E+01 0.  1.
        -11    1    1    2    0    0  0.47000786779E+02  0.24498234534E+02  0.41364558725E+02  0.67232909885E+02  0.00000000000E+00 0. -1.
         11    1    1    2    0    0 -0.26994231053E+02 -0.16873728549E+02  0.72541490565E+02  0.79219183779E+02  0.00000000000E+00 0.  1.
<mgrwt>
<rscale>  0 0.10729651E+03</rscale>
<asrwt>0</asrwt>
<pdfrwt beam="1">  1        4 0.25545267E-01 0.11291957E+03</pdfrwt>
<pdfrwt beam="2">  1       -4 0.16177438E-01 0.11291957E+03</pdfrwt>
<totfact> 0.75505273E+02</totfact>
</mgrwt>
</event>
<event>
 6    1  0.7270761E-006  0.1146533E+03  0.7546771E-02  0.1264846E+00
          2   -1    0    0  501    0  0.00000000000E+00  0.00000000000E+00  0.46084044168E+03  0.46084044168E+03  0.00000000000E+00 0. -1.
         -2   -1    0    0    0  501 -0.00000000000E+00 -0.00000000000E+00 -0.22577256360E+02  0.22577256360E+02  0.00000000000E+00 0.  1.
          5    1    1    2  502    0 -0.33161362722E+02  0.12416507348E+02  0.20695203595E+03  0.21001209684E+03  0.47000000000E+01 0. -1.
         -5    1    1    2    0  502  0.41777630182E+02 -0.20545818506E+02  0.37405196445E+02  0.59906091200E+02  0.47000000000E+01 0.  1.
        -11    1    1    2    0    0 -0.22043173340E+02 -0.34930070570E+02  0.12008489871E+03  0.12698974061E+03  0.00000000000E+00 0.  1.
         11    1    1    2    0    0  0.13426905880E+02  0.43059381728E+02  0.73821054207E+02  0.86509769394E+02  0.00000000000E+00 0. -1.
<mgrwt>
<rscale>  0 0.10772273E+03</rscale>
<asrwt>0</asrwt>
<pdfrwt beam="1">  1        2 0.70898523E-01 0.11465327E+03</pdfrwt>
<pdfrwt beam="2">  1       -2 0.34734244E-02 0.11465327E+03</pdfrwt>
<totfact> 0.21432389E+04</totfact>
</mgrwt>
</event>
<event>
 6    1  0.7270761E-006  0.1256034E+03  0.7546771E-02  0.1249859E+00
          2   -1    0    0  501    0  0.00000000000E+00  0.00000000000E+00  0.22232742091E+02  0.22232742091E+02  0.00000000000E+00 0. -1.
         -2   -1    0    0    0  501 -0.00000000000E+00 -0.00000000000E+00 -0.55578482312E+03  0.55578482312E+03  0.00000000000E+00 0.  1.
          5    1    1    2  502    0  0.21034457993E+02  0.55756086641E+02 -0.20508364130E+03  0.21361783528E+03  0.47000000000E+01 0. -1.
         -5    1    1    2    0  502 -0.11556065967E+02 -0.63358471316E+02 -0.16416633399E+03  0.17641007274E+03  0.47000000000E+01 0. -1.
        -11    1    1    2    0    0  0.32209860912E+02  0.12495288039E+02 -0.12772272380E+03  0.13231289257E+03  0.00000000000E+00 0.  1.
         11    1    1    2    0    0 -0.41688252938E+02 -0.48929033639E+01 -0.36579381930E+02  0.55676764622E+02  0.00000000000E+00 0. -1.
<mgrwt>
<rscale>  0 0.11599225E+03</rscale>
<asrwt>0</asrwt>
<pdfrwt beam="1">  1        2 0.34204221E-02 0.12560344E+03</pdfrwt>
<pdfrwt beam="2">  1       -2 0.85505352E-01 0.12560344E+03</pdfrwt>
<totfact> 0.30486348E+03</totfact>
</mgrwt>
</event>
<event>
 6    1  0.1219966E-005  0.2842539E+03  0.7546771E-02  0.1095105E+00
         -2   -1    0    0    0  501 -0.00000000000E+00  0.00000000000E+00  0.49079679242E+02  0.49079679242E+02  0.00000000000E+00 0.  1.
          2   -1    0    0  501    0  0.00000000000E+00 -0.00000000000E+00 -0.16366493494E+04  0.16366493494E+04  0.00000000000E+00 0. -1.
          5    1    1    2  502    0 -0.41727630620E+02  0.99509425948E+02 -0.21532183503E+03  0.24089189204E+03  0.47000000000E+01 0. -1.
         -5    1    1    2    0  502 -0.16923589417E+03  0.44259777333E+02 -0.43158834359E+03  0.46571483130E+03  0.47000000000E+01 0. -1.
        -11    1    1    2    0    0  0.10302091292E+03 -0.12410402536E+03 -0.52428645241E+03  0.54853568871E+03  0.00000000000E+00 0. -1.
         11    1    1    2    0    0  0.10794261187E+03 -0.19665177926E+02 -0.41637303912E+03  0.43058661659E+03  0.00000000000E+00 0.  1.
<mgrwt>
<rscale>  0 0.28107126E+03</rscale>
<asrwt>0</asrwt>
<pdfrwt beam="2">  1        2 0.25179218E+00 0.28425390E+03</pdfrwt>
<pdfrwt beam="1">  1       -2 0.75507206E-02 0.28425390E+03</pdfrwt>
<totfact> 0.11944067E+03</totfact>
</mgrwt>
</event>
<event>
 6    1  0.7270761E-006  0.3117443E+03  0.7546771E-02  0.1079513E+00
          2   -1    0    0  501    0  0.00000000000E+00  0.00000000000E+00  0.36993267824E+03  0.36993267824E+03  0.00000000000E+00 0. -1.
         -2   -1    0    0    0  501 -0.00000000000E+00 -0.00000000000E+00 -0.65677172640E+02  0.65677172640E+02  0.00000000000E+00 0.  1.
          5    1    1    2  502    0  0.10674535419E+03 -0.55789812979E+02  0.81162152667E+02  0.14531503329E+03  0.47000000000E+01 0. -1.
         -5    1    1    2    0  502 -0.12534825553E+01  0.42981698432E+02  0.36155570629E+02  0.56376527971E+02  0.47000000000E+01 0. -1.
        -11    1    1    2    0    0 -0.53065791985E+02 -0.39714875918E+02  0.83355099194E+02  0.10649564409E+03  0.00000000000E+00 0. -1.
         11    1    1    2    0    0 -0.52426079649E+02  0.52522990466E+02  0.10358268311E+03  0.12742264554E+03  0.00000000000E+00 0.  1.
<mgrwt>
<rscale>  0 0.31174433E+03</rscale>
<asrwt>0</asrwt>
<pdfrwt beam="1">  1        2 0.56912719E-01 0.31174433E+03</pdfrwt>
<pdfrwt beam="2">  1       -2 0.10104181E-01 0.31174433E+03</pdfrwt>
<totfact> 0.56730754E+03</totfact>
</mgrwt>
</event>
<event>
 6    1  0.7270761E-006  0.1736530E+03  0.7546771E-02  0.1180543E+00
          1   -1    0    0  501    0  0.00000000000E+00  0.00000000000E+00  0.60385443574E+02  0.60385443574E+02  0.00000000000E+00 0. -1.
         -1   -1    0    0    0  501 -0.00000000000E+00 -0.00000000000E+00 -0.49300653151E+03  0.49300653151E+03  0.00000000000E+00 0.  1.
          5    1    1    2  502    0 -0.13492212986E+03 -0.25702920757E+02 -0.27918319436E+03  0.31117513923E+03  0.47000000000E+01 0.  1.
         -5    1    1    2    0  502  0.24852692554E+02 -0.23490809461E+02 -0.46508715337E+02  0.57919125154E+02  0.47000000000E+01 0.  1.
        -11    1    1    2    0    0  0.22072450642E+02  0.33664205104E+01 -0.77732990809E+02  0.80876101071E+02  0.00000000000E+00 0.  1.
         11    1    1    2    0    0  0.87996986663E+02  0.45827309708E+02 -0.29196187424E+02  0.10342160962E+03  0.00000000000E+00 0. -1.
<mgrwt>
<rscale>  0 0.16744075E+03</rscale>
<asrwt>0</asrwt>
<pdfrwt beam="1">  1        1 0.92900686E-02 0.17365298E+03</pdfrwt>
<pdfrwt beam="2">  1       -1 0.75847156E-01 0.17365298E+03</pdfrwt>
<totfact> 0.12759722E+03</totfact>
</mgrwt>
</event>
<event>
 6    1  0.7270761E-006  0.1460110E+03  0.7546771E-02  0.1214913E+00
         -2   -1    0    0    0  501 -0.00000000000E+00  0.00000000000E+00  0.63352227266E+02  0.63352227266E+02  0.00000000000E+00 0. -1.
          2   -1    0    0  501    0  0.00000000000E+00 -0.00000000000E+00 -0.35899015672E+03  0.35899015672E+03  0.00000000000E+00 0.  1.
          5    1    1    2  502    0  0.15454476880E+02 -0.87709369775E+02 -0.47213733758E+02  0.10091085698E+03  0.47000000000E+01 0. -1.
         -5    1    1    2    0  502  0.40830561792E+02  0.37120103266E+02 -0.12102009679E+02  0.56688495138E+02  0.47000000000E+01 0. -1.
        -11    1    1    2    0    0 -0.21713092653E+01 -0.17810756816E+02 -0.67649549576E+01  0.19175564082E+02  0.00000000000E+00 0. -1.
         11    1    1    2    0    0 -0.54113729407E+02  0.68400023325E+02 -0.22955723106E+03  0.24556746778E+03  0.00000000000E+00 0.  1.
<mgrwt>
<rscale>  0 0.13882909E+03</rscale>
<asrwt>0</asrwt>
<pdfrwt beam="2">  1        2 0.55229255E-01 0.14601095E+03</pdfrwt>
<pdfrwt beam="1">  1       -2 0.97464964E-02 0.14601095E+03</pdfrwt>
<totfact> 0.59750474E+03</totfact>
</mgrwt>
</event>
<event>
 6    1  0.7270761E-006  0.1638625E+03  0.7546771E-02  0.1189680E+00
          1   -1    0    0  501    0  0.00000000000E+00  0.00000000000E+00  0.25526693959E+03  0.25526693959E+03  0.00000000000E+00 0. -1.
         -1   -1    0    0    0  501 -0.00000000000E+00 -0.00000000000E+00 -0.99767388563E+02  0.99767388563E+02  0.00000000000E+00 0.  1.
          5    1    1    2  502    0 -0.41727352377E+02  0.27443385500E+02  0.31394457407E+02  0.59177810876E+02  0.47000000000E+01 0. -1.
         -5    1    1    2    0  502 -0.31162120931E+02 -0.10433735033E+03  0.75810928813E+01  0.10925622831E+03  0.47000000000E+01 0. -1.
        -11    1    1    2    0    0  0.29843872911E+02  0.87945653828E+02  0.47003105641E+02  0.10408836014E+03  0.00000000000E+00 0.  1.
         11    1    1    2    0    0  0.43045600397E+02 -0.11051688999E+02  0.69520895097E+02  0.82511928825E+02  0.00000000000E+00 0. -1.
<mgrwt>
<rscale>  0 0.15913245E+03</rscale>
<asrwt>0</asrwt>
<pdfrwt beam="1">  1        1 0.39271837E-01 0.16386254E+03</pdfrwt>
<pdfrwt beam="2">  1       -1 0.15348829E-01 0.16386254E+03</pdfrwt>
<totfact> 0.32491998E+03</totfact>
</mgrwt>
</event>
<event>
 6    1  0.7270761E-006  0.1581878E+03  0.7546771E-02  0.1199505E+00
         -2   -1    0    0    0  501 -0.00000000000E+00  0.00000000000E+00  0.30792254286E+03  0.30792254286E+03  0.00000000000E+00 0.  1.
          2   -1    0    0  501    0  0.00000000000E+00 -0.00000000000E+00 -0.76516480320E+02  0.76516480320E+02  0.00000000000E+00 0. -1.
          5    1    1    2  502    0  0.80817251055E+02 -0.67782784850E+02  0.92158375613E+02  0.14014703060E+03  0.47000000000E+01 0.  1.
         -5    1    1    2    0  502  0.12442085923E+02  0.41284605215E+02  0.98250914129E+02  0.10739905147E+03  0.47000000000E+01 0.  1.
        -11    1    1    2    0    0  0.43093636077E+01  0.12474695259E+02  0.35833168884E+02  0.38186445616E+02  0.00000000000E+00 0.  1.
         11    1    1    2    0    0 -0.97568700586E+02  0.14023484376E+02  0.51636039191E+01  0.98706495498E+02  0.00000000000E+00 0. -1.
<mgrwt>
<rscale>  0 0.15079039E+03</rscale>
<asrwt>0</asrwt>
<pdfrwt beam="2">  1        2 0.11771766E-01 0.15818775E+03</pdfrwt>
<pdfrwt beam="1">  1       -2 0.47372698E-01 0.15818775E+03</pdfrwt>
<totfact> 0.21794112E+03</totfact>
</mgrwt>
</event>
<event>
 6    1  0.7270761E-006  0.2285669E+03  0.7546771E-02  0.1127653E+00
         -3   -1    0    0    0  501 -0.00000000000E+00  0.00000000000E+00  0.39548865265E+02  0.39548865265E+02  0.00000000000E+00 0.  1.
          3   -1    0    0  501    0  0.00000000000E+00 -0.00000000000E+00 -0.33024217232E+03  0.33024217232E+03  0.00000000000E+00 0. -1.
          5    1    1    2  502    0 -0.36934147882E+02  0.37278508746E+02 -0.15604686633E+03  0.16470134482E+03  0.47000000000E+01 0.  1.
         -5    1    1    2    0  502  0.21517713011E+02 -0.11336161849E+02  0.12728097523E+02  0.27849865443E+02  0.47000000000E+01 0.  1.
        -11    1    1    2    0    0  0.40161591355E+02  0.12386709669E+02 -0.30947966809E+02  0.52193492374E+02  0.00000000000E+00 0.  1.
         11    1    1    2    0    0 -0.24745156483E+02 -0.38329056566E+02 -0.11642657145E+03  0.12504633496E+03  0.00000000000E+00 0. -1.
<mgrwt>
<rscale>  0 0.22856687E+03</rscale>
<asrwt>0</asrwt>
<pdfrwt beam="2">  1        3 0.50806489E-01 0.22856687E+03</pdfrwt>
<pdfrwt beam="1">  1       -3 0.60844407E-02 0.22856687E+03</pdfrwt>
<totfact> 0.16038960E+03</totfact>
</mgrwt>
</event>
<event>
 6    1  0.7270761E-006  0.1307907E+03  0.7546771E-02  0.1239313E+00
          1   -1    0    0  501    0  0.00000000000E+00  0.00000000000E+00  0.24158727569E+03  0.24158727569E+03  0.00000000000E+00 0. -1.
         -1   -1    0    0    0  501 -0.00000000000E+00 -0.00000000000E+00 -0.55189433043E+02  0.55189433043E+02  0.00000000000E+00 0.  1.
          5    1    1    2  502    0  0.36694237250E+02 -0.60672402509E+02  0.23278772939E+02  0.74776993408E+02  0.47000000000E+01 0. -1.
         -5    1    1    2    0  502 -0.33524365270E+01  0.41434313537E+02  0.86087332943E+02  0.95713949152E+02  0.47000000000E+01 0. -1.
        -11    1    1    2    0    0  0.20734772716E+02  0.32912833545E+02  0.12214417959E+02  0.40772262847E+02  0.00000000000E+00 0.  1.
         11    1    1    2    0    0 -0.54076573439E+02 -0.13674744574E+02  0.64817318802E+02  0.85513503324E+02  0.00000000000E+00 0. -1.
<mgrwt>
<rscale>  0 0.12232347E+03</rscale>
<asrwt>0</asrwt>
<pdfrwt beam="1">  1        1 0.37167273E-01 0.13079074E+03</pdfrwt>
<pdfrwt beam="2">  1       -1 0.84906821E-02 0.13079074E+03</pdfrwt>
<totfact> 0.85553774E+03</totfact>
</mgrwt>
</event>
<event>
 6    1  0.7270761E-006  0.2049978E+03  0.7546771E-02  0.1151772E+00
         -2   -1    0    0    0  501 -0.00000000000E+00  0.00000000000E+00  0.18807686941E+03  0.18807686941E+03  0.00000000000E+00 0.  1.
          2   -1    0    0  501    0  0.00000000000E+00 -0.00000000000E+00 -0.36041514151E+03  0.36041514151E+03  0.00000000000E+00 0. -1.
          5    1    1    2  502    0  0.31714708882E+02 -0.10066561782E+02 -0.34121175037E+02  0.47890531543E+02  0.47000000000E+01 0. -1.
         -5    1    1    2    0  502  0.80959814594E+02 -0.91029107326E+02  0.13065293378E+03  0.17869826263E+03  0.47000000000E+01 0.  1.
        -11    1    1    2    0    0 -0.28302283710E+02 -0.33500704814E+01 -0.11127874433E+03  0.11487036683E+03  0.00000000000E+00 0.  1.
         11    1    1    2    0    0 -0.84372239766E+02  0.10444573959E+03 -0.15759128651E+03  0.20703284992E+03  0.00000000000E+00 0. -1.
<mgrwt>
<rscale>  0 0.19760957E+03</rscale>
<asrwt>0</asrwt>
<pdfrwt beam="2">  1        2 0.55448483E-01 0.20499781E+03</pdfrwt>
<pdfrwt beam="1">  1       -2 0.28934903E-01 0.20499781E+03</pdfrwt>
<totfact> 0.97638340E+02</totfact>
</mgrwt>
</event>
<event>
 6    1  0.1078692E-005  0.2160401E+03  0.7546771E-02  0.1140376E+00
          2   -1    0    0  501    0  0.00000000000E+00  0.00000000000E+00  0.63899110484E+03  0.63899110484E+03  0.00000000000E+00 0. -1.
         -2   -1    0    0    0  501 -0.00000000000E+00 -0.00000000000E+00 -0.76707487720E+02  0.76707487720E+02  0.00000000000E+00 0.  1.
          5    1    1    2  502    0  0.15696397786E+03 -0.75123812537E+02  0.10128789962E+03  0.20140160418E+03  0.47000000000E+01 0.  1.
         -5    1    1    2    0  502  0.12341648540E+02  0.26298091002E+02  0.64578964123E+02  0.70967869393E+02  0.47000000000E+01 0.  1.
        -11    1    1    2    0    0 -0.14245504213E+03  0.15543548277E+02  0.35886651264E+03  0.38641973916E+03  0.00000000000E+00 0. -1.
         11    1    1    2    0    0 -0.26850584268E+02  0.33282173258E+02  0.37550240744E+02  0.56909379826E+02  0.00000000000E+00 0.  1.
<mgrwt>
<rscale>  0 0.21150963E+03</rscale>
<asrwt>0</asrwt>
<pdfrwt beam="1">  1        2 0.98306320E-01 0.21604007E+03</pdfrwt>
<pdfrwt beam="2">  1       -2 0.11801152E-01 0.21604007E+03</pdfrwt>
<totfact> 0.23635058E+03</totfact>
</mgrwt>
</event>
<event>
 6    1  0.7270761E-006  0.1439018E+03  0.7546771E-02  0.1221459E+00
         -2   -1    0    0    0  501 -0.00000000000E+00  0.00000000000E+00  0.37438497823E+02  0.37438497823E+02  0.00000000000E+00 0.  1.
          2   -1    0    0  501    0  0.00000000000E+00 -0.00000000000E+00 -0.44029516036E+03  0.44029516036E+03  0.00000000000E+00 0. -1.
          5    1    1    2  502    0  0.26345662811E+02  0.66688851792E+02 -0.92940991377E+02  0.11748027401E+03  0.47000000000E+01 0.  1.
         -5    1    1    2    0  502  0.44234047628E+02 -0.56670286828E+02 -0.92734261439E+02  0.11743042886E+03  0.47000000000E+01 0.  1.
        -11    1    1    2    0    0  0.22382635494E+01 -0.32128049754E+02 -0.73063433140E+02  0.79846644681E+02  0.00000000000E+00 0. -1.
         11    1    1    2    0    0 -0.72817973988E+02  0.22109484790E+02 -0.14411797658E+03  0.16297631063E+03  0.00000000000E+00 0.  1.
<mgrwt>
<rscale>  0 0.13412602E+03</rscale>
<asrwt>0</asrwt>
<pdfrwt beam="2">  1        2 0.67737716E-01 0.14390184E+03</pdfrwt>
<pdfrwt beam="1">  1       -2 0.57597689E-02 0.14390184E+03</pdfrwt>
<totfact> 0.10787102E+04</totfact>
</mgrwt>
</event>
<event>
 6    1  0.7270761E-006  0.1349449E+03  0.7546771E-02  0.1232751E+00
         -1   -1    0    0    0  501 -0.00000000000E+00  0.00000000000E+00  0.12132012554E+03  0.12132012554E+03  0.00000000000E+00 0.  1.
          1   -1    0    0  501    0  0.00000000000E+00 -0.00000000000E+00 -0.19405647994E+03  0.19405647994E+03  0.00000000000E+00 0. -1.
          5    1    1    2  502    0  0.59018845218E+02  0.19234308326E+02  0.86995194790E+01  0.62856617367E+02  0.47000000000E+01 0.  1.
         -5    1    1    2    0  502 -0.29671783922E+02 -0.60750628451E+02  0.50417639345E+02  0.84469414437E+02  0.47000000000E+01 0.  1.
        -11    1    1    2    0    0 -0.15069703361E+02 -0.13255925411E+02 -0.10219765444E+03  0.10414977720E+03  0.00000000000E+00 0. -1.
         11    1    1    2    0    0 -0.14277357935E+02  0.54772245536E+02 -0.29655858781E+02  0.63900796479E+02  0.00000000000E+00 0.  1.
<mgrwt>
<rscale>  0 0.12649527E+03</rscale>
<asrwt>0</asrwt>
<pdfrwt beam="2">  1        1 0.29854843E-01 0.13494488E+03</pdfrwt>
<pdfrwt beam="1">  1       -1 0.18664635E-01 0.13494488E+03</pdfrwt>
<totfact> 0.33197778E+03</totfact>
</mgrwt>
</event>
<event>
 6    1  0.7270761E-006  0.1511736E+03  0.7546771E-02  0.1207811E+00
          3   -1    0    0  501    0  0.00000000000E+00  0.00000000000E+00  0.12874706465E+03  0.12874706465E+03  0.00000000000E+00 0. -1.
         -3   -1    0    0    0  501 -0.00000000000E+00 -0.00000000000E+00 -0.15213673480E+03  0.15213673480E+03  0.00000000000E+00 0.  1.
          5    1    1    2  502    0  0.46537093039E+02 -0.35048326302E+02 -0.82197589408E+02  0.10085940665E+03  0.47000000000E+01 0. -1.
         -5    1    1    2    0  502  0.18318257497E+02 -0.19930653180E+02  0.46923062177E+02  0.54375116165E+02  0.47000000000E+01 0. -1.
        -11    1    1    2    0    0 -0.27068088017E+02 -0.23354826016E+02  0.14644078023E+02  0.38633901023E+02  0.00000000000E+00 0.  1.
         11    1    1    2    0    0 -0.37787262520E+02  0.78333805498E+02 -0.27592209415E+01  0.87015375611E+02  0.00000000000E+00 0. -1.
<mgrwt>
<rscale>  0 0.14418137E+03</rscale>
<asrwt>0</asrwt>
<pdfrwt beam="1">  1        3 0.19807241E-01 0.15117362E+03</pdfrwt>
<pdfrwt beam="2">  1       -3 0.23405652E-01 0.15117362E+03</pdfrwt>
<totfact> 0.90692382E+02</totfact>
</mgrwt>
</event>
<event>
 6    1  0.7270761E-006  0.1572022E+03  0.7546771E-02  0.1195496E+00
         -1   -1    0    0    0  501 -0.00000000000E+00  0.00000000000E+00  0.86108336445E+02  0.86108336445E+02  0.00000000000E+00 0.  1.
          1   -1    0    0  501    0  0.00000000000E+00 -0.00000000000E+00 -0.46796332107E+03  0.46796332107E+03  0.00000000000E+00 0. -1.
          5    1    1    2  502    0 -0.22754837112E+02 -0.51367221089E+02 -0.67972434486E+02  0.88310338377E+02  0.47000000000E+01 0.  1.
         -5    1    1    2    0  502 -0.33890730328E+02 -0.25304286239E+02  0.54868291098E+02  0.69437078512E+02  0.47000000000E+01 0.  1.
        -11    1    1    2    0    0 -0.21969968082E+02  0.10277669079E+02 -0.16460000588E+02  0.29312823108E+02  0.00000000000E+00 0.  1.
         11    1    1    2    0    0  0.78615535521E+02  0.66393838249E+02 -0.35229084065E+03  0.36701141752E+03  0.00000000000E+00 0. -1.
<mgrwt>
<rscale>  0 0.15412328E+03</rscale>
<asrwt>0</asrwt>
<pdfrwt beam="2">  1        1 0.71994355E-01 0.15720219E+03</pdfrwt>
<pdfrwt beam="1">  1       -1 0.13247437E-01 0.15720219E+03</pdfrwt>
<totfact> 0.19067270E+03</totfact>
</mgrwt>
</event>
<event>
 6    1  0.7270761E-006  0.1309425E+03  0.7546771E-02  0.1239183E+00
         -1   -1    0    0    0  501 -0.00000000000E+00  0.00000000000E+00  0.80257681348E+02  0.80257681348E+02  0.00000000000E+00 0.  1.
          1   -1    0    0  501    0  0.00000000000E+00 -0.00000000000E+00 -0.16780673539E+03  0.16780673539E+03  0.00000000000E+00 0. -1.
          5    1    1    2  502    0 -0.46840994593E+02 -0.78743220719E+01 -0.38686777209E+02  0.61439730251E+02  0.47000000000E+01 0.  1.
         -5    1    1    2    0  502  0.69416330712E+02  0.39698847333E+02 -0.23236807311E+02  0.83406622418E+02  0.47000000000E+01 0.  1.
        -11    1    1    2    0    0  0.21072253329E+02  0.16007625089E+02 -0.27861525921E+02  0.38425883829E+02  0.00000000000E+00 0. -1.
         11    1    1    2    0    0 -0.43647589449E+02 -0.47832150350E+02  0.22360564013E+01  0.64792180238E+02  0.00000000000E+00 0.  1.
<mgrwt>
<rscale>  0 0.12240406E+03</rscale>
<asrwt>0</asrwt>
<pdfrwt beam="2">  1        1 0.25816421E-01 0.13094249E+03</pdfrwt>
<pdfrwt beam="1">  1       -1 0.12347336E-01 0.13094249E+03</pdfrwt>
<totfact> 0.75939077E+03</totfact>
</mgrwt>
</event>
<event>
 6    1  0.7270761E-006  0.2196625E+03  0.7546771E-02  0.1152092E+00
          2   -1    0    0  501    0  0.00000000000E+00  0.00000000000E+00  0.74092537571E+03  0.74092537571E+03  0.00000000000E+00 0. -1.
         -2   -1    0    0    0  501 -0.00000000000E+00 -0.00000000000E+00 -0.45987072294E+02  0.45987072294E+02  0.00000000000E+00 0.  1.
          5    1    1    2  502    0 -0.58343915244E+02 -0.36381697924E+02  0.30194382492E+03  0.30970922459E+03  0.47000000000E+01 0. -1.
         -5    1    1    2    0  502  0.52754835461E+02 -0.72300910257E+02  0.43410744000E+02  0.99584521805E+02  0.47000000000E+01 0.  1.
        -11    1    1    2    0    0 -0.34784937430E+02  0.64884254252E+02  0.12312319345E+03  0.14345479806E+03  0.00000000000E+00 0. -1.
         11    1    1    2    0    0  0.40374017214E+02  0.43798353928E+02  0.22646054105E+03  0.23416390354E+03  0.00000000000E+00 0.  1.
<mgrwt>
<rscale>  0 0.19723605E+03</rscale>
<asrwt>0</asrwt>
<pdfrwt beam="1">  1        2 0.11398851E+00 0.21966245E+03</pdfrwt>
<pdfrwt beam="2">  1       -2 0.70749347E-02 0.21966245E+03</pdfrwt>
<totfact> 0.44366408E+03</totfact>
</mgrwt>
</event>
<event>
 6    1  0.7270761E-006  0.1562917E+03  0.7546771E-02  0.1208954E+00
         -2   -1    0    0    0  501 -0.00000000000E+00  0.00000000000E+00  0.22741523515E+02  0.22741523515E+02  0.00000000000E+00 0.  1.
          2   -1    0    0  501    0  0.00000000000E+00 -0.00000000000E+00 -0.81321397941E+03  0.81321397941E+03  0.00000000000E+00 0. -1.
          5    1    1    2  502    0 -0.74507131966E+02  0.40829001610E+01 -0.50295098315E+03  0.50847788962E+03  0.47000000000E+01 0. -1.
         -5    1    1    2    0  502  0.20560884855E+02 -0.33066349262E+02 -0.38042353677E+02  0.54639217718E+02  0.47000000000E+01 0.  1.
        -11    1    1    2    0    0 -0.12711805809E+02  0.33254723586E+02 -0.14116204254E+03  0.14558224103E+03  0.00000000000E+00 0. -1.
         11    1    1    2    0    0  0.66658052920E+02 -0.42712744852E+01 -0.10831707653E+03  0.12725615456E+03  0.00000000000E+00 0.  1.
<mgrwt>
<rscale>  0 0.14330163E+03</rscale>
<asrwt>0</asrwt>
<pdfrwt beam="2">  1        2 0.12510982E+00 0.15629167E+03</pdfrwt>
<pdfrwt beam="1">  1       -2 0.34986965E-02 0.15629167E+03</pdfrwt>
<totfact> 0.11293895E+04</totfact>
</mgrwt>
</event>
<event>
 6    1  0.7270761E-006  0.1285614E+03  0.7546771E-02  0.1243134E+00
         -1   -1    0    0    0  501 -0.00000000000E+00  0.00000000000E+00  0.24805168606E+03  0.24805168606E+03  0.00000000000E+00 0.  1.
          1   -1    0    0  501    0  0.00000000000E+00 -0.00000000000E+00 -0.51583765701E+02  0.51583765701E+02  0.00000000000E+00 0. -1.
          5    1    1    2  502    0  0.54970896491E+02  0.39155119834E+02  0.11656258563E+03  0.13477332540E+03  0.47000000000E+01 0. -1.
         -5    1    1    2    0  502 -0.27040774434E+02 -0.28022899891E+02  0.69528761670E+00  0.39230852975E+02  0.47000000000E+01 0. -1.
        -11    1    1    2    0    0 -0.17182514049E+02 -0.47557822742E+02  0.70342438496E+02  0.86631656723E+02  0.00000000000E+00 0. -1.
         11    1    1    2    0    0 -0.10747608008E+02  0.36425602798E+02  0.88676086115E+01  0.38999616660E+02  0.00000000000E+00 0.  1.
<mgrwt>
<rscale>  0 0.11997751E+03</rscale>
<asrwt>0</asrwt>
<pdfrwt beam="2">  1        1 0.79359641E-02 0.12856145E+03</pdfrwt>
<pdfrwt beam="1">  1       -1 0.38161797E-01 0.12856145E+03</pdfrwt>
<totfact> 0.55947261E+03</totfact>
</mgrwt>
</event>
<event>
 6    1  0.7270761E-006  0.3231877E+03  0.7546771E-02  0.1074192E+00
          1   -1    0    0  501    0  0.00000000000E+00  0.00000000000E+00  0.25197113093E+03  0.25197113093E+03  0.00000000000E+00 0. -1.
         -1   -1    0    0    0  501 -0.00000000000E+00 -0.00000000000E+00 -0.10363318126E+03  0.10363318126E+03  0.00000000000E+00 0.  1.
          5    1    1    2  502    0  0.93592611205E-01  0.11162710709E+03 -0.31337315960E+02  0.11603765410E+03  0.47000000000E+01 0. -1.
         -5    1    1    2    0  502  0.17505767801E+02 -0.22953544045E+02  0.24830216770E+02  0.38365958288E+02  0.47000000000E+01 0. -1.
        -11    1    1    2    0    0 -0.42400222516E+02 -0.13072703454E+02  0.31478505547E+02  0.54401937065E+02  0.00000000000E+00 0.  1.
         11    1    1    2    0    0  0.24800862103E+02 -0.75600859593E+02  0.12336654331E+03  0.14679876273E+03  0.00000000000E+00 0. -1.
<mgrwt>
<rscale>  0 0.32318768E+03</rscale>
<asrwt>0</asrwt>
<pdfrwt beam="1">  1        1 0.38764789E-01 0.32318768E+03</pdfrwt>
<pdfrwt beam="2">  1       -1 0.15943566E-01 0.32318768E+03</pdfrwt>
<totfact> 0.31886570E+03</totfact>
</mgrwt>
</event>
<event>
 6    1  0.7270761E-006  0.3743865E+03  0.7546771E-02  0.1053028E+00
         -1   -1    0    0    0  501 -0.00000000000E+00  0.00000000000E+00  0.99332758646E+03  0.99332758646E+03  0.00000000000E+00 0.  1.
          1   -1    0    0  501    0  0.00000000000E+00 -0.00000000000E+00 -0.35276691805E+02  0.35276691805E+02  0.00000000000E+00 0. -1.
          5    1    1    2  502    0 -0.24976730002E+02 -0.15319438608E+02  0.21586328912E+03  0.21789348736E+03  0.47000000000E+01 0. -1.
         -5    1    1    2    0  502 -0.59650819100E+02  0.13922146788E+03  0.37728165869E+03  0.40657641019E+03  0.47000000000E+01 0. -1.
        -11    1    1    2    0    0  0.78541756152E+02 -0.56977630049E+02  0.14729298739E+03  0.17638163714E+03  0.00000000000E+00 0. -1.
         11    1    1    2    0    0  0.60857929505E+01 -0.66924399224E+02  0.21761295945E+03  0.22775274358E+03  0.00000000000E+00 0.  1.
<mgrwt>
<rscale>  0 0.37438649E+03</rscale>
<asrwt>0</asrwt>
<pdfrwt beam="2">  1        1 0.54271841E-02 0.37438649E+03</pdfrwt>
<pdfrwt beam="1">  1       -1 0.15281961E+00 0.37438649E+03</pdfrwt>
<totfact> 0.53476559E+02</totfact>
</mgrwt>
</event>
<event>
 6    1  0.7270761E-006  0.1873911E+03  0.7546771E-02  0.1165996E+00
          2   -1    0    0  501    0  0.00000000000E+00  0.00000000000E+00  0.94152260724E+02  0.94152260724E+02  0.00000000000E+00 0.  1.
         -2   -1    0    0    0  501 -0.00000000000E+00 -0.00000000000E+00 -0.37378710877E+03  0.37378710877E+03  0.00000000000E+00 0. -1.
          5    1    1    2  502    0  0.46332335507E+01 -0.19962258859E+02 -0.15101770099E+03  0.15247424256E+03  0.47000000000E+01 0.  1.
         -5    1    1    2    0  502  0.34972909212E+02 -0.11396914214E+03 -0.74161157180E+02  0.14047788784E+03  0.47000000000E+01 0.  1.
        -11    1    1    2    0    0  0.24549780583E+02  0.19297665762E+02  0.34675555418E+01  0.31418395439E+02  0.00000000000E+00 0.  1.
         11    1    1    2    0    0 -0.64155923345E+02  0.11463373523E+03 -0.57923545415E+02  0.14356884365E+03  0.00000000000E+00 0. -1.
<mgrwt>
<rscale>  0 0.18187945E+03</rscale>
<asrwt>0</asrwt>
<pdfrwt beam="1">  1        2 0.14484963E-01 0.18739112E+03</pdfrwt>
<pdfrwt beam="2">  1       -2 0.57505709E-01 0.18739112E+03</pdfrwt>
<totfact> 0.11603753E+03</totfact>
</mgrwt>
</event>
<event>
 6    1  0.7270761E-006  0.1464570E+03  0.7546771E-02  0.1212769E+00
          2   -1    0    0  501    0  0.00000000000E+00  0.00000000000E+00  0.11090840498E+03  0.11090840498E+03  0.00000000000E+00 0.  1.
         -2   -1    0    0    0  501 -0.00000000000E+00 -0.00000000000E+00 -0.17080273270E+03  0.17080273270E+03  0.00000000000E+00 0. -1.
          5    1    1    2  502    0 -0.51697446818E+02 -0.81080086493E+01 -0.10338837464E+02  0.53547617799E+02  0.47000000000E+01 0.  1.
         -5    1    1    2    0  502  0.62901624398E+02 -0.67367436610E+02 -0.48829755262E+02  0.10440986958E+03  0.47000000000E+01 0.  1.
        -11    1    1    2    0    0  0.27042683337E+02 -0.10708834570E+02  0.39240492963E+01  0.29349344503E+02  0.00000000000E+00 0.  1.
         11    1    1    2    0    0 -0.38246860917E+02  0.86184279829E+02 -0.46497842928E+01  0.94404305800E+02  0.00000000000E+00 0. -1.
<mgrwt>
<rscale>  0 0.14041716E+03</rscale>
<asrwt>0</asrwt>
<pdfrwt beam="1">  1        2 0.17062832E-01 0.14645697E+03</pdfrwt>
<pdfrwt beam="2">  1       -2 0.26277343E-01 0.14645697E+03</pdfrwt>
<totfact> 0.41784273E+03</totfact>
</mgrwt>
</event>
<event>
 6    1  0.7270761E-006  0.1310926E+03  0.7546771E-02  0.1239106E+00
         -2   -1    0    0    0  501 -0.00000000000E+00  0.00000000000E+00  0.21521851389E+03  0.21521851389E+03  0.00000000000E+00 0.  1.
          2   -1    0    0  501    0  0.00000000000E+00 -0.00000000000E+00 -0.64123875181E+02  0.64123875181E+02  0.00000000000E+00 0. -1.
          5    1    1    2  502    0 -0.39253247718E+02 -0.29577136836E+02  0.53331893938E+02  0.72677406330E+02  0.47000000000E+01 0. -1.
         -5    1    1    2    0  502  0.77753488431E+02  0.20677890481E+02  0.57728647604E+02  0.99135598410E+02  0.47000000000E+01 0. -1.
        -11    1    1    2    0    0 -0.30342131822E+02 -0.19258422215E+02  0.61475532608E+02  0.71209359632E+02  0.00000000000E+00 0.  1.
         11    1    1    2    0    0 -0.81581088910E+01  0.28157668569E+02 -0.21441435445E+02  0.36320024695E+02  0.00000000000E+00 0. -1.
<mgrwt>
<rscale>  0 0.12245179E+03</rscale>
<asrwt>0</asrwt>
<pdfrwt beam="2">  1        2 0.98652117E-02 0.13109258E+03</pdfrwt>
<pdfrwt beam="1">  1       -2 0.33110540E-01 0.13109258E+03</pdfrwt>
<totfact> 0.52638141E+03</totfact>
</mgrwt>
</event>
<event>
 6    1  0.7270761E-006  0.1254587E+03  0.7546771E-02  0.1250719E+00
          2   -1    0    0  501    0  0.00000000000E+00  0.00000000000E+00  0.92151213047E+02  0.92151213047E+02  0.00000000000E+00 0. -1.
         -2   -1    0    0    0  501 -0.00000000000E+00 -0.00000000000E+00 -0.15329328909E+03  0.15329328909E+03  0.00000000000E+00 0.  1.
          5    1    1    2  502    0 -0.49734537869E+02  0.14279332896E+02 -0.86044701308E+02  0.10051469658E+03  0.47000000000E+01 0. -1.
         -5    1    1    2    0  502  0.45297418799E+02 -0.24047109372E+02  0.20428997563E+00  0.51500013140E+02  0.47000000000E+01 0. -1.
        -11    1    1    2    0    0  0.33137125280E+02 -0.17522653110E+02  0.36280754825E+02  0.52167093215E+02  0.00000000000E+00 0. -1.
         11    1    1    2    0    0 -0.28700006210E+02  0.27290429586E+02 -0.11582419539E+02  0.41262699207E+02  0.00000000000E+00 0.  1.
<mgrwt>
<rscale>  0 0.11549530E+03</rscale>
<asrwt>0</asrwt>
<pdfrwt beam="1">  1        2 0.14177110E-01 0.12545874E+03</pdfrwt>
<pdfrwt beam="2">  1       -2 0.23583582E-01 0.12545874E+03</pdfrwt>
<totfact> 0.61984962E+03</totfact>
</mgrwt>
</event>
<event>
 6    1  0.7270761E-006  0.1410883E+03  0.7546771E-02  0.1222874E+00
         -2   -1    0    0    0  501 -0.00000000000E+00  0.00000000000E+00  0.83993792289E+02  0.83993792289E+02  0.00000000000E+00 0.  1.
          2   -1    0    0  501    0  0.00000000000E+00 -0.00000000000E+00 -0.20678993045E+03  0.20678993045E+03  0.00000000000E+00 0. -1.
          5    1    1    2  502    0  0.68744113199E+02 -0.15380021245E+02 -0.67822707374E+02  0.97899477979E+02  0.47000000000E+01 0. -1.
         -5    1    1    2    0  502 -0.50055024341E+02 -0.47242750944E+02 -0.40717553204E+02  0.80108626985E+02  0.47000000000E+01 0. -1.
        -11    1    1    2    0    0  0.31500392050E+02  0.39459699940E+02  0.11513844159E+02  0.51787172408E+02  0.00000000000E+00 0.  1.
         11    1    1    2    0    0 -0.50189480908E+02  0.23163072248E+02 -0.25769721745E+02  0.60988445370E+02  0.00000000000E+00 0. -1.
<mgrwt>
<rscale>  0 0.13313661E+03</rscale>
<asrwt>0</asrwt>
<pdfrwt beam="2">  1        2 0.31813835E-01 0.14108826E+03</pdfrwt>
<pdfrwt beam="1">  1       -2 0.12922122E-01 0.14108826E+03</pdfrwt>
<totfact> 0.68582030E+03</totfact>
</mgrwt>
</event>
<event>
 6    1  0.7270761E-006  0.1443946E+03  0.7546771E-02  0.1217715E+00
         -1   -1    0    0    0  501 -0.00000000000E+00  0.00000000000E+00  0.66939472980E+03  0.66939472980E+03  0.00000000000E+00 0.  1.
          1   -1    0    0  501    0  0.00000000000E+00 -0.00000000000E+00 -0.64532284848E+02  0.64532284848E+02  0.00000000000E+00 0. -1.
          5    1    1    2  502    0 -0.22227213429E+02  0.22416156315E+02  0.24935874656E+02  0.40502110138E+02  0.47000000000E+01 0.  1.
         -5    1    1    2    0  502 -0.38600903203E+02  0.16637256973E+02  0.57549354475E+03  0.57704569845E+03  0.47000000000E+01 0.  1.
        -11    1    1    2    0    0 -0.20414570808E+02  0.44947509510E+01  0.11629098608E+02  0.23920564831E+02  0.00000000000E+00 0.  1.
         11    1    1    2    0    0  0.81242687440E+02 -0.43548164239E+02 -0.71960730601E+01  0.92458641233E+02  0.00000000000E+00 0. -1.
<mgrwt>
<rscale>  0 0.13678967E+03</rscale>
<asrwt>0</asrwt>
<pdfrwt beam="2">  1        1 0.99280443E-02 0.14439463E+03</pdfrwt>
<pdfrwt beam="1">  1       -1 0.10298380E+00 0.14439463E+03</pdfrwt>
<totfact> 0.60825716E+02</totfact>
</mgrwt>
</event>
<event>
 6    1  0.7270761E-006  0.1574389E+03  0.7546771E-02  0.1199290E+00
         -1   -1    0    0    0  501 -0.00000000000E+00  0.00000000000E+00  0.57635718890E+03  0.57635718890E+03  0.00000000000E+00 0.  1.
          1   -1    0    0  501    0  0.00000000000E+00 -0.00000000000E+00 -0.72864580750E+02  0.72864580750E+02  0.00000000000E+00 0. -1.
          5    1    1    2  502    0  0.50480246940E+02 -0.87462418121E+02  0.28203417719E+03  0.29960523530E+03  0.47000000000E+01 0.  1.
         -5    1    1    2    0  502 -0.53931931224E+02 -0.82037978012E+01  0.20885946789E+03  0.21591739817E+03  0.47000000000E+01 0.  1.
        -11    1    1    2    0    0 -0.10914746739E+02 -0.16484943881E+02  0.49044645945E+01  0.20370047719E+02  0.00000000000E+00 0. -1.
         11    1    1    2    0    0  0.14366431023E+02  0.11215115980E+03  0.76944984748E+01  0.11332908846E+03  0.00000000000E+00 0.  1.
<mgrwt>
<rscale>  0 0.15096700E+03</rscale>
<asrwt>0</asrwt>
<pdfrwt beam="2">  1        1 0.11209936E-01 0.15743892E+03</pdfrwt>
<pdfrwt beam="1">  1       -1 0.88670334E-01 0.15743892E+03</pdfrwt>
<totfact> 0.71737876E+02</totfact>
</mgrwt>
</event>
<event>
 6    1  0.7270761E-006  0.1456961E+03  0.7546771E-02  0.1215143E+00
          3   -1    0    0  501    0  0.00000000000E+00  0.00000000000E+00  0.15041128011E+03  0.15041128011E+03  0.00000000000E+00 0. -1.
         -3   -1    0    0    0  501 -0.00000000000E+00 -0.00000000000E+00 -0.22093412157E+03  0.22093412157E+03  0.00000000000E+00 0.  1.
          5    1    1    2  502    0 -0.32795496108E+02  0.19998970630E+02 -0.78581062051E+02  0.87593245769E+02  0.47000000000E+01 0.  1.
         -5    1    1    2    0  502  0.90102778619E+02  0.43962982453E+02 -0.85592498702E+02  0.13190686250E+03  0.47000000000E+01 0.  1.
        -11    1    1    2    0    0 -0.30136279886E+01 -0.43173721238E+02  0.20181451940E+01  0.43325801426E+02  0.00000000000E+00 0.  1.
         11    1    1    2    0    0 -0.54293654522E+02 -0.20788231845E+02  0.91632574100E+02  0.10851949199E+03  0.00000000000E+00 0. -1.
<mgrwt>
<rscale>  0 0.13866016E+03</rscale>
<asrwt>0</asrwt>
<pdfrwt beam="1">  1        3 0.23140197E-01 0.14569605E+03</pdfrwt>
<pdfrwt beam="2">  1       -3 0.33989865E-01 0.14569605E+03</pdfrwt>
<totfact> 0.34460913E+02</totfact>
</mgrwt>
</event>
<event>
 6    1  0.7270761E-006  0.1306907E+03  0.7546771E-02  0.1240075E+00
          4   -1    0    0  501    0  0.00000000000E+00  0.00000000000E+00  0.19588476808E+03  0.19588476808E+03  0.00000000000E+00 0. -1.
         -4   -1    0    0    0  501 -0.00000000000E+00 -0.00000000000E+00 -0.80087312518E+02  0.80087312518E+02  0.00000000000E+00 0.  1.
          5    1    1    2  502    0 -0.12720915126E+02  0.89787596490E+01 -0.56581403860E+02  0.58872617313E+02  0.47000000000E+01 0. -1.
         -5    1    1    2    0  502  0.31174895509E+01  0.27922163766E+02  0.66321767335E+02  0.72180556890E+02  0.47000000000E+01 0. -1.
        -11    1    1    2    0    0 -0.32278532224E+02 -0.10666866670E+02  0.77183000653E+01  0.34860548518E+02  0.00000000000E+00 0.  1.
         11    1    1    2    0    0  0.41881957798E+02 -0.26234056745E+02  0.98338792024E+02  0.11005835788E+03  0.00000000000E+00 0. -1.
<mgrwt>
<rscale>  0 0.12185067E+03</rscale>
<asrwt>0</asrwt>
<pdfrwt beam="1">  1        4 0.30136118E-01 0.13069070E+03</pdfrwt>
<pdfrwt beam="2">  1       -4 0.12321125E-01 0.13069070E+03</pdfrwt>
<totfact> 0.91732531E+02</totfact>
</mgrwt>
</event>
<event>
 6    1  0.7270761E-006  0.1279525E+03  0.7546771E-02  0.1250277E+00
          2   -1    0    0  501    0  0.00000000000E+00  0.00000000000E+00  0.21060348568E+03  0.21060348568E+03  0.00000000000E+00 0. -1.
         -2   -1    0    0    0  501 -0.00000000000E+00 -0.00000000000E+00 -0.60907699629E+02  0.60907699629E+02  0.00000000000E+00 0.  1.
          5    1    1    2  502    0 -0.24147737958E+02  0.56588870199E+02 -0.50777426895E+01  0.61913544153E+02  0.47000000000E+01 0.  1.
         -5    1    1    2    0  502 -0.30033460825E+01 -0.54423165575E+02  0.48777749578E+02  0.73295701735E+02  0.47000000000E+01 0.  1.
        -11    1    1    2    0    0  0.31371591871E+02  0.35736898710E+02  0.58364141144E+02  0.75283966935E+02  0.00000000000E+00 0.  1.
         11    1    1    2    0    0 -0.42205078306E+01 -0.37902603334E+02  0.47631638015E+02  0.61017972482E+02  0.00000000000E+00 0. -1.
<mgrwt>
<rscale>  0 0.11575018E+03</rscale>
<asrwt>0</asrwt>
<pdfrwt beam="1">  1        2 0.32400536E-01 0.12795253E+03</pdfrwt>
<pdfrwt beam="2">  1       -2 0.93704154E-02 0.12795253E+03</pdfrwt>
<totfact> 0.11107832E+04</totfact>
</mgrwt>
</event>
<event>
 6    1  0.7270761E-006  0.1275600E+03  0.7546771E-02  0.1242840E+00
         -2   -1    0    0    0  501 -0.00000000000E+00  0.00000000000E+00  0.19562139010E+03  0.19562139010E+03  0.00000000000E+00 0.  1.
          2   -1    0    0  501    0  0.00000000000E+00 -0.00000000000E+00 -0.66486209313E+02  0.66486209313E+02  0.00000000000E+00 0. -1.
          5    1    1    2  502    0  0.34905953109E+02  0.45927788876E+02  0.46626002341E+02  0.74322684611E+02  0.47000000000E+01 0. -1.
         -5    1    1    2    0  502 -0.58022601132E+02 -0.35382554945E+02  0.29581181821E+02  0.74267649448E+02  0.47000000000E+01 0. -1.
        -11    1    1    2    0    0  0.81768855185E+01 -0.68838216323E+01 -0.28609803913E+02  0.30541272681E+02  0.00000000000E+00 0. -1.
         11    1    1    2    0    0  0.14939762504E+02 -0.36614122978E+01  0.81537800535E+02  0.82975992671E+02  0.00000000000E+00 0.  1.
<mgrwt>
<rscale>  0 0.12015567E+03</rscale>
<asrwt>0</asrwt>
<pdfrwt beam="2">  1        2 0.10228648E-01 0.12756000E+03</pdfrwt>
<pdfrwt beam="1">  1       -2 0.30095598E-01 0.12756000E+03</pdfrwt>
<totfact> 0.59743340E+03</totfact>
</mgrwt>
</event>
<event>
 6    1  0.7270761E-006  0.1756308E+03  0.7546771E-02  0.1188723E+00
         -2   -1    0    0    0  501 -0.00000000000E+00  0.00000000000E+00  0.29793105994E+02  0.29793105994E+02  0.00000000000E+00 0.  1.
          2   -1    0    0  501    0  0.00000000000E+00 -0.00000000000E+00 -0.81616627879E+03  0.81616627879E+03  0.00000000000E+00 0. -1.
          5    1    1    2  502    0  0.37575531190E+02 -0.93142664264E+01 -0.18707738071E+03  0.19109869826E+03  0.47000000000E+01 0. -1.
         -5    1    1    2    0  502 -0.11186633900E+03 -0.20464284697E+02 -0.14271661321E+03  0.18254584749E+03  0.47000000000E+01 0.  1.
        -11    1    1    2    0    0  0.89488469273E+01  0.50839483678E+02 -0.22006710139E+03  0.22604040363E+03  0.00000000000E+00 0. -1.
         11    1    1    2    0    0  0.65341960887E+02 -0.21060932554E+02 -0.23651207750E+03  0.24627443541E+03  0.00000000000E+00 0.  1.
<mgrwt>
<rscale>  0 0.15997674E+03</rscale>
<asrwt>0</asrwt>
<pdfrwt beam="2">  1        2 0.12556402E+00 0.17563077E+03</pdfrwt>
<pdfrwt beam="1">  1       -2 0.45835555E-02 0.17563077E+03</pdfrwt>
<totfact> 0.75571170E+03</totfact>
</mgrwt>
</event>
<event>
 6    1  0.7270761E-006  0.1300428E+03  0.7546771E-02  0.1242099E+00
          1   -1    0    0  501    0  0.00000000000E+00  0.00000000000E+00  0.58795549635E+03  0.58795549635E+03  0.00000000000E+00 0. -1.
         -1   -1    0    0    0  501 -0.00000000000E+00 -0.00000000000E+00 -0.25939083888E+02  0.25939083888E+02  0.00000000000E+00 0.  1.
          5    1    1    2  502    0  0.30693864090E+02 -0.40264307390E+02  0.21991588963E+02  0.55398986701E+02  0.47000000000E+01 0. -1.
         -5    1    1    2    0  502 -0.45362852400E+02  0.75345631412E+01  0.17232897984E+03  0.17842064150E+03  0.47000000000E+01 0. -1.
        -11    1    1    2    0    0 -0.10734081456E+02  0.57240348558E+02  0.26966953833E+03  0.27588645837E+03  0.00000000000E+00 0. -1.
         11    1    1    2    0    0  0.25403069765E+02 -0.24510604308E+02  0.98026305337E+02  0.10418849368E+03  0.00000000000E+00 0.  1.
<mgrwt>
<rscale>  0 0.12060686E+03</rscale>
<asrwt>0</asrwt>
<pdfrwt beam="1">  1        1 0.90454682E-01 0.13004282E+03</pdfrwt>
<pdfrwt beam="2">  1       -1 0.39906287E-02 0.13004282E+03</pdfrwt>
<totfact> 0.85267611E+03</totfact>
</mgrwt>
</event>
<event>
 6    1  0.7270761E-006  0.1315889E+03  0.7546771E-02  0.1238464E+00
          2   -1    0    0  501    0  0.00000000000E+00  0.00000000000E+00  0.63200761255E+02  0.63200761255E+02  0.00000000000E+00 0. -1.
         -2   -1    0    0    0  501 -0.00000000000E+00 -0.00000000000E+00 -0.21260705479E+03  0.21260705479E+03  0.00000000000E+00 0.  1.
          5    1    1    2  502    0 -0.95581656496E+01 -0.36541577531E+02 -0.77865155709E+02  0.86670167259E+02  0.47000000000E+01 0.  1.
         -5    1    1    2    0  502 -0.12734176739E+02  0.71052247494E+02 -0.13652459678E+02  0.73614270264E+02  0.47000000000E+01 0.  1.
        -11    1    1    2    0    0  0.79674993065E+01 -0.64223545049E+02 -0.49531457479E+02  0.81495460388E+02  0.00000000000E+00 0. -1.
         11    1    1    2    0    0  0.14324843082E+02  0.29712875086E+02 -0.83572206695E+01  0.34027918134E+02  0.00000000000E+00 0.  1.
<mgrwt>
<rscale>  0 0.12285271E+03</rscale>
<asrwt>0</asrwt>
<pdfrwt beam="1">  1        2 0.97231940E-02 0.13158886E+03</pdfrwt>
<pdfrwt beam="2">  1       -2 0.32708778E-01 0.13158886E+03</pdfrwt>
<totfact> 0.54807008E+03</totfact>
</mgrwt>
</event>
<event>
 6    1  0.7270761E-006  0.2180317E+03  0.7546771E-02  0.1138893E+00
         -2   -1    0    0    0  501 -0.00000000000E+00  0.00000000000E+00  0.94226546459E+02  0.94226546459E+02  0.00000000000E+00 0.  1.
          2   -1    0    0  501    0  0.00000000000E+00 -0.00000000000E+00 -0.88314623979E+03  0.88314623979E+03  0.00000000000E+00 0. -1.
          5    1    1    2  502    0  0.81775004557E+02  0.22431112769E+02 -0.52708988652E+02  0.99953157404E+02  0.47000000000E+01 0. -1.
         -5    1    1    2    0  502  0.79435446716E+02 -0.99370244705E+02 -0.14092296054E+02  0.12808246771E+03  0.47000000000E+01 0. -1.
        -11    1    1    2    0    0 -0.11170842424E+03  0.32385043608E+02 -0.59030572276E+03  0.60165472608E+03  0.00000000000E+00 0. -1.
         11    1    1    2    0    0 -0.49502027032E+02  0.44554088327E+02 -0.13181268587E+03  0.14768243505E+03  0.00000000000E+00 0.  1.
<mgrwt>
<rscale>  0 0.21341095E+03</rscale>
<asrwt>0</asrwt>
<pdfrwt beam="2">  1        2 0.13586865E+00 0.21803173E+03</pdfrwt>
<pdfrwt beam="1">  1       -2 0.14496392E-01 0.21803173E+03</pdfrwt>
<totfact> 0.11313008E+03</totfact>
</mgrwt>
</event>
<event>
 6    1  0.7270761E-006  0.1341622E+03  0.7546771E-02  0.1233822E+00
          2   -1    0    0  501    0  0.00000000000E+00  0.00000000000E+00  0.37854560384E+03  0.37854560384E+03  0.00000000000E+00 0. -1.
         -2   -1    0    0    0  501 -0.00000000000E+00 -0.00000000000E+00 -0.40792764985E+02  0.40792764985E+02  0.00000000000E+00 0.  1.
          5    1    1    2  502    0 -0.62417569902E+02 -0.18022359428E+02  0.20469150360E+02  0.68277628755E+02  0.47000000000E+01 0. -1.
         -5    1    1    2    0  502  0.19940974412E+02  0.41468823538E+02  0.10794107004E+03  0.11743368506E+03  0.47000000000E+01 0. -1.
        -11    1    1    2    0    0  0.16335417245E+01 -0.13112583811E+02 -0.57764137330E+01  0.14421347662E+02  0.00000000000E+00 0.  1.
         11    1    1    2    0    0  0.40843053766E+02 -0.10333880299E+02  0.21511903219E+03  0.21920570735E+03  0.00000000000E+00 0. -1.
<mgrwt>
<rscale>  0 0.12580140E+03</rscale>
<asrwt>0</asrwt>
<pdfrwt beam="1">  1        2 0.58237783E-01 0.13416224E+03</pdfrwt>
<pdfrwt beam="2">  1       -2 0.62758103E-02 0.13416224E+03</pdfrwt>
<totfact> 0.11079287E+04</totfact>
</mgrwt>
</event>
<event>
 6    1  0.7270761E-006  0.1355188E+03  0.7546771E-02  0.1231441E+00
         -2   -1    0    0    0  501 -0.00000000000E+00  0.00000000000E+00  0.63420397047E+02  0.63420397047E+02  0.00000000000E+00 0.  1.
          2   -1    0    0  501    0  0.00000000000E+00 -0.00000000000E+00 -0.28747607754E+03  0.28747607754E+03  0.00000000000E+00 0. -1.
          5    1    1    2  502    0  0.24423873316E+02  0.45800053908E+02 -0.58208496269E+02  0.78131232959E+02  0.47000000000E+01 0. -1.
         -5    1    1    2    0  502  0.26703709971E+02 -0.57001226841E+02  0.13543969862E+02  0.64558168401E+02  0.47000000000E+01 0. -1.
        -11    1    1    2    0    0 -0.42041102121E+02  0.36884543656E+02 -0.47036693636E+02  0.73077865161E+02  0.00000000000E+00 0.  1.
         11    1    1    2    0    0 -0.90864811666E+01 -0.25683370723E+02 -0.13235446045E+03  0.13512920806E+03  0.00000000000E+00 0. -1.
<mgrwt>
<rscale>  0 0.12735073E+03</rscale>
<asrwt>0</asrwt>
<pdfrwt beam="2">  1        2 0.44227090E-01 0.13551880E+03</pdfrwt>
<pdfrwt beam="1">  1       -2 0.97569839E-02 0.13551880E+03</pdfrwt>
<totfact> 0.75166403E+03</totfact>
</mgrwt>
</event>
<event>
 6    1  0.7270761E-006  0.4540963E+03  0.7546771E-02  0.1026507E+00
          2   -1    0    0  501    0  0.00000000000E+00  0.00000000000E+00  0.91745872204E+02  0.91745872204E+02  0.00000000000E+00 0. -1.
         -2   -1    0    0    0  501 -0.00000000000E+00 -0.00000000000E+00 -0.56188764186E+03  0.56188764186E+03  0.00000000000E+00 0.  1.
          5    1    1    2  502    0 -0.53179762479E+00 -0.26889250256E+02 -0.22306132355E+03  0.22472596346E+03  0.47000000000E+01 0. -1.
         -5    1    1    2    0  502  0.11659496204E+03 -0.71600241458E+02 -0.20544629977E+03  0.24688307322E+03  0.47000000000E+01 0. -1.
        -11    1    1    2    0    0 -0.29030190201E+02  0.44956779523E+02  0.25992468781E+02  0.59493465200E+02  0.00000000000E+00 0.  1.
         11    1    1    2    0    0 -0.87032974219E+02  0.53532712190E+02 -0.67626615114E+02  0.12253101219E+03  0.00000000000E+00 0. -1.
<mgrwt>
<rscale>  0 0.45409634E+03</rscale>
<asrwt>0</asrwt>
<pdfrwt beam="1">  1        2 0.14114750E-01 0.45409634E+03</pdfrwt>
<pdfrwt beam="2">  1       -2 0.86444252E-01 0.45409634E+03</pdfrwt>
<totfact> 0.50495322E+02</totfact>
</mgrwt>
</event>
<event>
 6    1  0.7270761E-006  0.3259448E+03  0.7546771E-02  0.1072945E+00
         -2   -1    0    0    0  501 -0.00000000000E+00  0.00000000000E+00  0.65144959972E+03  0.65144959972E+03  0.00000000000E+00 0. -1.
          2   -1    0    0  501    0  0.00000000000E+00 -0.00000000000E+00 -0.40770609667E+02  0.40770609667E+02  0.00000000000E+00 0.  1.
          5    1    1    2  502    0 -0.26819111789E+01  0.12806106905E+03  0.37146525511E+03  0.39295719335E+03  0.47000000000E+01 0.  1.
         -5    1    1    2    0  502  0.13322541844E+02 -0.88603139200E+01 -0.18076182381E+00  0.16676868974E+02  0.47000000000E+01 0.  1.
        -11    1    1    2    0    0 -0.43224788058E+02 -0.25620782186E+02  0.67089721158E+02  0.83820268835E+02  0.00000000000E+00 0.  1.
         11    1    1    2    0    0  0.32584157392E+02 -0.93579972943E+02  0.17230477561E+03  0.19876587822E+03  0.00000000000E+00 0. -1.
<mgrwt>
<rscale>  0 0.32594476E+03</rscale>
<asrwt>0</asrwt>
<pdfrwt beam="2">  1        2 0.62724020E-02 0.32594476E+03</pdfrwt>
<pdfrwt beam="1">  1       -2 0.10022301E+00 0.32594476E+03</pdfrwt>
<totfact> 0.99861955E+02</totfact>
</mgrwt>
</event>
<event>
 6    1  0.7270761E-006  0.1338641E+03  0.7546771E-02  0.1234063E+00
          1   -1    0    0  501    0  0.00000000000E+00  0.00000000000E+00  0.64271729096E+02  0.64271729096E+02  0.00000000000E+00 0. -1.
         -1   -1    0    0    0  501 -0.00000000000E+00 -0.00000000000E+00 -0.43769235186E+03  0.43769235186E+03  0.00000000000E+00 0.  1.
          5    1    1    2  502    0 -0.76382444333E+02  0.22957144216E+02 -0.16929577039E+03  0.18720164568E+03  0.47000000000E+01 0. -1.
         -5    1    1    2    0  502  0.44816857067E+02  0.12935636741E+02 -0.20557804968E+03  0.21085612603E+03  0.47000000000E+01 0. -1.
        -11    1    1    2    0    0  0.29513111107E+02  0.31301794656E+01 -0.38106770736E+02  0.48300597580E+02  0.00000000000E+00 0.  1.
         11    1    1    2    0    0  0.20524761585E+01 -0.39022960424E+02  0.39559968039E+02  0.55605711666E+02  0.00000000000E+00 0. -1.
<mgrwt>
<rscale>  0 0.12564582E+03</rscale>
<asrwt>0</asrwt>
<pdfrwt beam="1">  1        1 0.98879582E-02 0.13386414E+03</pdfrwt>
<pdfrwt beam="2">  1       -1 0.67337285E-01 0.13386414E+03</pdfrwt>
<totfact> 0.14757935E+03</totfact>
</mgrwt>
</event>
<event>
 6    1  0.7270761E-006  0.2768975E+03  0.7546771E-02  0.1097396E+00
         -1   -1    0    0    0  501 -0.00000000000E+00  0.00000000000E+00  0.56386136429E+02  0.56386136429E+02  0.00000000000E+00 0.  1.
          1   -1    0    0  501    0  0.00000000000E+00 -0.00000000000E+00 -0.33994274580E+03  0.33994274580E+03  0.00000000000E+00 0. -1.
          5    1    1    2  502    0 -0.11313076784E+02  0.99490315981E+02 -0.17392143538E+03  0.20074128714E+03  0.47000000000E+01 0. -1.
         -5    1    1    2    0  502  0.12587825557E+02 -0.87860493640E+01  0.10155452894E+02  0.18996611254E+02  0.47000000000E+01 0.  1.
        -11    1    1    2    0    0  0.44348608059E+02 -0.58860756667E+02 -0.61235462227E+02  0.95818419661E+02  0.00000000000E+00 0.  1.
         11    1    1    2    0    0 -0.45623356832E+02 -0.31843509950E+02 -0.58555164667E+02  0.80772564177E+02  0.00000000000E+00 0. -1.
<mgrwt>
<rscale>  0 0.27689751E+03</rscale>
<asrwt>0</asrwt>
<pdfrwt beam="2">  1        1 0.52298884E-01 0.27689751E+03</pdfrwt>
<pdfrwt beam="1">  1       -1 0.86747902E-02 0.27689751E+03</pdfrwt>
<totfact> 0.56437399E+03</totfact>
</mgrwt>
</event>
<event>
 6    1  0.7270761E-006  0.2964372E+03  0.7546771E-02  0.1087035E+00
         -1   -1    0    0    0  501 -0.00000000000E+00  0.00000000000E+00  0.67211725040E+03  0.67211725040E+03  0.00000000000E+00 0.  1.
          1   -1    0    0  501    0  0.00000000000E+00 -0.00000000000E+00 -0.32685896259E+02  0.32685896259E+02  0.00000000000E+00 0. -1.
          5    1    1    2  502    0 -0.28285376316E+01 -0.38510035895E+01 -0.16122665266E+02  0.17460274599E+02  0.47000000000E+01 0.  1.
         -5    1    1    2    0  502 -0.81243130641E+02  0.63646311889E+01  0.23079660410E+03  0.24480628519E+03  0.47000000000E+01 0.  1.
        -11    1    1    2    0    0  0.36643729944E+02  0.33856325404E+02  0.93965326100E+02  0.10638842147E+03  0.00000000000E+00 0. -1.
         11    1    1    2    0    0  0.47427938329E+02 -0.36369953003E+02  0.33079208921E+03  0.33614816540E+03  0.00000000000E+00 0.  1.
<mgrwt>
<rscale>  0 0.29643721E+03</rscale>
<asrwt>0</asrwt>
<pdfrwt beam="2">  1        1 0.50285999E-02 0.29643721E+03</pdfrwt>
<pdfrwt beam="1">  1       -1 0.10340264E+00 0.29643721E+03</pdfrwt>
<totfact> 0.15452325E+03</totfact>
</mgrwt>
</event>
<event>
 6    1  0.7270761E-006  0.3966493E+03  0.7546771E-02  0.1045744E+00
         -1   -1    0    0    0  501 -0.00000000000E+00  0.00000000000E+00  0.16557505098E+03  0.16557505098E+03  0.00000000000E+00 0.  1.
          1   -1    0    0  501    0  0.00000000000E+00 -0.00000000000E+00 -0.13538350555E+04  0.13538350555E+04  0.00000000000E+00 0. -1.
          5    1    1    2  502    0 -0.27436783158E+03  0.18595997009E+03 -0.14614094746E+03  0.36226797265E+03  0.47000000000E+01 0.  1.
         -5    1    1    2    0  502 -0.65189522712E+01  0.64652546109E+02 -0.26989720810E+02  0.70519383764E+02  0.47000000000E+01 0.  1.
        -11    1    1    2    0    0  0.88187846691E+02 -0.10642514730E+03 -0.26573970790E+03  0.29953464013E+03  0.00000000000E+00 0.  1.
         11    1    1    2    0    0  0.19269893716E+03 -0.14418736890E+03 -0.74938962837E+03  0.78708810996E+03  0.00000000000E+00 0. -1.
<mgrwt>
<rscale>  0 0.39437644E+03</rscale>
<asrwt>0</asrwt>
<pdfrwt beam="2">  1        1 0.20828231E+00 0.39664930E+03</pdfrwt>
<pdfrwt beam="1">  1       -1 0.25473086E-01 0.39664930E+03</pdfrwt>
<totfact> 0.11931600E+02</totfact>
</mgrwt>
</event>
<event>
 6    1  0.7270761E-006  0.2740368E+03  0.7546771E-02  0.1098991E+00
         -1   -1    0    0    0  501 -0.00000000000E+00  0.00000000000E+00  0.19946515381E+02  0.19946515381E+02  0.00000000000E+00 0.  1.
          1   -1    0    0  501    0  0.00000000000E+00 -0.00000000000E+00 -0.94121909827E+03  0.94121909827E+03  0.00000000000E+00 0. -1.
          5    1    1    2  502    0  0.25208509733E+00 -0.90512109776E+02 -0.14404123186E+03  0.17018364210E+03  0.47000000000E+01 0. -1.
         -5    1    1    2    0  502  0.43201740196E+00  0.14199131163E+02 -0.24582421579E+03  0.24627918514E+03  0.47000000000E+01 0. -1.
        -11    1    1    2    0    0 -0.44802304705E+02  0.34761223264E+02 -0.20404995245E+03  0.21178284218E+03  0.00000000000E+00 0.  1.
         11    1    1    2    0    0  0.44118202206E+02  0.41551755350E+02 -0.32735718279E+03  0.33291994423E+03  0.00000000000E+00 0. -1.
<mgrwt>
<rscale>  0 0.27403679E+03</rscale>
<asrwt>0</asrwt>
<pdfrwt beam="2">  1        1 0.14480295E+00 0.27403679E+03</pdfrwt>
<pdfrwt beam="1">  1       -1 0.30686943E-02 0.27403679E+03</pdfrwt>
<totfact> 0.64604601E+03</totfact>
</mgrwt>
</event>
<event>
 6    1  0.7270761E-006  0.1307855E+03  0.7546771E-02  0.1239949E+00
          1   -1    0    0  501    0  0.00000000000E+00  0.00000000000E+00  0.34206948692E+03  0.34206948692E+03  0.00000000000E+00 0. -1.
         -1   -1    0    0    0  501 -0.00000000000E+00 -0.00000000000E+00 -0.41104511870E+02  0.41104511870E+02  0.00000000000E+00 0.  1.
          5    1    1    2  502    0  0.56598840640E+02  0.37935987328E+02  0.58045153354E+02  0.89632012832E+02  0.47000000000E+01 0.  1.
         -5    1    1    2    0  502 -0.62006817536E+02  0.13427137367E+00  0.64497573893E+02  0.89592915388E+02  0.47000000000E+01 0.  1.
        -11    1    1    2    0    0 -0.28508096017E+02  0.10677565449E+02  0.10603908152E+03  0.11032229490E+03  0.00000000000E+00 0. -1.
         11    1    1    2    0    0  0.33916072912E+02 -0.48747824151E+02  0.72383166284E+02  0.93626775671E+02  0.00000000000E+00 0.  1.
<mgrwt>
<rscale>  0 0.12192844E+03</rscale>
<asrwt>0</asrwt>
<pdfrwt beam="1">  1        1 0.52626073E-01 0.13078553E+03</pdfrwt>
<pdfrwt beam="2">  1       -1 0.63237713E-02 0.13078553E+03</pdfrwt>
<totfact> 0.86605564E+03</totfact>
</mgrwt>
</event>
<event>
 6    1  0.7270761E-006  0.1360430E+03  0.7546771E-02  0.1230015E+00
         -2   -1    0    0    0  501 -0.00000000000E+00  0.00000000000E+00  0.26249070108E+02  0.26249070108E+02  0.00000000000E+00 0.  1.
          2   -1    0    0  501    0  0.00000000000E+00 -0.00000000000E+00 -0.56823178755E+03  0.56823178755E+03  0.00000000000E+00 0. -1.
          5    1    1    2  502    0 -0.39478827375E+00  0.18877017300E+02 -0.27323372363E+03  0.27392563839E+03  0.47000000000E+01 0. -1.
         -5    1    1    2    0  502 -0.22662550435E+02  0.29707886042E+02 -0.80221642074E+01  0.38504477712E+02  0.47000000000E+01 0. -1.
        -11    1    1    2    0    0 -0.96397682234E+00 -0.73134336954E+02 -0.17178141036E+03  0.18670407987E+03  0.00000000000E+00 0. -1.
         11    1    1    2    0    0  0.24021315531E+02  0.24549433612E+02 -0.88945419244E+02  0.95346661688E+02  0.00000000000E+00 0.  1.
<mgrwt>
<rscale>  0 0.12829014E+03</rscale>
<asrwt>0</asrwt>
<pdfrwt beam="2">  1        2 0.87420273E-01 0.13604302E+03</pdfrwt>
<pdfrwt beam="1">  1       -2 0.40383185E-02 0.13604302E+03</pdfrwt>
<totfact> 0.13822171E+04</totfact>
</mgrwt>
</event>
<event>
 6    1  0.7270761E-006  0.1502728E+03  0.7546771E-02  0.1208648E+00
          4   -1    0    0  501    0  0.00000000000E+00  0.00000000000E+00  0.35482448334E+03  0.35482448334E+03  0.00000000000E+00 0.  1.
         -4   -1    0    0    0  501 -0.00000000000E+00 -0.00000000000E+00 -0.56593509370E+02  0.56593509370E+02  0.00000000000E+00 0. -1.
          5    1    1    2  502    0  0.43429710399E+02 -0.64641450642E+02  0.10615359525E+03  0.13173963971E+03  0.47000000000E+01 0. -1.
         -5    1    1    2    0  502  0.36855070876E+02  0.42030184898E+02  0.73395852926E+01  0.56575544223E+02  0.47000000000E+01 0. -1.
        -11    1    1    2    0    0 -0.65920093530E+02  0.26518591971E+02  0.19328879911E+03  0.20593507305E+03  0.00000000000E+00 0.  1.
         11    1    1    2    0    0 -0.14364687745E+02 -0.39073262274E+01 -0.85510056727E+01  0.17167735735E+02  0.00000000000E+00 0. -1.
<mgrwt>
<rscale>  0 0.14353686E+03</rscale>
<asrwt>0</asrwt>
<pdfrwt beam="1">  1        4 0.54588381E-01 0.15027277E+03</pdfrwt>
<pdfrwt beam="2">  1       -4 0.87066940E-02 0.15027277E+03</pdfrwt>
<totfact> 0.52464209E+02</totfact>
</mgrwt>
</event>
<event>
 6    1  0.7270761E-006  0.1264532E+03  0.7546771E-02  0.1246742E+00
          1   -1    0    0  501    0  0.00000000000E+00  0.00000000000E+00  0.40576258184E+02  0.40576258184E+02  0.00000000000E+00 0. -1.
         -1   -1    0    0    0  501 -0.00000000000E+00 -0.00000000000E+00 -0.52958109792E+03  0.52958109792E+03  0.00000000000E+00 0.  1.
          5    1    1    2  502    0 -0.60327104110E+02  0.11588192393E+01 -0.38872116748E+03  0.39340429382E+03  0.47000000000E+01 0. -1.
         -5    1    1    2    0  502  0.41158318482E+02  0.69232733513E+00 -0.60875166143E+02  0.73636691604E+02  0.47000000000E+01 0. -1.
        -11    1    1    2    0    0  0.16006820837E+02 -0.46851899964E+02 -0.14527560237E+02  0.51598147738E+02  0.00000000000E+00 0.  1.
         11    1    1    2    0    0  0.31619647908E+01  0.45000753389E+02 -0.24880945874E+02  0.51518222937E+02  0.00000000000E+00 0. -1.
<mgrwt>
<rscale>  0 0.11781699E+03</rscale>
<asrwt>0</asrwt>
<pdfrwt beam="1">  1        1 0.62425013E-02 0.12645323E+03</pdfrwt>
<pdfrwt beam="2">  1       -1 0.81474014E-01 0.12645323E+03</pdfrwt>
<totfact> 0.18623345E+03</totfact>
</mgrwt>
</event>
<event>
 6    1  0.7270761E-006  0.1648340E+03  0.7546771E-02  0.1190056E+00
         -1   -1    0    0    0  501 -0.00000000000E+00  0.00000000000E+00  0.40469134690E+03  0.40469134690E+03  0.00000000000E+00 0.  1.
          1   -1    0    0  501    0  0.00000000000E+00 -0.00000000000E+00 -0.60420507645E+02  0.60420507645E+02  0.00000000000E+00 0. -1.
          5    1    1    2  502    0  0.15494015800E+02 -0.74128434818E+01  0.17582678278E+03  0.17672623551E+03  0.47000000000E+01 0. -1.
         -5    1    1    2    0  502  0.90349052962E+02 -0.11145133910E+02  0.53505374856E+02  0.10569806299E+03  0.47000000000E+01 0. -1.
        -11    1    1    2    0    0 -0.11129744274E+02 -0.32118602041E+02  0.20764062795E+02  0.39832425340E+02  0.00000000000E+00 0. -1.
         11    1    1    2    0    0 -0.94713324488E+02  0.50676579433E+02  0.94174618819E+02  0.14285513070E+03  0.00000000000E+00 0.  1.
<mgrwt>
<rscale>  0 0.15880229E+03</rscale>
<asrwt>0</asrwt>
<pdfrwt beam="2">  1        1 0.92954630E-02 0.16483399E+03</pdfrwt>
<pdfrwt beam="1">  1       -1 0.62260206E-01 0.16483399E+03</pdfrwt>
<totfact> 0.18796587E+03</totfact>
</mgrwt>
</event>
<event>
 6    1  0.7270761E-006  0.1696020E+03  0.7546771E-02  0.1184504E+00
          1   -1    0    0  501    0  0.00000000000E+00  0.00000000000E+00  0.57207161644E+02  0.57207161644E+02  0.00000000000E+00 0. -1.
         -1   -1    0    0    0  501 -0.00000000000E+00 -0.00000000000E+00 -0.47406103513E+03  0.47406103513E+03  0.00000000000E+00 0.  1.
          5    1    1    2  502    0  0.14951347734E+01 -0.73693649048E+02 -0.23177194148E+03  0.24325565193E+03  0.47000000000E+01 0.  1.
         -5    1    1    2    0  502  0.71592577924E+02 -0.14600852924E+02 -0.61918989497E+02  0.95889172383E+02  0.47000000000E+01 0.  1.
        -11    1    1    2    0    0 -0.22230853041E+02  0.29236607180E+02 -0.10618553842E+03  0.11235817102E+03  0.00000000000E+00 0.  1.
         11    1    1    2    0    0 -0.50856859657E+02  0.59057894792E+02 -0.16977404095E+02  0.79765201443E+02  0.00000000000E+00 0. -1.
<mgrwt>
<rscale>  0 0.16377078E+03</rscale>
<asrwt>0</asrwt>
<pdfrwt beam="1">  1        1 0.88011015E-02 0.16960203E+03</pdfrwt>
<pdfrwt beam="2">  1       -1 0.72932470E-01 0.16960203E+03</pdfrwt>
<totfact> 0.14837488E+03</totfact>
</mgrwt>
</event>
<event>
 6    1  0.7270761E-006  0.2132123E+03  0.7546771E-02  0.1143228E+00
          2   -1    0    0  501    0  0.00000000000E+00  0.00000000000E+00  0.12916240565E+04  0.12916240565E+04  0.00000000000E+00 0. -1.
         -2   -1    0    0    0  501 -0.00000000000E+00 -0.00000000000E+00 -0.31934864767E+02  0.31934864767E+02  0.00000000000E+00 0.  1.
          5    1    1    2  502    0  0.13467331144E+03 -0.22842997740E+02  0.28757441595E+03  0.31840200701E+03  0.47000000000E+01 0.  1.
         -5    1    1    2    0  502  0.36916972196E+02  0.29839304299E+01  0.39346945179E+03  0.39523672169E+03  0.47000000000E+01 0.  1.
        -11    1    1    2    0    0 -0.65531249999E+02  0.46961650727E+02  0.19624017414E+03  0.21215547910E+03  0.00000000000E+00 0.  1.
         11    1    1    2    0    0 -0.10605903364E+03 -0.27102583416E+02  0.38240514981E+03  0.39776471342E+03  0.00000000000E+00 0. -1.
<mgrwt>
<rscale>  0 0.20791533E+03</rscale>
<asrwt>0</asrwt>
<pdfrwt beam="1">  1        2 0.19871135E+00 0.21321230E+03</pdfrwt>
<pdfrwt beam="2">  1       -2 0.49130571E-02 0.21321230E+03</pdfrwt>
<totfact> 0.35536638E+03</totfact>
</mgrwt>
</event>
<event>
 6    1  0.7270761E-006  0.1489191E+03  0.7546771E-02  0.1212203E+00
          2   -1    0    0  501    0  0.00000000000E+00  0.00000000000E+00  0.29255539825E+03  0.29255539825E+03  0.00000000000E+00 0. -1.
         -2   -1    0    0    0  501 -0.00000000000E+00 -0.00000000000E+00 -0.62427377080E+02  0.62427377080E+02  0.00000000000E+00 0.  1.
          5    1    1    2  502    0 -0.16366252824E+02 -0.27230562935E+02  0.13819422713E+01  0.32145879265E+02  0.47000000000E+01 0.  1.
         -5    1    1    2    0  502  0.90222169374E+02  0.60168844457E+02  0.10365583226E+03  0.15008981062E+03  0.47000000000E+01 0.  1.
        -11    1    1    2    0    0 -0.43309692368E+02 -0.62878142661E+02  0.81520248798E+02  0.11169127648E+03  0.00000000000E+00 0. -1.
         11    1    1    2    0    0 -0.30546224182E+02  0.29939861139E+02  0.43569997841E+02  0.61055808968E+02  0.00000000000E+00 0.  1.
<mgrwt>
<rscale>  0 0.14083998E+03</rscale>
<asrwt>0</asrwt>
<pdfrwt beam="1">  1        2 0.45008522E-01 0.14891915E+03</pdfrwt>
<pdfrwt beam="2">  1       -2 0.96042120E-02 0.14891915E+03</pdfrwt>
<totfact> 0.76106469E+03</totfact>
</mgrwt>
</event>
<event>
 6    1  0.7270761E-006  0.1215134E+03  0.7546771E-02  0.1251271E+00
          1   -1    0    0  501    0  0.00000000000E+00  0.00000000000E+00  0.78572771572E+02  0.78572771572E+02  0.00000000000E+00 0. -1.
         -1   -1    0    0    0  501 -0.00000000000E+00 -0.00000000000E+00 -0.15511383729E+03  0.15511383729E+03  0.00000000000E+00 0.  1.
          5    1    1    2  502    0 -0.34828699322E+02 -0.36182671746E+02 -0.60087059300E+02  0.78452334105E+02  0.47000000000E+01 0. -1.
         -5    1    1    2    0  502  0.53905972328E+02  0.54149701224E+01  0.56971299061E+01  0.54678359917E+02  0.47000000000E+01 0.  1.
        -11    1    1    2    0    0  0.31765129557E+02  0.89384939583E+01 -0.30091075076E+02  0.44658626594E+02  0.00000000000E+00 0.  1.
         11    1    1    2    0    0 -0.50842402563E+02  0.21829207665E+02  0.79399387542E+01  0.55897288244E+02  0.00000000000E+00 0. -1.
<mgrwt>
<rscale>  0 0.11517806E+03</rscale>
<asrwt>0</asrwt>
<pdfrwt beam="1">  1        1 0.12088119E-01 0.12151344E+03</pdfrwt>
<pdfrwt beam="2">  1       -1 0.23863667E-01 0.12151344E+03</pdfrwt>
<totfact> 0.70209500E+03</totfact>
</mgrwt>
</event>
<event>
 6    1  0.7270761E-006  0.1266619E+03  0.7546771E-02  0.1247432E+00
          2   -1    0    0  501    0  0.00000000000E+00  0.00000000000E+00  0.62375281558E+02  0.62375281558E+02  0.00000000000E+00 0. -1.
         -2   -1    0    0    0  501 -0.00000000000E+00 -0.00000000000E+00 -0.19568295391E+03  0.19568295391E+03  0.00000000000E+00 0.  1.
          5    1    1    2  502    0 -0.38362989189E+01 -0.56379240765E+02 -0.92378013962E-01  0.56704801493E+02  0.47000000000E+01 0. -1.
         -5    1    1    2    0  502 -0.16319516712E+02  0.52826500134E+02 -0.65792234586E+02  0.86067844599E+02  0.47000000000E+01 0. -1.
        -11    1    1    2    0    0 -0.73129499314E+01 -0.18799742514E+02 -0.76179416088E+02  0.78804904611E+02  0.00000000000E+00 0.  1.
         11    1    1    2    0    0  0.27468765562E+02  0.22352483145E+02  0.87563563407E+01  0.36480684761E+02  0.00000000000E+00 0. -1.
<mgrwt>
<rscale>  0 0.11740969E+03</rscale>
<asrwt>0</asrwt>
<pdfrwt beam="1">  1        2 0.95961973E-02 0.12666194E+03</pdfrwt>
<pdfrwt beam="2">  1       -2 0.30105070E-01 0.12666194E+03</pdfrwt>
<totfact> 0.64532446E+03</totfact>
</mgrwt>
</event>
<event>
 6    1  0.7270761E-006  0.1607034E+03  0.7546771E-02  0.1195188E+00
         -4   -1    0    0    0  501 -0.00000000000E+00  0.00000000000E+00  0.15308720530E+02  0.15308720530E+02  0.00000000000E+00 0.  1.
          4   -1    0    0  501    0  0.00000000000E+00 -0.00000000000E+00 -0.14606179663E+04  0.14606179663E+04  0.00000000000E+00 0. -1.
          5    1    1    2  502    0 -0.26412626678E+02 -0.12118765009E+02 -0.75714404128E+02  0.81235782176E+02  0.47000000000E+01 0. -1.
         -5    1    1    2    0  502  0.12618286820E+03 -0.35786373406E+01 -0.63098229344E+03  0.64350265540E+03  0.47000000000E+01 0. -1.
        -11    1    1    2    0    0  0.13110079400E+02  0.19896389228E+02 -0.13938755177E+03  0.14140944125E+03  0.00000000000E+00 0. -1.
         11    1    1    2    0    0 -0.11288032092E+03 -0.41989868780E+01 -0.59922499643E+03  0.60977880800E+03  0.00000000000E+00 0.  1.
<mgrwt>
<rscale>  0 0.15438366E+03</rscale>
<asrwt>0</asrwt>
<pdfrwt beam="2">  1        4 0.22471037E+00 0.16070339E+03</pdfrwt>
<pdfrwt beam="1">  1       -4 0.23551886E-02 0.16070339E+03</pdfrwt>
<totfact> 0.14002226E+02</totfact>
</mgrwt>
</event>
<event>
 6    1  0.7270761E-006  0.4461639E+03  0.7546771E-02  0.1028872E+00
         -2   -1    0    0    0  501 -0.00000000000E+00  0.00000000000E+00  0.16585819930E+03  0.16585819930E+03  0.00000000000E+00 0. -1.
          2   -1    0    0  501    0  0.00000000000E+00 -0.00000000000E+00 -0.30004877934E+03  0.30004877934E+03  0.00000000000E+00 0.  1.
          5    1    1    2  502    0  0.12907607301E+03  0.67967178251E+01  0.13591188778E+02  0.13005244484E+03  0.47000000000E+01 0.  1.
         -5    1    1    2    0  502  0.42469389917E+01  0.49625947717E+02  0.51969996075E+02  0.72136964655E+02  0.47000000000E+01 0.  1.
        -11    1    1    2    0    0 -0.81696987577E+02  0.15123196928E+01 -0.52075922959E+02  0.96894719372E+02  0.00000000000E+00 0. -1.
         11    1    1    2    0    0 -0.51626024425E+02 -0.57934985235E+02 -0.14767584194E+03  0.16682284977E+03  0.00000000000E+00 0.  1.
<mgrwt>
<rscale>  0 0.44616387E+03</rscale>
<asrwt>0</asrwt>
<pdfrwt beam="2">  1        2 0.46161350E-01 0.44616387E+03</pdfrwt>
<pdfrwt beam="1">  1       -2 0.25516646E-01 0.44616387E+03</pdfrwt>
<totfact> 0.15088015E+03</totfact>
</mgrwt>
</event>
<event>
 6    1  0.7270761E-006  0.1708302E+03  0.7546771E-02  0.1183454E+00
         -1   -1    0    0    0  501 -0.00000000000E+00  0.00000000000E+00  0.35304505563E+02  0.35304505563E+02  0.00000000000E+00 0.  1.
          1   -1    0    0  501    0  0.00000000000E+00 -0.00000000000E+00 -0.76822670955E+03  0.76822670955E+03  0.00000000000E+00 0. -1.
          5    1    1    2  502    0 -0.37686191624E+02  0.16958531915E+02 -0.10378989822E+03  0.11181356723E+03  0.47000000000E+01 0. -1.
         -5    1    1    2    0  502 -0.39830763942E+01 -0.12568618775E+03 -0.18562880267E+03  0.22426106454E+03  0.47000000000E+01 0. -1.
        -11    1    1    2    0    0 -0.13928302295E+02 -0.89505473029E+01 -0.34949526620E+02  0.38672720525E+02  0.00000000000E+00 0. -1.
         11    1    1    2    0    0  0.55597570313E+02  0.11767820314E+03 -0.40855397647E+03  0.42878386281E+03  0.00000000000E+00 0.  1.
<mgrwt>
<rscale>  0 0.16473321E+03</rscale>
<asrwt>0</asrwt>
<pdfrwt beam="2">  1        1 0.11818871E+00 0.17083025E+03</pdfrwt>
<pdfrwt beam="1">  1       -1 0.54314629E-02 0.17083025E+03</pdfrwt>
<totfact> 0.37492768E+03</totfact>
</mgrwt>
</event>
<event>
 6    1  0.1627270E-005  0.2329046E+03  0.7546771E-02  0.1127669E+00
         -1   -1    0    0    0  501 -0.00000000000E+00  0.00000000000E+00  0.42188728051E+02  0.42188728051E+02  0.00000000000E+00 0.  1.
          1   -1    0    0  501    0  0.00000000000E+00 -0.00000000000E+00 -0.12053576217E+04  0.12053576217E+04  0.00000000000E+00 0. -1.
          5    1    1    2  502    0 -0.17260244731E+03 -0.29935040915E+02 -0.40222999934E+03  0.43874682205E+03  0.47000000000E+01 0.  1.
         -5    1    1    2    0  502 -0.22582643988E+02  0.52778738018E+02 -0.14019804669E+03  0.15156897206E+03  0.47000000000E+01 0.  1.
        -11    1    1    2    0    0  0.78244216538E+02  0.29990971399E+02 -0.18722578913E+03  0.20512218774E+03  0.00000000000E+00 0.  1.
         11    1    1    2    0    0  0.11694087476E+03 -0.52834668502E+02 -0.43351505845E+03  0.45210836786E+03  0.00000000000E+00 0. -1.
<mgrwt>
<rscale>  0 0.22854409E+03</rscale>
<asrwt>0</asrwt>
<pdfrwt beam="2">  1        1 0.18543962E+00 0.23290460E+03</pdfrwt>
<pdfrwt beam="1">  1       -1 0.64905740E-02 0.23290460E+03</pdfrwt>
<totfact> 0.13476573E+03</totfact>
</mgrwt>
</event>
<event>
 6    1  0.7270761E-006  0.1291527E+03  0.7546771E-02  0.1240488E+00
         -2   -1    0    0    0  501 -0.00000000000E+00  0.00000000000E+00  0.43661729279E+02  0.43661729279E+02  0.00000000000E+00 0.  1.
          2   -1    0    0  501    0  0.00000000000E+00 -0.00000000000E+00 -0.30541877593E+03  0.30541877593E+03  0.00000000000E+00 0. -1.
          5    1    1    2  502    0 -0.69772328835E+01 -0.46609326504E+02 -0.73362153742E+02  0.87322429522E+02  0.47000000000E+01 0. -1.
         -5    1    1    2    0  502  0.23174462540E+02  0.74762074935E+02 -0.63935029869E+02  0.10117411530E+03  0.47000000000E+01 0. -1.
        -11    1    1    2    0    0  0.39188348619E+02 -0.14396702996E+01 -0.39052622449E+02  0.55343532939E+02  0.00000000000E+00 0.  1.
         11    1    1    2    0    0 -0.55385578275E+02 -0.26713078131E+02 -0.85407240594E+02  0.10524042745E+03  0.00000000000E+00 0. -1.
<mgrwt>
<rscale>  0 0.12159516E+03</rscale>
<asrwt>0</asrwt>
<pdfrwt beam="2">  1        2 0.46987503E-01 0.12915274E+03</pdfrwt>
<pdfrwt beam="1">  1       -2 0.67171892E-02 0.12915274E+03</pdfrwt>
<totfact> 0.12506894E+04</totfact>
</mgrwt>
</event>
<event>
 6    1  0.7270761E-006  0.1688714E+03  0.7546771E-02  0.1185892E+00
          1   -1    0    0  501    0  0.00000000000E+00  0.00000000000E+00  0.49921849862E+03  0.49921849862E+03  0.00000000000E+00 0. -1.
         -1   -1    0    0    0  501 -0.00000000000E+00 -0.00000000000E+00 -0.50175731669E+02  0.50175731669E+02  0.00000000000E+00 0.  1.
          5    1    1    2  502    0  0.69085117283E+02 -0.58593442776E+01  0.17363697593E+02  0.71628718678E+02  0.47000000000E+01 0.  1.
         -5    1    1    2    0  502  0.38506500707E+02 -0.30417959912E+02  0.18746224678E+03  0.19383546335E+03  0.47000000000E+01 0.  1.
        -11    1    1    2    0    0 -0.10765355578E+03  0.26023121910E+02  0.24907046389E+03  0.27258500862E+03  0.00000000000E+00 0. -1.
         11    1    1    2    0    0  0.61937785177E-01  0.10254182280E+02 -0.48536413104E+01  0.11345039642E+02  0.00000000000E+00 0.  1.
<mgrwt>
<rscale>  0 0.16250937E+03</rscale>
<asrwt>0</asrwt>
<pdfrwt beam="1">  1        1 0.76802843E-01 0.16887144E+03</pdfrwt>
<pdfrwt beam="2">  1       -1 0.77193437E-02 0.16887144E+03</pdfrwt>
<totfact> 0.40247398E+03</totfact>
</mgrwt>
</event>
<event>
 6    1  0.7270761E-006  0.1756450E+03  0.7546771E-02  0.1178011E+00
         -2   -1    0    0    0  501 -0.00000000000E+00  0.00000000000E+00  0.38226644598E+02  0.38226644598E+02  0.00000000000E+00 0.  1.
          2   -1    0    0  501    0  0.00000000000E+00 -0.00000000000E+00 -0.71061017704E+03  0.71061017704E+03  0.00000000000E+00 0. -1.
          5    1    1    2  502    0 -0.10513751007E+03 -0.18900825654E+02 -0.30239506271E+03  0.32074288953E+03  0.47000000000E+01 0.  1.
         -5    1    1    2    0  502 -0.15123574814E+02  0.46524447033E+02 -0.37378594379E+02  0.61745412823E+02  0.47000000000E+01 0.  1.
        -11    1    1    2    0    0  0.24769053973E+02  0.28262630365E+02 -0.47813367840E+02  0.60814475695E+02  0.00000000000E+00 0.  1.
         11    1    1    2    0    0  0.95492030907E+02 -0.55886251744E+02 -0.28479650751E+03  0.30553404359E+03  0.00000000000E+00 0. -1.
<mgrwt>
<rscale>  0 0.16984360E+03</rscale>
<asrwt>0</asrwt>
<pdfrwt beam="2">  1        2 0.10932463E+00 0.17564499E+03</pdfrwt>
<pdfrwt beam="1">  1       -2 0.58810228E-02 0.17564499E+03</pdfrwt>
<totfact> 0.61480256E+03</totfact>
</mgrwt>
</event>
<event>
 6    1  0.7270761E-006  0.2244170E+03  0.7546771E-02  0.1134255E+00
         -1   -1    0    0    0  501 -0.00000000000E+00  0.00000000000E+00  0.56481207489E+02  0.56481207489E+02  0.00000000000E+00 0.  1.
          1   -1    0    0  501    0  0.00000000000E+00 -0.00000000000E+00 -0.85905326165E+03  0.85905326165E+03  0.00000000000E+00 0. -1.
          5    1    1    2  502    0  0.47729334378E+02 -0.41158090873E+02 -0.10421936089E+03  0.12188454779E+03  0.47000000000E+01 0.  1.
         -5    1    1    2    0  502  0.13167902302E+03  0.91648762187E+02 -0.21361404534E+03  0.26719264787E+03  0.47000000000E+01 0.  1.
        -11    1    1    2    0    0 -0.18076160992E+03 -0.63450130338E+02 -0.46363293701E+03  0.50165344506E+03  0.00000000000E+00 0. -1.
         11    1    1    2    0    0  0.13532525278E+01  0.12959459025E+02 -0.21105710931E+02  0.24803828424E+02  0.00000000000E+00 0.  1.
<mgrwt>
<rscale>  0 0.21950149E+03</rscale>
<asrwt>0</asrwt>
<pdfrwt beam="2">  1        1 0.13216203E+00 0.22441700E+03</pdfrwt>
<pdfrwt beam="1">  1       -1 0.86894171E-02 0.22441700E+03</pdfrwt>
<totfact> 0.15595371E+03</totfact>
</mgrwt>
</event>
<event>
 6    1  0.8644401E-006  0.3855803E+03  0.7546771E-02  0.1048890E+00
          2   -1    0    0  501    0  0.00000000000E+00  0.00000000000E+00  0.15150768478E+04  0.15150768478E+04  0.00000000000E+00 0. -1.
         -2   -1    0    0    0  501 -0.00000000000E+00 -0.00000000000E+00 -0.24532118726E+02  0.24532118726E+02  0.00000000000E+00 0.  1.
          5    1    1    2  502    0 -0.10035937654E+03  0.12154706108E+03  0.69784045748E+03  0.71543629109E+03  0.47000000000E+01 0.  1.
         -5    1    1    2    0  502 -0.27989151582E+02 -0.28134786662E+02  0.10250543475E+03  0.11002005717E+03  0.47000000000E+01 0.  1.
        -11    1    1    2    0    0  0.45854616412E+02 -0.76958476525E+02  0.24025581492E+03  0.25641394182E+03  0.00000000000E+00 0.  1.
         11    1    1    2    0    0  0.82493911707E+02 -0.16453797894E+02  0.44994302187E+03  0.45773867639E+03  0.00000000000E+00 0. -1.
<mgrwt>
<rscale>  0 0.38558032E+03</rscale>
<asrwt>0</asrwt>
<pdfrwt beam="1">  1        2 0.23308867E+00 0.38558032E+03</pdfrwt>
<pdfrwt beam="2">  1       -2 0.37741733E-02 0.38558032E+03</pdfrwt>
<totfact> 0.40248531E+03</totfact>
</mgrwt>
</event>
<event>
 6    1  0.7270761E-006  0.3451629E+03  0.7546771E-02  0.1064618E+00
          1   -1    0    0  501    0  0.00000000000E+00  0.00000000000E+00  0.62521501608E+03  0.62521501608E+03  0.00000000000E+00 0. -1.
         -1   -1    0    0    0  501 -0.00000000000E+00 -0.00000000000E+00 -0.47638586486E+02  0.47638586486E+02  0.00000000000E+00 0.  1.
          5    1    1    2  502    0  0.29213887988E+02 -0.25693123392E+02  0.13015290741E+03  0.13592445383E+03  0.47000000000E+01 0. -1.
         -5    1    1    2    0  502 -0.58132415143E+02 -0.92788652441E+02  0.71587107747E+02  0.13090422341E+03  0.47000000000E+01 0. -1.
        -11    1    1    2    0    0  0.44260122863E+02  0.53336919528E+02  0.28432865729E+03  0.29265435383E+03  0.00000000000E+00 0. -1.
         11    1    1    2    0    0 -0.15341595709E+02  0.65144856305E+02  0.91507757142E+02  0.11337057149E+03  0.00000000000E+00 0.  1.
<mgrwt>
<rscale>  0 0.34516292E+03</rscale>
<asrwt>0</asrwt>
<pdfrwt beam="1">  1        1 0.96186920E-01 0.34516292E+03</pdfrwt>
<pdfrwt beam="2">  1       -1 0.73290138E-02 0.34516292E+03</pdfrwt>
<totfact> 0.32778802E+03</totfact>
</mgrwt>
</event>
<event>
 6    1  0.7270761E-006  0.1435448E+03  0.7546771E-02  0.1219214E+00
         -2   -1    0    0    0  501 -0.00000000000E+00  0.00000000000E+00  0.58602452817E+03  0.58602452817E+03  0.00000000000E+00 0.  1.
          2   -1    0    0  501    0  0.00000000000E+00 -0.00000000000E+00 -0.28572446222E+02  0.28572446222E+02  0.00000000000E+00 0. -1.
          5    1    1    2  502    0  0.10144426169E+03  0.53294187431E+01  0.29440058242E+03  0.31146931448E+03  0.47000000000E+01 0.  1.
         -5    1    1    2    0  502 -0.31812659111E+02  0.60953109536E+01  0.35380986928E+02  0.48198571880E+02  0.47000000000E+01 0.  1.
        -11    1    1    2    0    0  0.65943637948E+01  0.26664939410E+02  0.36981524229E+02  0.46066666495E+02  0.00000000000E+00 0.  1.
         11    1    1    2    0    0 -0.76225966379E+02 -0.38089669107E+02  0.19068898837E+03  0.20886242153E+03  0.00000000000E+00 0. -1.
<mgrwt>
<rscale>  0 0.13571468E+03</rscale>
<asrwt>0</asrwt>
<pdfrwt beam="2">  1        2 0.43957614E-02 0.14354478E+03</pdfrwt>
<pdfrwt beam="1">  1       -2 0.90157611E-01 0.14354478E+03</pdfrwt>
<totfact> 0.19602171E+03</totfact>
</mgrwt>
</event>
<event>
 6    1  0.7270761E-006  0.1269409E+03  0.7546771E-02  0.1246699E+00
          2   -1    0    0  501    0  0.00000000000E+00  0.00000000000E+00  0.48152132592E+02  0.48152132592E+02  0.00000000000E+00 0. -1.
         -2   -1    0    0    0  501 -0.00000000000E+00 -0.00000000000E+00 -0.36316595557E+03  0.36316595557E+03  0.00000000000E+00 0.  1.
          5    1    1    2  502    0  0.54897745796E+02 -0.16744248717E+02 -0.15529071829E+03  0.16562436278E+03  0.47000000000E+01 0. -1.
         -5    1    1    2    0  502 -0.67677291400E+02 -0.12979312352E+01 -0.13034000071E+03  0.14694388787E+03  0.47000000000E+01 0. -1.
        -11    1    1    2    0    0 -0.34738525155E+02 -0.13115671099E+02 -0.15625406067E+02  0.40285720461E+02  0.00000000000E+00 0.  1.
         11    1    1    2    0    0  0.47518070758E+02  0.31157851052E+02 -0.13757697907E+02  0.58464117050E+02  0.00000000000E+00 0. -1.
<mgrwt>
<rscale>  0 0.11784273E+03</rscale>
<asrwt>0</asrwt>
<pdfrwt beam="1">  1        2 0.74080205E-02 0.12694095E+03</pdfrwt>
<pdfrwt beam="2">  1       -2 0.55871685E-01 0.12694095E+03</pdfrwt>
<totfact> 0.27484389E+03</totfact>
</mgrwt>
</event>
<event>
 6    1  0.7270761E-006  0.1148281E+03  0.7546771E-02  0.1262471E+00
          3   -1    0    0  501    0  0.00000000000E+00  0.00000000000E+00  0.78249640887E+02  0.78249640887E+02  0.00000000000E+00 0. -1.
         -3   -1    0    0    0  501 -0.00000000000E+00 -0.00000000000E+00 -0.13837574314E+03  0.13837574314E+03  0.00000000000E+00 0.  1.
          5    1    1    2  502    0  0.26328335217E+02  0.58775259698E+02 -0.56217995781E+00  0.64576454178E+02  0.47000000000E+01 0. -1.
         -5    1    1    2    0  502 -0.31032189690E+02 -0.33049463562E+02 -0.28910001863E+02  0.53973530980E+02  0.47000000000E+01 0.  1.
        -11    1    1    2    0    0  0.38679722177E+02  0.25377850034E+01 -0.36807414909E+02  0.53454158423E+02  0.00000000000E+00 0. -1.
         11    1    1    2    0    0 -0.33975867704E+02 -0.28263581140E+02  0.61534944728E+01  0.44621240450E+02  0.00000000000E+00 0.  1.
<mgrwt>
<rscale>  0 0.10897969E+03</rscale>
<asrwt>0</asrwt>
<pdfrwt beam="1">  1        3 0.12038406E-01 0.11482809E+03</pdfrwt>
<pdfrwt beam="2">  1       -3 0.21288576E-01 0.11482809E+03</pdfrwt>
<totfact> 0.24076712E+03</totfact>
</mgrwt>
</event>
<event>
 6    1  0.7270761E-006  0.1389497E+03  0.7546771E-02  0.1225985E+00
         -2   -1    0    0    0  501 -0.00000000000E+00  0.00000000000E+00  0.68333841386E+02  0.68333841386E+02  0.00000000000E+00 0.  1.
          2   -1    0    0  501    0  0.00000000000E+00 -0.00000000000E+00 -0.23282066304E+03  0.23282066304E+03  0.00000000000E+00 0. -1.
          5    1    1    2  502    0 -0.42055323105E+02  0.47004295258E+02 -0.32508358881E+02  0.71112146440E+02  0.47000000000E+01 0.  1.
         -5    1    1    2    0  502 -0.12023608997E+02 -0.74537646989E+02 -0.34107588944E+02  0.82980995508E+02  0.47000000000E+01 0.  1.
        -11    1    1    2    0    0  0.32780225941E+01  0.44201791207E+02 -0.12021672680E+02  0.45924551082E+02  0.00000000000E+00 0.  1.
         11    1    1    2    0    0  0.50800909508E+02 -0.16668439476E+02 -0.85849201152E+02  0.10113681140E+03  0.00000000000E+00 0. -1.
<mgrwt>
<rscale>  0 0.13099630E+03</rscale>
<asrwt>0</asrwt>
<pdfrwt beam="2">  1        2 0.35818563E-01 0.13894967E+03</pdfrwt>
<pdfrwt beam="1">  1       -2 0.10512899E-01 0.13894967E+03</pdfrwt>
<totfact> 0.83797809E+03</totfact>
</mgrwt>
</event>
<event>
 6    1  0.7270761E-006  0.1440593E+03  0.7546771E-02  0.1217928E+00
          2   -1    0    0  501    0  0.00000000000E+00  0.00000000000E+00  0.35322698533E+03  0.35322698533E+03  0.00000000000E+00 0. -1.
         -2   -1    0    0    0  501 -0.00000000000E+00 -0.00000000000E+00 -0.48978270693E+02  0.48978270693E+02  0.00000000000E+00 0.  1.
          5    1    1    2  502    0  0.51700438149E+02 -0.55804937754E+02  0.13450067865E+03  0.15459511292E+03  0.47000000000E+01 0. -1.
         -5    1    1    2    0  502  0.18630925401E+02  0.42257903893E+02  0.63041166875E+01  0.46847344748E+02  0.47000000000E+01 0. -1.
        -11    1    1    2    0    0 -0.29359420013E+02 -0.29630049393E+02  0.21680274297E+02  0.47010101724E+02  0.00000000000E+00 0.  1.
         11    1    1    2    0    0 -0.40971943538E+02  0.43177083254E+02  0.14176364501E+03  0.15375269663E+03  0.00000000000E+00 0. -1.
<mgrwt>
<rscale>  0 0.13663611E+03</rscale>
<asrwt>0</asrwt>
<pdfrwt beam="1">  1        2 0.54342611E-01 0.14405927E+03</pdfrwt>
<pdfrwt beam="2">  1       -2 0.75351188E-02 0.14405927E+03</pdfrwt>
<totfact> 0.90621229E+03</totfact>
</mgrwt>
</event>
<event>
 6    1  0.7270761E-006  0.1648318E+03  0.7546771E-02  0.1191334E+00
         -1   -1    0    0    0  501 -0.00000000000E+00  0.00000000000E+00  0.20736736656E+03  0.20736736656E+03  0.00000000000E+00 0.  1.
          1   -1    0    0  501    0  0.00000000000E+00 -0.00000000000E+00 -0.15857762752E+03  0.15857762752E+03  0.00000000000E+00 0. -1.
          5    1    1    2  502    0 -0.63502126880E+01  0.56534866813E+02  0.41938112634E+02  0.70833690134E+02  0.47000000000E+01 0.  1.
         -5    1    1    2    0  502 -0.99841464241E+02 -0.40164964983E+02  0.84328009585E+02  0.13680221341E+03  0.47000000000E+01 0.  1.
        -11    1    1    2    0    0  0.67013096402E+01  0.23535599347E+02  0.24547259513E+01  0.24593854253E+02  0.00000000000E+00 0.  1.
         11    1    1    2    0    0  0.99490367289E+02 -0.39905501177E+02 -0.79931109130E+02  0.13371523628E+03  0.00000000000E+00 0. -1.
<mgrwt>
<rscale>  0 0.15768626E+03</rscale>
<asrwt>0</asrwt>
<pdfrwt beam="2">  1        1 0.24396558E-01 0.16483184E+03</pdfrwt>
<pdfrwt beam="1">  1       -1 0.31902672E-01 0.16483184E+03</pdfrwt>
<totfact> 0.17854574E+03</totfact>
</mgrwt>
</event>
<event>
 6    1  0.7270761E-006  0.1526635E+03  0.7546771E-02  0.1205887E+00
          4   -1    0    0  501    0  0.00000000000E+00  0.00000000000E+00  0.17901829370E+03  0.17901829370E+03  0.00000000000E+00 0. -1.
         -4   -1    0    0    0  501 -0.00000000000E+00 -0.00000000000E+00 -0.12191050237E+03  0.12191050237E+03  0.00000000000E+00 0.  1.
          5    1    1    2  502    0  0.45770205806E+01 -0.34765640949E+02 -0.33892937166E+02  0.48994082272E+02  0.47000000000E+01 0.  1.
         -5    1    1    2    0  502 -0.91034620305E+02  0.49067540445E+02  0.15859603033E+02  0.10473081031E+03  0.47000000000E+01 0.  1.
        -11    1    1    2    0    0  0.78031277839E+02 -0.37971850540E+02  0.23704937831E+02  0.89959245396E+02  0.00000000000E+00 0.  1.
         11    1    1    2    0    0  0.84263218849E+01  0.23669951044E+02  0.51436187625E+02  0.57244658094E+02  0.00000000000E+00 0. -1.
<mgrwt>
<rscale>  0 0.14567791E+03</rscale>
<asrwt>0</asrwt>
<pdfrwt beam="1">  1        4 0.27541276E-01 0.15266349E+03</pdfrwt>
<pdfrwt beam="2">  1       -4 0.18755462E-01 0.15266349E+03</pdfrwt>
<totfact> 0.53710382E+02</totfact>
</mgrwt>
</event>
<event>
 6    1  0.7270761E-006  0.1254339E+03  0.7546771E-02  0.1249606E+00
         -2   -1    0    0    0  501 -0.00000000000E+00  0.00000000000E+00  0.19709672549E+02  0.19709672549E+02  0.00000000000E+00 0.  1.
          2   -1    0    0  501    0  0.00000000000E+00 -0.00000000000E+00 -0.60167421645E+03  0.60167421645E+03  0.00000000000E+00 0. -1.
          5    1    1    2  502    0  0.32333152668E+02  0.53923905903E+02 -0.13184968623E+03  0.14614941036E+03  0.47000000000E+01 0. -1.
         -5    1    1    2    0  502 -0.36848739516E+02 -0.44431244134E+02 -0.21582795424E+03  0.22346310857E+03  0.47000000000E+01 0. -1.
        -11    1    1    2    0    0  0.20331723919E+02  0.36941208439E+02 -0.90350690775E+02  0.99705963723E+02  0.00000000000E+00 0.  1.
         11    1    1    2    0    0 -0.15816137071E+02 -0.46433870208E+02 -0.14393621265E+03  0.15206540634E+03  0.00000000000E+00 0. -1.
<mgrwt>
<rscale>  0 0.11613921E+03</rscale>
<asrwt>0</asrwt>
<pdfrwt beam="2">  1        2 0.92565269E-01 0.12543394E+03</pdfrwt>
<pdfrwt beam="1">  1       -2 0.30322571E-02 0.12543394E+03</pdfrwt>
<totfact> 0.19653502E+04</totfact>
</mgrwt>
</event>
<event>
 6    1  0.7270761E-006  0.2426747E+03  0.7546771E-02  0.1118024E+00
         -4   -1    0    0    0  501 -0.00000000000E+00  0.00000000000E+00  0.11317316614E+03  0.11317316614E+03  0.00000000000E+00 0.  1.
          4   -1    0    0  501    0  0.00000000000E+00 -0.00000000000E+00 -0.13009049195E+03  0.13009049195E+03  0.00000000000E+00 0. -1.
          5    1    1    2  502    0 -0.74675803893E+01 -0.34735575252E+02 -0.56512183041E+02  0.66918172248E+02  0.47000000000E+01 0.  1.
         -5    1    1    2    0  502 -0.40398521890E+01 -0.27073292241E+01  0.63921420057E+02  0.64278207655E+02  0.47000000000E+01 0.  1.
        -11    1    1    2    0    0 -0.42615141783E+02  0.33298153689E+02 -0.44609564576E+01  0.54265251135E+02  0.00000000000E+00 0.  1.
         11    1    1    2    0    0  0.54122574361E+02  0.41447507864E+01 -0.19865606374E+02  0.57802027051E+02  0.00000000000E+00 0. -1.
<mgrwt>
<rscale>  0 0.24267470E+03</rscale>
<asrwt>0</asrwt>
<pdfrwt beam="2">  1        4 0.20013922E-01 0.24267470E+03</pdfrwt>
<pdfrwt beam="1">  1       -4 0.17411256E-01 0.24267470E+03</pdfrwt>
<totfact> 0.12017649E+03</totfact>
</mgrwt>
</event>
<event>
 6    1  0.7270761E-006  0.3864419E+03  0.7546771E-02  0.1048578E+00
          2   -1    0    0  501    0  0.00000000000E+00  0.00000000000E+00  0.31189329627E+03  0.31189329627E+03  0.00000000000E+00 0. -1.
         -2   -1    0    0    0  501 -0.00000000000E+00 -0.00000000000E+00 -0.11970224254E+03  0.11970224254E+03  0.00000000000E+00 0.  1.
          5    1    1    2  502    0 -0.14564919606E+03 -0.55520933780E+02  0.27771799604E+02  0.15839704938E+03  0.47000000000E+01 0.  1.
         -5    1    1    2    0  502  0.64723373880E+01  0.28903399338E+02 -0.94449051731E+01  0.31441912764E+02  0.47000000000E+01 0.  1.
        -11    1    1    2    0    0  0.74706308520E+02  0.25704039197E+02  0.30730537131E+02  0.84770844493E+02  0.00000000000E+00 0.  1.
         11    1    1    2    0    0  0.64470550151E+02  0.91349524458E+00  0.14313362217E+03  0.15698573217E+03  0.00000000000E+00 0. -1.
<mgrwt>
<rscale>  0 0.38644186E+03</rscale>
<asrwt>0</asrwt>
<pdfrwt beam="1">  1        2 0.47983584E-01 0.38644186E+03</pdfrwt>
<pdfrwt beam="2">  1       -2 0.18415730E-01 0.38644186E+03</pdfrwt>
<totfact> 0.25530950E+03</totfact>
</mgrwt>
</event>
<event>
 6    1  0.7270761E-006  0.1402826E+03  0.7546771E-02  0.1224068E+00
         -3   -1    0    0    0  501 -0.00000000000E+00  0.00000000000E+00  0.10443260770E+03  0.10443260770E+03  0.00000000000E+00 0.  1.
          3   -1    0    0  501    0  0.00000000000E+00 -0.00000000000E+00 -0.15306717111E+03  0.15306717111E+03  0.00000000000E+00 0. -1.
          5    1    1    2  502    0  0.28854777880E+02  0.11128648729E+02  0.34180014293E+02  0.46333663854E+02  0.47000000000E+01 0.  1.
         -5    1    1    2    0  502 -0.75049061899E+02  0.32697156638E+02 -0.47052404355E+02  0.94538270027E+02  0.47000000000E+01 0.  1.
        -11    1    1    2    0    0  0.26909122679E+02 -0.77940174256E+01  0.28825410959E+02  0.40196416606E+02  0.00000000000E+00 0.  1.
         11    1    1    2    0    0  0.19285161340E+02 -0.36031787941E+02 -0.64587584303E+02  0.76431428328E+02  0.00000000000E+00 0. -1.
<mgrwt>
<rscale>  0 0.13231007E+03</rscale>
<asrwt>0</asrwt>
<pdfrwt beam="2">  1        3 0.23548795E-01 0.14028258E+03</pdfrwt>
<pdfrwt beam="1">  1       -3 0.16066555E-01 0.14028258E+03</pdfrwt>
<totfact> 0.12769673E+03</totfact>
</mgrwt>
</event>
<event>
 6    1  0.7270761E-006  0.1450624E+03  0.7546771E-02  0.1216627E+00
          1   -1    0    0  501    0  0.00000000000E+00  0.00000000000E+00  0.49907382782E+02  0.49907382782E+02  0.00000000000E+00 0. -1.
         -1   -1    0    0    0  501 -0.00000000000E+00 -0.00000000000E+00 -0.60292357396E+03  0.60292357396E+03  0.00000000000E+00 0.  1.
          5    1    1    2  502    0  0.35546999244E+02 -0.11875071103E+02 -0.28060925347E+02  0.47054351555E+02  0.47000000000E+01 0. -1.
         -5    1    1    2    0  502  0.34566527039E+02 -0.10586485580E+02 -0.47797430840E+03  0.47936254334E+03  0.47000000000E+01 0. -1.
        -11    1    1    2    0    0 -0.73678028919E+02  0.50219942231E+02 -0.38923228149E+02  0.97290864076E+02  0.00000000000E+00 0.  1.
         11    1    1    2    0    0  0.35645026360E+01 -0.27758385549E+02 -0.80577292869E+01  0.29123197774E+02  0.00000000000E+00 0. -1.
<mgrwt>
<rscale>  0 0.13757700E+03</rscale>
<asrwt>0</asrwt>
<pdfrwt beam="1">  1        1 0.76780588E-02 0.14506236E+03</pdfrwt>
<pdfrwt beam="2">  1       -1 0.92757474E-01 0.14506236E+03</pdfrwt>
<totfact> 0.10780981E+03</totfact>
</mgrwt>
</event>
<event>
 6    1  0.7270761E-006  0.1399156E+03  0.7546771E-02  0.1225511E+00
          1   -1    0    0  501    0  0.00000000000E+00  0.00000000000E+00  0.21155915588E+03  0.21155915588E+03  0.00000000000E+00 0. -1.
         -1   -1    0    0    0  501 -0.00000000000E+00 -0.00000000000E+00 -0.73520714191E+02  0.73520714191E+02  0.00000000000E+00 0.  1.
          5    1    1    2  502    0  0.26777079686E+02  0.36686554561E+02  0.10003158423E+02  0.46744715857E+02  0.47000000000E+01 0. -1.
         -5    1    1    2    0  502 -0.29645466974E+02 -0.87352834391E+02  0.55359818112E+02  0.10768551829E+03  0.47000000000E+01 0.  1.
        -11    1    1    2    0    0 -0.13135132794E+02 -0.13676510916E+02 -0.12498602327E+02  0.22711092542E+02  0.00000000000E+00 0.  1.
         11    1    1    2    0    0  0.16003520082E+02  0.64342790745E+02  0.85174067478E+02  0.10793854338E+03  0.00000000000E+00 0. -1.
<mgrwt>
<rscale>  0 0.13131908E+03</rscale>
<asrwt>0</asrwt>
<pdfrwt beam="1">  1        1 0.32547562E-01 0.13991561E+03</pdfrwt>
<pdfrwt beam="2">  1       -1 0.11310879E-01 0.13991561E+03</pdfrwt>
<totfact> 0.65428605E+03</totfact>
</mgrwt>
</event>
<event>
 6    1  0.7270761E-006  0.1409041E+03  0.7546771E-02  0.1223165E+00
         -1   -1    0    0    0  501 -0.00000000000E+00  0.00000000000E+00  0.14756784751E+03  0.14756784751E+03  0.00000000000E+00 0.  1.
          1   -1    0    0  501    0  0.00000000000E+00 -0.00000000000E+00 -0.13566804384E+03  0.13566804384E+03  0.00000000000E+00 0. -1.
          5    1    1    2  502    0  0.40794636865E+02 -0.12574925599E+02  0.63466940318E+02  0.76632066814E+02  0.47000000000E+01 0. -1.
         -5    1    1    2    0  502 -0.26147734564E+02  0.75947161703E+02  0.65953596835E+01  0.80729574277E+02  0.47000000000E+01 0. -1.
        -11    1    1    2    0    0  0.31183494213E+02 -0.81169371525E+01  0.18929664144E+01  0.32278139691E+02  0.00000000000E+00 0.  1.
         11    1    1    2    0    0 -0.45830396514E+02 -0.55255298952E+02 -0.60055462745E+02  0.93596110562E+02  0.00000000000E+00 0. -1.
<mgrwt>
<rscale>  0 0.13293482E+03</rscale>
<asrwt>0</asrwt>
<pdfrwt beam="2">  1        1 0.20872007E-01 0.14090408E+03</pdfrwt>
<pdfrwt beam="1">  1       -1 0.22702746E-01 0.14090408E+03</pdfrwt>
<totfact> 0.38044173E+03</totfact>
</mgrwt>
</event>
<event>
 6    1  0.7270761E-006  0.2620603E+03  0.7546771E-02  0.1105912E+00
         -2   -1    0    0    0  501 -0.00000000000E+00  0.00000000000E+00  0.39345308930E+02  0.39345308930E+02  0.00000000000E+00 0.  1.
          2   -1    0    0  501    0  0.00000000000E+00 -0.00000000000E+00 -0.43636475076E+03  0.43636475076E+03  0.00000000000E+00 0. -1.
          5    1    1    2  502    0 -0.20032337311E+02 -0.11300148582E+01 -0.17023815477E+03  0.17148087593E+03  0.47000000000E+01 0.  1.
         -5    1    1    2    0  502 -0.34212587495E+02 -0.44164255838E+02 -0.68053145948E+01  0.56474639827E+02  0.47000000000E+01 0.  1.
        -11    1    1    2    0    0  0.14556316171E+02  0.42373627413E+02 -0.30634242184E+02  0.54275845777E+02  0.00000000000E+00 0.  1.
         11    1    1    2    0    0  0.39688608634E+02  0.29206432838E+01 -0.18934173028E+03  0.19347869815E+03  0.00000000000E+00 0. -1.
<mgrwt>
<rscale>  0 0.26206034E+03</rscale>
<asrwt>0</asrwt>
<pdfrwt beam="2">  1        2 0.67133046E-01 0.26206034E+03</pdfrwt>
<pdfrwt beam="1">  1       -2 0.60531238E-02 0.26206034E+03</pdfrwt>
<totfact> 0.10489112E+04</totfact>
</mgrwt>
</event>
<event>
 6    1  0.7270761E-006  0.1427892E+03  0.7546771E-02  0.1220124E+00
          1   -1    0    0  501    0  0.00000000000E+00  0.00000000000E+00  0.22770368792E+03  0.22770368792E+03  0.00000000000E+00 0. -1.
         -1   -1    0    0    0  501 -0.00000000000E+00 -0.00000000000E+00 -0.76688419999E+02  0.76688419999E+02  0.00000000000E+00 0.  1.
          5    1    1    2  502    0  0.68597390678E+02 -0.50905723374E+02  0.76627043751E+02  0.11485115809E+03  0.47000000000E+01 0. -1.
         -5    1    1    2    0  502 -0.65289794082E+01  0.20677915335E+02 -0.28240049653E+02  0.35913704336E+02  0.47000000000E+01 0. -1.
        -11    1    1    2    0    0 -0.82456767441E+02  0.38592517080E+02  0.72956201028E+02  0.11666665393E+03  0.00000000000E+00 0.  1.
         11    1    1    2    0    0  0.20388356172E+02 -0.83647090404E+01  0.29672072798E+02  0.36960591565E+02  0.00000000000E+00 0. -1.
<mgrwt>
<rscale>  0 0.13506746E+03</rscale>
<asrwt>0</asrwt>
<pdfrwt beam="1">  1        1 0.35031336E-01 0.14278915E+03</pdfrwt>
<pdfrwt beam="2">  1       -1 0.11798219E-01 0.14278915E+03</pdfrwt>
<totfact> 0.56035939E+03</totfact>
</mgrwt>
</event>
<event>
 6    1  0.7270761E-006  0.1583435E+03  0.7546771E-02  0.1198719E+00
         -2   -1    0    0    0  501 -0.00000000000E+00  0.00000000000E+00  0.21285968372E+02  0.21285968372E+02  0.00000000000E+00 0.  1.
          2   -1    0    0  501    0  0.00000000000E+00 -0.00000000000E+00 -0.10004379036E+04  0.10004379036E+04  0.00000000000E+00 0. -1.
          5    1    1    2  502    0 -0.97943135489E+02 -0.72204764297E+02 -0.45809258210E+03  0.47400136028E+03  0.47000000000E+01 0.  1.
         -5    1    1    2    0  502  0.16694296322E+02  0.18847104412E+02 -0.31720781334E+02  0.40770220049E+02  0.47000000000E+01 0.  1.
        -11    1    1    2    0    0 -0.18330948134E+02  0.20300944951E+02 -0.90471032592E+02  0.94515394321E+02  0.00000000000E+00 0. -1.
         11    1    1    2    0    0  0.99579787301E+02  0.33056714934E+02 -0.39886753923E+03  0.41243689735E+03  0.00000000000E+00 0.  1.
<mgrwt>
<rscale>  0 0.15143621E+03</rscale>
<asrwt>0</asrwt>
<pdfrwt beam="2">  1        2 0.15391349E+00 0.15834345E+03</pdfrwt>
<pdfrwt beam="1">  1       -2 0.32747652E-02 0.15834345E+03</pdfrwt>
<totfact> 0.94862951E+03</totfact>
</mgrwt>
</event>
<event>
 6    1  0.7270761E-006  0.2353829E+03  0.7546771E-02  0.1125805E+00
         -1   -1    0    0    0  501 -0.00000000000E+00  0.00000000000E+00  0.15514737314E+03  0.15514737314E+03  0.00000000000E+00 0.  1.
          1   -1    0    0  501    0  0.00000000000E+00 -0.00000000000E+00 -0.39134645057E+03  0.39134645057E+03  0.00000000000E+00 0. -1.
          5    1    1    2  502    0 -0.12980976214E+02  0.70715371734E+02  0.39778367069E+02  0.82301749858E+02  0.47000000000E+01 0.  1.
         -5    1    1    2    0  502 -0.11987719224E+03  0.78052280905E+02 -0.55827156141E+02  0.15362767048E+03  0.47000000000E+01 0.  1.
        -11    1    1    2    0    0  0.12108486377E+03 -0.70960434039E+02 -0.13936462671E+03  0.19778631553E+03  0.00000000000E+00 0.  1.
         11    1    1    2    0    0  0.11773304681E+02 -0.77807218600E+02 -0.80785661653E+02  0.11277808785E+03  0.00000000000E+00 0. -1.
<mgrwt>
<rscale>  0 0.23118966E+03</rscale>
<asrwt>0</asrwt>
<pdfrwt beam="2">  1        1 0.60207145E-01 0.23538294E+03</pdfrwt>
<pdfrwt beam="1">  1       -1 0.23868827E-01 0.23538294E+03</pdfrwt>
<totfact> 0.93908998E+02</totfact>
</mgrwt>
</event>
<event>
 6    1  0.7270761E-006  0.1417334E+03  0.7546771E-02  0.1221788E+00
          1   -1    0    0  501    0  0.00000000000E+00  0.00000000000E+00  0.20962915061E+03  0.20962915061E+03  0.00000000000E+00 0. -1.
         -1   -1    0    0    0  501 -0.00000000000E+00 -0.00000000000E+00 -0.80169696635E+02  0.80169696635E+02  0.00000000000E+00 0.  1.
          5    1    1    2  502    0  0.51384502254E+02 -0.55279369088E+02  0.45220713389E+02  0.88108902150E+02  0.47000000000E+01 0. -1.
         -5    1    1    2    0  502  0.15344297315E+02  0.58317311165E+02 -0.58151612741E+00  0.60487886413E+02  0.47000000000E+01 0. -1.
        -11    1    1    2    0    0 -0.72495692733E+02  0.76659900843E+01  0.98730037901E+02  0.12272739406E+03  0.00000000000E+00 0. -1.
         11    1    1    2    0    0  0.57668931635E+01 -0.10703932161E+02 -0.13909781184E+02  0.18474664626E+02  0.00000000000E+00 0.  1.
<mgrwt>
<rscale>  0 0.13389531E+03</rscale>
<asrwt>0</asrwt>
<pdfrwt beam="1">  1        1 0.32250638E-01 0.14173337E+03</pdfrwt>
<pdfrwt beam="2">  1       -1 0.12333800E-01 0.14173337E+03</pdfrwt>
<totfact> 0.57950857E+03</totfact>
</mgrwt>
</event>
<event>
 6    1  0.7270761E-006  0.1384919E+03  0.7546771E-02  0.1226975E+00
         -2   -1    0    0    0  501 -0.00000000000E+00  0.00000000000E+00  0.11802918471E+03  0.11802918471E+03  0.00000000000E+00 0.  1.
          2   -1    0    0  501    0  0.00000000000E+00 -0.00000000000E+00 -0.13321200617E+03  0.13321200617E+03  0.00000000000E+00 0. -1.
          5    1    1    2  502    0 -0.14674786210E+02  0.63140392750E+02 -0.81460905907E+01  0.65501964389E+02  0.47000000000E+01 0. -1.
         -5    1    1    2    0  502  0.63886432510E+02 -0.29508874580E+02  0.20980325853E+02  0.73583381349E+02  0.47000000000E+01 0. -1.
        -11    1    1    2    0    0 -0.30452005701E+02 -0.30241507436E+02  0.29158882696E+02  0.51885584349E+02  0.00000000000E+00 0.  1.
         11    1    1    2    0    0 -0.18759640599E+02 -0.33900107337E+01 -0.57175939418E+02  0.60270260796E+02  0.00000000000E+00 0. -1.
<mgrwt>
<rscale>  0 0.13032445E+03</rscale>
<asrwt>0</asrwt>
<pdfrwt beam="2">  1        2 0.20494155E-01 0.13849193E+03</pdfrwt>
<pdfrwt beam="1">  1       -2 0.18158336E-01 0.13849193E+03</pdfrwt>
<totfact> 0.63669871E+03</totfact>
</mgrwt>
</event>
<event>
 6    1  0.7270761E-006  0.1389963E+03  0.7546771E-02  0.1225372E+00
          2   -1    0    0  501    0  0.00000000000E+00  0.00000000000E+00  0.57157157601E+03  0.57157157601E+03  0.00000000000E+00 0. -1.
         -2   -1    0    0    0  501 -0.00000000000E+00 -0.00000000000E+00 -0.27351187088E+02  0.27351187088E+02  0.00000000000E+00 0.  1.
          5    1    1    2  502    0 -0.28367120324E+02  0.33143583962E+02  0.45435856297E+02  0.63164053945E+02  0.47000000000E+01 0.  1.
         -5    1    1    2    0  502  0.81826785072E+02 -0.42138372035E+01  0.25467792151E+03  0.26757487342E+03  0.47000000000E+01 0.  1.
        -11    1    1    2    0    0  0.23862629069E+00 -0.46476431274E+02  0.61808255680E+02  0.77332891299E+02  0.00000000000E+00 0.  1.
         11    1    1    2    0    0 -0.53698291039E+02  0.17546684516E+02  0.18229835543E+03  0.19085094443E+03  0.00000000000E+00 0. -1.
<mgrwt>
<rscale>  0 0.13141431E+03</rscale>
<asrwt>0</asrwt>
<pdfrwt beam="1">  1        2 0.87934080E-01 0.13899625E+03</pdfrwt>
<pdfrwt beam="2">  1       -2 0.42078753E-02 0.13899625E+03</pdfrwt>
<totfact> 0.12936250E+04</totfact>
</mgrwt>
</event>
<event>
 6    1  0.7270761E-006  0.2457316E+03  0.7546771E-02  0.1118380E+00
         -1   -1    0    0    0  501 -0.00000000000E+00  0.00000000000E+00  0.11471155295E+04  0.11471155295E+04  0.00000000000E+00 0.  1.
          1   -1    0    0  501    0  0.00000000000E+00 -0.00000000000E+00 -0.60905751611E+02  0.60905751611E+02  0.00000000000E+00 0. -1.
          5    1    1    2  502    0  0.60393386743E+00 -0.35791979518E+02  0.56333851572E+02  0.66910562446E+02  0.47000000000E+01 0.  1.
         -5    1    1    2    0  502 -0.19033587933E+03 -0.57790522632E+02  0.75920207720E+03  0.78484226153E+03  0.47000000000E+01 0.  1.
        -11    1    1    2    0    0  0.20384968327E+02  0.53676833962E+02  0.74457632644E+02  0.94024935506E+02  0.00000000000E+00 0.  1.
         11    1    1    2    0    0  0.16934697714E+03  0.39905668188E+02  0.19621621642E+03  0.26224352158E+03  0.00000000000E+00 0. -1.
<mgrwt>
<rscale>  0 0.24213357E+03</rscale>
<asrwt>0</asrwt>
<pdfrwt beam="2">  1        1 0.93701165E-02 0.24573161E+03</pdfrwt>
<pdfrwt beam="1">  1       -1 0.17647930E+00 0.24573161E+03</pdfrwt>
<totfact> 0.17028415E+02</totfact>
</mgrwt>
</event>
<event>
 6    1  0.7270761E-006  0.1422196E+03  0.7546771E-02  0.1220696E+00
         -1   -1    0    0    0  501 -0.00000000000E+00  0.00000000000E+00  0.35924551490E+03  0.35924551490E+03  0.00000000000E+00 0.  1.
          1   -1    0    0  501    0  0.00000000000E+00 -0.00000000000E+00 -0.48425412765E+02  0.48425412765E+02  0.00000000000E+00 0. -1.
          5    1    1    2  502    0 -0.82489542673E+01  0.58904481751E+02  0.22709657077E+03  0.23480358956E+03  0.47000000000E+01 0. -1.
         -5    1    1    2    0  502 -0.24096955917E+02  0.71693416285E+00 -0.84953832043E+01  0.25989205737E+02  0.47000000000E+01 0. -1.
        -11    1    1    2    0    0  0.21655458435E+02 -0.73848590539E+02  0.30731773020E+02  0.82867454876E+02  0.00000000000E+00 0. -1.
         11    1    1    2    0    0  0.10690451749E+02  0.14227174626E+02  0.61487141550E+02  0.64010677487E+02  0.00000000000E+00 0.  1.
<mgrwt>
<rscale>  0 0.13466328E+03</rscale>
<asrwt>0</asrwt>
<pdfrwt beam="2">  1        1 0.74500638E-02 0.14221956E+03</pdfrwt>
<pdfrwt beam="1">  1       -1 0.55268539E-01 0.14221956E+03</pdfrwt>
<totfact> 0.31494941E+03</totfact>
</mgrwt>
</event>
<event>
 6    1  0.7270761E-006  0.1514669E+03  0.7546771E-02  0.1204644E+00
          1   -1    0    0  501    0  0.00000000000E+00  0.00000000000E+00  0.51019032245E+03  0.51019032245E+03  0.00000000000E+00 0.  1.
         -1   -1    0    0    0  501 -0.00000000000E+00 -0.00000000000E+00 -0.42760604679E+02  0.42760604679E+02  0.00000000000E+00 0. -1.
          5    1    1    2  502    0 -0.58768642728E+02 -0.21866021120E+02  0.19078060664E+03  0.20087609643E+03  0.47000000000E+01 0.  1.
         -5    1    1    2    0  502 -0.18511693114E+02 -0.14815584497E+02 -0.17073706234E+02  0.29593677881E+02  0.47000000000E+01 0.  1.
        -11    1    1    2    0    0  0.73945067451E+01  0.19841543677E+02  0.11493888066E+01  0.21205817129E+02  0.00000000000E+00 0. -1.
         11    1    1    2    0    0  0.69885829097E+02  0.16840061940E+02  0.29257342856E+03  0.30127533569E+03  0.00000000000E+00 0.  1.
<mgrwt>
<rscale>  0 0.14665585E+03</rscale>
<asrwt>0</asrwt>
<pdfrwt beam="1">  1        1 0.78490814E-01 0.15146693E+03</pdfrwt>
<pdfrwt beam="2">  1       -1 0.65785549E-02 0.15146693E+03</pdfrwt>
<totfact> 0.49525114E+03</totfact>
</mgrwt>
</event>
<event>
 6    1  0.7270761E-006  0.1517395E+03  0.7546771E-02  0.1207354E+00
          1   -1    0    0  501    0  0.00000000000E+00  0.00000000000E+00  0.58995318076E+03  0.58995318076E+03  0.00000000000E+00 0. -1.
         -1   -1    0    0    0  501 -0.00000000000E+00 -0.00000000000E+00 -0.39059003752E+02  0.39059003752E+02  0.00000000000E+00 0.  1.
          5    1    1    2  502    0  0.12797949975E+02 -0.18714838656E+02  0.15252510724E+03  0.15427258684E+03  0.47000000000E+01 0. -1.
         -5    1    1    2    0  502 -0.22187563261E+02 -0.67013535902E+02  0.16066163544E+02  0.72548697911E+02  0.47000000000E+01 0. -1.
        -11    1    1    2    0    0 -0.32910546668E+02  0.18778306028E+02  0.65793295858E+02  0.75924216420E+02  0.00000000000E+00 0.  1.
         11    1    1    2    0    0  0.42300159954E+02  0.66950068530E+02  0.31650961036E+03  0.32626668335E+03  0.00000000000E+00 0. -1.
<mgrwt>
<rscale>  0 0.14453451E+03</rscale>
<asrwt>0</asrwt>
<pdfrwt beam="1">  1        1 0.90762021E-01 0.15173951E+03</pdfrwt>
<pdfrwt beam="2">  1       -1 0.60090780E-02 0.15173951E+03</pdfrwt>
<totfact> 0.46710341E+03</totfact>
</mgrwt>
</event>
<event>
 6    1  0.7270761E-006  0.1423593E+03  0.7546771E-02  0.1224200E+00
         -1   -1    0    0    0  501 -0.00000000000E+00  0.00000000000E+00  0.98568681467E+02  0.98568681467E+02  0.00000000000E+00 0.  1.
          1   -1    0    0  501    0  0.00000000000E+00 -0.00000000000E+00 -0.15700675387E+03  0.15700675387E+03  0.00000000000E+00 0. -1.
          5    1    1    2  502    0  0.59779226257E+02 -0.78890280543E+02  0.35999412184E+01  0.99157863192E+02  0.47000000000E+01 0. -1.
         -5    1    1    2    0  502 -0.89382550451E+01  0.33542174183E+02 -0.28943200269E+02  0.45439725945E+02  0.47000000000E+01 0. -1.
        -11    1    1    2    0    0  0.18749898924E+01 -0.18938370776E+02 -0.18554602163E+02  0.26579140998E+02  0.00000000000E+00 0. -1.
         11    1    1    2    0    0 -0.52715961104E+02  0.64286477136E+02 -0.14540211185E+02  0.84398705198E+02  0.00000000000E+00 0.  1.
<mgrwt>
<rscale>  0 0.13221859E+03</rscale>
<asrwt>0</asrwt>
<pdfrwt beam="2">  1        1 0.24154885E-01 0.14235934E+03</pdfrwt>
<pdfrwt beam="1">  1       -1 0.15164413E-01 0.14235934E+03</pdfrwt>
<totfact> 0.60290733E+03</totfact>
</mgrwt>
</event>
<event>
 6    1  0.7270761E-006  0.1651751E+03  0.7546771E-02  0.1190515E+00
         -2   -1    0    0    0  501 -0.00000000000E+00  0.00000000000E+00  0.41541337327E+02  0.41541337327E+02  0.00000000000E+00 0.  1.
          2   -1    0    0  501    0  0.00000000000E+00 -0.00000000000E+00 -0.57144270229E+03  0.57144270229E+03  0.00000000000E+00 0. -1.
          5    1    1    2  502    0 -0.11220020030E+02  0.85293846659E+02 -0.14002086783E+03  0.16440456975E+03  0.47000000000E+01 0. -1.
         -5    1    1    2    0  502 -0.75383892101E+02 -0.20811031250E+02 -0.10219722212E+03  0.12877186191E+03  0.47000000000E+01 0. -1.
        -11    1    1    2    0    0  0.51153205524E+01 -0.55784619076E+02 -0.92840901591E+02  0.10843211350E+03  0.00000000000E+00 0.  1.
         11    1    1    2    0    0  0.81488591578E+02 -0.86981963332E+01 -0.19484237343E+03  0.21137549446E+03  0.00000000000E+00 0. -1.
<mgrwt>
<rscale>  0 0.15840000E+03</rscale>
<asrwt>0</asrwt>
<pdfrwt beam="2">  1        2 0.87914252E-01 0.16517511E+03</pdfrwt>
<pdfrwt beam="1">  1       -2 0.63909757E-02 0.16517511E+03</pdfrwt>
<totfact> 0.69627034E+03</totfact>
</mgrwt>
</event>
<event>
 6    1  0.7270761E-006  0.1526617E+03  0.7546771E-02  0.1206214E+00
          1   -1    0    0  501    0  0.00000000000E+00  0.00000000000E+00  0.41679558758E+02  0.41679558758E+02  0.00000000000E+00 0. -1.
         -1   -1    0    0    0  501 -0.00000000000E+00 -0.00000000000E+00 -0.58482395889E+03  0.58482395889E+03  0.00000000000E+00 0.  1.
          5    1    1    2  502    0  0.45692596363E+02  0.62114407216E+01 -0.97347777089E+02  0.10781964136E+03  0.47000000000E+01 0.  1.
         -5    1    1    2    0  502 -0.43798320341E+02 -0.93830112810E+02 -0.33653511772E+03  0.35213684612E+03  0.47000000000E+01 0.  1.
        -11    1    1    2    0    0 -0.38052454630E+02  0.21258388689E+02 -0.15819118252E+02  0.46369741160E+02  0.00000000000E+00 0. -1.
         11    1    1    2    0    0  0.36158178607E+02  0.66360283399E+02 -0.93442387068E+02  0.12017728901E+03  0.00000000000E+00 0.  1.
<mgrwt>
<rscale>  0 0.14542170E+03</rscale>
<asrwt>0</asrwt>
<pdfrwt beam="1">  1        1 0.64122401E-02 0.15266173E+03</pdfrwt>
<pdfrwt beam="2">  1       -1 0.89972912E-01 0.15266173E+03</pdfrwt>
<totfact> 0.14705194E+03</totfact>
</mgrwt>
</event>
<event>
 6    1  0.7270761E-006  0.2805630E+03  0.7546771E-02  0.1095382E+00
          2   -1    0    0  501    0  0.00000000000E+00  0.00000000000E+00  0.66063576564E+03  0.66063576564E+03  0.00000000000E+00 0. -1.
         -2   -1    0    0    0  501 -0.00000000000E+00 -0.00000000000E+00 -0.29787826957E+02  0.29787826957E+02  0.00000000000E+00 0.  1.
          5    1    1    2  502    0  0.20157592186E+02  0.11145183966E+03  0.24153391683E+03  0.26681185143E+03  0.47000000000E+01 0.  1.
         -5    1    1    2    0  502 -0.23063280941E+02 -0.28209335694E+02  0.70975568435E+02  0.79920603494E+02  0.47000000000E+01 0.  1.
        -11    1    1    2    0    0 -0.29554416727E+02 -0.44471240910E+02  0.26447709603E+03  0.26981343395E+03  0.00000000000E+00 0. -1.
         11    1    1    2    0    0  0.32460105482E+02 -0.38771263057E+02  0.53861357385E+02  0.73877703716E+02  0.00000000000E+00 0.  1.
<mgrwt>
<rscale>  0 0.28056303E+03</rscale>
<asrwt>0</asrwt>
<pdfrwt beam="1">  1        2 0.10163626E+00 0.28056303E+03</pdfrwt>
<pdfrwt beam="2">  1       -2 0.45827431E-02 0.28056303E+03</pdfrwt>
<totfact> 0.10029604E+04</totfact>
</mgrwt>
</event>
<event>
 6    1  0.7270761E-006  0.2688200E+03  0.7546771E-02  0.1101957E+00
         -1   -1    0    0    0  501 -0.00000000000E+00  0.00000000000E+00  0.28633174029E+02  0.28633174029E+02  0.00000000000E+00 0.  1.
          1   -1    0    0  501    0  0.00000000000E+00 -0.00000000000E+00 -0.63094833426E+03  0.63094833426E+03  0.00000000000E+00 0. -1.
          5    1    1    2  502    0 -0.40014189381E+01  0.58248465032E+01  0.11379779352E+02  0.14196111031E+02  0.47000000000E+01 0. -1.
         -5    1    1    2    0  502 -0.61930827855E+02  0.36609641291E+02 -0.31640472779E+03  0.32451461452E+03  0.47000000000E+01 0.  1.
        -11    1    1    2    0    0  0.77196908959E+01  0.16974600817E+02 -0.87813414133E+01  0.20611711658E+02  0.00000000000E+00 0.  1.
         11    1    1    2    0    0  0.58212555898E+02 -0.59409088612E+02 -0.28850887038E+03  0.30025907107E+03  0.00000000000E+00 0. -1.
<mgrwt>
<rscale>  0 0.26882004E+03</rscale>
<asrwt>0</asrwt>
<pdfrwt beam="2">  1        1 0.97068971E-01 0.26882004E+03</pdfrwt>
<pdfrwt beam="1">  1       -1 0.44051039E-02 0.26882004E+03</pdfrwt>
<totfact> 0.69434630E+03</totfact>
</mgrwt>
</event>
<event>
 6    1  0.7270761E-006  0.2534057E+03  0.7546771E-02  0.1113622E+00
          1   -1    0    0  501    0  0.00000000000E+00  0.00000000000E+00  0.42417149462E+03  0.42417149462E+03  0.00000000000E+00 0. -1.
         -1   -1    0    0    0  501 -0.00000000000E+00 -0.00000000000E+00 -0.14241677032E+03  0.14241677032E+03  0.00000000000E+00 0.  1.
          5    1    1    2  502    0  0.15905441239E+03  0.29292291855E+01  0.11936007731E+03  0.19893668475E+03  0.47000000000E+01 0. -1.
         -5    1    1    2    0  502  0.46333652075E+02  0.77105425347E+02  0.28635505585E+02  0.94520559207E+02  0.47000000000E+01 0. -1.
        -11    1    1    2    0    0 -0.83740911621E+02 -0.20175613626E+02  0.52020220443E+01  0.86294013104E+02  0.00000000000E+00 0.  1.
         11    1    1    2    0    0 -0.12164715285E+03 -0.59859040907E+02  0.12855711936E+03  0.18683700788E+03  0.00000000000E+00 0. -1.
<mgrwt>
<rscale>  0 0.24949903E+03</rscale>
<asrwt>0</asrwt>
<pdfrwt beam="1">  1        1 0.65257153E-01 0.25340573E+03</pdfrwt>
<pdfrwt beam="2">  1       -1 0.21910273E-01 0.25340573E+03</pdfrwt>
<totfact> 0.97532475E+02</totfact>
</mgrwt>
</event>
<event>
 6    1  0.7270761E-006  0.1262743E+03  0.7546771E-02  0.1248316E+00
          2   -1    0    0  501    0  0.00000000000E+00  0.00000000000E+00  0.56828033782E+02  0.56828033782E+02  0.00000000000E+00 0. -1.
         -2   -1    0    0    0  501 -0.00000000000E+00 -0.00000000000E+00 -0.23483756413E+03  0.23483756413E+03  0.00000000000E+00 0.  1.
          5    1    1    2  502    0  0.52881104012E+02  0.30232436185E+02 -0.56321413558E+02  0.83093940720E+02  0.47000000000E+01 0. -1.
         -5    1    1    2    0  502 -0.43870581394E+02 -0.45616079686E+02 -0.90920797233E+02  0.11087892499E+03  0.47000000000E+01 0. -1.
        -11    1    1    2    0    0 -0.80180341422E+01 -0.28572863888E+02  0.15823318387E+02  0.33631455916E+02  0.00000000000E+00 0. -1.
         11    1    1    2    0    0 -0.99248847569E+00  0.43956507389E+02 -0.46590637942E+02  0.64061276284E+02  0.00000000000E+00 0.  1.
<mgrwt>
<rscale>  0 0.11689103E+03</rscale>
<asrwt>0</asrwt>
<pdfrwt beam="1">  1        2 0.87427743E-02 0.12627432E+03</pdfrwt>
<pdfrwt beam="2">  1       -2 0.36128856E-01 0.12627432E+03</pdfrwt>
<totfact> 0.51893000E+03</totfact>
</mgrwt>
</event>
<event>
 6    1  0.7270761E-006  0.2260544E+03  0.7546771E-02  0.1132577E+00
          2   -1    0    0  501    0  0.00000000000E+00  0.00000000000E+00  0.76557970321E+03  0.76557970321E+03  0.00000000000E+00 0. -1.
         -2   -1    0    0    0  501 -0.00000000000E+00 -0.00000000000E+00 -0.61922371844E+02  0.61922371844E+02  0.00000000000E+00 0.  1.
          5    1    1    2  502    0  0.11190771940E+03  0.17149759209E+02  0.28667925004E+03  0.30826049747E+03  0.47000000000E+01 0.  1.
         -5    1    1    2    0  502  0.72755688259E+02 -0.54201190448E+02  0.72936846934E+02  0.11650335987E+03  0.47000000000E+01 0.  1.
        -11    1    1    2    0    0 -0.75051810049E+02  0.10953698656E+02  0.58551457942E+02  0.95817696346E+02  0.00000000000E+00 0.  1.
         11    1    1    2    0    0 -0.10961159761E+03  0.26097732583E+02  0.28548977645E+03  0.30692052137E+03  0.00000000000E+00 0. -1.
<mgrwt>
<rscale>  0 0.22176130E+03</rscale>
<asrwt>0</asrwt>
<pdfrwt beam="1">  1        2 0.11778149E+00 0.22605441E+03</pdfrwt>
<pdfrwt beam="2">  1       -2 0.95265193E-02 0.22605441E+03</pdfrwt>
<totfact> 0.26756761E+03</totfact>
</mgrwt>
</event>
<event>
 6    1  0.7270761E-006  0.2100354E+03  0.7546771E-02  0.1145143E+00
          1   -1    0    0  501    0  0.00000000000E+00  0.00000000000E+00  0.15522053451E+04  0.15522053451E+04  0.00000000000E+00 0. -1.
         -1   -1    0    0    0  501 -0.00000000000E+00 -0.00000000000E+00 -0.26344054582E+02  0.26344054582E+02  0.00000000000E+00 0.  1.
          5    1    1    2  502    0 -0.14126346432E+02 -0.56005296876E+02  0.43284051633E+03  0.43670258703E+03  0.47000000000E+01 0. -1.
         -5    1    1    2    0  502 -0.13568086441E+03 -0.21763015581E+02  0.43608695048E+03  0.45724921454E+03  0.47000000000E+01 0. -1.
        -11    1    1    2    0    0  0.14110750934E+03  0.47181300339E+02  0.61015182524E+03  0.62803077483E+03  0.00000000000E+00 0. -1.
         11    1    1    2    0    0  0.86997015036E+01  0.30587012118E+02  0.46781998510E+02  0.56566823326E+02  0.00000000000E+00 0.  1.
<mgrwt>
<rscale>  0 0.20554573E+03</rscale>
<asrwt>0</asrwt>
<pdfrwt beam="1">  1        1 0.23880075E+00 0.21003543E+03</pdfrwt>
<pdfrwt beam="2">  1       -1 0.40529327E-02 0.21003543E+03</pdfrwt>
<totfact> 0.15965878E+03</totfact>
</mgrwt>
</event>
<event>
 6    1  0.7270761E-006  0.1407062E+03  0.7546771E-02  0.1228445E+00
         -4   -1    0    0    0  501 -0.00000000000E+00  0.00000000000E+00  0.28526532223E+02  0.28526532223E+02  0.00000000000E+00 0. -1.
          4   -1    0    0  501    0  0.00000000000E+00 -0.00000000000E+00 -0.51069946619E+03  0.51069946619E+03  0.00000000000E+00 0.  1.
          5    1    1    2  502    0  0.27523161184E+02 -0.68741910871E+01  0.24363597891E+01  0.28858356739E+02  0.47000000000E+01 0. -1.
         -5    1    1    2    0  502  0.34994146681E+02  0.23144694980E+02 -0.27162358762E+03  0.27488494058E+03  0.47000000000E+01 0. -1.
        -11    1    1    2    0    0 -0.32581630025E+02  0.13311870394E+02 -0.17590427100E+03  0.17939086115E+03  0.00000000000E+00 0.  1.
         11    1    1    2    0    0 -0.29935677840E+02 -0.29582374287E+02 -0.37081435141E+02  0.56091839945E+02  0.00000000000E+00 0. -1.
<mgrwt>
<rscale>  0 0.12933525E+03</rscale>
<asrwt>0</asrwt>
<pdfrwt beam="2">  1        4 0.78569147E-01 0.14070617E+03</pdfrwt>
<pdfrwt beam="1">  1       -4 0.43886973E-02 0.14070617E+03</pdfrwt>
<totfact> 0.72768325E+02</totfact>
</mgrwt>
</event>
<event>
 6    1  0.7270761E-006  0.1330903E+03  0.7546771E-02  0.1231509E+00
          3   -1    0    0  501    0  0.00000000000E+00  0.00000000000E+00  0.24253715694E+03  0.24253715694E+03  0.00000000000E+00 0. -1.
         -3   -1    0    0    0  501 -0.00000000000E+00 -0.00000000000E+00 -0.65099905895E+02  0.65099905895E+02  0.00000000000E+00 0.  1.
          5    1    1    2  502    0 -0.45099661617E+02 -0.10186191175E+02  0.49172475240E+02  0.67659147865E+02  0.47000000000E+01 0. -1.
         -5    1    1    2    0  502  0.54992460927E+02  0.54808474605E+02  0.11576136214E+02  0.78639917199E+02  0.47000000000E+01 0. -1.
        -11    1    1    2    0    0 -0.15659764105E+02 -0.16170394368E+02  0.12816104211E+03  0.13012287493E+03  0.00000000000E+00 0. -1.
         11    1    1    2    0    0  0.57669647938E+01 -0.28451889062E+02 -0.11472402521E+02  0.31215122837E+02  0.00000000000E+00 0.  1.
<mgrwt>
<rscale>  0 0.12730559E+03</rscale>
<asrwt>0</asrwt>
<pdfrwt beam="1">  1        3 0.37313408E-01 0.13309028E+03</pdfrwt>
<pdfrwt beam="2">  1       -3 0.10015370E-01 0.13309028E+03</pdfrwt>
<totfact> 0.12001850E+03</totfact>
</mgrwt>
</event>
<event>
 6    1  0.7270761E-006  0.3769264E+03  0.7546771E-02  0.1052076E+00
          2   -1    0    0  501    0  0.00000000000E+00  0.00000000000E+00  0.32031421741E+03  0.32031421741E+03  0.00000000000E+00 0. -1.
         -2   -1    0    0    0  501 -0.00000000000E+00 -0.00000000000E+00 -0.11088603302E+03  0.11088603302E+03  0.00000000000E+00 0.  1.
          5    1    1    2  502    0 -0.30308416670E+01 -0.16884777367E+02 -0.23244784887E+02  0.29269296752E+02  0.47000000000E+01 0. -1.
         -5    1    1    2    0  502  0.10178533602E+03  0.10758589581E+03  0.47680294287E+02  0.15566142769E+03  0.47000000000E+01 0. -1.
        -11    1    1    2    0    0 -0.37984366558E+02 -0.90588076671E+02  0.13828995393E+03  0.16962642216E+03  0.00000000000E+00 0. -1.
         11    1    1    2    0    0 -0.60770127799E+02 -0.11304176973E+00  0.46702721063E+02  0.76643103838E+02  0.00000000000E+00 0.  1.
<mgrwt>
<rscale>  0 0.37692637E+03</rscale>
<asrwt>0</asrwt>
<pdfrwt beam="1">  1        2 0.49279110E-01 0.37692637E+03</pdfrwt>
<pdfrwt beam="2">  1       -2 0.17059390E-01 0.37692637E+03</pdfrwt>
<totfact> 0.28229524E+03</totfact>
</mgrwt>
</event>
<event>
 6    1  0.7270761E-006  0.1468776E+03  0.7546771E-02  0.1214492E+00
         -2   -1    0    0    0  501 -0.00000000000E+00  0.00000000000E+00  0.40784758438E+02  0.40784758438E+02  0.00000000000E+00 0.  1.
          2   -1    0    0  501    0  0.00000000000E+00 -0.00000000000E+00 -0.43277129217E+03  0.43277129217E+03  0.00000000000E+00 0. -1.
          5    1    1    2  502    0  0.12328407535E+02  0.18540435978E+02  0.62844850439E+01  0.23607671441E+02  0.47000000000E+01 0.  1.
         -5    1    1    2    0  502 -0.73076674138E+02  0.28976508620E+02 -0.23844247263E+03  0.25111101351E+03  0.47000000000E+01 0.  1.
        -11    1    1    2    0    0  0.19841038728E+02 -0.18395887292E+02 -0.14351007466E+03  0.14603840939E+03  0.00000000000E+00 0. -1.
         11    1    1    2    0    0  0.40907227875E+02 -0.29121057306E+02 -0.16318471485E+02  0.52798956265E+02  0.00000000000E+00 0.  1.
<mgrwt>
<rscale>  0 0.13913880E+03</rscale>
<asrwt>0</asrwt>
<pdfrwt beam="2">  1        2 0.66580197E-01 0.14687758E+03</pdfrwt>
<pdfrwt beam="1">  1       -2 0.62745784E-02 0.14687758E+03</pdfrwt>
<totfact> 0.96635342E+03</totfact>
</mgrwt>
</event>
<event>
 6    1  0.7270761E-006  0.1300979E+03  0.7546771E-02  0.1239800E+00
          2   -1    0    0  501    0  0.00000000000E+00  0.00000000000E+00  0.44263789687E+03  0.44263789687E+03  0.00000000000E+00 0. -1.
         -2   -1    0    0    0  501 -0.00000000000E+00 -0.00000000000E+00 -0.32194663846E+02  0.32194663846E+02  0.00000000000E+00 0.  1.
          5    1    1    2  502    0 -0.24126166965E+02 -0.32510608044E+02  0.17591434778E+03  0.18057397188E+03  0.47000000000E+01 0. -1.
         -5    1    1    2    0  502 -0.11801172525E+02  0.29627606840E+02 -0.66464170726E+01  0.32913942637E+02  0.47000000000E+01 0. -1.
        -11    1    1    2    0    0 -0.18793799640E+02  0.26452244645E-01  0.57899741229E+01  0.19665487662E+02  0.00000000000E+00 0.  1.
         11    1    1    2    0    0  0.54721139130E+02  0.28565489600E+01  0.23538532820E+03  0.24167915854E+03  0.00000000000E+00 0. -1.
<mgrwt>
<rscale>  0 0.12202064E+03</rscale>
<asrwt>0</asrwt>
<pdfrwt beam="1">  1        2 0.68098134E-01 0.13009788E+03</pdfrwt>
<pdfrwt beam="2">  1       -2 0.49530255E-02 0.13009788E+03</pdfrwt>
<totfact> 0.13363169E+04</totfact>
</mgrwt>
</event>
<event>
 6    1  0.7270761E-006  0.2250538E+03  0.7546771E-02  0.1133397E+00
         -2   -1    0    0    0  501 -0.00000000000E+00  0.00000000000E+00  0.55342099848E+02  0.55342099848E+02  0.00000000000E+00 0.  1.
          2   -1    0    0  501    0  0.00000000000E+00 -0.00000000000E+00 -0.94006221874E+03  0.94006221874E+03  0.00000000000E+00 0. -1.
          5    1    1    2  502    0  0.19919542967E+02  0.41272917356E+02 -0.42803786715E+01  0.46267197243E+02  0.47000000000E+01 0.  1.
         -5    1    1    2    0  502  0.17046362960E+02  0.14218863769E+03 -0.29733889337E+03  0.33006165286E+03  0.47000000000E+01 0.  1.
        -11    1    1    2    0    0 -0.28064192802E+02 -0.10785384217E+03 -0.46792244920E+03  0.48101088205E+03  0.00000000000E+00 0.  1.
         11    1    1    2    0    0 -0.89017131252E+01 -0.75607712870E+02 -0.11517839765E+03  0.13806458644E+03  0.00000000000E+00 0. -1.
<mgrwt>
<rscale>  0 0.22065325E+03</rscale>
<asrwt>0</asrwt>
<pdfrwt beam="2">  1        2 0.14462495E+00 0.22505381E+03</pdfrwt>
<pdfrwt beam="1">  1       -2 0.85141695E-02 0.22505381E+03</pdfrwt>
<totfact> 0.24446640E+03</totfact>
</mgrwt>
</event>
<event>
 6    1  0.7270761E-006  0.2958156E+03  0.7546771E-02  0.1087351E+00
         -1   -1    0    0    0  501 -0.00000000000E+00  0.00000000000E+00  0.77984391848E+03  0.77984391848E+03  0.00000000000E+00 0.  1.
          1   -1    0    0  501    0  0.00000000000E+00 -0.00000000000E+00 -0.28052693179E+02  0.28052693179E+02  0.00000000000E+00 0. -1.
          5    1    1    2  502    0 -0.20995780621E+02 -0.20648139300E+02  0.35584108548E+02  0.46427225220E+02  0.47000000000E+01 0.  1.
         -5    1    1    2    0  502  0.10115336438E+03 -0.14391309315E+02  0.50691883191E+03  0.51713432012E+03  0.47000000000E+01 0.  1.
        -11    1    1    2    0    0 -0.29236892122E+02  0.42598030057E+02  0.34505735640E+02  0.62129170425E+02  0.00000000000E+00 0. -1.
         11    1    1    2    0    0 -0.50920691636E+02 -0.75585814421E+01  0.17478254921E+03  0.18220589589E+03  0.00000000000E+00 0.  1.
<mgrwt>
<rscale>  0 0.29581563E+03</rscale>
<asrwt>0</asrwt>
<pdfrwt beam="2">  1        1 0.43157995E-02 0.29581563E+03</pdfrwt>
<pdfrwt beam="1">  1       -1 0.11997597E+00 0.29581563E+03</pdfrwt>
<totfact> 0.13542175E+03</totfact>
</mgrwt>
</event>
<event>
 6    1  0.7270761E-006  0.1293109E+03  0.7546771E-02  0.1242687E+00
          3   -1    0    0  501    0  0.00000000000E+00  0.00000000000E+00  0.12003664632E+03  0.12003664632E+03  0.00000000000E+00 0. -1.
         -3   -1    0    0    0  501 -0.00000000000E+00 -0.00000000000E+00 -0.12287079854E+03  0.12287079854E+03  0.00000000000E+00 0.  1.
          5    1    1    2  502    0  0.23701534548E+02 -0.38112409360E+02  0.38252029862E+01  0.45288416455E+02  0.47000000000E+01 0. -1.
         -5    1    1    2    0  502 -0.48319650971E+02  0.60245008126E+02 -0.49505328442E+02  0.91853781731E+02  0.47000000000E+01 0. -1.
        -11    1    1    2    0    0  0.50698053068E+02 -0.11066116446E+02 -0.28826996785E+01  0.51971737276E+02  0.00000000000E+00 0.  1.
         11    1    1    2    0    0 -0.26079936645E+02 -0.11066482321E+02  0.45728672915E+02  0.53793509394E+02  0.00000000000E+00 0. -1.
<mgrwt>
<rscale>  0 0.12024880E+03</rscale>
<asrwt>0</asrwt>
<pdfrwt beam="1">  1        3 0.18467176E-01 0.12931090E+03</pdfrwt>
<pdfrwt beam="2">  1       -3 0.18903200E-01 0.12931090E+03</pdfrwt>
<totfact> 0.14607737E+03</totfact>
</mgrwt>
</event>
<event>
 6    1  0.7270761E-006  0.1494520E+03  0.7546771E-02  0.1210653E+00
          2   -1    0    0  501    0  0.00000000000E+00  0.00000000000E+00  0.35584454753E+02  0.35584454753E+02  0.00000000000E+00 0. -1.
         -2   -1    0    0    0  501 -0.00000000000E+00 -0.00000000000E+00 -0.53868359336E+03  0.53868359336E+03  0.00000000000E+00 0.  1.
          5    1    1    2  502    0 -0.41634291549E+02  0.70998822514E+02 -0.10436161829E+03  0.13299505405E+03  0.47000000000E+01 0.  1.
         -5    1    1    2    0  502  0.37380515488E+02  0.10804971021E+02 -0.22906745541E+03  0.23239629830E+03  0.47000000000E+01 0.  1.
        -11    1    1    2    0    0 -0.11833487213E+02 -0.69463468021E+02 -0.17436521111E+03  0.18806496658E+03  0.00000000000E+00 0.  1.
         11    1    1    2    0    0  0.16087263275E+02 -0.12340325514E+02  0.46951462009E+01  0.20811729176E+02  0.00000000000E+00 0. -1.
<mgrwt>
<rscale>  0 0.14200745E+03</rscale>
<asrwt>0</asrwt>
<pdfrwt beam="1">  1        2 0.54745315E-02 0.14945198E+03</pdfrwt>
<pdfrwt beam="2">  1       -2 0.82874398E-01 0.14945198E+03</pdfrwt>
<totfact> 0.17780643E+03</totfact>
</mgrwt>
</event>
<event>
 6    1  0.7270761E-006  0.3570977E+03  0.7546771E-02  0.1060851E+00
         -1   -1    0    0    0  501 -0.00000000000E+00  0.00000000000E+00  0.13209843152E+03  0.13209843152E+03  0.00000000000E+00 0.  1.
          1   -1    0    0  501    0  0.00000000000E+00 -0.00000000000E+00 -0.15171445403E+04  0.15171445403E+04  0.00000000000E+00 0. -1.
          5    1    1    2  502    0  0.27735200878E+03  0.19498063039E+03 -0.18542819049E+03  0.38645476686E+03  0.47000000000E+01 0. -1.
         -5    1    1    2    0  502 -0.13396895390E+02  0.96420302064E+01 -0.34048047035E+01  0.17496521016E+02  0.47000000000E+01 0.  1.
        -11    1    1    2    0    0 -0.22989845957E+03 -0.14225526639E+03 -0.85370718439E+03  0.89549194257E+03  0.00000000000E+00 0.  1.
         11    1    1    2    0    0 -0.34056653823E+02 -0.62367394204E+02 -0.34250592921E+03  0.34979974138E+03  0.00000000000E+00 0. -1.
<mgrwt>
<rscale>  0 0.35433083E+03</rscale>
<asrwt>0</asrwt>
<pdfrwt beam="2">  1        1 0.23340687E+00 0.35709767E+03</pdfrwt>
<pdfrwt beam="1">  1       -1 0.20322834E-01 0.35709767E+03</pdfrwt>
<totfact> 0.13565185E+02</totfact>
</mgrwt>
</event>
<event>
 6    1  0.7270761E-006  0.3638801E+03  0.7546771E-02  0.1057058E+00
         -1   -1    0    0    0  501 -0.00000000000E+00  0.00000000000E+00  0.54766877567E+03  0.54766877567E+03  0.00000000000E+00 0.  1.
          1   -1    0    0  501    0  0.00000000000E+00 -0.00000000000E+00 -0.60441964018E+02  0.60441964018E+02  0.00000000000E+00 0. -1.
          5    1    1    2  502    0  0.19132548932E+02  0.11130347814E+03  0.17967933266E+03  0.21227640297E+03  0.47000000000E+01 0. -1.
         -5    1    1    2    0  502  0.10412976515E+02 -0.51705850168E+01  0.23556454466E+03  0.23589809183E+03  0.47000000000E+01 0.  1.
        -11    1    1    2    0    0  0.31295585652E+02 -0.31920459763E+02  0.10351458008E+02  0.45885532749E+02  0.00000000000E+00 0.  1.
         11    1    1    2    0    0 -0.60841111099E+02 -0.74212433357E+02  0.61631476323E+02  0.11405071213E+03  0.00000000000E+00 0. -1.
<mgrwt>
<rscale>  0 0.36388007E+03</rscale>
<asrwt>0</asrwt>
<pdfrwt beam="2">  1        1 0.92987641E-02 0.36388007E+03</pdfrwt>
<pdfrwt beam="1">  1       -1 0.84256731E-01 0.36388007E+03</pdfrwt>
<totfact> 0.10392768E+03</totfact>
</mgrwt>
</event>
<event>
 6    1  0.7270761E-006  0.3899591E+03  0.7546771E-02  0.1047313E+00
          2   -1    0    0  501    0  0.00000000000E+00  0.00000000000E+00  0.11869834790E+04  0.11869834790E+04  0.00000000000E+00 0.  1.
         -2   -1    0    0    0  501 -0.00000000000E+00 -0.00000000000E+00 -0.32028263114E+02  0.32028263114E+02  0.00000000000E+00 0. -1.
          5    1    1    2  502    0  0.25307217441E+02  0.23269112662E+02  0.51436453233E+02  0.62045995679E+02  0.47000000000E+01 0.  1.
         -5    1    1    2    0  502  0.97910728256E+02 -0.12876989970E+03  0.54870740721E+03  0.57207526297E+03  0.47000000000E+01 0.  1.
        -11    1    1    2    0    0 -0.49287684094E+02  0.22848645472E+02  0.32746818549E+03  0.33194389422E+03  0.00000000000E+00 0.  1.
         11    1    1    2    0    0 -0.73930261603E+02  0.82652141563E+02  0.22734316996E+03  0.25294658925E+03  0.00000000000E+00 0. -1.
<mgrwt>
<rscale>  0 0.38995907E+03</rscale>
<asrwt>0</asrwt>
<pdfrwt beam="1">  1        2 0.18261281E+00 0.38995907E+03</pdfrwt>
<pdfrwt beam="2">  1       -2 0.49274260E-02 0.38995907E+03</pdfrwt>
<totfact> 0.40848589E+03</totfact>
</mgrwt>
</event>
<event>
 6    1  0.7270761E-006  0.3748666E+03  0.7546771E-02  0.1052848E+00
          1   -1    0    0  501    0  0.00000000000E+00  0.00000000000E+00  0.27109464641E+03  0.27109464641E+03  0.00000000000E+00 0. -1.
         -1   -1    0    0    0  501 -0.00000000000E+00 -0.00000000000E+00 -0.12959034441E+03  0.12959034441E+03  0.00000000000E+00 0.  1.
          5    1    1    2  502    0 -0.24051237876E+02  0.20995848598E+02  0.39001916577E+02  0.50621410474E+02  0.47000000000E+01 0.  1.
         -5    1    1    2    0  502  0.70945526758E+02  0.10655943221E+03 -0.39415674862E+02  0.13402934673E+03  0.47000000000E+01 0.  1.
        -11    1    1    2    0    0  0.15348959289E+02 -0.64212278964E+02  0.94737634477E+02  0.11547305620E+03  0.00000000000E+00 0.  1.
         11    1    1    2    0    0 -0.62243248171E+02 -0.63343001844E+02  0.47180425807E+02  0.10056117742E+03  0.00000000000E+00 0. -1.
<mgrwt>
<rscale>  0 0.37486664E+03</rscale>
<asrwt>0</asrwt>
<pdfrwt beam="1">  1        1 0.41706869E-01 0.37486664E+03</pdfrwt>
<pdfrwt beam="2">  1       -1 0.19936976E-01 0.37486664E+03</pdfrwt>
<totfact> 0.20286115E+03</totfact>
</mgrwt>
</event>
<event>
 6    1  0.7270761E-006  0.1678853E+03  0.7546771E-02  0.1187893E+00
         -2   -1    0    0    0  501 -0.00000000000E+00  0.00000000000E+00  0.20257089646E+02  0.20257089646E+02  0.00000000000E+00 0.  1.
          2   -1    0    0  501    0  0.00000000000E+00 -0.00000000000E+00 -0.11849723190E+04  0.11849723190E+04  0.00000000000E+00 0. -1.
          5    1    1    2  502    0 -0.29966673389E+02  0.51017547375E+02 -0.52013187074E+03  0.52350744466E+03  0.47000000000E+01 0.  1.
         -5    1    1    2    0  502 -0.42831098475E+02  0.34191476540E+02 -0.64586979157E+02  0.84835888285E+02  0.47000000000E+01 0.  1.
        -11    1    1    2    0    0 -0.37797196337E+01 -0.29351025566E+02 -0.47097322812E+02  0.55623077929E+02  0.00000000000E+00 0.  1.
         11    1    1    2    0    0  0.76577491498E+02 -0.55857998350E+02 -0.53289905666E+03  0.54126299779E+03  0.00000000000E+00 0. -1.
<mgrwt>
<rscale>  0 0.16071407E+03</rscale>
<asrwt>0</asrwt>
<pdfrwt beam="2">  1        2 0.18230344E+00 0.16788531E+03</pdfrwt>
<pdfrwt beam="1">  1       -2 0.31164753E-02 0.16788531E+03</pdfrwt>
<totfact> 0.80009102E+03</totfact>
</mgrwt>
</event>
<event>
 6    1  0.1329116E-005  0.1794187E+03  0.7546771E-02  0.1174173E+00
         -1   -1    0    0    0  501 -0.00000000000E+00  0.00000000000E+00  0.19495110607E+03  0.19495110607E+03  0.00000000000E+00 0.  1.
          1   -1    0    0  501    0  0.00000000000E+00 -0.00000000000E+00 -0.15407586304E+03  0.15407586304E+03  0.00000000000E+00 0. -1.
          5    1    1    2  502    0  0.98793321462E+02  0.11321793949E+01  0.88757371281E+02  0.13289606146E+03  0.47000000000E+01 0. -1.
         -5    1    1    2    0  502  0.21684878604E+02 -0.46420024560E+02 -0.25402700460E+02  0.57379785908E+02  0.47000000000E+01 0. -1.
        -11    1    1    2    0    0 -0.78184271504E+02  0.45229651790E+02  0.26410008146E+02  0.94106271002E+02  0.00000000000E+00 0.  1.
         11    1    1    2    0    0 -0.42293928562E+02  0.58193375187E-01 -0.48889435939E+02  0.64644850732E+02  0.00000000000E+00 0. -1.
<mgrwt>
<rscale>  0 0.17357233E+03</rscale>
<asrwt>0</asrwt>
<pdfrwt beam="2">  1        1 0.23703979E-01 0.17941874E+03</pdfrwt>
<pdfrwt beam="1">  1       -1 0.29992478E-01 0.17941874E+03</pdfrwt>
<totfact> 0.20619495E+03</totfact>
</mgrwt>
</event>
<event>
 6    1  0.7270761E-006  0.2279466E+03  0.7546771E-02  0.1131066E+00
         -1   -1    0    0    0  501 -0.00000000000E+00  0.00000000000E+00  0.13856027242E+03  0.13856027242E+03  0.00000000000E+00 0.  1.
          1   -1    0    0  501    0  0.00000000000E+00 -0.00000000000E+00 -0.35023561646E+03  0.35023561646E+03  0.00000000000E+00 0. -1.
          5    1    1    2  502    0  0.55998666096E+02  0.22673274016E+02 -0.45427363554E+02  0.75734162164E+02  0.47000000000E+01 0.  1.
         -5    1    1    2    0  502 -0.14164304212E+02  0.16324709458E+03 -0.50024278735E+02  0.17139066447E+03  0.47000000000E+01 0.  1.
        -11    1    1    2    0    0  0.51143835971E+01 -0.11879465073E+03 -0.10567992681E+03  0.15908039757E+03  0.00000000000E+00 0.  1.
         11    1    1    2    0    0 -0.46948745481E+02 -0.67125717873E+02 -0.10543774945E+02  0.82590664680E+02  0.00000000000E+00 0. -1.
<mgrwt>
<rscale>  0 0.22382159E+03</rscale>
<asrwt>0</asrwt>
<pdfrwt beam="2">  1        1 0.53882403E-01 0.22794663E+03</pdfrwt>
<pdfrwt beam="1">  1       -1 0.21316965E-01 0.22794663E+03</pdfrwt>
<totfact> 0.13025667E+03</totfact>
</mgrwt>
</event>
<event>
 6    1  0.7270761E-006  0.1372624E+03  0.7546771E-02  0.1228827E+00
          1   -1    0    0  501    0  0.00000000000E+00  0.00000000000E+00  0.56815000717E+03  0.56815000717E+03  0.00000000000E+00 0. -1.
         -1   -1    0    0    0  501 -0.00000000000E+00 -0.00000000000E+00 -0.26570021710E+02  0.26570021710E+02  0.00000000000E+00 0.  1.
          5    1    1    2  502    0  0.36178704593E+02  0.44528628433E+00  0.23031296543E+03  0.23318501022E+03  0.47000000000E+01 0. -1.
         -5    1    1    2    0  502 -0.21332252120E+02 -0.55188908769E+02  0.45125771004E+02  0.74560752680E+02  0.47000000000E+01 0. -1.
        -11    1    1    2    0    0  0.37462643070E+02  0.35082341915E+02  0.12014053155E+03  0.13064443219E+03  0.00000000000E+00 0.  1.
         11    1    1    2    0    0 -0.52309095543E+02  0.19661280569E+02  0.14600071747E+03  0.15632983379E+03  0.00000000000E+00 0. -1.
<mgrwt>
<rscale>  0 0.12908019E+03</rscale>
<asrwt>0</asrwt>
<pdfrwt beam="1">  1        1 0.87407685E-01 0.13726237E+03</pdfrwt>
<pdfrwt beam="2">  1       -1 0.40876961E-02 0.13726237E+03</pdfrwt>
<totfact> 0.86499009E+03</totfact>
</mgrwt>
</event>
<event>
 6    1  0.7270761E-006  0.2048780E+03  0.7546771E-02  0.1150087E+00
         -1   -1    0    0    0  501 -0.00000000000E+00  0.00000000000E+00  0.63576283714E+02  0.63576283714E+02  0.00000000000E+00 0.  1.
          1   -1    0    0  501    0  0.00000000000E+00 -0.00000000000E+00 -0.60746295209E+03  0.60746295209E+03  0.00000000000E+00 0. -1.
          5    1    1    2  502    0 -0.11350074031E+03  0.41755130651E+02 -0.11716999651E+03  0.16845416904E+03  0.47000000000E+01 0.  1.
         -5    1    1    2    0  502  0.66790636124E+01  0.80471014008E+02 -0.12324735281E+03  0.14741843155E+03  0.47000000000E+01 0.  1.
        -11    1    1    2    0    0  0.51469678100E+02 -0.22918918717E+01 -0.10168994518E+03  0.11399660294E+03  0.00000000000E+00 0. -1.
         11    1    1    2    0    0  0.55351998596E+02 -0.11993425279E+03 -0.20177937388E+03  0.24117003227E+03  0.00000000000E+00 0.  1.
<mgrwt>
<rscale>  0 0.19958858E+03</rscale>
<asrwt>0</asrwt>
<pdfrwt beam="2">  1        1 0.93455840E-01 0.20487801E+03</pdfrwt>
<pdfrwt beam="1">  1       -1 0.97809666E-02 0.20487801E+03</pdfrwt>
<totfact> 0.21654537E+03</totfact>
</mgrwt>
</event>
<event>
 6    1  0.7270761E-006  0.1288266E+03  0.7546771E-02  0.1243684E+00
         -2   -1    0    0    0  501 -0.00000000000E+00  0.00000000000E+00  0.42101663807E+02  0.42101663807E+02  0.00000000000E+00 0.  1.
          2   -1    0    0  501    0  0.00000000000E+00 -0.00000000000E+00 -0.42901760131E+03  0.42901760131E+03  0.00000000000E+00 0. -1.
          5    1    1    2  502    0 -0.33170271633E+00  0.55745770664E+02 -0.38489006474E+02  0.67905777317E+02  0.47000000000E+01 0.  1.
         -5    1    1    2    0  502  0.29435247478E+02 -0.66477473319E+02 -0.46475663481E+02  0.86416234290E+02  0.47000000000E+01 0.  1.
        -11    1    1    2    0    0  0.45866743774E+01 -0.34270889528E+02 -0.69253563666E+02  0.77405345625E+02  0.00000000000E+00 0.  1.
         11    1    1    2    0    0 -0.33690219139E+02  0.45002592183E+02 -0.23269770388E+03  0.23939190789E+03  0.00000000000E+00 0. -1.
<mgrwt>
<rscale>  0 0.11964499E+03</rscale>
<asrwt>0</asrwt>
<pdfrwt beam="2">  1        2 0.66002707E-01 0.12882658E+03</pdfrwt>
<pdfrwt beam="1">  1       -2 0.64771792E-02 0.12882658E+03</pdfrwt>
<totfact> 0.92105947E+03</totfact>
</mgrwt>
</event>
<event>
 6    1  0.7270761E-006  0.1273715E+03  0.7546771E-02  0.1246385E+00
          1   -1    0    0  501    0  0.00000000000E+00  0.00000000000E+00  0.10923377120E+03  0.10923377120E+03  0.00000000000E+00 0. -1.
         -1   -1    0    0    0  501 -0.00000000000E+00 -0.00000000000E+00 -0.14136712534E+03  0.14136712534E+03  0.00000000000E+00 0.  1.
          5    1    1    2  502    0 -0.12292344074E+02 -0.39773202620E+02 -0.10350903637E+03  0.11166566160E+03  0.47000000000E+01 0.  1.
         -5    1    1    2    0  502  0.13803628735E+02  0.15345235071E+02  0.28995506166E+02  0.35900498374E+02  0.47000000000E+01 0.  1.
        -11    1    1    2    0    0 -0.42430493059E+02  0.30872289936E+02  0.22669153162E+02  0.57160611720E+02  0.00000000000E+00 0. -1.
         11    1    1    2    0    0  0.40919208398E+02 -0.64443223879E+01  0.19711022908E+02  0.45874124853E+02  0.00000000000E+00 0.  1.
<mgrwt>
<rscale>  0 0.11802889E+03</rscale>
<asrwt>0</asrwt>
<pdfrwt beam="1">  1        1 0.16805196E-01 0.12737153E+03</pdfrwt>
<pdfrwt beam="2">  1       -1 0.21748788E-01 0.12737153E+03</pdfrwt>
<totfact> 0.53452070E+03</totfact>
</mgrwt>
</event>
<event>
 6    1  0.7270761E-006  0.1641467E+03  0.7546771E-02  0.1191387E+00
          1   -1    0    0  501    0  0.00000000000E+00  0.00000000000E+00  0.82138837848E+02  0.82138837848E+02  0.00000000000E+00 0. -1.
         -1   -1    0    0    0  501 -0.00000000000E+00 -0.00000000000E+00 -0.50391497368E+03  0.50391497368E+03  0.00000000000E+00 0.  1.
          5    1    1    2  502    0  0.84887975472E+02 -0.44374123970E+02 -0.20021819367E+03  0.22200100526E+03  0.47000000000E+01 0. -1.
         -5    1    1    2    0  502  0.20100870816E+02  0.61202055963E+02 -0.21475604948E+03  0.22425875111E+03  0.47000000000E+01 0. -1.
        -11    1    1    2    0    0 -0.40712175946E+02  0.30158916916E+02 -0.27335165732E+02  0.57569547726E+02  0.00000000000E+00 0.  1.
         11    1    1    2    0    0 -0.64276670342E+02 -0.46986848908E+02  0.20533273052E+02  0.82224507434E+02  0.00000000000E+00 0. -1.
<mgrwt>
<rscale>  0 0.15764045E+03</rscale>
<asrwt>0</asrwt>
<pdfrwt beam="1">  1        1 0.12636744E-01 0.16414673E+03</pdfrwt>
<pdfrwt beam="2">  1       -1 0.77525382E-01 0.16414673E+03</pdfrwt>
<totfact> 0.81014837E+02</totfact>
</mgrwt>
</event>
<event>
 6    1  0.7270761E-006  0.1368856E+03  0.7546771E-02  0.1229416E+00
          1   -1    0    0  501    0  0.00000000000E+00  0.00000000000E+00  0.41765618144E+03  0.41765618144E+03  0.00000000000E+00 0. -1.
         -1   -1    0    0    0  501 -0.00000000000E+00 -0.00000000000E+00 -0.35796101555E+02  0.35796101555E+02  0.00000000000E+00 0.  1.
          5    1    1    2  502    0 -0.43604079733E+02  0.16147080707E+02  0.39375241934E+02  0.61110912790E+02  0.47000000000E+01 0.  1.
         -5    1    1    2    0  502  0.80121025362E+02  0.26039587475E+02  0.15746078066E+03  0.17864329337E+03  0.47000000000E+01 0.  1.
        -11    1    1    2    0    0 -0.53655765332E+02 -0.38231428988E+02  0.18470776484E+03  0.19610594511E+03  0.00000000000E+00 0. -1.
         11    1    1    2    0    0  0.17138819703E+02 -0.39552391939E+01  0.31629246108E+00  0.17592131730E+02  0.00000000000E+00 0.  1.
<mgrwt>
<rscale>  0 0.12868802E+03</rscale>
<asrwt>0</asrwt>
<pdfrwt beam="1">  1        1 0.64254794E-01 0.13688557E+03</pdfrwt>
<pdfrwt beam="2">  1       -1 0.55070928E-02 0.13688557E+03</pdfrwt>
<totfact> 0.83084215E+03</totfact>
</mgrwt>
</event>
<event>
 6    1  0.7270761E-006  0.2576442E+03  0.7546771E-02  0.1108567E+00
         -1   -1    0    0    0  501 -0.00000000000E+00  0.00000000000E+00  0.22774139997E+03  0.22774139997E+03  0.00000000000E+00 0.  1.
          1   -1    0    0  501    0  0.00000000000E+00 -0.00000000000E+00 -0.72868295839E+02  0.72868295839E+02  0.00000000000E+00 0. -1.
          5    1    1    2  502    0  0.75858692371E+02  0.18308739826E+02  0.13929939643E+03  0.15973779455E+03  0.47000000000E+01 0. -1.
         -5    1    1    2    0  502 -0.19278042454E+02 -0.79672119140E+01 -0.14657898218E+02  0.25924184976E+02  0.47000000000E+01 0. -1.
        -11    1    1    2    0    0 -0.17762009488E+02 -0.42632585797E+02 -0.13533984982E+02  0.48126864663E+02  0.00000000000E+00 0. -1.
         11    1    1    2    0    0 -0.38818640429E+02  0.32291057885E+02  0.43765590899E+02  0.66820851617E+02  0.00000000000E+00 0.  1.
<mgrwt>
<rscale>  0 0.25764416E+03</rscale>
<asrwt>0</asrwt>
<pdfrwt beam="2">  1        1 0.11210507E-01 0.25764416E+03</pdfrwt>
<pdfrwt beam="1">  1       -1 0.35037138E-01 0.25764416E+03</pdfrwt>
<totfact> 0.42550615E+03</totfact>
</mgrwt>
</event>
<event>
 6    1  0.7270761E-006  0.1668869E+03  0.7546771E-02  0.1193708E+00
          1   -1    0    0  501    0  0.00000000000E+00  0.00000000000E+00  0.45340379739E+02  0.45340379739E+02  0.00000000000E+00 0. -1.
         -1   -1    0    0    0  501 -0.00000000000E+00 -0.00000000000E+00 -0.47507850744E+03  0.47507850744E+03  0.00000000000E+00 0.  1.
          5    1    1    2  502    0 -0.42025835884E+01 -0.11810966975E+03 -0.24919068174E+03  0.27583625879E+03  0.47000000000E+01 0. -1.
         -5    1    1    2    0  502 -0.72768709719E+01  0.28885305022E+02 -0.87777566049E+01  0.31407844695E+02  0.47000000000E+01 0.  1.
        -11    1    1    2    0    0  0.34044281138E+02  0.43418097138E+00 -0.37755698122E+02  0.50839889181E+02  0.00000000000E+00 0. -1.
         11    1    1    2    0    0 -0.22564826577E+02  0.88790183756E+02 -0.13401399123E+03  0.16233489451E+03  0.00000000000E+00 0.  1.
<mgrwt>
<rscale>  0 0.15564067E+03</rscale>
<asrwt>0</asrwt>
<pdfrwt beam="1">  1        1 0.69754430E-02 0.16688686E+03</pdfrwt>
<pdfrwt beam="2">  1       -1 0.73089001E-01 0.16688686E+03</pdfrwt>
<totfact> 0.20210862E+03</totfact>
</mgrwt>
</event>
<event>
 6    1  0.7270761E-006  0.1955175E+03  0.7546771E-02  0.1185412E+00
          2   -1    0    0  501    0  0.00000000000E+00  0.00000000000E+00  0.13027922611E+03  0.13027922611E+03  0.00000000000E+00 0. -1.
         -2   -1    0    0    0  501 -0.00000000000E+00 -0.00000000000E+00 -0.17045203863E+03  0.17045203863E+03  0.00000000000E+00 0.  1.
          5    1    1    2  502    0  0.58921016659E+01  0.35527259570E+02  0.59293848566E+02  0.69532391821E+02  0.47000000000E+01 0. -1.
         -5    1    1    2    0  502 -0.24624128034E+02 -0.58435113736E+02 -0.11895888535E+03  0.13488630991E+03  0.47000000000E+01 0.  1.
        -11    1    1    2    0    0  0.43285006298E+02 -0.12705021235E+02 -0.69068517170E+01  0.45636760790E+02  0.00000000000E+00 0.  1.
         11    1    1    2    0    0 -0.24552979929E+02  0.35612875401E+02  0.26399075983E+02  0.50675802219E+02  0.00000000000E+00 0. -1.
<mgrwt>
<rscale>  0 0.16294444E+03</rscale>
<asrwt>0</asrwt>
<pdfrwt beam="1">  1        2 0.20042958E-01 0.19551749E+03</pdfrwt>
<pdfrwt beam="2">  1       -2 0.26223390E-01 0.19551749E+03</pdfrwt>
<totfact> 0.35409024E+03</totfact>
</mgrwt>
</event>
<event>
 6    1  0.7270761E-006  0.3898533E+03  0.7546771E-02  0.1047351E+00
         -2   -1    0    0    0  501 -0.00000000000E+00  0.00000000000E+00  0.25262668016E+02  0.25262668016E+02  0.00000000000E+00 0.  1.
          2   -1    0    0  501    0  0.00000000000E+00 -0.00000000000E+00 -0.15040532576E+04  0.15040532576E+04  0.00000000000E+00 0. -1.
          5    1    1    2  502    0 -0.15274339166E+03  0.65457807618E+02 -0.46677818034E+03  0.49549896864E+03  0.47000000000E+01 0. -1.
         -5    1    1    2    0  502  0.13421685188E+02  0.88397839777E+01 -0.20838824775E+03  0.20905988428E+03  0.47000000000E+01 0. -1.
        -11    1    1    2    0    0  0.38766780683E+02 -0.75422447536E+02 -0.38380581644E+03  0.39306273495E+03  0.00000000000E+00 0.  1.
         11    1    1    2    0    0  0.10055492579E+03  0.11248559405E+01 -0.41981834502E+03  0.43169433771E+03  0.00000000000E+00 0. -1.
<mgrwt>
<rscale>  0 0.38985330E+03</rscale>
<asrwt>0</asrwt>
<pdfrwt beam="2">  1        2 0.23139282E+00 0.38985330E+03</pdfrwt>
<pdfrwt beam="1">  1       -2 0.38865642E-02 0.38985330E+03</pdfrwt>
<totfact> 0.39029404E+03</totfact>
</mgrwt>
</event>
<event>
 6    1  0.7270761E-006  0.1584524E+03  0.7546771E-02  0.1195265E+00
         -1   -1    0    0    0  501 -0.00000000000E+00  0.00000000000E+00  0.59339469284E+03  0.59339469284E+03  0.00000000000E+00 0.  1.
          1   -1    0    0  501    0  0.00000000000E+00 -0.00000000000E+00 -0.38777565357E+02  0.38777565357E+02  0.00000000000E+00 0. -1.
          5    1    1    2  502    0 -0.54219976970E+02 -0.95636156195E+02  0.21371229084E+03  0.24037702372E+03  0.47000000000E+01 0. -1.
         -5    1    1    2    0  502 -0.25612801155E+02  0.39882083020E+02  0.11746296726E+03  0.12675265207E+03  0.47000000000E+01 0. -1.
        -11    1    1    2    0    0 -0.20280980094E+02 -0.44905741125E+01  0.13491192267E+02  0.24768844911E+02  0.00000000000E+00 0. -1.
         11    1    1    2    0    0  0.10011375822E+03  0.60244647288E+02  0.20995067712E+03  0.24027373750E+03  0.00000000000E+00 0.  1.
<mgrwt>
<rscale>  0 0.15431849E+03</rscale>
<asrwt>0</asrwt>
<pdfrwt beam="2">  1        1 0.59657797E-02 0.15845235E+03</pdfrwt>
<pdfrwt beam="1">  1       -1 0.91291484E-01 0.15845235E+03</pdfrwt>
<totfact> 0.15749135E+03</totfact>
</mgrwt>
</event>
<event>
 6    1  0.7270761E-006  0.2952423E+03  0.7546771E-02  0.1087643E+00
         -2   -1    0    0    0  501 -0.00000000000E+00  0.00000000000E+00  0.78942408760E+02  0.78942408760E+02  0.00000000000E+00 0.  1.
          2   -1    0    0  501    0  0.00000000000E+00 -0.00000000000E+00 -0.27604940996E+03  0.27604940996E+03  0.00000000000E+00 0. -1.
          5    1    1    2  502    0 -0.23111157872E+02 -0.13032357413E+01  0.18008379875E+02  0.29702117556E+02  0.47000000000E+01 0. -1.
         -5    1    1    2    0  502  0.15400280940E+02 -0.97810703777E+02 -0.13871446361E+03  0.17049309323E+03  0.47000000000E+01 0. -1.
        -11    1    1    2    0    0  0.21558144357E+02  0.54110527688E+02 -0.88714886663E+02  0.10612744183E+03  0.00000000000E+00 0. -1.
         11    1    1    2    0    0 -0.13847267424E+02  0.45003411830E+02  0.12313969192E+02  0.48669166099E+02  0.00000000000E+00 0.  1.
<mgrwt>
<rscale>  0 0.29524231E+03</rscale>
<asrwt>0</asrwt>
<pdfrwt beam="2">  1        2 0.42469141E-01 0.29524231E+03</pdfrwt>
<pdfrwt beam="1">  1       -2 0.12144986E-01 0.29524231E+03</pdfrwt>
<totfact> 0.57825784E+03</totfact>
</mgrwt>
</event>
<event>
 6    1  0.7270761E-006  0.1363076E+03  0.7546771E-02  0.1230324E+00
         -2   -1    0    0    0  501 -0.00000000000E+00  0.00000000000E+00  0.26506802771E+03  0.26506802771E+03  0.00000000000E+00 0.  1.
          2   -1    0    0  501    0  0.00000000000E+00 -0.00000000000E+00 -0.57733092231E+02  0.57733092231E+02  0.00000000000E+00 0. -1.
          5    1    1    2  502    0 -0.11947329448E+02  0.28038838395E+02  0.13861789057E+03  0.14200677704E+03  0.47000000000E+01 0.  1.
         -5    1    1    2    0  502  0.57956528501E+02  0.91233571874E+00  0.88767025295E+01  0.58827522472E+02  0.47000000000E+01 0.  1.
        -11    1    1    2    0    0 -0.10918606592E+02  0.57010557179E+01 -0.22693794070E+02  0.25821043657E+02  0.00000000000E+00 0. -1.
         11    1    1    2    0    0 -0.35090592461E+02 -0.34652229831E+02  0.82534136458E+02  0.96145776779E+02  0.00000000000E+00 0.  1.
<mgrwt>
<rscale>  0 0.12808581E+03</rscale>
<asrwt>0</asrwt>
<pdfrwt beam="2">  1        2 0.88820143E-02 0.13630760E+03</pdfrwt>
<pdfrwt beam="1">  1       -2 0.40779696E-01 0.13630760E+03</pdfrwt>
<totfact> 0.40762700E+03</totfact>
</mgrwt>
</event>
<event>
 6    1  0.7270761E-006  0.1874590E+03  0.7546771E-02  0.1165887E+00
          4   -1    0    0  501    0  0.00000000000E+00  0.00000000000E+00  0.72955119856E+02  0.72955119856E+02  0.00000000000E+00 0. -1.
         -4   -1    0    0    0  501 -0.00000000000E+00 -0.00000000000E+00 -0.47206751580E+03  0.47206751580E+03  0.00000000000E+00 0.  1.
          5    1    1    2  502    0  0.89433743836E+02 -0.11844708000E+03 -0.20949633617E+03  0.25678572812E+03  0.47000000000E+01 0.  1.
         -5    1    1    2    0  502 -0.34731991901E+02 -0.10070744405E+02 -0.82569338716E+02  0.90263596484E+02  0.47000000000E+01 0.  1.
        -11    1    1    2    0    0 -0.72950926154E+01  0.11586339460E+03 -0.63257327150E+02  0.13220829786E+03  0.00000000000E+00 0.  1.
         11    1    1    2    0    0 -0.47406659320E+02  0.12654429802E+02 -0.43789393906E+02  0.65765013191E+02  0.00000000000E+00 0. -1.
<mgrwt>
<rscale>  0 0.18199402E+03</rscale>
<asrwt>0</asrwt>
<pdfrwt beam="1">  1        4 0.11223865E-01 0.18745900E+03</pdfrwt>
<pdfrwt beam="2">  1       -4 0.72625772E-01 0.18745900E+03</pdfrwt>
<totfact> 0.19314156E+02</totfact>
</mgrwt>
</event>
<event>
 6    1  0.7270761E-006  0.1406980E+03  0.7546771E-02  0.1223334E+00
          1   -1    0    0  501    0  0.00000000000E+00  0.00000000000E+00  0.17955154810E+03  0.17955154810E+03  0.00000000000E+00 0. -1.
         -1   -1    0    0    0  501 -0.00000000000E+00 -0.00000000000E+00 -0.90101186771E+02  0.90101186771E+02  0.00000000000E+00 0.  1.
          5    1    1    2  502    0  0.69990151381E+02 -0.63280342369E+02  0.52998611030E+02  0.10832343141E+03  0.47000000000E+01 0.  1.
         -5    1    1    2    0  502 -0.20360090134E+02  0.21997311446E+02 -0.19811842367E+02  0.36235536136E+02  0.47000000000E+01 0.  1.
        -11    1    1    2    0    0 -0.10490385158E+02 -0.23780752356E+02  0.39583453838E+02  0.47354220310E+02  0.00000000000E+00 0. -1.
         11    1    1    2    0    0 -0.39139676089E+02  0.65063783278E+02  0.16680138823E+02  0.77739547014E+02  0.00000000000E+00 0.  1.
<mgrwt>
<rscale>  0 0.13281748E+03</rscale>
<asrwt>0</asrwt>
<pdfrwt beam="1">  1        1 0.27623315E-01 0.14069802E+03</pdfrwt>
<pdfrwt beam="2">  1       -1 0.13861721E-01 0.14069802E+03</pdfrwt>
<totfact> 0.58594906E+03</totfact>
</mgrwt>
</event>
<event>
 6    1  0.7270761E-006  0.3759202E+03  0.7546771E-02  0.1052452E+00
         -2   -1    0    0    0  501 -0.00000000000E+00  0.00000000000E+00  0.24140086378E+03  0.24140086378E+03  0.00000000000E+00 0.  1.
          2   -1    0    0  501    0  0.00000000000E+00 -0.00000000000E+00 -0.14634996696E+03  0.14634996696E+03  0.00000000000E+00 0. -1.
          5    1    1    2  502    0 -0.16293067739E+02 -0.53800829972E+01  0.30118013945E+02  0.34979910140E+02  0.47000000000E+01 0. -1.
         -5    1    1    2    0  502  0.11664125095E+03  0.12169290055E+03  0.23999756831E+02  0.17033033140E+03  0.47000000000E+01 0. -1.
        -11    1    1    2    0    0 -0.68711002731E+02 -0.12698510838E+03  0.34247745462E+02  0.14838910915E+03  0.00000000000E+00 0.  1.
         11    1    1    2    0    0 -0.31637180479E+02  0.10672290822E+02  0.66853805846E+01  0.34051480050E+02  0.00000000000E+00 0. -1.
<mgrwt>
<rscale>  0 0.37592025E+03</rscale>
<asrwt>0</asrwt>
<pdfrwt beam="2">  1        2 0.22515380E-01 0.37592025E+03</pdfrwt>
<pdfrwt beam="1">  1       -2 0.37138594E-01 0.37592025E+03</pdfrwt>
<totfact> 0.16742901E+03</totfact>
</mgrwt>
</event>
<event>
 6    1  0.7270761E-006  0.1277486E+03  0.7546771E-02  0.1245624E+00
         -2   -1    0    0    0  501 -0.00000000000E+00  0.00000000000E+00  0.33055501963E+02  0.33055501963E+02  0.00000000000E+00 0.  1.
          2   -1    0    0  501    0  0.00000000000E+00 -0.00000000000E+00 -0.41451041019E+03  0.41451041019E+03  0.00000000000E+00 0. -1.
          5    1    1    2  502    0 -0.65909276181E+01 -0.11211530442E+02  0.21284805216E+02  0.25382507260E+02  0.47000000000E+01 0. -1.
         -5    1    1    2    0  502 -0.18553298163E+02  0.32552149300E+01 -0.16815692107E+03  0.16927392416E+03  0.47000000000E+01 0. -1.
        -11    1    1    2    0    0 -0.27742032445E+02 -0.19433564196E+02 -0.67349323646E+02  0.75387102193E+02  0.00000000000E+00 0. -1.
         11    1    1    2    0    0  0.52886258226E+02  0.27389879708E+02 -0.16723346872E+03  0.17752237854E+03  0.00000000000E+00 0.  1.
<mgrwt>
<rscale>  0 0.11848097E+03</rscale>
<asrwt>0</asrwt>
<pdfrwt beam="2">  1        2 0.63770835E-01 0.12774861E+03</pdfrwt>
<pdfrwt beam="1">  1       -2 0.50854616E-02 0.12774861E+03</pdfrwt>
<totfact> 0.13762383E+04</totfact>
</mgrwt>
</event>
<event>
 6    1  0.7270761E-006  0.1389672E+03  0.7546771E-02  0.1225586E+00
          2   -1    0    0  501    0  0.00000000000E+00  0.00000000000E+00  0.44662710390E+03  0.44662710390E+03  0.00000000000E+00 0. -1.
         -2   -1    0    0    0  501 -0.00000000000E+00 -0.00000000000E+00 -0.35342123988E+02  0.35342123988E+02  0.00000000000E+00 0.  1.
          5    1    1    2  502    0 -0.11070063761E+02  0.35798426482E+01 -0.16835598262E+02  0.20997355879E+02  0.47000000000E+01 0.  1.
         -5    1    1    2    0  502 -0.46100952515E+02  0.16872120966E+02  0.21794493055E+03  0.22345480313E+03  0.47000000000E+01 0.  1.
        -11    1    1    2    0    0  0.59242862792E+02 -0.51947595343E+02  0.14218784085E+03  0.16255968608E+03  0.00000000000E+00 0. -1.
         11    1    1    2    0    0 -0.20718465151E+01  0.31495631728E+02  0.67987806781E+02  0.74957382804E+02  0.00000000000E+00 0.  1.
<mgrwt>
<rscale>  0 0.13126818E+03</rscale>
<asrwt>0</asrwt>
<pdfrwt beam="1">  1        2 0.68711858E-01 0.13896724E+03</pdfrwt>
<pdfrwt beam="2">  1       -2 0.54372502E-02 0.13896724E+03</pdfrwt>
<totfact> 0.11559715E+04</totfact>
</mgrwt>
</event>
<event>
 6    1  0.7270761E-006  0.2573217E+03  0.7546771E-02  0.1111034E+00
         -1   -1    0    0    0  501 -0.00000000000E+00  0.00000000000E+00  0.48019095681E+03  0.48019095681E+03  0.00000000000E+00 0.  1.
          1   -1    0    0  501    0  0.00000000000E+00 -0.00000000000E+00 -0.15283681721E+03  0.15283681721E+03  0.00000000000E+00 0. -1.
          5    1    1    2  502    0  0.10475927400E+03  0.11716430861E+02  0.16861067793E+03  0.19890558301E+03  0.47000000000E+01 0.  1.
         -5    1    1    2    0  502  0.10046074539E+03 -0.10377449848E+03  0.12073822722E+03  0.18831175590E+03  0.47000000000E+01 0.  1.
        -11    1    1    2    0    0 -0.18942578301E+03  0.78776125864E+02  0.61851875253E+02  0.21427426291E+03  0.00000000000E+00 0. -1.
         11    1    1    2    0    0 -0.15794236380E+02  0.13281941753E+02 -0.23846640802E+02  0.31536172201E+02  0.00000000000E+00 0.  1.
<mgrwt>
<rscale>  0 0.25362611E+03</rscale>
<asrwt>0</asrwt>
<pdfrwt beam="2">  1        1 0.23513357E-01 0.25732174E+03</pdfrwt>
<pdfrwt beam="1">  1       -1 0.73875531E-01 0.25732174E+03</pdfrwt>
<totfact> 0.39970133E+02</totfact>
</mgrwt>
</event>
<event>
 6    1  0.7270761E-006  0.1253939E+03  0.7546771E-02  0.1248694E+00
         -2   -1    0    0    0  501 -0.00000000000E+00  0.00000000000E+00  0.18242801633E+04  0.18242801633E+04  0.00000000000E+00 0.  1.
          2   -1    0    0  501    0  0.00000000000E+00 -0.00000000000E+00 -0.83952770253E+01  0.83952770253E+01  0.00000000000E+00 0. -1.
          5    1    1    2  502    0 -0.15121084933E+02 -0.11667535653E+02  0.34532750195E+02  0.39741407043E+02  0.47000000000E+01 0.  1.
         -5    1    1    2    0  502  0.18030047173E+02  0.20494798585E+02  0.13964944456E+04  0.13967691098E+04  0.47000000000E+01 0.  1.
        -11    1    1    2    0    0 -0.22878915410E+01 -0.50843737464E+02  0.18088500504E+03  0.18790876812E+03  0.00000000000E+00 0. -1.
         11    1    1    2    0    0 -0.62107069928E+00  0.42016474532E+02  0.20397268542E+03  0.20825615539E+03  0.00000000000E+00 0.  1.
<mgrwt>
<rscale>  0 0.11667016E+03</rscale>
<asrwt>0</asrwt>
<pdfrwt beam="2">  1        2 0.12915825E-02 0.12539390E+03</pdfrwt>
<pdfrwt beam="1">  1       -2 0.28065817E+00 0.12539390E+03</pdfrwt>
<totfact> 0.46965259E+02</totfact>
</mgrwt>
</event>
<event>
 6    1  0.7270761E-006  0.2490108E+03  0.7546771E-02  0.1116732E+00
          2   -1    0    0  501    0  0.00000000000E+00  0.00000000000E+00  0.59564220190E+03  0.59564220190E+03  0.00000000000E+00 0. -1.
         -2   -1    0    0    0  501 -0.00000000000E+00 -0.00000000000E+00 -0.22693587397E+03  0.22693587397E+03  0.00000000000E+00 0.  1.
          5    1    1    2  502    0 -0.70316592857E+02  0.92528054304E+02 -0.38167725145E+02  0.12241212892E+03  0.47000000000E+01 0.  1.
         -5    1    1    2    0  502  0.46086208628E+02  0.12146783294E+03 -0.85679908822E+02  0.15569685238E+03  0.47000000000E+01 0.  1.
        -11    1    1    2    0    0  0.51590898357E+00 -0.58230820211E+02  0.57814732602E+02  0.82058746581E+02  0.00000000000E+00 0.  1.
         11    1    1    2    0    0  0.23714475246E+02 -0.15576506704E+03  0.43473922929E+03  0.46241034799E+03  0.00000000000E+00 0. -1.
<mgrwt>
<rscale>  0 0.24465208E+03</rscale>
<asrwt>0</asrwt>
<pdfrwt beam="1">  1        2 0.91637261E-01 0.24901078E+03</pdfrwt>
<pdfrwt beam="2">  1       -2 0.34913212E-01 0.24901078E+03</pdfrwt>
<totfact> 0.39590975E+02</totfact>
</mgrwt>
</event>
<event>
 6    1  0.7270761E-006  0.1320607E+03  0.7546771E-02  0.1230273E+00
          1   -1    0    0  501    0  0.00000000000E+00  0.00000000000E+00  0.12626659951E+03  0.12626659951E+03  0.00000000000E+00 0. -1.
         -1   -1    0    0    0  501 -0.00000000000E+00 -0.00000000000E+00 -0.12506072997E+03  0.12506072997E+03  0.00000000000E+00 0.  1.
          5    1    1    2  502    0  0.52660122177E+02 -0.56015707296E+02  0.21825020287E+02  0.80057913051E+02  0.47000000000E+01 0. -1.
         -5    1    1    2    0  502 -0.17308368752E+02  0.32252573188E+02 -0.38031862403E+02  0.52993590782E+02  0.47000000000E+01 0. -1.
        -11    1    1    2    0    0 -0.54585437962E+02  0.55690797239E+02  0.21844798921E+01  0.78011581749E+02  0.00000000000E+00 0.  1.
         11    1    1    2    0    0  0.19233684537E+02 -0.31927663132E+02  0.15228231759E+02  0.40264243895E+02  0.00000000000E+00 0. -1.
<mgrwt>
<rscale>  0 0.12811936E+03</rscale>
<asrwt>0</asrwt>
<pdfrwt beam="1">  1        1 0.19425631E-01 0.13206075E+03</pdfrwt>
<pdfrwt beam="2">  1       -1 0.19240112E-01 0.13206075E+03</pdfrwt>
<totfact> 0.54221480E+03</totfact>
</mgrwt>
</event>
<event>
 6    1  0.7270761E-006  0.3732620E+03  0.7546771E-02  0.1102552E+00
          1   -1    0    0  501    0  0.00000000000E+00  0.00000000000E+00  0.37300122275E+03  0.37300122275E+03  0.00000000000E+00 0. -1.
         -1   -1    0    0    0  501 -0.00000000000E+00 -0.00000000000E+00 -0.17698258177E+03  0.17698258177E+03  0.00000000000E+00 0.  1.
          5    1    1    2  502    0  0.15367522275E+03 -0.11562251877E+03 -0.78283064133E+01  0.19253055164E+03  0.47000000000E+01 0. -1.
         -5    1    1    2    0  502 -0.14984203705E+03  0.88109765911E+02  0.62149265279E+02  0.18466344546E+03  0.47000000000E+01 0.  1.
        -11    1    1    2    0    0  0.29178970233E+00  0.63055898759E+02  0.87851375457E+02  0.10813877972E+03  0.00000000000E+00 0.  1.
         11    1    1    2    0    0 -0.41249754015E+01 -0.35543145905E+02  0.53846306656E+02  0.64651027705E+02  0.00000000000E+00 0. -1.
<mgrwt>
<rscale>  0 0.26778860E+03</rscale>
<asrwt>0</asrwt>
<pdfrwt beam="1">  1        1 0.57384803E-01 0.37326203E+03</pdfrwt>
<pdfrwt beam="2">  1       -1 0.27228090E-01 0.37326203E+03</pdfrwt>
<totfact> 0.80135385E+02</totfact>
</mgrwt>
</event>
<event>
 6    1  0.7270761E-006  0.1280522E+03  0.7546771E-02  0.1244801E+00
         -2   -1    0    0    0  501 -0.00000000000E+00  0.00000000000E+00  0.63434412909E+02  0.63434412909E+02  0.00000000000E+00 0.  1.
          2   -1    0    0  501    0  0.00000000000E+00 -0.00000000000E+00 -0.19874995010E+03  0.19874995010E+03  0.00000000000E+00 0. -1.
          5    1    1    2  502    0  0.28038456599E+02 -0.39855298294E+02 -0.67430736693E+02  0.83328231119E+02  0.47000000000E+01 0. -1.
         -5    1    1    2    0  502 -0.81853792138E+01  0.59303757783E+02  0.27888526874E+01  0.60114921770E+02  0.47000000000E+01 0. -1.
        -11    1    1    2    0    0 -0.25337550577E+02  0.33580867237E+02 -0.29488310423E+02  0.51373403286E+02  0.00000000000E+00 0.  1.
         11    1    1    2    0    0  0.54844731917E+01 -0.53029326726E+02 -0.41185342763E+02  0.67367806834E+02  0.00000000000E+00 0. -1.
<mgrwt>
<rscale>  0 0.11897303E+03</rscale>
<asrwt>0</asrwt>
<pdfrwt beam="2">  1        2 0.30576915E-01 0.12805220E+03</pdfrwt>
<pdfrwt beam="1">  1       -2 0.97591406E-02 0.12805220E+03</pdfrwt>
<totfact> 0.11095721E+04</totfact>
</mgrwt>
</event>
<event>
 6    1  0.7270761E-006  0.1353411E+03  0.7546771E-02  0.1228531E+00
          3   -1    0    0  501    0  0.00000000000E+00  0.00000000000E+00  0.45194691672E+03  0.45194691672E+03  0.00000000000E+00 0. -1.
         -3   -1    0    0    0  501 -0.00000000000E+00 -0.00000000000E+00 -0.34309038698E+02  0.34309038698E+02  0.00000000000E+00 0.  1.
          5    1    1    2  502    0 -0.79560652998E+01  0.60183519217E+02  0.12702525028E+03  0.14086468390E+03  0.47000000000E+01 0. -1.
         -5    1    1    2    0  502 -0.43883354592E+02 -0.59136096601E+02  0.12276938938E+03  0.14323840163E+03  0.47000000000E+01 0. -1.
        -11    1    1    2    0    0  0.52615785032E+01  0.15292080444E+02 -0.90292426492E+01  0.18521856156E+02  0.00000000000E+00 0.  1.
         11    1    1    2    0    0  0.46577841389E+02 -0.16339503061E+02  0.17687248101E+03  0.18363101374E+03  0.00000000000E+00 0. -1.
<mgrwt>
<rscale>  0 0.12927776E+03</rscale>
<asrwt>0</asrwt>
<pdfrwt beam="1">  1        3 0.69530291E-01 0.13534106E+03</pdfrwt>
<pdfrwt beam="2">  1       -3 0.52783140E-02 0.13534106E+03</pdfrwt>
<totfact> 0.97444568E+02</totfact>
</mgrwt>
</event>
<event>
 6    1  0.7270761E-006  0.1655039E+03  0.7546771E-02  0.1189263E+00
          1   -1    0    0  501    0  0.00000000000E+00  0.00000000000E+00  0.90073617425E+02  0.90073617425E+02  0.00000000000E+00 0. -1.
         -1   -1    0    0    0  501 -0.00000000000E+00 -0.00000000000E+00 -0.27454690736E+03  0.27454690736E+03  0.00000000000E+00 0.  1.
          5    1    1    2  502    0 -0.44314387857E+02  0.51860824006E+02 -0.15092513101E+03  0.16569186827E+03  0.47000000000E+01 0. -1.
         -5    1    1    2    0  502 -0.42935709065E+02  0.12574695021E+02  0.16098163563E+02  0.47779063803E+02  0.47000000000E+01 0. -1.
        -11    1    1    2    0    0  0.15828000168E+02 -0.21472992054E+02 -0.61430581427E+02  0.66972616132E+02  0.00000000000E+00 0.  1.
         11    1    1    2    0    0  0.71422096754E+02 -0.42962526973E+02  0.11784258942E+02  0.84176976588E+02  0.00000000000E+00 0. -1.
<mgrwt>
<rscale>  0 0.15949992E+03</rscale>
<asrwt>0</asrwt>
<pdfrwt beam="1">  1        1 0.13857480E-01 0.16550386E+03</pdfrwt>
<pdfrwt beam="2">  1       -1 0.42237985E-01 0.16550386E+03</pdfrwt>
<totfact> 0.22685222E+03</totfact>
</mgrwt>
</event>
<event>
 6    1  0.7270761E-006  0.3176200E+03  0.7546771E-02  0.1076750E+00
         -2   -1    0    0    0  501 -0.00000000000E+00  0.00000000000E+00  0.28630092971E+02  0.28630092971E+02  0.00000000000E+00 0.  1.
          2   -1    0    0  501    0  0.00000000000E+00 -0.00000000000E+00 -0.88091305879E+03  0.88091305879E+03  0.00000000000E+00 0. -1.
          5    1    1    2  502    0 -0.84658410307E+01 -0.20684934914E+01  0.46256265771E+01  0.10928657324E+02  0.47000000000E+01 0. -1.
         -5    1    1    2    0  502 -0.42893085154E+02  0.10132369596E+03 -0.50233142055E+03  0.51426185372E+03  0.47000000000E+01 0. -1.
        -11    1    1    2    0    0  0.10667596520E+02 -0.10101251022E+03 -0.29650995877E+03  0.31342539860E+03  0.00000000000E+00 0. -1.
         11    1    1    2    0    0  0.40691329664E+02  0.17573077455E+01 -0.58067213069E+02  0.70927242114E+02  0.00000000000E+00 0.  1.
<mgrwt>
<rscale>  0 0.31762004E+03</rscale>
<asrwt>0</asrwt>
<pdfrwt beam="2">  1        2 0.13552506E+00 0.31762004E+03</pdfrwt>
<pdfrwt beam="1">  1       -2 0.44046307E-02 0.31762004E+03</pdfrwt>
<totfact> 0.74434316E+03</totfact>
</mgrwt>
</event>
<event>
 6    1  0.7270761E-006  0.1701110E+03  0.7546771E-02  0.1183868E+00
         -2   -1    0    0    0  501 -0.00000000000E+00  0.00000000000E+00  0.51240761850E+02  0.51240761850E+02  0.00000000000E+00 0.  1.
          2   -1    0    0  501    0  0.00000000000E+00 -0.00000000000E+00 -0.51268561912E+03  0.51268561912E+03  0.00000000000E+00 0. -1.
          5    1    1    2  502    0 -0.78454702225E+02  0.41334510491E+00 -0.19425341490E+03  0.20955140265E+03  0.47000000000E+01 0. -1.
         -5    1    1    2    0  502 -0.31119117428E+02  0.35752770622E+02  0.13416440691E+01  0.47650289458E+02  0.47000000000E+01 0. -1.
        -11    1    1    2    0    0  0.90732628832E+02 -0.59206406628E+02 -0.15336462219E+03  0.18777251093E+03  0.00000000000E+00 0.  1.
         11    1    1    2    0    0  0.18841190820E+02  0.23040290901E+02 -0.11516846425E+03  0.11895217793E+03  0.00000000000E+00 0. -1.
<mgrwt>
<rscale>  0 0.16435319E+03</rscale>
<asrwt>0</asrwt>
<pdfrwt beam="2">  1        2 0.78874709E-01 0.17011102E+03</pdfrwt>
<pdfrwt beam="1">  1       -2 0.78831943E-02 0.17011102E+03</pdfrwt>
<totfact> 0.57012198E+03</totfact>
</mgrwt>
</event>
<event>
 6    1  0.7270761E-006  0.1585024E+03  0.7546771E-02  0.1198632E+00
         -2   -1    0    0    0  501 -0.00000000000E+00  0.00000000000E+00  0.45493967993E+02  0.45493967993E+02  0.00000000000E+00 0. -1.
          2   -1    0    0  501    0  0.00000000000E+00 -0.00000000000E+00 -0.51908721907E+03  0.51908721907E+03  0.00000000000E+00 0.  1.
          5    1    1    2  502    0 -0.20953513320E+02  0.41142872459E+02 -0.17751862983E+02  0.49689076405E+02  0.47000000000E+01 0. -1.
         -5    1    1    2    0  502  0.10080838941E+03  0.14707948703E+02 -0.14716076831E+03  0.17904479009E+03  0.47000000000E+01 0. -1.
        -11    1    1    2    0    0 -0.20165545349E+02 -0.47536493781E+02 -0.56397785344E+02  0.76466186330E+02  0.00000000000E+00 0.  1.
         11    1    1    2    0    0 -0.59689330738E+02 -0.83143273809E+01 -0.25228283444E+03  0.25938113424E+03  0.00000000000E+00 0. -1.
<mgrwt>
<rscale>  0 0.15150839E+03</rscale>
<asrwt>0</asrwt>
<pdfrwt beam="2">  1        2 0.79859574E-01 0.15850238E+03</pdfrwt>
<pdfrwt beam="1">  1       -2 0.69990719E-02 0.15850238E+03</pdfrwt>
<totfact> 0.67319957E+03</totfact>
</mgrwt>
</event>
<event>
 6    1  0.7270761E-006  0.1212983E+03  0.7546771E-02  0.1252121E+00
         -2   -1    0    0    0  501 -0.00000000000E+00  0.00000000000E+00  0.22779324700E+03  0.22779324700E+03  0.00000000000E+00 0.  1.
          2   -1    0    0  501    0  0.00000000000E+00 -0.00000000000E+00 -0.10705202532E+03  0.10705202532E+03  0.00000000000E+00 0. -1.
          5    1    1    2  502    0  0.60509840618E+02 -0.10113061778E+02  0.41707788635E+02  0.74332660809E+02  0.47000000000E+01 0. -1.
         -5    1    1    2    0  502 -0.25469168804E+02  0.21252455999E+02  0.14134652024E+03  0.14526277648E+03  0.47000000000E+01 0.  1.
        -11    1    1    2    0    0 -0.84214357382E+01  0.25860303898E+02  0.10659822459E+02  0.29211431195E+02  0.00000000000E+00 0.  1.
         11    1    1    2    0    0 -0.26619236076E+02 -0.36999698119E+02 -0.72972909657E+02  0.86038403832E+02  0.00000000000E+00 0. -1.
<mgrwt>
<rscale>  0 0.11469110E+03</rscale>
<asrwt>0</asrwt>
<pdfrwt beam="2">  1        2 0.16469542E-01 0.12129829E+03</pdfrwt>
<pdfrwt beam="1">  1       -2 0.35045115E-01 0.12129829E+03</pdfrwt>
<totfact> 0.25635371E+03</totfact>
</mgrwt>
</event>
<event>
 6    1  0.7270761E-006  0.1261707E+03  0.7546771E-02  0.1248922E+00
          2   -1    0    0  501    0  0.00000000000E+00  0.00000000000E+00  0.23275277883E+03  0.23275277883E+03  0.00000000000E+00 0.  1.
         -2   -1    0    0    0  501 -0.00000000000E+00 -0.00000000000E+00 -0.51603638136E+02  0.51603638136E+02  0.00000000000E+00 0. -1.
          5    1    1    2  502    0 -0.22854619932E+02  0.59109180916E+02  0.26007313586E+02  0.68663667837E+02  0.47000000000E+01 0. -1.
         -5    1    1    2    0  502  0.55133291706E+01 -0.57453294390E+02  0.64072327862E+02  0.86363366264E+02  0.47000000000E+01 0. -1.
        -11    1    1    2    0    0 -0.30413463774E+02  0.22955449449E+02  0.37603895865E+02  0.53534889767E+02  0.00000000000E+00 0. -1.
         11    1    1    2    0    0  0.47754754536E+02 -0.24611335975E+02  0.53465603385E+02  0.75794493102E+02  0.00000000000E+00 0.  1.
<mgrwt>
<rscale>  0 0.11653676E+03</rscale>
<asrwt>0</asrwt>
<pdfrwt beam="1">  1        2 0.35808119E-01 0.12617068E+03</pdfrwt>
<pdfrwt beam="2">  1       -2 0.79390214E-02 0.12617068E+03</pdfrwt>
<totfact> 0.12889186E+04</totfact>
</mgrwt>
</event>
<event>
 6    1  0.7270761E-006  0.1401257E+03  0.7546771E-02  0.1226680E+00
         -1   -1    0    0    0  501 -0.00000000000E+00  0.00000000000E+00  0.56423875461E+02  0.56423875461E+02  0.00000000000E+00 0.  1.
          1   -1    0    0  501    0  0.00000000000E+00 -0.00000000000E+00 -0.42741793376E+03  0.42741793376E+03  0.00000000000E+00 0. -1.
          5    1    1    2  502    0  0.49649884466E+02  0.40380981700E+01 -0.10284810969E+02  0.51081157006E+02  0.47000000000E+01 0. -1.
         -5    1    1    2    0  502 -0.76949275220E+02  0.44191024954E+02 -0.44421934996E+02  0.99345034864E+02  0.47000000000E+01 0.  1.
        -11    1    1    2    0    0 -0.27038938589E+01  0.15108708001E+02 -0.80905083038E+01  0.17350516536E+02  0.00000000000E+00 0.  1.
         11    1    1    2    0    0  0.30003284612E+02 -0.63337831125E+02 -0.30819680403E+03  0.31606510081E+03  0.00000000000E+00 0. -1.
<mgrwt>
<rscale>  0 0.13052449E+03</rscale>
<asrwt>0</asrwt>
<pdfrwt beam="2">  1        1 0.65756604E-01 0.14012570E+03</pdfrwt>
<pdfrwt beam="1">  1       -1 0.86805964E-02 0.14012570E+03</pdfrwt>
<totfact> 0.40831018E+03</totfact>
</mgrwt>
</event>
<event>
 6    1  0.7270761E-006  0.1350065E+03  0.7546771E-02  0.1232373E+00
         -1   -1    0    0    0  501 -0.00000000000E+00  0.00000000000E+00  0.17877067249E+03  0.17877067249E+03  0.00000000000E+00 0.  1.
          1   -1    0    0  501    0  0.00000000000E+00 -0.00000000000E+00 -0.82409959696E+02  0.82409959696E+02  0.00000000000E+00 0. -1.
          5    1    1    2  502    0 -0.37923497950E+02 -0.65549123137E+02  0.87481988810E+02  0.11580184630E+03  0.47000000000E+01 0.  1.
         -5    1    1    2    0  502  0.32124409362E+02  0.14877844820E+02 -0.13460522983E+02  0.38165476839E+02  0.47000000000E+01 0.  1.
        -11    1    1    2    0    0  0.19552875892E+02  0.89372259862E+01 -0.31238027417E+02  0.37921014239E+02  0.00000000000E+00 0. -1.
         11    1    1    2    0    0 -0.13753787304E+02  0.41734052330E+02  0.53577274381E+02  0.69292294804E+02  0.00000000000E+00 0.  1.
<mgrwt>
<rscale>  0 0.12674145E+03</rscale>
<asrwt>0</asrwt>
<pdfrwt beam="2">  1        1 0.12678455E-01 0.13500652E+03</pdfrwt>
<pdfrwt beam="1">  1       -1 0.27503180E-01 0.13500652E+03</pdfrwt>
<totfact> 0.52626710E+03</totfact>
</mgrwt>
</event>
<event>
 6    1  0.7270761E-006  0.4116236E+03  0.7546771E-02  0.1039828E+00
         -2   -1    0    0    0  501 -0.00000000000E+00  0.00000000000E+00  0.45886335675E+02  0.45886335675E+02  0.00000000000E+00 0.  1.
          2   -1    0    0  501    0  0.00000000000E+00 -0.00000000000E+00 -0.92311808500E+03  0.92311808500E+03  0.00000000000E+00 0. -1.
          5    1    1    2  502    0  0.37777905626E+02  0.39507628404E+02 -0.83953776756E+02  0.10029132309E+03  0.47000000000E+01 0.  1.
         -5    1    1    2    0  502 -0.95085600600E+02  0.12534905362E+03 -0.35592573369E+03  0.38917717634E+03  0.47000000000E+01 0.  1.
        -11    1    1    2    0    0  0.17063090292E+02 -0.97772131856E+02 -0.13706485630E+03  0.16922562941E+03  0.00000000000E+00 0.  1.
         11    1    1    2    0    0  0.40244604682E+02 -0.67084550168E+02 -0.30028738259E+03  0.31031029184E+03  0.00000000000E+00 0. -1.
<mgrwt>
<rscale>  0 0.41162365E+03</rscale>
<asrwt>0</asrwt>
<pdfrwt beam="2">  1        2 0.14201817E+00 0.41162365E+03</pdfrwt>
<pdfrwt beam="1">  1       -2 0.70594363E-02 0.41162365E+03</pdfrwt>
<totfact> 0.33905195E+03</totfact>
</mgrwt>
</event>
<event>
 6    1  0.7270761E-006  0.1277818E+03  0.7546771E-02  0.1245588E+00
         -4   -1    0    0    0  501 -0.00000000000E+00  0.00000000000E+00  0.13916574885E+03  0.13916574885E+03  0.00000000000E+00 0. -1.
          4   -1    0    0  501    0  0.00000000000E+00 -0.00000000000E+00 -0.13495847404E+03  0.13495847404E+03  0.00000000000E+00 0.  1.
          5    1    1    2  502    0  0.26588089383E+02 -0.33330292663E+02  0.92955670466E+02  0.10237520001E+03  0.47000000000E+01 0. -1.
         -5    1    1    2    0  502 -0.42918449430E+01  0.47723868909E+02 -0.11056789068E+02  0.49399698188E+02  0.47000000000E+01 0. -1.
        -11    1    1    2    0    0  0.28433286167E+02  0.96281475601E+01 -0.53250809047E+02  0.61129384520E+02  0.00000000000E+00 0.  1.
         11    1    1    2    0    0 -0.50729530606E+02 -0.24021723805E+02 -0.24440797535E+02  0.61219940169E+02  0.00000000000E+00 0. -1.
<mgrwt>
<rscale>  0 0.11850283E+03</rscale>
<asrwt>0</asrwt>
<pdfrwt beam="2">  1        4 0.20762842E-01 0.12778182E+03</pdfrwt>
<pdfrwt beam="1">  1       -4 0.21410115E-01 0.12778182E+03</pdfrwt>
<totfact> 0.68683399E+02</totfact>
</mgrwt>
</event>
<event>
 6    1  0.1136488E-005  0.2024222E+03  0.7546771E-02  0.1151927E+00
         -1   -1    0    0    0  501 -0.00000000000E+00  0.00000000000E+00  0.13565591415E+03  0.13565591415E+03  0.00000000000E+00 0.  1.
          1   -1    0    0  501    0  0.00000000000E+00 -0.00000000000E+00 -0.30442505867E+03  0.30442505867E+03  0.00000000000E+00 0. -1.
          5    1    1    2  502    0  0.10341915783E+03  0.29959571936E+02  0.33533652576E+02  0.11287025300E+03  0.47000000000E+01 0. -1.
         -5    1    1    2    0  502  0.54602367129E+02 -0.49424121275E+02 -0.52234431980E+02  0.90413982017E+02  0.47000000000E+01 0. -1.
        -11    1    1    2    0    0 -0.11862053193E+03  0.33804554381E+02 -0.15085369589E+03  0.19485999090E+03  0.00000000000E+00 0. -1.
         11    1    1    2    0    0 -0.39400993028E+02 -0.14340005042E+02  0.78533077657E+00  0.41936746901E+02  0.00000000000E+00 0.  1.
<mgrwt>
<rscale>  0 0.19742800E+03</rscale>
<asrwt>0</asrwt>
<pdfrwt beam="2">  1        1 0.46834624E-01 0.20242223E+03</pdfrwt>
<pdfrwt beam="1">  1       -1 0.20870141E-01 0.20242223E+03</pdfrwt>
<totfact> 0.16055319E+03</totfact>
</mgrwt>
</event>
<event>
 6    1  0.7270761E-006  0.1320144E+03  0.7546771E-02  0.1237762E+00
          1   -1    0    0  501    0  0.00000000000E+00  0.00000000000E+00  0.80838747317E+02  0.80838747317E+02  0.00000000000E+00 0. -1.
         -1   -1    0    0    0  501 -0.00000000000E+00 -0.00000000000E+00 -0.17691935447E+03  0.17691935447E+03  0.00000000000E+00 0.  1.
          5    1    1    2  502    0 -0.56391440988E+02 -0.32754964216E+02 -0.74236782344E+02  0.98924578090E+02  0.47000000000E+01 0.  1.
         -5    1    1    2    0  502  0.55796814495E+02 -0.96895159298E+01 -0.10066050146E+02  0.57711234541E+02  0.47000000000E+01 0.  1.
        -11    1    1    2    0    0  0.14754533556E+02  0.45794176286E+01  0.35620110861E+02  0.38826017360E+02  0.00000000000E+00 0. -1.
         11    1    1    2    0    0 -0.14159907063E+02  0.37865062517E+02 -0.47397885525E+02  0.62296271796E+02  0.00000000000E+00 0.  1.
<mgrwt>
<rscale>  0 0.12329240E+03</rscale>
<asrwt>0</asrwt>
<pdfrwt beam="1">  1        1 0.12436730E-01 0.13201443E+03</pdfrwt>
<pdfrwt beam="2">  1       -1 0.27218362E-01 0.13201443E+03</pdfrwt>
<totfact> 0.54828230E+03</totfact>
</mgrwt>
</event>
<event>
 6    1  0.7270761E-006  0.4290261E+03  0.7546771E-02  0.1034168E+00
         -2   -1    0    0    0  501 -0.00000000000E+00  0.00000000000E+00  0.68097086686E+03  0.68097086686E+03  0.00000000000E+00 0.  1.
          2   -1    0    0  501    0  0.00000000000E+00 -0.00000000000E+00 -0.67573885776E+02  0.67573885776E+02  0.00000000000E+00 0. -1.
          5    1    1    2  502    0 -0.18428821384E+02  0.10247716311E+03  0.59373272486E+03  0.60281160323E+03  0.47000000000E+01 0. -1.
         -5    1    1    2    0  502 -0.47080939751E+01 -0.76621561514E+01 -0.15248657835E+01  0.10261091629E+02  0.47000000000E+01 0. -1.
        -11    1    1    2    0    0  0.52989488706E+02 -0.56521309427E+02 -0.94622453684E+01  0.78051767566E+02  0.00000000000E+00 0. -1.
         11    1    1    2    0    0 -0.29852573347E+02 -0.38293697531E+02  0.30651367372E+02  0.57420290210E+02  0.00000000000E+00 0.  1.
<mgrwt>
<rscale>  0 0.42902610E+03</rscale>
<asrwt>0</asrwt>
<pdfrwt beam="2">  1        2 0.10395983E-01 0.42902610E+03</pdfrwt>
<pdfrwt beam="1">  1       -2 0.10476474E+00 0.42902610E+03</pdfrwt>
<totfact> 0.47168286E+02</totfact>
</mgrwt>
</event>
<event>
 6    1  0.7270761E-006  0.1384507E+03  0.7546771E-02  0.1226608E+00
          2   -1    0    0  501    0  0.00000000000E+00  0.00000000000E+00  0.48976413991E+02  0.48976413991E+02  0.00000000000E+00 0. -1.
         -2   -1    0    0    0  501 -0.00000000000E+00 -0.00000000000E+00 -0.31757354903E+03  0.31757354903E+03  0.00000000000E+00 0.  1.
          5    1    1    2  502    0  0.15249808450E+02 -0.15899670687E+02  0.93498828994E+01  0.24389885116E+02  0.47000000000E+01 0.  1.
         -5    1    1    2    0  502 -0.11992386534E+02  0.75313672056E+02 -0.17871747358E+03  0.19436561397E+03  0.47000000000E+01 0.  1.
        -11    1    1    2    0    0  0.25718546006E+02  0.99435622886E+01 -0.63251055931E+01  0.28290015914E+02  0.00000000000E+00 0.  1.
         11    1    1    2    0    0 -0.28975967922E+02 -0.69357563657E+02 -0.92904438766E+02  0.11950444802E+03  0.00000000000E+00 0. -1.
<mgrwt>
<rscale>  0 0.13057319E+03</rscale>
<asrwt>0</asrwt>
<pdfrwt beam="1">  1        2 0.75348328E-02 0.13845067E+03</pdfrwt>
<pdfrwt beam="2">  1       -2 0.48857470E-01 0.13845067E+03</pdfrwt>
<totfact> 0.35354175E+03</totfact>
</mgrwt>
</event>
<event>
 6    1  0.7270761E-006  0.3274901E+03  0.7546771E-02  0.1072253E+00
         -1   -1    0    0    0  501 -0.00000000000E+00  0.00000000000E+00  0.31464322415E+02  0.31464322415E+02  0.00000000000E+00 0.  1.
          1   -1    0    0  501    0  0.00000000000E+00 -0.00000000000E+00 -0.85215402733E+03  0.85215402733E+03  0.00000000000E+00 0. -1.
          5    1    1    2  502    0 -0.65704973598E+02 -0.11970686705E+03 -0.25841323739E+03  0.29231210860E+03  0.47000000000E+01 0. -1.
         -5    1    1    2    0  502  0.33986954912E+02  0.10560953872E+02 -0.86339237372E+02  0.93505084144E+02  0.47000000000E+01 0.  1.
        -11    1    1    2    0    0  0.54785998447E+02  0.29357235373E+02 -0.17998207628E+03  0.19041244885E+03  0.00000000000E+00 0.  1.
         11    1    1    2    0    0 -0.23067979761E+02  0.79788677808E+02 -0.29595515388E+03  0.30738870816E+03  0.00000000000E+00 0. -1.
<mgrwt>
<rscale>  0 0.32749015E+03</rscale>
<asrwt>0</asrwt>
<pdfrwt beam="2">  1        1 0.13110060E+00 0.32749015E+03</pdfrwt>
<pdfrwt beam="1">  1       -1 0.48406655E-02 0.32749015E+03</pdfrwt>
<totfact> 0.38642540E+03</totfact>
</mgrwt>
</event>
<event>
 6    1  0.7270761E-006  0.1281493E+03  0.7546771E-02  0.1247275E+00
          3   -1    0    0  501    0  0.00000000000E+00  0.00000000000E+00  0.13260991019E+03  0.13260991019E+03  0.00000000000E+00 0. -1.
         -3   -1    0    0    0  501 -0.00000000000E+00 -0.00000000000E+00 -0.90296392686E+02  0.90296392686E+02  0.00000000000E+00 0.  1.
          5    1    1    2  502    0 -0.15108402313E+02  0.30029824656E+02 -0.47662977860E+02  0.58514132035E+02  0.47000000000E+01 0. -1.
         -5    1    1    2    0  502 -0.93585444247E+01 -0.15930133370E+02  0.68767803533E+02  0.71361420289E+02  0.47000000000E+01 0. -1.
        -11    1    1    2    0    0 -0.32241628167E+02 -0.78821416964E+01  0.11714402724E+02  0.35197698444E+02  0.00000000000E+00 0.  1.
         11    1    1    2    0    0  0.56708574905E+02 -0.62175495898E+01  0.94942891093E+01  0.57833052110E+02  0.00000000000E+00 0. -1.
<mgrwt>
<rscale>  0 0.11750232E+03</rscale>
<asrwt>0</asrwt>
<pdfrwt beam="1">  1        3 0.20401525E-01 0.12814931E+03</pdfrwt>
<pdfrwt beam="2">  1       -3 0.13891753E-01 0.12814931E+03</pdfrwt>
<totfact> 0.20811599E+03</totfact>
</mgrwt>
</event>
<event>
 6    1  0.1068526E-005  0.3296915E+03  0.7546771E-02  0.1071273E+00
         -2   -1    0    0    0  501 -0.00000000000E+00  0.00000000000E+00  0.69751609953E+02  0.69751609953E+02  0.00000000000E+00 0.  1.
          2   -1    0    0  501    0  0.00000000000E+00 -0.00000000000E+00 -0.38958422441E+03  0.38958422441E+03  0.00000000000E+00 0. -1.
          5    1    1    2  502    0  0.12143890499E+03  0.35466645363E+02 -0.46311052692E+02  0.13480391011E+03  0.47000000000E+01 0.  1.
         -5    1    1    2    0  502 -0.99186755119E+01  0.45495715718E+01 -0.74818967528E+02  0.75756495612E+02  0.47000000000E+01 0.  1.
        -11    1    1    2    0    0 -0.32526273294E+02  0.63427677729E+01 -0.37142622870E+01  0.33346437617E+02  0.00000000000E+00 0.  1.
         11    1    1    2    0    0 -0.78993956188E+02 -0.46358984708E+02 -0.19498833195E+03  0.21542899102E+03  0.00000000000E+00 0. -1.
<mgrwt>
<rscale>  0 0.32969153E+03</rscale>
<asrwt>0</asrwt>
<pdfrwt beam="2">  1        2 0.59936035E-01 0.32969153E+03</pdfrwt>
<pdfrwt beam="1">  1       -2 0.10731017E-01 0.32969153E+03</pdfrwt>
<totfact> 0.48770042E+03</totfact>
</mgrwt>
</event>
<event>
 6    1  0.7270761E-006  0.1251596E+03  0.7546771E-02  0.1249334E+00
          1   -1    0    0  501    0  0.00000000000E+00  0.00000000000E+00  0.51849524208E+02  0.51849524208E+02  0.00000000000E+00 0. -1.
         -1   -1    0    0    0  501 -0.00000000000E+00 -0.00000000000E+00 -0.23036457264E+03  0.23036457264E+03  0.00000000000E+00 0.  1.
          5    1    1    2  502    0  0.41151746596E+02  0.30425004747E+02 -0.10286159416E+03  0.11498584571E+03  0.47000000000E+01 0. -1.
         -5    1    1    2    0  502 -0.42795216066E+02 -0.24332393544E+02 -0.40476181628E+01  0.49618233609E+02  0.47000000000E+01 0. -1.
        -11    1    1    2    0    0  0.16787775459E+02  0.34219935200E+02 -0.63093962989E+02  0.73713509858E+02  0.00000000000E+00 0.  1.
         11    1    1    2    0    0 -0.15144305990E+02 -0.40312546404E+02 -0.85118731248E+01  0.43896507669E+02  0.00000000000E+00 0. -1.
<mgrwt>
<rscale>  0 0.11629672E+03</rscale>
<asrwt>0</asrwt>
<pdfrwt beam="1">  1        1 0.79768500E-02 0.12515959E+03</pdfrwt>
<pdfrwt beam="2">  1       -1 0.35440703E-01 0.12515959E+03</pdfrwt>
<totfact> 0.63004670E+03</totfact>
</mgrwt>
</event>
<event>
 6    1  0.7270761E-006  0.1314969E+03  0.7546771E-02  0.1239325E+00
          2   -1    0    0  501    0  0.00000000000E+00  0.00000000000E+00  0.75500925551E+02  0.75500925551E+02  0.00000000000E+00 0. -1.
         -2   -1    0    0    0  501 -0.00000000000E+00 -0.00000000000E+00 -0.19048832574E+03  0.19048832574E+03  0.00000000000E+00 0.  1.
          5    1    1    2  502    0 -0.20860008588E+02  0.30828093320E+02  0.42612469856E+01  0.37759230949E+02  0.47000000000E+01 0. -1.
         -5    1    1    2    0  502  0.50760568572E+02 -0.51306874256E+02 -0.10682381776E+03  0.12900561503E+03  0.47000000000E+01 0.  1.
        -11    1    1    2    0    0  0.10666341157E+02  0.26986954954E+02 -0.40237822517E+02  0.49609968073E+02  0.00000000000E+00 0.  1.
         11    1    1    2    0    0 -0.40566901140E+02 -0.65081740176E+01  0.27812993104E+02  0.49614437240E+02  0.00000000000E+00 0. -1.
<mgrwt>
<rscale>  0 0.12231601E+03</rscale>
<asrwt>0</asrwt>
<pdfrwt beam="1">  1        2 0.11615527E-01 0.13149689E+03</pdfrwt>
<pdfrwt beam="2">  1       -2 0.29305896E-01 0.13149689E+03</pdfrwt>
<totfact> 0.53823709E+03</totfact>
</mgrwt>
</event>
<event>
 6    1  0.7270761E-006  0.1336067E+03  0.7546771E-02  0.1238823E+00
          1   -1    0    0  501    0  0.00000000000E+00  0.00000000000E+00  0.81236653299E+03  0.81236653299E+03  0.00000000000E+00 0. -1.
         -1   -1    0    0    0  501 -0.00000000000E+00 -0.00000000000E+00 -0.16331507232E+02  0.16331507232E+02  0.00000000000E+00 0.  1.
          5    1    1    2  502    0 -0.25282620870E+02  0.50938196442E+02  0.69688629733E+02  0.90069450364E+02  0.47000000000E+01 0. -1.
         -5    1    1    2    0  502 -0.10248337156E+02 -0.19903247117E+02  0.34183545822E+03  0.34259996812E+03  0.47000000000E+01 0. -1.
        -11    1    1    2    0    0  0.33909828034E+01 -0.49230073061E+02  0.29656405474E+03  0.30064154307E+03  0.00000000000E+00 0.  1.
         11    1    1    2    0    0  0.32139975223E+02  0.18195123736E+02  0.87946883070E+02  0.95387078668E+02  0.00000000000E+00 0. -1.
<mgrwt>
<rscale>  0 0.12262844E+03</rscale>
<asrwt>0</asrwt>
<pdfrwt beam="1">  1        1 0.12497944E+00 0.13360670E+03</pdfrwt>
<pdfrwt beam="2">  1       -1 0.25125402E-02 0.13360670E+03</pdfrwt>
<totfact> 0.10573986E+04</totfact>
</mgrwt>
</event>
<event>
 6    1  0.7270761E-006  0.1789376E+03  0.7546771E-02  0.1174498E+00
          2   -1    0    0  501    0  0.00000000000E+00  0.00000000000E+00  0.42139521118E+03  0.42139521118E+03  0.00000000000E+00 0.  1.
         -2   -1    0    0    0  501 -0.00000000000E+00 -0.00000000000E+00 -0.89345918771E+02  0.89345918771E+02  0.00000000000E+00 0. -1.
          5    1    1    2  502    0 -0.36230307580E+02  0.98901891377E+02  0.71375952045E+02  0.12732178068E+03  0.47000000000E+01 0. -1.
         -5    1    1    2    0  502  0.43008147075E+02  0.28957075785E+02 -0.24671426929E+02  0.57610608915E+02  0.47000000000E+01 0. -1.
        -11    1    1    2    0    0  0.32286551976E+02 -0.89760917424E+02  0.22536530454E+03  0.24472221850E+03  0.00000000000E+00 0.  1.
         11    1    1    2    0    0 -0.39064391472E+02 -0.38098049737E+02  0.59979462747E+02  0.81086521854E+02  0.00000000000E+00 0. -1.
<mgrwt>
<rscale>  0 0.17325214E+03</rscale>
<asrwt>0</asrwt>
<pdfrwt beam="1">  1        2 0.64830031E-01 0.17893763E+03</pdfrwt>
<pdfrwt beam="2">  1       -2 0.13745526E-01 0.17893763E+03</pdfrwt>
<totfact> 0.29311826E+03</totfact>
</mgrwt>
</event>
<event>
 6    1  0.7270761E-006  0.1355530E+03  0.7546771E-02  0.1228585E+00
          1   -1    0    0  501    0  0.00000000000E+00  0.00000000000E+00  0.41996935814E+03  0.41996935814E+03  0.00000000000E+00 0. -1.
         -1   -1    0    0    0  501 -0.00000000000E+00 -0.00000000000E+00 -0.36908882494E+02  0.36908882494E+02  0.00000000000E+00 0.  1.
          5    1    1    2  502    0 -0.17905890764E+02  0.39063230795E+02  0.23498599513E+03  0.23892899537E+03  0.47000000000E+01 0. -1.
         -5    1    1    2    0  502  0.28466363092E+02  0.12324762191E+02 -0.11065429949E+01  0.31393439253E+02  0.47000000000E+01 0. -1.
        -11    1    1    2    0    0  0.33929075878E+01 -0.20011701675E+02 -0.10757976788E+02  0.22972028434E+02  0.00000000000E+00 0.  1.
         11    1    1    2    0    0 -0.13953379916E+02 -0.31376291311E+02  0.15993900030E+03  0.16358377757E+03  0.00000000000E+00 0. -1.
<mgrwt>
<rscale>  0 0.12924213E+03</rscale>
<asrwt>0</asrwt>
<pdfrwt beam="1">  1        1 0.64610667E-01 0.13555302E+03</pdfrwt>
<pdfrwt beam="2">  1       -1 0.56782899E-02 0.13555302E+03</pdfrwt>
<totfact> 0.78786021E+03</totfact>
</mgrwt>
</event>
<event>
 6    1  0.7270761E-006  0.2921106E+03  0.7546771E-02  0.1090854E+00
          4   -1    0    0  501    0  0.00000000000E+00  0.00000000000E+00  0.14393230730E+03  0.14393230730E+03  0.00000000000E+00 0. -1.
         -4   -1    0    0    0  501 -0.00000000000E+00 -0.00000000000E+00 -0.57086929148E+03  0.57086929148E+03  0.00000000000E+00 0.  1.
          5    1    1    2  502    0 -0.16381332991E+03  0.49853370983E+02 -0.22029009873E+03  0.27905193647E+03  0.47000000000E+01 0.  1.
         -5    1    1    2    0  502 -0.96908005405E+02 -0.88013394602E+01 -0.20604048722E+02  0.99575307740E+02  0.47000000000E+01 0.  1.
        -11    1    1    2    0    0  0.42792761949E+02 -0.16233044561E+02 -0.80874867913E+02  0.92927264411E+02  0.00000000000E+00 0.  1.
         11    1    1    2    0    0  0.21792857336E+03 -0.24818986962E+02 -0.10516796882E+03  0.24324709015E+03  0.00000000000E+00 0. -1.
<mgrwt>
<rscale>  0 0.28903528E+03</rscale>
<asrwt>0</asrwt>
<pdfrwt beam="1">  1        4 0.22143432E-01 0.29211060E+03</pdfrwt>
<pdfrwt beam="2">  1       -4 0.87826044E-01 0.29211060E+03</pdfrwt>
<totfact> 0.39907073E+01</totfact>
</mgrwt>
</event>
<event>
 6    1  0.7270761E-006  0.1464096E+03  0.7546771E-02  0.1213983E+00
         -1   -1    0    0    0  501 -0.00000000000E+00  0.00000000000E+00  0.37407134753E+03  0.37407134753E+03  0.00000000000E+00 0.  1.
          1   -1    0    0  501    0  0.00000000000E+00 -0.00000000000E+00 -0.47696614336E+02  0.47696614336E+02  0.00000000000E+00 0. -1.
          5    1    1    2  502    0 -0.27852152279E+02  0.58688357058E+02  0.72262865890E+02  0.97283490004E+02  0.47000000000E+01 0.  1.
         -5    1    1    2    0  502 -0.48129826768E+02 -0.65042257927E+02  0.10412131227E+03  0.13194814591E+03  0.47000000000E+01 0.  1.
        -11    1    1    2    0    0  0.31010434662E+01  0.19370688770E+02 -0.54543264896E+01  0.20361476653E+02  0.00000000000E+00 0. -1.
         11    1    1    2    0    0  0.72880935581E+02 -0.13016787901E+02  0.15544488153E+03  0.17217484930E+03  0.00000000000E+00 0.  1.
<mgrwt>
<rscale>  0 0.13951503E+03</rscale>
<asrwt>0</asrwt>
<pdfrwt beam="2">  1        1 0.73379409E-02 0.14640958E+03</pdfrwt>
<pdfrwt beam="1">  1       -1 0.57549436E-01 0.14640958E+03</pdfrwt>
<totfact> 0.29844671E+03</totfact>
</mgrwt>
</event>
<event>
 6    1  0.7270761E-006  0.1490310E+03  0.7546771E-02  0.1210817E+00
         -2   -1    0    0    0  501 -0.00000000000E+00  0.00000000000E+00  0.24131934086E+03  0.24131934086E+03  0.00000000000E+00 0.  1.
          2   -1    0    0  501    0  0.00000000000E+00 -0.00000000000E+00 -0.76344987025E+02  0.76344987025E+02  0.00000000000E+00 0. -1.
          5    1    1    2  502    0 -0.22813468042E+02  0.73860437672E+02  0.29250930864E+02  0.82786022574E+02  0.47000000000E+01 0. -1.
         -5    1    1    2    0  502  0.67784306865E+02 -0.63119690529E+01  0.60409748055E+02  0.91137154171E+02  0.47000000000E+01 0. -1.
        -11    1    1    2    0    0 -0.61296812119E+02 -0.10851944683E+02  0.28692611042E+02  0.68544363793E+02  0.00000000000E+00 0. -1.
         11    1    1    2    0    0  0.16325973297E+02 -0.56696523936E+02  0.46621063873E+02  0.75196787346E+02  0.00000000000E+00 0.  1.
<mgrwt>
<rscale>  0 0.14188299E+03</rscale>
<asrwt>0</asrwt>
<pdfrwt beam="2">  1        2 0.11745383E-01 0.14903098E+03</pdfrwt>
<pdfrwt beam="1">  1       -2 0.37126052E-01 0.14903098E+03</pdfrwt>
<totfact> 0.34735605E+03</totfact>
</mgrwt>
</event>
<event>
 6    1  0.7270761E-006  0.1310784E+03  0.7546771E-02  0.1238806E+00
          1   -1    0    0  501    0  0.00000000000E+00  0.00000000000E+00  0.11923195646E+03  0.11923195646E+03  0.00000000000E+00 0. -1.
         -1   -1    0    0    0  501 -0.00000000000E+00 -0.00000000000E+00 -0.14172520521E+03  0.14172520521E+03  0.00000000000E+00 0.  1.
          5    1    1    2  502    0 -0.79600979528E-01 -0.40454362717E+02  0.34361268951E+01  0.40871246215E+02  0.47000000000E+01 0.  1.
         -5    1    1    2    0  502 -0.15596376807E+02  0.76708626993E+02 -0.74810533138E+02  0.10837973193E+03  0.47000000000E+01 0.  1.
        -11    1    1    2    0    0  0.25624465932E+01  0.30419640289E+02  0.25714448290E+02  0.39914326985E+02  0.00000000000E+00 0. -1.
         11    1    1    2    0    0  0.13113531194E+02 -0.66673904565E+02  0.23166709209E+02  0.71791856543E+02  0.00000000000E+00 0.  1.
<mgrwt>
<rscale>  0 0.12263907E+03</rscale>
<asrwt>0</asrwt>
<pdfrwt beam="1">  1        1 0.18343378E-01 0.13107841E+03</pdfrwt>
<pdfrwt beam="2">  1       -1 0.21803878E-01 0.13107841E+03</pdfrwt>
<totfact> 0.47679214E+03</totfact>
</mgrwt>
</event>
<event>
 6    1  0.7270761E-006  0.1324637E+03  0.7546771E-02  0.1236895E+00
          2   -1    0    0  501    0  0.00000000000E+00  0.00000000000E+00  0.92290685168E+02  0.92290685168E+02  0.00000000000E+00 0. -1.
         -2   -1    0    0    0  501 -0.00000000000E+00 -0.00000000000E+00 -0.14789485562E+03  0.14789485562E+03  0.00000000000E+00 0.  1.
          5    1    1    2  502    0  0.66374567082E+02  0.32056960223E+02 -0.84529673566E+01  0.74342279433E+02  0.47000000000E+01 0.  1.
         -5    1    1    2    0  502 -0.56033450507E+02  0.10542341777E+02 -0.23991618340E+02  0.62036894638E+02  0.47000000000E+01 0.  1.
        -11    1    1    2    0    0 -0.45438013153E+02 -0.36478703097E+02 -0.32842310443E+02  0.66887414168E+02  0.00000000000E+00 0.  1.
         11    1    1    2    0    0  0.35096896577E+02 -0.61205989033E+01  0.96827256895E+01  0.36918952545E+02  0.00000000000E+00 0. -1.
<mgrwt>
<rscale>  0 0.12383885E+03</rscale>
<asrwt>0</asrwt>
<pdfrwt beam="1">  1        2 0.14198567E-01 0.13246369E+03</pdfrwt>
<pdfrwt beam="2">  1       -2 0.22753055E-01 0.13246369E+03</pdfrwt>
<totfact> 0.66091709E+03</totfact>
</mgrwt>
</event>
<event>
 6    1  0.7270761E-006  0.1317011E+03  0.7546771E-02  0.1237841E+00
          2   -1    0    0  501    0  0.00000000000E+00  0.00000000000E+00  0.24287470963E+03  0.24287470963E+03  0.00000000000E+00 0. -1.
         -2   -1    0    0    0  501 -0.00000000000E+00 -0.00000000000E+00 -0.57857646789E+02  0.57857646789E+02  0.00000000000E+00 0.  1.
          5    1    1    2  502    0 -0.51297141203E+00  0.74400711837E+02  0.64927955935E+01  0.74832983745E+02  0.47000000000E+01 0. -1.
         -5    1    1    2    0  502 -0.47689606745E+01 -0.33253986169E+02  0.69208478180E+02  0.77074470702E+02  0.47000000000E+01 0. -1.
        -11    1    1    2    0    0 -0.26504914251E+02 -0.56908407192E+02  0.52482523865E+02  0.81825989757E+02  0.00000000000E+00 0.  1.
         11    1    1    2    0    0  0.31786846337E+02  0.15761681523E+02  0.56833265208E+02  0.66998912220E+02  0.00000000000E+00 0. -1.
<mgrwt>
<rscale>  0 0.12324275E+03</rscale>
<asrwt>0</asrwt>
<pdfrwt beam="1">  1        2 0.37365339E-01 0.13170115E+03</pdfrwt>
<pdfrwt beam="2">  1       -2 0.89011766E-02 0.13170115E+03</pdfrwt>
<totfact> 0.10355089E+04</totfact>
</mgrwt>
</event>
<event>
 6    1  0.7270761E-006  0.1336765E+03  0.7546771E-02  0.1234752E+00
         -1   -1    0    0    0  501 -0.00000000000E+00  0.00000000000E+00  0.55879021418E+02  0.55879021418E+02  0.00000000000E+00 0.  1.
          1   -1    0    0  501    0  0.00000000000E+00 -0.00000000000E+00 -0.25275157483E+03  0.25275157483E+03  0.00000000000E+00 0. -1.
          5    1    1    2  502    0 -0.87110458238E+02  0.10471679784E+02 -0.44157615957E+02  0.98335512705E+02  0.47000000000E+01 0. -1.
         -5    1    1    2    0  502  0.40905190294E+02  0.16089868531E-01 -0.52027419101E+02  0.66348904966E+02  0.47000000000E+01 0. -1.
        -11    1    1    2    0    0 -0.13440110557E+02  0.16762042480E+02  0.25573733313E+01  0.21636607826E+02  0.00000000000E+00 0.  1.
         11    1    1    2    0    0  0.59645378501E+02 -0.27249812132E+02 -0.10324489168E+03  0.12230957075E+03  0.00000000000E+00 0. -1.
<mgrwt>
<rscale>  0 0.12520304E+03</rscale>
<asrwt>0</asrwt>
<pdfrwt beam="2">  1        1 0.38884858E-01 0.13367646E+03</pdfrwt>
<pdfrwt beam="1">  1       -1 0.85967725E-02 0.13367646E+03</pdfrwt>
<totfact> 0.79528811E+03</totfact>
</mgrwt>
</event>
<event>
 6    1  0.7270761E-006  0.1658228E+03  0.7546771E-02  0.1189145E+00
         -1   -1    0    0    0  501 -0.00000000000E+00  0.00000000000E+00  0.22935903102E+02  0.22935903102E+02  0.00000000000E+00 0.  1.
          1   -1    0    0  501    0  0.00000000000E+00 -0.00000000000E+00 -0.10696774148E+04  0.10696774148E+04  0.00000000000E+00 0. -1.
          5    1    1    2  502    0 -0.70483278846E+02 -0.10444950327E+02 -0.24929017565E+03  0.25931577519E+03  0.47000000000E+01 0.  1.
         -5    1    1    2    0  502 -0.29414456794E+00  0.93278841867E+02 -0.41092808336E+03  0.42140836318E+03  0.47000000000E+01 0.  1.
        -11    1    1    2    0    0  0.14512588360E+02 -0.61371015794E+02 -0.29946403318E+03  0.30603222701E+03  0.00000000000E+00 0. -1.
         11    1    1    2    0    0  0.56264835054E+02 -0.21462875746E+02 -0.87059219549E+02  0.10585695257E+03  0.00000000000E+00 0.  1.
<mgrwt>
<rscale>  0 0.15960370E+03</rscale>
<asrwt>0</asrwt>
<pdfrwt beam="2">  1        1 0.16456574E+00 0.16582281E+03</pdfrwt>
<pdfrwt beam="1">  1       -1 0.35286008E-02 0.16582281E+03</pdfrwt>
<totfact> 0.41527489E+03</totfact>
</mgrwt>
</event>
<event>
 6    1  0.7270761E-006  0.2698065E+03  0.7546771E-02  0.1101390E+00
         -1   -1    0    0    0  501 -0.00000000000E+00  0.00000000000E+00  0.71810337616E+03  0.71810337616E+03  0.00000000000E+00 0.  1.
          1   -1    0    0  501    0  0.00000000000E+00 -0.00000000000E+00 -0.25342985207E+02  0.25342985207E+02  0.00000000000E+00 0. -1.
          5    1    1    2  502    0 -0.84745776087E+01  0.14415680262E+02  0.48383276752E+01  0.18031353742E+02  0.47000000000E+01 0. -1.
         -5    1    1    2    0  502  0.40349896268E+02  0.56038640472E+02  0.48637589805E+03  0.49127593830E+03  0.47000000000E+01 0.  1.
        -11    1    1    2    0    0 -0.25371043286E+02 -0.15513245324E+02  0.16540197216E+03  0.16805404789E+03  0.00000000000E+00 0.  1.
         11    1    1    2    0    0 -0.65042753729E+01 -0.54941075410E+02  0.36144193078E+02  0.66085021439E+02  0.00000000000E+00 0. -1.
<mgrwt>
<rscale>  0 0.26980647E+03</rscale>
<asrwt>0</asrwt>
<pdfrwt beam="2">  1        1 0.38989213E-02 0.26980647E+03</pdfrwt>
<pdfrwt beam="1">  1       -1 0.11047743E+00 0.26980647E+03</pdfrwt>
<totfact> 0.18904309E+03</totfact>
</mgrwt>
</event>
<event>
 6    1  0.7270761E-006  0.3193486E+03  0.7546771E-02  0.1075949E+00
          1   -1    0    0  501    0  0.00000000000E+00  0.00000000000E+00  0.18012023678E+03  0.18012023678E+03  0.00000000000E+00 0. -1.
         -1   -1    0    0    0  501 -0.00000000000E+00 -0.00000000000E+00 -0.14154922096E+03  0.14154922096E+03  0.00000000000E+00 0.  1.
          5    1    1    2  502    0  0.13130703679E+03  0.14747094387E+02  0.57392359072E+02  0.14413530998E+03  0.47000000000E+01 0. -1.
         -5    1    1    2    0  502 -0.19227879956E+02  0.61963166587E+01 -0.20358518908E+02  0.29063120959E+02  0.47000000000E+01 0. -1.
        -11    1    1    2    0    0 -0.74497117776E+02 -0.53020261358E+02 -0.21534618489E+02  0.93939919443E+02  0.00000000000E+00 0.  1.
         11    1    1    2    0    0 -0.37582039055E+02  0.32076850313E+02  0.23071794142E+02  0.54531107364E+02  0.00000000000E+00 0. -1.
<mgrwt>
<rscale>  0 0.31934858E+03</rscale>
<asrwt>0</asrwt>
<pdfrwt beam="1">  1        1 0.27710806E-01 0.31934858E+03</pdfrwt>
<pdfrwt beam="2">  1       -1 0.21776803E-01 0.31934858E+03</pdfrwt>
<totfact> 0.29396815E+03</totfact>
</mgrwt>
</event>
<event>
 6    1  0.7270761E-006  0.2626592E+03  0.7546771E-02  0.1107697E+00
          2   -1    0    0  501    0  0.00000000000E+00  0.00000000000E+00  0.26513017595E+03  0.26513017595E+03  0.00000000000E+00 0. -1.
         -2   -1    0    0    0  501 -0.00000000000E+00 -0.00000000000E+00 -0.25622375103E+03  0.25622375103E+03  0.00000000000E+00 0.  1.
          5    1    1    2  502    0 -0.42000787658E+02  0.39471014163E+02 -0.35187190396E+02  0.67692359176E+02  0.47000000000E+01 0.  1.
         -5    1    1    2    0  502  0.53701758967E+02  0.19123930240E+03 -0.10993572914E+02  0.19899572443E+03  0.47000000000E+01 0.  1.
        -11    1    1    2    0    0 -0.77001291381E+01 -0.60131662267E+02  0.58163553975E+02  0.84012545532E+02  0.00000000000E+00 0. -1.
         11    1    1    2    0    0 -0.40008421705E+01 -0.17057865429E+03 -0.30763657427E+01  0.17065329784E+03  0.00000000000E+00 0.  1.
<mgrwt>
<rscale>  0 0.25908108E+03</rscale>
<asrwt>0</asrwt>
<pdfrwt beam="1">  1        2 0.40789258E-01 0.26265923E+03</pdfrwt>
<pdfrwt beam="2">  1       -2 0.39419038E-01 0.26265923E+03</pdfrwt>
<totfact> 0.76808151E+02</totfact>
</mgrwt>
</event>
<event>
 6    1  0.7270761E-006  0.1298648E+03  0.7546771E-02  0.1247647E+00
          1   -1    0    0  501    0  0.00000000000E+00  0.00000000000E+00  0.23469428677E+03  0.23469428677E+03  0.00000000000E+00 0. -1.
         -1   -1    0    0    0  501 -0.00000000000E+00 -0.00000000000E+00 -0.50362330696E+02  0.50362330696E+02  0.00000000000E+00 0.  1.
          5    1    1    2  502    0 -0.47117903800E+02  0.14263363459E+02  0.52189607905E+02  0.71898439266E+02  0.47000000000E+01 0. -1.
         -5    1    1    2    0  502  0.77960299304E+02  0.27592650728E+01  0.43767507297E+02  0.89571795261E+02  0.47000000000E+01 0. -1.
        -11    1    1    2    0    0  0.27339313612E+01 -0.32244836359E+02  0.54234735646E+01  0.32811856363E+02  0.00000000000E+00 0.  1.
         11    1    1    2    0    0 -0.33576326866E+02  0.15222207827E+02  0.82951367312E+02  0.90774526580E+02  0.00000000000E+00 0. -1.
<mgrwt>
<rscale>  0 0.11728333E+03</rscale>
<asrwt>0</asrwt>
<pdfrwt beam="1">  1        1 0.36106813E-01 0.12986481E+03</pdfrwt>
<pdfrwt beam="2">  1       -1 0.77480510E-02 0.12986481E+03</pdfrwt>
<totfact> 0.10173625E+04</totfact>
</mgrwt>
</event>
<event>
 6    1  0.7270761E-006  0.1327560E+03  0.7546771E-02  0.1235550E+00
          2   -1    0    0  501    0  0.00000000000E+00  0.00000000000E+00  0.25372400894E+02  0.25372400894E+02  0.00000000000E+00 0. -1.
         -2   -1    0    0    0  501 -0.00000000000E+00 -0.00000000000E+00 -0.56408879489E+03  0.56408879489E+03  0.00000000000E+00 0.  1.
          5    1    1    2  502    0  0.44604383440E+02 -0.19900625300E+02 -0.23785615765E+03  0.24286462822E+03  0.47000000000E+01 0. -1.
         -5    1    1    2    0  502 -0.47843498201E+01  0.40356715021E+02 -0.16617689611E+02  0.44156449795E+02  0.47000000000E+01 0. -1.
        -11    1    1    2    0    0 -0.67785776487E+02 -0.28048043812E+02 -0.22142555856E+03  0.23326140324E+03  0.00000000000E+00 0.  1.
         11    1    1    2    0    0  0.27965742867E+02  0.75919540901E+01 -0.62816988182E+02  0.69178714539E+02  0.00000000000E+00 0. -1.
<mgrwt>
<rscale>  0 0.12469319E+03</rscale>
<asrwt>0</asrwt>
<pdfrwt beam="1">  1        2 0.39034461E-02 0.13275602E+03</pdfrwt>
<pdfrwt beam="2">  1       -2 0.86782896E-01 0.13275602E+03</pdfrwt>
<totfact> 0.24851700E+03</totfact>
</mgrwt>
</event>
<event>
 6    1  0.7270761E-006  0.3181297E+03  0.7546771E-02  0.1076513E+00
          2   -1    0    0  501    0  0.00000000000E+00  0.00000000000E+00  0.55469365022E+03  0.55469365022E+03  0.00000000000E+00 0.  1.
         -2   -1    0    0    0  501 -0.00000000000E+00 -0.00000000000E+00 -0.45613699925E+02  0.45613699925E+02  0.00000000000E+00 0. -1.
          5    1    1    2  502    0  0.51288081040E+02  0.12136200927E+03  0.18530246060E+03  0.22741657032E+03  0.47000000000E+01 0. -1.
         -5    1    1    2    0  502  0.25433729428E+01 -0.20668061432E+02  0.11822066651E+03  0.12013264960E+03  0.47000000000E+01 0. -1.
        -11    1    1    2    0    0 -0.41981925628E+02 -0.11531771487E+02  0.12370960301E+03  0.13114697751E+03  0.00000000000E+00 0.  1.
         11    1    1    2    0    0 -0.11849528354E+02 -0.89162176356E+02  0.81847220174E+02  0.12161115272E+03  0.00000000000E+00 0. -1.
<mgrwt>
<rscale>  0 0.31812972E+03</rscale>
<asrwt>0</asrwt>
<pdfrwt beam="1">  1        2 0.85337480E-01 0.31812972E+03</pdfrwt>
<pdfrwt beam="2">  1       -2 0.70174927E-02 0.31812972E+03</pdfrwt>
<totfact> 0.64251398E+03</totfact>
</mgrwt>
</event>
<event>
 6    1  0.7270761E-006  0.2478163E+03  0.7546771E-02  0.1117241E+00
         -4   -1    0    0    0  501 -0.00000000000E+00  0.00000000000E+00  0.68217729123E+03  0.68217729123E+03  0.00000000000E+00 0. -1.
          4   -1    0    0  501    0  0.00000000000E+00 -0.00000000000E+00 -0.84677192171E+02  0.84677192171E+02  0.00000000000E+00 0.  1.
          5    1    1    2  502    0  0.51918839748E+01 -0.50429489256E+02  0.60735551500E+02  0.79252673531E+02  0.47000000000E+01 0. -1.
         -5    1    1    2    0  502  0.19508483581E+03 -0.24915070668E+02  0.26441257338E+03  0.32956782742E+03  0.47000000000E+01 0. -1.
        -11    1    1    2    0    0 -0.88286568919E+02  0.71465114217E+02  0.17991677345E+03  0.21277177014E+03  0.00000000000E+00 0. -1.
         11    1    1    2    0    0 -0.11199015087E+03  0.38794457062E+01  0.92435200731E+02  0.14526221231E+03  0.00000000000E+00 0.  1.
<mgrwt>
<rscale>  0 0.24387056E+03</rscale>
<asrwt>0</asrwt>
<pdfrwt beam="2">  1        4 0.13027261E-01 0.24781626E+03</pdfrwt>
<pdfrwt beam="1">  1       -4 0.10495035E+00 0.24781626E+03</pdfrwt>
<totfact> 0.67074888E+01</totfact>
</mgrwt>
</event>
<event>
 6    1  0.7270761E-006  0.1609288E+03  0.7546771E-02  0.1207816E+00
          2   -1    0    0  501    0  0.00000000000E+00  0.00000000000E+00  0.55858309495E+03  0.55858309495E+03  0.00000000000E+00 0. -1.
         -2   -1    0    0    0  501 -0.00000000000E+00 -0.00000000000E+00 -0.88843830911E+02  0.88843830911E+02  0.00000000000E+00 0.  1.
          5    1    1    2  502    0 -0.60569400059E+02  0.60450802578E+02  0.29111888049E+02  0.90512671940E+02  0.47000000000E+01 0. -1.
         -5    1    1    2    0  502  0.50306055099E+02 -0.34953022151E+02 -0.34599245751E+02  0.70509650004E+02  0.47000000000E+01 0.  1.
        -11    1    1    2    0    0 -0.91745718688E+01  0.36406671402E+02  0.13941271510E+03  0.14437978952E+03  0.00000000000E+00 0.  1.
         11    1    1    2    0    0  0.19437916828E+02 -0.61904451829E+02  0.33581390665E+03  0.34202481440E+03  0.00000000000E+00 0. -1.
<mgrwt>
<rscale>  0 0.14417728E+03</rscale>
<asrwt>0</asrwt>
<pdfrwt beam="1">  1        2 0.85935859E-01 0.16092880E+03</pdfrwt>
<pdfrwt beam="2">  1       -2 0.13668282E-01 0.16092880E+03</pdfrwt>
<totfact> 0.21605818E+03</totfact>
</mgrwt>
</event>
<event>
 6    1  0.7270761E-006  0.1514814E+03  0.7546771E-02  0.1209478E+00
         -2   -1    0    0    0  501 -0.00000000000E+00  0.00000000000E+00  0.15737047396E+02  0.15737047396E+02  0.00000000000E+00 0.  1.
          2   -1    0    0  501    0  0.00000000000E+00 -0.00000000000E+00 -0.11730575885E+04  0.11730575885E+04  0.00000000000E+00 0. -1.
          5    1    1    2  502    0  0.38183761762E+02 -0.76882867098E+02 -0.23949690857E+03  0.25445988707E+03  0.47000000000E+01 0.  1.
         -5    1    1    2    0  502  0.36177209474E+02  0.34566012152E+02 -0.37898252536E+03  0.38230020168E+03  0.47000000000E+01 0.  1.
        -11    1    1    2    0    0 -0.15228729624E+02  0.55813395573E+02 -0.30615485654E+03  0.31157317842E+03  0.00000000000E+00 0.  1.
         11    1    1    2    0    0 -0.59132241612E+02 -0.13496540628E+02 -0.23268625064E+03  0.24046136871E+03  0.00000000000E+00 0. -1.
<mgrwt>
<rscale>  0 0.14290126E+03</rscale>
<asrwt>0</asrwt>
<pdfrwt beam="2">  1        2 0.18047040E+00 0.15148135E+03</pdfrwt>
<pdfrwt beam="1">  1       -2 0.24210842E-02 0.15148135E+03</pdfrwt>
<totfact> 0.11724792E+04</totfact>
</mgrwt>
</event>
<event>
 6    1  0.7270761E-006  0.1435569E+03  0.7546771E-02  0.1214204E+00
         -2   -1    0    0    0  501 -0.00000000000E+00  0.00000000000E+00  0.11493073256E+03  0.11493073256E+03  0.00000000000E+00 0.  1.
          2   -1    0    0  501    0  0.00000000000E+00 -0.00000000000E+00 -0.16371978957E+03  0.16371978957E+03  0.00000000000E+00 0. -1.
          5    1    1    2  502    0  0.41970861401E+02 -0.60415568364E+02 -0.44155758993E+02  0.85926801173E+02  0.47000000000E+01 0. -1.
         -5    1    1    2    0  502 -0.32920152398E+02 -0.25034529725E+02  0.39947241225E+02  0.57691734190E+02  0.47000000000E+01 0.  1.
        -11    1    1    2    0    0  0.15500662618E+02  0.87914125141E+02 -0.63052582980E+01  0.89492570771E+02  0.00000000000E+00 0.  1.
         11    1    1    2    0    0 -0.24551371622E+02 -0.24640270519E+01 -0.38275280942E+02  0.45539415993E+02  0.00000000000E+00 0. -1.
<mgrwt>
<rscale>  0 0.13935161E+03</rscale>
<asrwt>0</asrwt>
<pdfrwt beam="2">  1        2 0.25187660E-01 0.14355686E+03</pdfrwt>
<pdfrwt beam="1">  1       -2 0.17681651E-01 0.14355686E+03</pdfrwt>
<totfact> 0.53004230E+03</totfact>
</mgrwt>
</event>
<event>
 6    1  0.7270761E-006  0.1562351E+03  0.7546771E-02  0.1199953E+00
          1   -1    0    0  501    0  0.00000000000E+00  0.00000000000E+00  0.46109297391E+02  0.46109297391E+02  0.00000000000E+00 0. -1.
         -1   -1    0    0    0  501 -0.00000000000E+00 -0.00000000000E+00 -0.66855243309E+03  0.66855243309E+03  0.00000000000E+00 0.  1.
          5    1    1    2  502    0  0.32583160200E+02  0.11801744668E+02 -0.45553744976E+03  0.45687788482E+03  0.47000000000E+01 0.  1.
         -5    1    1    2    0  502  0.53088174965E+02  0.26226473952E+02 -0.72165429441E+02  0.93467221332E+02  0.47000000000E+01 0.  1.
        -11    1    1    2    0    0 -0.18227862643E+02 -0.19333533195E+02 -0.90368177604E+02  0.94193672854E+02  0.00000000000E+00 0.  1.
         11    1    1    2    0    0 -0.67443472522E+02 -0.18694685425E+02 -0.43720788921E+01  0.70122951470E+02  0.00000000000E+00 0. -1.
<mgrwt>
<rscale>  0 0.15042363E+03</rscale>
<asrwt>0</asrwt>
<pdfrwt beam="1">  1        1 0.70937387E-02 0.15623510E+03</pdfrwt>
<pdfrwt beam="2">  1       -1 0.10285421E+00 0.15623510E+03</pdfrwt>
<totfact> 0.95896022E+02</totfact>
</mgrwt>
</event>
<event>
 6    1  0.7270761E-006  0.2656156E+03  0.7546771E-02  0.1103815E+00
          1   -1    0    0  501    0  0.00000000000E+00  0.00000000000E+00  0.17483308693E+03  0.17483308693E+03  0.00000000000E+00 0. -1.
         -1   -1    0    0    0  501 -0.00000000000E+00 -0.00000000000E+00 -0.10088427764E+03  0.10088427764E+03  0.00000000000E+00 0.  1.
          5    1    1    2  502    0 -0.29256304623E+02 -0.19516105234E+02  0.18612494474E+02  0.40066503145E+02  0.47000000000E+01 0.  1.
         -5    1    1    2    0  502  0.10295834659E+03  0.35129338335E+02  0.17547179959E+02  0.11029272446E+03  0.47000000000E+01 0.  1.
        -11    1    1    2    0    0 -0.26085965758E+02 -0.49887899424E+02  0.13868437034E+01  0.56313439372E+02  0.00000000000E+00 0.  1.
         11    1    1    2    0    0 -0.47616076204E+02  0.34274666322E+02  0.36402291159E+02  0.69044697597E+02  0.00000000000E+00 0. -1.
<mgrwt>
<rscale>  0 0.26561558E+03</rscale>
<asrwt>0</asrwt>
<pdfrwt beam="1">  1        1 0.26897398E-01 0.26561558E+03</pdfrwt>
<pdfrwt beam="2">  1       -1 0.15520658E-01 0.26561558E+03</pdfrwt>
<totfact> 0.52522940E+03</totfact>
</mgrwt>
</event>
<event>
 6    1  0.7270761E-006  0.1422960E+03  0.7546771E-02  0.1220692E+00
         -1   -1    0    0    0  501 -0.00000000000E+00  0.00000000000E+00  0.20626496273E+04  0.20626496273E+04  0.00000000000E+00 0.  1.
          1   -1    0    0  501    0  0.00000000000E+00 -0.00000000000E+00 -0.10425524891E+02  0.10425524891E+02  0.00000000000E+00 0. -1.
          5    1    1    2  502    0 -0.47033784346E+02 -0.37405810057E+01  0.59468711090E+03  0.59657440331E+03  0.47000000000E+01 0. -1.
         -5    1    1    2    0  502  0.73918166026E+02 -0.58716249918E+02  0.10182152115E+04  0.10225926853E+04  0.47000000000E+01 0. -1.
        -11    1    1    2    0    0 -0.39159630096E+02  0.73899832461E+02  0.42030627180E+03  0.42854640820E+03  0.00000000000E+00 0.  1.
         11    1    1    2    0    0  0.12275248417E+02 -0.11443001536E+02  0.19015508295E+02  0.25361655379E+02  0.00000000000E+00 0. -1.
<mgrwt>
<rscale>  0 0.13466603E+03</rscale>
<asrwt>0</asrwt>
<pdfrwt beam="2">  1        1 0.16039285E-02 0.14229603E+03</pdfrwt>
<pdfrwt beam="1">  1       -1 0.31733039E+00 0.14229603E+03</pdfrwt>
<totfact> 0.25011080E+02</totfact>
</mgrwt>
</event>
<event>
 6    1  0.7270761E-006  0.3711061E+03  0.7546771E-02  0.1054271E+00
          1   -1    0    0  501    0  0.00000000000E+00  0.00000000000E+00  0.45622453604E+03  0.45622453604E+03  0.00000000000E+00 0. -1.
         -1   -1    0    0    0  501 -0.00000000000E+00 -0.00000000000E+00 -0.75467068834E+02  0.75467068834E+02  0.00000000000E+00 0.  1.
          5    1    1    2  502    0  0.69268060793E+02  0.12087373828E+03  0.42775430134E+02  0.14580930106E+03  0.47000000000E+01 0.  1.
         -5    1    1    2    0  502 -0.53913239950E+01  0.72741828160E+00  0.72303136302E+02  0.72659679540E+02  0.47000000000E+01 0.  1.
        -11    1    1    2    0    0 -0.27600509700E+01 -0.92106216718E+02  0.19251562543E+03  0.21343251644E+03  0.00000000000E+00 0.  1.
         11    1    1    2    0    0 -0.61116685828E+02 -0.29494939846E+02  0.73163275337E+02  0.99790107832E+02  0.00000000000E+00 0. -1.
<mgrwt>
<rscale>  0 0.37110607E+03</rscale>
<asrwt>0</asrwt>
<pdfrwt beam="1">  1        1 0.70188388E-01 0.37110607E+03</pdfrwt>
<pdfrwt beam="2">  1       -1 0.11610319E-01 0.37110607E+03</pdfrwt>
<totfact> 0.24708610E+03</totfact>
</mgrwt>
</event>
<event>
 6    1  0.7270761E-006  0.1314580E+03  0.7546771E-02  0.1239097E+00
         -4   -1    0    0    0  501 -0.00000000000E+00  0.00000000000E+00  0.28719595315E+02  0.28719595315E+02  0.00000000000E+00 0.  1.
          4   -1    0    0  501    0  0.00000000000E+00 -0.00000000000E+00 -0.47412817763E+03  0.47412817763E+03  0.00000000000E+00 0. -1.
          5    1    1    2  502    0  0.37674592371E+02 -0.29339280258E+02 -0.32731527122E+02  0.58082795594E+02  0.47000000000E+01 0.  1.
         -5    1    1    2    0  502 -0.16666068023E+02  0.64186184169E+02 -0.18119830900E+03  0.19300917400E+03  0.47000000000E+01 0.  1.
        -11    1    1    2    0    0  0.15834780992E+02 -0.29565980178E+02 -0.24697595603E+02  0.41651635040E+02  0.00000000000E+00 0.  1.
         11    1    1    2    0    0 -0.36843305340E+02 -0.52809237324E+01 -0.20678115058E+03  0.21010416831E+03  0.00000000000E+00 0. -1.
<mgrwt>
<rscale>  0 0.12245756E+03</rscale>
<asrwt>0</asrwt>
<pdfrwt beam="2">  1        4 0.72942792E-01 0.13145799E+03</pdfrwt>
<pdfrwt beam="1">  1       -4 0.44183995E-02 0.13145799E+03</pdfrwt>
<totfact> 0.83550766E+02</totfact>
</mgrwt>
</event>
<event>
 6    1  0.7270761E-006  0.5269026E+03  0.7546771E-02  0.1006986E+00
          2   -1    0    0  501    0  0.00000000000E+00  0.00000000000E+00  0.15250962046E+03  0.15250962046E+03  0.00000000000E+00 0. -1.
         -2   -1    0    0    0  501 -0.00000000000E+00 -0.00000000000E+00 -0.45509642252E+03  0.45509642252E+03  0.00000000000E+00 0.  1.
          5    1    1    2  502    0  0.41271606473E+02  0.19167970768E+03 -0.31960119636E+03  0.37498196030E+03  0.47000000000E+01 0. -1.
         -5    1    1    2    0  502 -0.18485262224E+01 -0.62167787388E+01  0.75186053725E+01  0.10985664014E+02  0.47000000000E+01 0. -1.
        -11    1    1    2    0    0 -0.76942357550E+02 -0.90566146951E+02 -0.26962147863E+01  0.11886809047E+03  0.00000000000E+00 0.  1.
         11    1    1    2    0    0  0.37519277300E+02 -0.94896781991E+02  0.12192003710E+02  0.10277032819E+03  0.00000000000E+00 0. -1.
<mgrwt>
<rscale>  0 0.52690258E+03</rscale>
<asrwt>0</asrwt>
<pdfrwt beam="1">  1        2 0.23463018E-01 0.52690258E+03</pdfrwt>
<pdfrwt beam="2">  1       -2 0.70014835E-01 0.52690258E+03</pdfrwt>
<totfact> 0.44225092E+02</totfact>
</mgrwt>
</event>
<event>
 6    1  0.7270761E-006  0.1368099E+03  0.7546771E-02  0.1229538E+00
         -2   -1    0    0    0  501 -0.00000000000E+00  0.00000000000E+00  0.24648028240E+02  0.24648028240E+02  0.00000000000E+00 0.  1.
          2   -1    0    0  501    0  0.00000000000E+00 -0.00000000000E+00 -0.65074751593E+03  0.65074751593E+03  0.00000000000E+00 0. -1.
          5    1    1    2  502    0  0.39689972017E+02 -0.13072246790E+02 -0.21997006639E+03  0.22395333804E+03  0.47000000000E+01 0. -1.
         -5    1    1    2    0  502 -0.36331656828E+02 -0.42441764910E+02 -0.37024468044E+02  0.67187751343E+02  0.47000000000E+01 0. -1.
        -11    1    1    2    0    0  0.42544398952E+01 -0.14086134895E+02 -0.86630838999E+01  0.17075376358E+02  0.00000000000E+00 0.  1.
         11    1    1    2    0    0 -0.76127550841E+01  0.69600146595E+02 -0.36044186936E+03  0.36717907843E+03  0.00000000000E+00 0. -1.
<mgrwt>
<rscale>  0 0.12860657E+03</rscale>
<asrwt>0</asrwt>
<pdfrwt beam="2">  1        2 0.10011501E+00 0.13680988E+03</pdfrwt>
<pdfrwt beam="1">  1       -2 0.37920039E-02 0.13680988E+03</pdfrwt>
<totfact> 0.13003746E+04</totfact>
</mgrwt>
</event>
<event>
 6    1  0.7270761E-006  0.1534033E+03  0.7546771E-02  0.1204996E+00
         -2   -1    0    0    0  501 -0.00000000000E+00  0.00000000000E+00  0.25764154583E+02  0.25764154583E+02  0.00000000000E+00 0.  1.
          2   -1    0    0  501    0  0.00000000000E+00 -0.00000000000E+00 -0.78099059944E+03  0.78099059944E+03  0.00000000000E+00 0. -1.
          5    1    1    2  502    0 -0.31324415213E+02  0.80101942892E+02 -0.35058785879E+03  0.36101451075E+03  0.47000000000E+01 0. -1.
         -5    1    1    2    0  502  0.21485483074E+02  0.82745603583E+01 -0.21016673159E+01  0.23592399995E+02  0.47000000000E+01 0. -1.
        -11    1    1    2    0    0 -0.17801600407E+02 -0.68004795402E+02 -0.36316786645E+03  0.36990870278E+03  0.00000000000E+00 0. -1.
         11    1    1    2    0    0  0.27640532546E+02 -0.20371707848E+02 -0.39369052309E+02  0.52239140496E+02  0.00000000000E+00 0.  1.
<mgrwt>
<rscale>  0 0.14637749E+03</rscale>
<asrwt>0</asrwt>
<pdfrwt beam="2">  1        2 0.12015239E+00 0.15340330E+03</pdfrwt>
<pdfrwt beam="1">  1       -2 0.39637165E-02 0.15340330E+03</pdfrwt>
<totfact> 0.98565876E+03</totfact>
</mgrwt>
</event>
<event>
 6    1  0.7270761E-006  0.2373613E+03  0.7546771E-02  0.1124203E+00
          3   -1    0    0  501    0  0.00000000000E+00  0.00000000000E+00  0.16562088972E+03  0.16562088972E+03  0.00000000000E+00 0. -1.
         -3   -1    0    0    0  501 -0.00000000000E+00 -0.00000000000E+00 -0.37767727952E+03  0.37767727952E+03  0.00000000000E+00 0.  1.
          5    1    1    2  502    0 -0.33839466463E+02 -0.11535551132E+03 -0.20564255164E+03  0.23824976921E+03  0.47000000000E+01 0.  1.
         -5    1    1    2    0  502 -0.13217127587E+02 -0.80867767683E+02 -0.10440873521E+02  0.82736872986E+02  0.47000000000E+01 0.  1.
        -11    1    1    2    0    0  0.62804861334E+02  0.13535729185E+03  0.33411916372E+02  0.15291305771E+03  0.00000000000E+00 0.  1.
         11    1    1    2    0    0 -0.15748267284E+02  0.60865987150E+02 -0.29384881014E+02  0.69398469338E+02  0.00000000000E+00 0. -1.
<mgrwt>
<rscale>  0 0.23349635E+03</rscale>
<asrwt>0</asrwt>
<pdfrwt beam="1">  1        3 0.25480137E-01 0.23736128E+03</pdfrwt>
<pdfrwt beam="2">  1       -3 0.58104197E-01 0.23736128E+03</pdfrwt>
<totfact> 0.10581934E+02</totfact>
</mgrwt>
</event>
<event>
 6    1  0.7270761E-006  0.1434603E+03  0.7546771E-02  0.1219290E+00
          2   -1    0    0  501    0  0.00000000000E+00  0.00000000000E+00  0.89655166892E+02  0.89655166892E+02  0.00000000000E+00 0. -1.
         -2   -1    0    0    0  501 -0.00000000000E+00 -0.00000000000E+00 -0.19339957676E+03  0.19339957676E+03  0.00000000000E+00 0.  1.
          5    1    1    2  502    0 -0.70213651291E+01 -0.40874483196E+02 -0.94885971087E+02  0.10366031282E+03  0.47000000000E+01 0.  1.
         -5    1    1    2    0  502 -0.59584433976E+02  0.18076474217E+02  0.96900139184E+01  0.63190585234E+02  0.47000000000E+01 0.  1.
        -11    1    1    2    0    0  0.27047038586E+02  0.50797255914E+01 -0.53736486542E+02  0.60373470119E+02  0.00000000000E+00 0.  1.
         11    1    1    2    0    0  0.39558760520E+02  0.17718283388E+02  0.35188033844E+02  0.55830375477E+02  0.00000000000E+00 0. -1.
<mgrwt>
<rscale>  0 0.13566036E+03</rscale>
<asrwt>0</asrwt>
<pdfrwt beam="1">  1        2 0.13793103E-01 0.14346035E+03</pdfrwt>
<pdfrwt beam="2">  1       -2 0.29753781E-01 0.14346035E+03</pdfrwt>
<totfact> 0.42902350E+03</totfact>
</mgrwt>
</event>
<event>
 6    1  0.7270761E-006  0.1364173E+03  0.7546771E-02  0.1230420E+00
         -1   -1    0    0    0  501 -0.00000000000E+00  0.00000000000E+00  0.56126211142E+02  0.56126211142E+02  0.00000000000E+00 0.  1.
          1   -1    0    0  501    0  0.00000000000E+00 -0.00000000000E+00 -0.28047653047E+03  0.28047653047E+03  0.00000000000E+00 0. -1.
          5    1    1    2  502    0 -0.69924808683E+01 -0.27371411265E+02  0.14933306584E+02  0.32298337246E+02  0.47000000000E+01 0.  1.
         -5    1    1    2    0  502  0.37400867416E+02  0.72754715751E+02 -0.96696653255E+02  0.12674543896E+03  0.47000000000E+01 0.  1.
        -11    1    1    2    0    0 -0.26096893370E+02  0.19133118200E+02 -0.17597593099E+02  0.36834757207E+02  0.00000000000E+00 0.  1.
         11    1    1    2    0    0 -0.43114931774E+01 -0.64516422686E+02 -0.12498937956E+03  0.14072420820E+03  0.00000000000E+00 0. -1.
<mgrwt>
<rscale>  0 0.12802230E+03</rscale>
<asrwt>0</asrwt>
<pdfrwt beam="2">  1        1 0.43150237E-01 0.13641729E+03</pdfrwt>
<pdfrwt beam="1">  1       -1 0.86348014E-02 0.13641729E+03</pdfrwt>
<totfact> 0.69562454E+03</totfact>
</mgrwt>
</event>
<event>
 6    1  0.7270761E-006  0.1522192E+03  0.7546771E-02  0.1207395E+00
         -2   -1    0    0    0  501 -0.00000000000E+00  0.00000000000E+00  0.60728019660E+02  0.60728019660E+02  0.00000000000E+00 0. -1.
          2   -1    0    0  501    0  0.00000000000E+00 -0.00000000000E+00 -0.33922010840E+03  0.33922010840E+03  0.00000000000E+00 0.  1.
          5    1    1    2  502    0 -0.35517635813E+02  0.76515353418E+02 -0.11266736468E+02  0.85235738473E+02  0.47000000000E+01 0.  1.
         -5    1    1    2    0  502 -0.33352246512E+02 -0.23564023815E+02 -0.86239680056E+02  0.95535375552E+02  0.47000000000E+01 0.  1.
        -11    1    1    2    0    0  0.58429595931E+02 -0.31241893074E+02 -0.18336662454E+03  0.19497023506E+03  0.00000000000E+00 0.  1.
         11    1    1    2    0    0  0.10440286393E+02 -0.21709436528E+02  0.23809523241E+01  0.24206778975E+02  0.00000000000E+00 0. -1.
<mgrwt>
<rscale>  0 0.14450316E+03</rscale>
<asrwt>0</asrwt>
<pdfrwt beam="2">  1        2 0.52187710E-01 0.15221923E+03</pdfrwt>
<pdfrwt beam="1">  1       -2 0.93427721E-02 0.15221923E+03</pdfrwt>
<totfact> 0.67994369E+03</totfact>
</mgrwt>
</event>
<event>
 6    1  0.7270761E-006  0.1294892E+03  0.7546771E-02  0.1244742E+00
         -1   -1    0    0    0  501 -0.00000000000E+00  0.00000000000E+00  0.41905544946E+03  0.41905544946E+03  0.00000000000E+00 0.  1.
          1   -1    0    0  501    0  0.00000000000E+00 -0.00000000000E+00 -0.29852525795E+02  0.29852525795E+02  0.00000000000E+00 0. -1.
          5    1    1    2  502    0  0.19635169962E+02  0.20658193879E+02  0.61469612093E+01  0.29532626126E+02  0.47000000000E+01 0. -1.
         -5    1    1    2    0  502 -0.36759163972E+02 -0.49797467649E+02  0.24863942601E+03  0.25627071250E+03  0.47000000000E+01 0. -1.
        -11    1    1    2    0    0  0.10670625015E+00 -0.19254731100E+02  0.24803554917E-01  0.19255042746E+02  0.00000000000E+00 0. -1.
         11    1    1    2    0    0  0.17017287759E+02  0.48394004870E+02  0.13439173289E+03  0.14384959388E+03  0.00000000000E+00 0.  1.
<mgrwt>
<rscale>  0 0.11900838E+03</rscale>
<asrwt>0</asrwt>
<pdfrwt beam="2">  1        1 0.45926966E-02 0.12948917E+03</pdfrwt>
<pdfrwt beam="1">  1       -1 0.64470065E-01 0.12948917E+03</pdfrwt>
<totfact> 0.45115098E+03</totfact>
</mgrwt>
</event>
<event>
 6    1  0.7270761E-006  0.1370139E+03  0.7546771E-02  0.1229565E+00
          2   -1    0    0  501    0  0.00000000000E+00  0.00000000000E+00  0.41097718152E+03  0.41097718152E+03  0.00000000000E+00 0. -1.
         -2   -1    0    0    0  501 -0.00000000000E+00 -0.00000000000E+00 -0.36448628975E+02  0.36448628975E+02  0.00000000000E+00 0.  1.
          5    1    1    2  502    0  0.55209621877E+02  0.75405520037E+02  0.15925674085E+03  0.18471300524E+03  0.47000000000E+01 0. -1.
         -5    1    1    2    0  502 -0.19424276031E+02 -0.32191986075E+02  0.27070554464E+02  0.46567492801E+02  0.47000000000E+01 0. -1.
        -11    1    1    2    0    0 -0.61394938739E+01 -0.61966476483E+02  0.15810199940E+03  0.16992286429E+03  0.00000000000E+00 0.  1.
         11    1    1    2    0    0 -0.29645851972E+02  0.18752942521E+02  0.30099257828E+02  0.46222448163E+02  0.00000000000E+00 0. -1.
<mgrwt>
<rscale>  0 0.12858901E+03</rscale>
<asrwt>0</asrwt>
<pdfrwt beam="1">  1        2 0.63227256E-01 0.13701390E+03</pdfrwt>
<pdfrwt beam="2">  1       -2 0.56074816E-02 0.13701390E+03</pdfrwt>
<totfact> 0.12055042E+04</totfact>
</mgrwt>
</event>
<event>
 6    1  0.7270761E-006  0.1569557E+03  0.7546771E-02  0.1200080E+00
          3   -1    0    0  501    0  0.00000000000E+00  0.00000000000E+00  0.39666906410E+03  0.39666906410E+03  0.00000000000E+00 0. -1.
         -3   -1    0    0    0  501 -0.00000000000E+00 -0.00000000000E+00 -0.52658122214E+02  0.52658122214E+02  0.00000000000E+00 0.  1.
          5    1    1    2  502    0  0.25599866952E+02 -0.75233523843E+02  0.12164109127E+03  0.14537565609E+03  0.47000000000E+01 0.  1.
         -5    1    1    2    0  502 -0.72874380884E+02 -0.77615243922E+01  0.61217751773E+02  0.95606588593E+02  0.47000000000E+01 0.  1.
        -11    1    1    2    0    0  0.18792674409E+02 -0.42140544647E+01 -0.37683139102E+01  0.19624552383E+02  0.00000000000E+00 0.  1.
         11    1    1    2    0    0  0.28481839523E+02  0.87209102700E+02  0.16492041275E+03  0.18872038925E+03  0.00000000000E+00 0. -1.
<mgrwt>
<rscale>  0 0.15032066E+03</rscale>
<asrwt>0</asrwt>
<pdfrwt beam="1">  1        3 0.61026008E-01 0.15695568E+03</pdfrwt>
<pdfrwt beam="2">  1       -3 0.81012498E-02 0.15695568E+03</pdfrwt>
<totfact> 0.65695019E+02</totfact>
</mgrwt>
</event>
<event>
 6    1  0.7270761E-006  0.8035773E+03  0.7546771E-02  0.9554853E-01
         -2   -1    0    0    0  501 -0.00000000000E+00  0.00000000000E+00  0.47750474361E+03  0.47750474361E+03  0.00000000000E+00 0.  1.
          2   -1    0    0  501    0  0.00000000000E+00 -0.00000000000E+00 -0.33807856928E+03  0.33807856928E+03  0.00000000000E+00 0. -1.
          5    1    1    2  502    0 -0.12532018549E+02  0.71562021311E+02  0.17701683977E+03  0.19140330703E+03  0.47000000000E+01 0. -1.
         -5    1    1    2    0  502 -0.86020018099E+01 -0.64222346033E+02  0.24652263934E+03  0.25493921996E+03  0.47000000000E+01 0.  1.
        -11    1    1    2    0    0 -0.73887257388E+02 -0.84756305841E+02 -0.12052925291E+03  0.16483403468E+03  0.00000000000E+00 0.  1.
         11    1    1    2    0    0  0.95021277747E+02  0.77416630563E+02 -0.16358405187E+03  0.20440675121E+03  0.00000000000E+00 0. -1.
<mgrwt>
<rscale>  0 0.80357730E+03</rscale>
<asrwt>0</asrwt>
<pdfrwt beam="2">  1        2 0.52012088E-01 0.80357730E+03</pdfrwt>
<pdfrwt beam="1">  1       -2 0.73462268E-01 0.80357730E+03</pdfrwt>
<totfact> 0.16182450E+02</totfact>
</mgrwt>
</event>
<event>
 6    1  0.7270761E-006  0.3579698E+03  0.7546771E-02  0.1059391E+00
         -2   -1    0    0    0  501 -0.00000000000E+00  0.00000000000E+00  0.44042170036E+02  0.44042170036E+02  0.00000000000E+00 0.  1.
          2   -1    0    0  501    0  0.00000000000E+00 -0.00000000000E+00 -0.72738466549E+03  0.72738466549E+03  0.00000000000E+00 0. -1.
          5    1    1    2  502    0 -0.69399629718E+02  0.14583946923E+03 -0.24617258390E+03  0.29446305448E+03  0.47000000000E+01 0.  1.
         -5    1    1    2    0  502  0.37801636755E+01 -0.23767400022E+02 -0.48413371918E+02  0.54268992267E+02  0.47000000000E+01 0.  1.
        -11    1    1    2    0    0  0.84089573861E+02 -0.75869165118E+02 -0.23088276999E+03  0.25716539449E+03  0.00000000000E+00 0. -1.
         11    1    1    2    0    0 -0.18470107819E+02 -0.46202904090E+02 -0.15787376965E+03  0.16552939428E+03  0.00000000000E+00 0.  1.
<mgrwt>
<rscale>  0 0.35796983E+03</rscale>
<asrwt>0</asrwt>
<pdfrwt beam="2">  1        2 0.11190534E+00 0.35796983E+03</pdfrwt>
<pdfrwt beam="1">  1       -2 0.67757181E-02 0.35796983E+03</pdfrwt>
<totfact> 0.49263101E+03</totfact>
</mgrwt>
</event>
<event>
 6    1  0.7270761E-006  0.1265100E+03  0.7546771E-02  0.1248663E+00
          1   -1    0    0  501    0  0.00000000000E+00  0.00000000000E+00  0.17065631380E+03  0.17065631380E+03  0.00000000000E+00 0. -1.
         -1   -1    0    0    0  501 -0.00000000000E+00 -0.00000000000E+00 -0.75033899504E+02  0.75033899504E+02  0.00000000000E+00 0.  1.
          5    1    1    2  502    0 -0.45863791643E+02 -0.51897717520E+02 -0.59639834557E+01  0.69674382425E+02  0.47000000000E+01 0. -1.
         -5    1    1    2    0  502  0.28588132489E+02  0.42562570126E+02  0.28429684992E+02  0.58814884882E+02  0.47000000000E+01 0. -1.
        -11    1    1    2    0    0 -0.95563347532E+00  0.18984057406E+02 -0.16519272579E+02  0.25183209436E+02  0.00000000000E+00 0.  1.
         11    1    1    2    0    0  0.18231292629E+02 -0.96489100111E+01  0.89675985340E+02  0.92017736562E+02  0.00000000000E+00 0. -1.
<mgrwt>
<rscale>  0 0.11668798E+03</rscale>
<asrwt>0</asrwt>
<pdfrwt beam="1">  1        1 0.26254817E-01 0.12651002E+03</pdfrwt>
<pdfrwt beam="2">  1       -1 0.11543677E-01 0.12651002E+03</pdfrwt>
<totfact> 0.82263219E+03</totfact>
</mgrwt>
</event>
<event>
 6    1  0.7270761E-006  0.2430655E+03  0.7546771E-02  0.1138073E+00
          1   -1    0    0  501    0  0.00000000000E+00  0.00000000000E+00  0.69982207140E+03  0.69982207140E+03  0.00000000000E+00 0. -1.
         -1   -1    0    0    0  501 -0.00000000000E+00 -0.00000000000E+00 -0.67359107142E+02  0.67359107142E+02  0.00000000000E+00 0.  1.
          5    1    1    2  502    0 -0.10442268285E+02  0.97013109369E+02  0.11603792977E+03  0.15168215287E+03  0.47000000000E+01 0. -1.
         -5    1    1    2    0  502  0.12314612198E+03 -0.69939377802E+02  0.99061193187E+02  0.17289214534E+03  0.47000000000E+01 0.  1.
        -11    1    1    2    0    0 -0.10879845306E+03 -0.66731083657E+01  0.40267289118E+03  0.41716554394E+03  0.00000000000E+00 0. -1.
         11    1    1    2    0    0 -0.39054006345E+01 -0.20400623201E+02  0.14690950125E+02  0.25441336378E+02  0.00000000000E+00 0.  1.
<mgrwt>
<rscale>  0 0.21447203E+03</rscale>
<asrwt>0</asrwt>
<pdfrwt beam="1">  1        1 0.10766493E+00 0.24306551E+03</pdfrwt>
<pdfrwt beam="2">  1       -1 0.10362940E-01 0.24306551E+03</pdfrwt>
<totfact> 0.16237005E+03</totfact>
</mgrwt>
</event>
<event>
 6    1  0.7270761E-006  0.1331072E+03  0.7546771E-02  0.1235871E+00
         -2   -1    0    0    0  501 -0.00000000000E+00  0.00000000000E+00  0.57265908803E+02  0.57265908803E+02  0.00000000000E+00 0.  1.
          2   -1    0    0  501    0  0.00000000000E+00 -0.00000000000E+00 -0.24218022876E+03  0.24218022876E+03  0.00000000000E+00 0. -1.
          5    1    1    2  502    0  0.45496912065E+02 -0.14741001353E+02 -0.84840311787E+02  0.97505049266E+02  0.47000000000E+01 0.  1.
         -5    1    1    2    0  502 -0.39990541755E+02  0.60183261742E+02 -0.30312337036E+02  0.78499657327E+02  0.47000000000E+01 0.  1.
        -11    1    1    2    0    0  0.27776337569E+02 -0.51092132958E+02 -0.68225902212E+02  0.89647669862E+02  0.00000000000E+00 0. -1.
         11    1    1    2    0    0 -0.33282707879E+02  0.56498725695E+01 -0.15357689236E+01  0.33793761110E+02  0.00000000000E+00 0.  1.
<mgrwt>
<rscale>  0 0.12448850E+03</rscale>
<asrwt>0</asrwt>
<pdfrwt beam="2">  1        2 0.37258497E-01 0.13310719E+03</pdfrwt>
<pdfrwt beam="1">  1       -2 0.88101397E-02 0.13310719E+03</pdfrwt>
<totfact> 0.10562917E+04</totfact>
</mgrwt>
</event>
<event>
 6    1  0.7270761E-006  0.1695402E+03  0.7546771E-02  0.1185237E+00
         -1   -1    0    0    0  501 -0.00000000000E+00  0.00000000000E+00  0.26203343565E+02  0.26203343565E+02  0.00000000000E+00 0.  1.
          1   -1    0    0  501    0  0.00000000000E+00 -0.00000000000E+00 -0.94647350160E+03  0.94647350160E+03  0.00000000000E+00 0. -1.
          5    1    1    2  502    0 -0.35425134028E+02  0.90470133629E+02 -0.46282461963E+03  0.47293604614E+03  0.47000000000E+01 0.  1.
         -5    1    1    2    0  502  0.37692512559E+02  0.24042259700E+02 -0.50244739356E+02  0.67419430340E+02  0.47000000000E+01 0.  1.
        -11    1    1    2    0    0 -0.22367395723E+02 -0.30565746817E+02 -0.39901693634E+02  0.55015547119E+02  0.00000000000E+00 0.  1.
         11    1    1    2    0    0  0.20100017192E+02 -0.83946646512E+02 -0.36729910541E+03  0.37730582157E+03  0.00000000000E+00 0. -1.
<mgrwt>
<rscale>  0 0.16310309E+03</rscale>
<asrwt>0</asrwt>
<pdfrwt beam="2">  1        1 0.14561133E+00 0.16954018E+03</pdfrwt>
<pdfrwt beam="1">  1       -1 0.40312831E-02 0.16954018E+03</pdfrwt>
<totfact> 0.42079093E+03</totfact>
</mgrwt>
</event>
<event>
 6    1  0.7270761E-006  0.1507559E+03  0.7546771E-02  0.1209497E+00
          1   -1    0    0  501    0  0.00000000000E+00  0.00000000000E+00  0.34598289301E+02  0.34598289301E+02  0.00000000000E+00 0. -1.
         -1   -1    0    0    0  501 -0.00000000000E+00 -0.00000000000E+00 -0.54065992456E+03  0.54065992456E+03  0.00000000000E+00 0.  1.
          5    1    1    2  502    0 -0.48105131113E+02  0.83483082754E+02 -0.25243476095E+03  0.27023864876E+03  0.47000000000E+01 0. -1.
         -5    1    1    2    0  502  0.46123212131E+02  0.80193391379E+00 -0.53318887835E+02  0.70661075531E+02  0.47000000000E+01 0. -1.
        -11    1    1    2    0    0 -0.18005792056E+02 -0.15650458889E+01 -0.10517594134E+03  0.10671755504E+03  0.00000000000E+00 0.  1.
         11    1    1    2    0    0  0.19987711038E+02 -0.82719970778E+02 -0.95132045132E+02  0.12764093454E+03  0.00000000000E+00 0. -1.
<mgrwt>
<rscale>  0 0.14288630E+03</rscale>
<asrwt>0</asrwt>
<pdfrwt beam="1">  1        1 0.53228134E-02 0.15075586E+03</pdfrwt>
<pdfrwt beam="2">  1       -1 0.83178455E-01 0.15075586E+03</pdfrwt>
<totfact> 0.22343811E+03</totfact>
</mgrwt>
</event>
<event>
 6    1  0.1398506E-005  0.3591080E+03  0.7546771E-02  0.1059974E+00
          1   -1    0    0  501    0  0.00000000000E+00  0.00000000000E+00  0.20149916847E+03  0.20149916847E+03  0.00000000000E+00 0. -1.
         -1   -1    0    0    0  501 -0.00000000000E+00 -0.00000000000E+00 -0.70421191998E+03  0.70421191998E+03  0.00000000000E+00 0.  1.
          5    1    1    2  502    0  0.44887524339E+02  0.97554327642E+02 -0.22013031754E+03  0.24497180120E+03  0.47000000000E+01 0.  1.
         -5    1    1    2    0  502  0.34083397793E+02  0.22970336065E+03 -0.18934725820E+03  0.29966612435E+03  0.47000000000E+01 0.  1.
        -11    1    1    2    0    0 -0.34237060626E+02 -0.20268307845E+03 -0.99895808425E+02  0.22854272938E+03  0.00000000000E+00 0. -1.
         11    1    1    2    0    0 -0.44733861506E+02 -0.12457460984E+03  0.66606326531E+01  0.13253043352E+03  0.00000000000E+00 0.  1.
<mgrwt>
<rscale>  0 0.35650999E+03</rscale>
<asrwt>0</asrwt>
<pdfrwt beam="1">  1        1 0.30999872E-01 0.35910804E+03</pdfrwt>
<pdfrwt beam="2">  1       -1 0.10834030E+00 0.35910804E+03</pdfrwt>
<totfact> 0.12172542E+02</totfact>
</mgrwt>
</event>
<event>
 6    1  0.7270761E-006  0.2922936E+03  0.7546771E-02  0.1089158E+00
         -1   -1    0    0    0  501 -0.00000000000E+00  0.00000000000E+00  0.88261785774E+02  0.88261785774E+02  0.00000000000E+00 0.  1.
          1   -1    0    0  501    0  0.00000000000E+00 -0.00000000000E+00 -0.24199469509E+03  0.24199469509E+03  0.00000000000E+00 0. -1.
          5    1    1    2  502    0 -0.17276358303E+01 -0.46705993439E+02 -0.22110762113E+02  0.51917341515E+02  0.47000000000E+01 0.  1.
         -5    1    1    2    0  502 -0.92835195847E+02  0.58877830014E+02 -0.38384248629E+02  0.11653502906E+03  0.47000000000E+01 0.  1.
        -11    1    1    2    0    0  0.45522837751E+02 -0.25872871195E+02 -0.97538829132E+02  0.11070482107E+03  0.00000000000E+00 0. -1.
         11    1    1    2    0    0  0.49039993927E+02  0.13701034620E+02  0.43009305629E+01  0.51099289209E+02  0.00000000000E+00 0.  1.
<mgrwt>
<rscale>  0 0.29229358E+03</rscale>
<asrwt>0</asrwt>
<pdfrwt beam="2">  1        1 0.37229953E-01 0.29229358E+03</pdfrwt>
<pdfrwt beam="1">  1       -1 0.13578736E-01 0.29229358E+03</pdfrwt>
<totfact> 0.43203466E+03</totfact>
</mgrwt>
</event>
<event>
 6    1  0.7270761E-006  0.3190611E+03  0.7546771E-02  0.1076082E+00
         -4   -1    0    0    0  501 -0.00000000000E+00  0.00000000000E+00  0.45702694036E+03  0.45702694036E+03  0.00000000000E+00 0.  1.
          4   -1    0    0  501    0  0.00000000000E+00 -0.00000000000E+00 -0.55685984993E+02  0.55685984993E+02  0.00000000000E+00 0. -1.
          5    1    1    2  502    0 -0.20525194866E+02  0.38626872871E+00  0.14831117039E+03  0.14979895224E+03  0.47000000000E+01 0. -1.
         -5    1    1    2    0  502  0.35922199277E+02  0.10903822094E+03  0.11985895120E+03  0.16603612923E+03  0.47000000000E+01 0. -1.
        -11    1    1    2    0    0 -0.44225136587E+02 -0.47276267221E+02  0.10381230827E+03  0.12234338355E+03  0.00000000000E+00 0.  1.
         11    1    1    2    0    0  0.28828132176E+02 -0.62148222451E+02  0.29358525499E+02  0.74534460339E+02  0.00000000000E+00 0. -1.
<mgrwt>
<rscale>  0 0.31906109E+03</rscale>
<asrwt>0</asrwt>
<pdfrwt beam="2">  1        4 0.85670749E-02 0.31906109E+03</pdfrwt>
<pdfrwt beam="1">  1       -4 0.70311834E-01 0.31906109E+03</pdfrwt>
<totfact> 0.35402135E+02</totfact>
</mgrwt>
</event>
<event>
 6    1  0.7270761E-006  0.2867798E+03  0.7546771E-02  0.1092043E+00
         -2   -1    0    0    0  501 -0.00000000000E+00  0.00000000000E+00  0.17160368150E+03  0.17160368150E+03  0.00000000000E+00 0.  1.
          2   -1    0    0  501    0  0.00000000000E+00 -0.00000000000E+00 -0.11981484221E+03  0.11981484221E+03  0.00000000000E+00 0. -1.
          5    1    1    2  502    0 -0.39951247511E+02  0.93510023467E+02  0.49322651155E+02  0.11311516513E+03  0.47000000000E+01 0.  1.
         -5    1    1    2    0  502 -0.78799857361E+01 -0.39372159173E+02  0.38906803970E+02  0.56107846941E+02  0.47000000000E+01 0.  1.
        -11    1    1    2    0    0  0.43823843873E+02 -0.57214222553E+01  0.19324896477E+02  0.48236040347E+02  0.00000000000E+00 0.  1.
         11    1    1    2    0    0  0.40073893732E+01 -0.48416442039E+02 -0.55765512313E+02  0.73959471285E+02  0.00000000000E+00 0. -1.
<mgrwt>
<rscale>  0 0.28677983E+03</rscale>
<asrwt>0</asrwt>
<pdfrwt beam="2">  1        2 0.18433053E-01 0.28677983E+03</pdfrwt>
<pdfrwt beam="1">  1       -2 0.26400566E-01 0.28677983E+03</pdfrwt>
<totfact> 0.39225869E+03</totfact>
</mgrwt>
</event>
<event>
 6    1  0.7270761E-006  0.1254820E+03  0.7546771E-02  0.1247725E+00
          1   -1    0    0  501    0  0.00000000000E+00  0.00000000000E+00  0.25755546271E+02  0.25755546271E+02  0.00000000000E+00 0. -1.
         -1   -1    0    0    0  501 -0.00000000000E+00 -0.00000000000E+00 -0.47470838929E+03  0.47470838929E+03  0.00000000000E+00 0.  1.
          5    1    1    2  502    0  0.47721477326E+02  0.42497086723E+02 -0.14677329848E+03  0.16014940813E+03  0.47000000000E+01 0. -1.
         -5    1    1    2    0  502 -0.37887268229E+02 -0.47401491251E+02 -0.11329457369E+03  0.12860830803E+03  0.47000000000E+01 0. -1.
        -11    1    1    2    0    0  0.35658019368E+02  0.17190295390E+02 -0.43218340727E+02  0.58607384996E+02  0.00000000000E+00 0. -1.
         11    1    1    2    0    0 -0.45492228465E+02 -0.12285890862E+02 -0.14566663012E+03  0.15309883440E+03  0.00000000000E+00 0.  1.
<mgrwt>
<rscale>  0 0.11723737E+03</rscale>
<asrwt>0</asrwt>
<pdfrwt beam="1">  1        1 0.39623913E-02 0.12548195E+03</pdfrwt>
<pdfrwt beam="2">  1       -1 0.73032069E-01 0.12548195E+03</pdfrwt>
<totfact> 0.43164525E+03</totfact>
</mgrwt>
</event>
<event>
 6    1  0.7270761E-006  0.1927235E+03  0.7546771E-02  0.1188996E+00
         -2   -1    0    0    0  501 -0.00000000000E+00  0.00000000000E+00  0.17532492628E+03  0.17532492628E+03  0.00000000000E+00 0.  1.
          2   -1    0    0  501    0  0.00000000000E+00 -0.00000000000E+00 -0.13044956364E+03  0.13044956364E+03  0.00000000000E+00 0. -1.
          5    1    1    2  502    0  0.81298929111E+02  0.46444148900E+02 -0.38751804044E+02  0.10144144695E+03  0.47000000000E+01 0. -1.
         -5    1    1    2    0  502 -0.81379218515E+02 -0.39378601405E+02  0.18316275096E+02  0.92362478248E+02  0.47000000000E+01 0.  1.
        -11    1    1    2    0    0 -0.38108343273E+02  0.20834850951E+02  0.35187459703E+02  0.55897174898E+02  0.00000000000E+00 0.  1.
         11    1    1    2    0    0  0.38188632678E+02 -0.27900398447E+02  0.30123431882E+02  0.56073389836E+02  0.00000000000E+00 0. -1.
<mgrwt>
<rscale>  0 0.15973557E+03</rscale>
<asrwt>0</asrwt>
<pdfrwt beam="2">  1        2 0.20069163E-01 0.19272351E+03</pdfrwt>
<pdfrwt beam="1">  1       -2 0.26973066E-01 0.19272351E+03</pdfrwt>
<totfact> 0.33606826E+03</totfact>
</mgrwt>
</event>
<event>
 6    1  0.7270761E-006  0.1669059E+03  0.7546771E-02  0.1188520E+00
          2   -1    0    0  501    0  0.00000000000E+00  0.00000000000E+00  0.73083867507E+02  0.73083867507E+02  0.00000000000E+00 0. -1.
         -2   -1    0    0    0  501 -0.00000000000E+00 -0.00000000000E+00 -0.33592218913E+03  0.33592218913E+03  0.00000000000E+00 0.  1.
          5    1    1    2  502    0  0.32528339459E+02 -0.33211042713E+02  0.54158903126E+01  0.47037092745E+02  0.47000000000E+01 0. -1.
         -5    1    1    2    0  502  0.71514529374E+02 -0.42804328155E+01 -0.18345067830E+03  0.19699972433E+03  0.47000000000E+01 0. -1.
        -11    1    1    2    0    0 -0.88074109808E+02  0.61079187327E+02 -0.84497630329E+02  0.13648283949E+03  0.00000000000E+00 0. -1.
         11    1    1    2    0    0 -0.15968759025E+02 -0.23587711799E+02 -0.30590330843E+00  0.28486400080E+02  0.00000000000E+00 0.  1.
<mgrwt>
<rscale>  0 0.16015684E+03</rscale>
<asrwt>0</asrwt>
<pdfrwt beam="1">  1        2 0.11243672E-01 0.16690591E+03</pdfrwt>
<pdfrwt beam="2">  1       -2 0.51680336E-01 0.16690591E+03</pdfrwt>
<totfact> 0.19443665E+03</totfact>
</mgrwt>
</event>
<event>
 6    1  0.7270761E-006  0.1362193E+03  0.7546771E-02  0.1231416E+00
          2   -1    0    0  501    0  0.00000000000E+00  0.00000000000E+00  0.79313280831E+02  0.79313280831E+02  0.00000000000E+00 0. -1.
         -2   -1    0    0    0  501 -0.00000000000E+00 -0.00000000000E+00 -0.19885852319E+03  0.19885852319E+03  0.00000000000E+00 0.  1.
          5    1    1    2  502    0 -0.33010633635E+02 -0.22752722790E+02  0.52340274912E+01  0.40704709447E+02  0.47000000000E+01 0.  1.
         -5    1    1    2    0  502  0.67631304520E+02 -0.18892575217E+02 -0.11240608745E+03  0.13262028972E+03  0.47000000000E+01 0.  1.
        -11    1    1    2    0    0 -0.56837510445E+02  0.44357593996E+02  0.10484166771E+02  0.72856135580E+02  0.00000000000E+00 0. -1.
         11    1    1    2    0    0  0.22216839560E+02 -0.27122959893E+01 -0.22857349172E+02  0.31990669276E+02  0.00000000000E+00 0.  1.
<mgrwt>
<rscale>  0 0.12736687E+03</rscale>
<asrwt>0</asrwt>
<pdfrwt beam="1">  1        2 0.12202043E-01 0.13621933E+03</pdfrwt>
<pdfrwt beam="2">  1       -2 0.30593619E-01 0.13621933E+03</pdfrwt>
<totfact> 0.47068054E+03</totfact>
</mgrwt>
</event>
<event>
 6    1  0.7270761E-006  0.1278114E+03  0.7546771E-02  0.1246092E+00
         -1   -1    0    0    0  501 -0.00000000000E+00  0.00000000000E+00  0.24250554983E+03  0.24250554983E+03  0.00000000000E+00 0.  1.
          1   -1    0    0  501    0  0.00000000000E+00 -0.00000000000E+00 -0.77512276454E+02  0.77512276454E+02  0.00000000000E+00 0. -1.
          5    1    1    2  502    0 -0.24170268248E+02  0.32615832361E+02  0.14746705474E+02  0.43445940088E+02  0.47000000000E+01 0.  1.
         -5    1    1    2    0  502  0.50468064387E+02 -0.37056461528E+02  0.16981389163E+03  0.18104986787E+03  0.47000000000E+01 0.  1.
        -11    1    1    2    0    0 -0.49803165977E+02  0.29963399251E+02 -0.17771218727E+02  0.60778095159E+02  0.00000000000E+00 0. -1.
         11    1    1    2    0    0  0.23505369838E+02 -0.25522770084E+02 -0.17961050021E+01  0.34743923169E+02  0.00000000000E+00 0.  1.
<mgrwt>
<rscale>  0 0.11820229E+03</rscale>
<asrwt>0</asrwt>
<pdfrwt beam="2">  1        1 0.11924966E-01 0.12781140E+03</pdfrwt>
<pdfrwt beam="1">  1       -1 0.37308546E-01 0.12781140E+03</pdfrwt>
<totfact> 0.33903419E+03</totfact>
</mgrwt>
</event>
<event>
 6    1  0.7270761E-006  0.1335558E+03  0.7546771E-02  0.1235441E+00
         -2   -1    0    0    0  501 -0.00000000000E+00  0.00000000000E+00  0.34766452546E+02  0.34766452546E+02  0.00000000000E+00 0.  1.
          2   -1    0    0  501    0  0.00000000000E+00 -0.00000000000E+00 -0.41393927358E+03  0.41393927358E+03  0.00000000000E+00 0. -1.
          5    1    1    2  502    0  0.44869212397E+00  0.15575852164E+02 -0.15461644130E+03  0.15547071240E+03  0.47000000000E+01 0.  1.
         -5    1    1    2    0  502 -0.35376151629E+02 -0.47083999930E+02 -0.16011855851E+02  0.61211475079E+02  0.47000000000E+01 0.  1.
        -11    1    1    2    0    0  0.62013539781E+02  0.19157979683E+02 -0.98027224444E+02  0.11756718944E+03  0.00000000000E+00 0.  1.
         11    1    1    2    0    0 -0.27086080275E+02  0.12350168084E+02 -0.11051729944E+03  0.11445634919E+03  0.00000000000E+00 0. -1.
<mgrwt>
<rscale>  0 0.12476239E+03</rscale>
<asrwt>0</asrwt>
<pdfrwt beam="2">  1        2 0.63682962E-01 0.13355581E+03</pdfrwt>
<pdfrwt beam="1">  1       -2 0.53486853E-02 0.13355581E+03</pdfrwt>
<totfact> 0.12821563E+04</totfact>
</mgrwt>
</event>
<event>
 6    1  0.7270761E-006  0.1370760E+03  0.7546771E-02  0.1229128E+00
         -1   -1    0    0    0  501 -0.00000000000E+00  0.00000000000E+00  0.16025645172E+02  0.16025645172E+02  0.00000000000E+00 0.  1.
          1   -1    0    0  501    0  0.00000000000E+00 -0.00000000000E+00 -0.96122213137E+03  0.96122213137E+03  0.00000000000E+00 0. -1.
          5    1    1    2  502    0  0.18528698529E+02  0.85504007109E+02 -0.55953814675E+03  0.56635613846E+03  0.47000000000E+01 0. -1.
         -5    1    1    2    0  502 -0.67867984993E+01 -0.30479895144E+02 -0.56282308332E+02  0.64535826275E+02  0.47000000000E+01 0. -1.
        -11    1    1    2    0    0  0.12417963150E+02 -0.55306485424E+02 -0.31067169912E+03  0.31580043979E+03  0.00000000000E+00 0. -1.
         11    1    1    2    0    0 -0.24159863180E+02  0.28237345897E+00 -0.18704331994E+02  0.30555372015E+02  0.00000000000E+00 0.  1.
<mgrwt>
<rscale>  0 0.12887968E+03</rscale>
<asrwt>0</asrwt>
<pdfrwt beam="2">  1        1 0.14788035E+00 0.13707603E+03</pdfrwt>
<pdfrwt beam="1">  1       -1 0.24654835E-02 0.13707603E+03</pdfrwt>
<totfact> 0.83442623E+03</totfact>
</mgrwt>
</event>
<event>
 6    1  0.7270761E-006  0.1323934E+03  0.7546771E-02  0.1231090E+00
         -1   -1    0    0    0  501 -0.00000000000E+00  0.00000000000E+00  0.46669019721E+02  0.46669019721E+02  0.00000000000E+00 0.  1.
          1   -1    0    0  501    0  0.00000000000E+00 -0.00000000000E+00 -0.37897155035E+03  0.37897155035E+03  0.00000000000E+00 0. -1.
          5    1    1    2  502    0  0.36563425714E+02 -0.39130683761E+02 -0.14944791285E+02  0.55799025960E+02  0.47000000000E+01 0.  1.
         -5    1    1    2    0  502 -0.69726150956E+02  0.10728426452E+02 -0.82125222626E+02  0.10836732650E+03  0.47000000000E+01 0.  1.
        -11    1    1    2    0    0  0.69520950366E+02  0.19011447260E+02 -0.18657118242E+03  0.20000850926E+03  0.00000000000E+00 0. -1.
         11    1    1    2    0    0 -0.36358225123E+02  0.93908100488E+01 -0.48661334300E+02  0.61465708353E+02  0.00000000000E+00 0.  1.
<mgrwt>
<rscale>  0 0.12758105E+03</rscale>
<asrwt>0</asrwt>
<pdfrwt beam="2">  1        1 0.58303318E-01 0.13239337E+03</pdfrwt>
<pdfrwt beam="1">  1       -1 0.71798488E-02 0.13239337E+03</pdfrwt>
<totfact> 0.63079130E+03</totfact>
</mgrwt>
</event>
<event>
 6    1  0.7270761E-006  0.2310062E+03  0.7546771E-02  0.1128896E+00
          1   -1    0    0  501    0  0.00000000000E+00  0.00000000000E+00  0.40372094258E+03  0.40372094258E+03  0.00000000000E+00 0. -1.
         -1   -1    0    0    0  501 -0.00000000000E+00 -0.00000000000E+00 -0.12456918724E+03  0.12456918724E+03  0.00000000000E+00 0.  1.
          5    1    1    2  502    0  0.29526926112E+02 -0.13160037312E+03  0.80965684162E+02  0.15737861857E+03  0.47000000000E+01 0.  1.
         -5    1    1    2    0  502  0.90928548997E+02 -0.20812952073E+02  0.93023467249E+02  0.13182046676E+03  0.47000000000E+01 0.  1.
        -11    1    1    2    0    0  0.40571805899E+01  0.13364012553E+02  0.38399208556E+02  0.40860210029E+02  0.00000000000E+00 0. -1.
         11    1    1    2    0    0 -0.12451265570E+03  0.13904931264E+03  0.66763395365E+02  0.19823083447E+03  0.00000000000E+00 0.  1.
<mgrwt>
<rscale>  0 0.22682280E+03</rscale>
<asrwt>0</asrwt>
<pdfrwt beam="1">  1        1 0.62110914E-01 0.23100625E+03</pdfrwt>
<pdfrwt beam="2">  1       -1 0.19164491E-01 0.23100625E+03</pdfrwt>
<totfact> 0.12924762E+03</totfact>
</mgrwt>
</event>
<event>
 6    1  0.7270761E-006  0.1452640E+03  0.7546771E-02  0.1216421E+00
         -2   -1    0    0    0  501 -0.00000000000E+00  0.00000000000E+00  0.56241053889E+02  0.56241053889E+02  0.00000000000E+00 0.  1.
          2   -1    0    0  501    0  0.00000000000E+00 -0.00000000000E+00 -0.35688723339E+03  0.35688723339E+03  0.00000000000E+00 0. -1.
          5    1    1    2  502    0 -0.54422653005E+02  0.64357725839E+02 -0.12369054722E+02  0.85316033370E+02  0.47000000000E+01 0. -1.
         -5    1    1    2    0  502  0.37588187574E+02  0.76657497589E+01 -0.74533100415E+02  0.83957778806E+02  0.47000000000E+01 0. -1.
        -11    1    1    2    0    0  0.36796780750E+02 -0.19813427827E+02 -0.16329627564E+03  0.16855933268E+03  0.00000000000E+00 0. -1.
         11    1    1    2    0    0 -0.19962315319E+02 -0.52210047771E+02 -0.50447748721E+02  0.75295142421E+02  0.00000000000E+00 0.  1.
<mgrwt>
<rscale>  0 0.13772691E+03</rscale>
<asrwt>0</asrwt>
<pdfrwt beam="2">  1        2 0.54905728E-01 0.14526403E+03</pdfrwt>
<pdfrwt beam="1">  1       -2 0.86524699E-02 0.14526403E+03</pdfrwt>
<totfact> 0.72402891E+03</totfact>
</mgrwt>
</event>
<event>
 6    1  0.7270761E-006  0.2403072E+03  0.7546771E-02  0.1123363E+00
         -2   -1    0    0    0  501 -0.00000000000E+00  0.00000000000E+00  0.49604618131E+02  0.49604618131E+02  0.00000000000E+00 0.  1.
          2   -1    0    0  501    0  0.00000000000E+00 -0.00000000000E+00 -0.10713816430E+04  0.10713816430E+04  0.00000000000E+00 0. -1.
          5    1    1    2  502    0 -0.92364843885E+02 -0.36779057506E+02 -0.12258538404E+03  0.15790259604E+03  0.47000000000E+01 0.  1.
         -5    1    1    2    0  502 -0.99414699235E+02 -0.36549857435E+02 -0.46478231172E+03  0.47672199634E+03  0.47000000000E+01 0.  1.
        -11    1    1    2    0    0  0.14056495092E+03  0.56679319714E+02 -0.38304932742E+03  0.41194397428E+03  0.00000000000E+00 0. -1.
         11    1    1    2    0    0  0.51214592199E+02  0.16649595227E+02 -0.51360001660E+02  0.74417694441E+02  0.00000000000E+00 0.  1.
<mgrwt>
<rscale>  0 0.23471709E+03</rscale>
<asrwt>0</asrwt>
<pdfrwt beam="2">  1        2 0.16482795E+00 0.24030723E+03</pdfrwt>
<pdfrwt beam="1">  1       -2 0.76314795E-02 0.24030723E+03</pdfrwt>
<totfact> 0.24143734E+03</totfact>
</mgrwt>
</event>
<event>
 6    1  0.7270761E-006  0.1309129E+03  0.7546771E-02  0.1240462E+00
         -1   -1    0    0    0  501 -0.00000000000E+00  0.00000000000E+00  0.24911573399E+02  0.24911573399E+02  0.00000000000E+00 0. -1.
          1   -1    0    0  501    0  0.00000000000E+00 -0.00000000000E+00 -0.52375366842E+03  0.52375366842E+03  0.00000000000E+00 0.  1.
          5    1    1    2  502    0 -0.25250456592E+02 -0.55456533967E+02 -0.29070262191E+03  0.29705743065E+03  0.47000000000E+01 0.  1.
         -5    1    1    2    0  502  0.10004866924E+02  0.19721589991E+02 -0.94890097646E+00  0.22628055308E+02  0.47000000000E+01 0.  1.
        -11    1    1    2    0    0  0.44423845347E+02  0.47993846607E+02 -0.14949736897E+03  0.16317582749E+03  0.00000000000E+00 0. -1.
         11    1    1    2    0    0 -0.29178255679E+02 -0.12258902631E+02 -0.57693203164E+02  0.65803928374E+02  0.00000000000E+00 0.  1.
<mgrwt>
<rscale>  0 0.12161134E+03</rscale>
<asrwt>0</asrwt>
<pdfrwt beam="2">  1        1 0.80577496E-01 0.13091294E+03</pdfrwt>
<pdfrwt beam="1">  1       -1 0.38325493E-02 0.13091294E+03</pdfrwt>
<totfact> 0.10559035E+04</totfact>
</mgrwt>
</event>
<event>
 6    1  0.7270761E-006  0.2830907E+03  0.7546771E-02  0.1095484E+00
          1   -1    0    0  501    0  0.00000000000E+00  0.00000000000E+00  0.27976984504E+03  0.27976984504E+03  0.00000000000E+00 0. -1.
         -1   -1    0    0    0  501 -0.00000000000E+00 -0.00000000000E+00 -0.29596997162E+03  0.29596997162E+03  0.00000000000E+00 0.  1.
          5    1    1    2  502    0 -0.24615208681E+03  0.95368142947E+01 -0.43526771760E+02  0.25019686354E+03  0.47000000000E+01 0.  1.
         -5    1    1    2    0  502 -0.76938343111E+01 -0.18436147125E+02 -0.40002652660E+02  0.44959857952E+02  0.47000000000E+01 0.  1.
        -11    1    1    2    0    0  0.17503128164E+03  0.39335860920E+02  0.77624350504E+02  0.19547071213E+03  0.00000000000E+00 0.  1.
         11    1    1    2    0    0  0.78814639475E+02 -0.30436528090E+02 -0.10295052660E+02  0.85112383042E+02  0.00000000000E+00 0. -1.
<mgrwt>
<rscale>  0 0.28037546E+03</rscale>
<asrwt>0</asrwt>
<pdfrwt beam="1">  1        1 0.43041515E-01 0.28309067E+03</pdfrwt>
<pdfrwt beam="2">  1       -1 0.45533842E-01 0.28309067E+03</pdfrwt>
<totfact> 0.46962965E+02</totfact>
</mgrwt>
</event>
<event>
 6    1  0.7270761E-006  0.1278888E+03  0.7546771E-02  0.1245190E+00
         -2   -1    0    0    0  501 -0.00000000000E+00  0.00000000000E+00  0.25908762479E+02  0.25908762479E+02  0.00000000000E+00 0. -1.
          2   -1    0    0  501    0  0.00000000000E+00 -0.00000000000E+00 -0.48569917475E+03  0.48569917475E+03  0.00000000000E+00 0.  1.
          5    1    1    2  502    0  0.51015248192E+02 -0.86621467905E+01 -0.12504923512E+03  0.13541414084E+03  0.47000000000E+01 0. -1.
         -5    1    1    2    0  502 -0.72730818395E+02 -0.74443549436E+01 -0.10976880632E+03  0.13197147876E+03  0.47000000000E+01 0. -1.
        -11    1    1    2    0    0  0.15336330783E+02 -0.21744692460E+02 -0.14549291424E+02  0.30326829260E+02  0.00000000000E+00 0. -1.
         11    1    1    2    0    0  0.63792394196E+01  0.37851194194E+02 -0.21042307940E+03  0.21389548836E+03  0.00000000000E+00 0.  1.
<mgrwt>
<rscale>  0 0.11874008E+03</rscale>
<asrwt>0</asrwt>
<pdfrwt beam="2">  1        2 0.74722948E-01 0.12788885E+03</pdfrwt>
<pdfrwt beam="1">  1       -2 0.39859636E-02 0.12788885E+03</pdfrwt>
<totfact> 0.16682551E+04</totfact>
</mgrwt>
</event>
<event>
 6    1  0.7270761E-006  0.1451854E+03  0.7546771E-02  0.1218383E+00
         -3   -1    0    0    0  501 -0.00000000000E+00  0.00000000000E+00  0.72437238839E+02  0.72437238839E+02  0.00000000000E+00 0.  1.
          3   -1    0    0  501    0  0.00000000000E+00 -0.00000000000E+00 -0.26453636955E+03  0.26453636955E+03  0.00000000000E+00 0. -1.
          5    1    1    2  502    0 -0.79090296321E+02 -0.69089803360E+02 -0.30454191158E+02  0.10944507143E+03  0.47000000000E+01 0. -1.
         -5    1    1    2    0  502  0.28946235410E+02  0.27124294223E+02 -0.15355422383E+02  0.42795921278E+02  0.47000000000E+01 0.  1.
        -11    1    1    2    0    0 -0.11604136413E+02  0.39805538457E+02 -0.24482002450E+02  0.48150859989E+02  0.00000000000E+00 0.  1.
         11    1    1    2    0    0  0.61748197324E+02  0.21599706806E+01 -0.12180751472E+03  0.13658175570E+03  0.00000000000E+00 0. -1.
<mgrwt>
<rscale>  0 0.13630966E+03</rscale>
<asrwt>0</asrwt>
<pdfrwt beam="2">  1        3 0.40697903E-01 0.14518540E+03</pdfrwt>
<pdfrwt beam="1">  1       -3 0.11144190E-01 0.14518540E+03</pdfrwt>
<totfact> 0.86242801E+02</totfact>
</mgrwt>
</event>
<event>
 6    1  0.7270761E-006  0.1398411E+03  0.7546771E-02  0.1226818E+00
          1   -1    0    0  501    0  0.00000000000E+00  0.00000000000E+00  0.16828795275E+03  0.16828795275E+03  0.00000000000E+00 0. -1.
         -1   -1    0    0    0  501 -0.00000000000E+00 -0.00000000000E+00 -0.13722302946E+03  0.13722302946E+03  0.00000000000E+00 0.  1.
          5    1    1    2  502    0 -0.63797170857E+02 -0.61214273635E+02 -0.17206496284E+02  0.90196562132E+02  0.47000000000E+01 0.  1.
         -5    1    1    2    0  502  0.37935813324E+02  0.41148248009E+01 -0.55223556372E+02  0.67288846728E+02  0.47000000000E+01 0.  1.
        -11    1    1    2    0    0  0.53534605402E+01  0.35626494205E+02 -0.42386649919E+01  0.36274962577E+02  0.00000000000E+00 0.  1.
         11    1    1    2    0    0  0.20507896993E+02  0.21472954630E+02  0.10773364093E+03  0.11175061077E+03  0.00000000000E+00 0. -1.
<mgrwt>
<rscale>  0 0.13043081E+03</rscale>
<asrwt>0</asrwt>
<pdfrwt beam="1">  1        1 0.25890454E-01 0.13984113E+03</pdfrwt>
<pdfrwt beam="2">  1       -1 0.21111235E-01 0.13984113E+03</pdfrwt>
<totfact> 0.32602986E+03</totfact>
</mgrwt>
</event>
<event>
 6    1  0.7270761E-006  0.1270764E+03  0.7546771E-02  0.1247132E+00
          2   -1    0    0  501    0  0.00000000000E+00  0.00000000000E+00  0.27508604538E+03  0.27508604538E+03  0.00000000000E+00 0. -1.
         -2   -1    0    0    0  501 -0.00000000000E+00 -0.00000000000E+00 -0.44081936979E+02  0.44081936979E+02  0.00000000000E+00 0.  1.
          5    1    1    2  502    0 -0.46944111874E+02 -0.25225509028E+00  0.11837697997E+03  0.12743238466E+03  0.47000000000E+01 0. -1.
         -5    1    1    2    0  502  0.49413006170E+02 -0.22476702737E+02  0.14405814719E+02  0.56360135223E+02  0.47000000000E+01 0. -1.
        -11    1    1    2    0    0 -0.27088848591E+02  0.32765225381E+02  0.10006811656E+03  0.10872439314E+03  0.00000000000E+00 0. -1.
         11    1    1    2    0    0  0.24619954296E+02 -0.10036267554E+02 -0.18468028499E+01  0.26651069335E+02  0.00000000000E+00 0.  1.
<mgrwt>
<rscale>  0 0.11758665E+03</rscale>
<asrwt>0</asrwt>
<pdfrwt beam="1">  1        2 0.42320929E-01 0.12707643E+03</pdfrwt>
<pdfrwt beam="2">  1       -2 0.67818366E-02 0.12707643E+03</pdfrwt>
<totfact> 0.13748537E+04</totfact>
</mgrwt>
</event>
<event>
 6    1  0.7270761E-006  0.1279956E+03  0.7546771E-02  0.1244578E+00
         -1   -1    0    0    0  501 -0.00000000000E+00  0.00000000000E+00  0.31465629130E+02  0.31465629130E+02  0.00000000000E+00 0.  1.
          1   -1    0    0  501    0  0.00000000000E+00 -0.00000000000E+00 -0.40443232195E+03  0.40443232195E+03  0.00000000000E+00 0. -1.
          5    1    1    2  502    0  0.64628701370E+02 -0.14929031346E+02 -0.71820966712E+02  0.97877915166E+02  0.47000000000E+01 0.  1.
         -5    1    1    2    0  502 -0.38530476303E+02  0.23715706026E+02 -0.16695303115E+03  0.17303883069E+03  0.47000000000E+01 0.  1.
        -11    1    1    2    0    0 -0.15915488703E+02  0.36167558865E+02 -0.10019795677E+03  0.10770805744E+03  0.00000000000E+00 0. -1.
         11    1    1    2    0    0 -0.10182736364E+02 -0.44954233546E+02 -0.33994738186E+02  0.57273147791E+02  0.00000000000E+00 0.  1.
<mgrwt>
<rscale>  0 0.11910643E+03</rscale>
<asrwt>0</asrwt>
<pdfrwt beam="2">  1        1 0.62220355E-01 0.12799555E+03</pdfrwt>
<pdfrwt beam="1">  1       -1 0.48408662E-02 0.12799555E+03</pdfrwt>
<totfact> 0.10422709E+04</totfact>
</mgrwt>
</event>
<event>
 6    1  0.7270761E-006  0.1267423E+03  0.7546771E-02  0.1247102E+00
          2   -1    0    0  501    0  0.00000000000E+00  0.00000000000E+00  0.28024144541E+03  0.28024144541E+03  0.00000000000E+00 0. -1.
         -2   -1    0    0    0  501 -0.00000000000E+00 -0.00000000000E+00 -0.43662049470E+02  0.43662049470E+02  0.00000000000E+00 0.  1.
          5    1    1    2  502    0  0.48970179070E+02  0.26410927678E+02  0.25435651101E+02  0.61356970964E+02  0.47000000000E+01 0.  1.
         -5    1    1    2    0  502 -0.40306672856E+02 -0.45394926046E+02  0.99227898984E+02  0.11641990004E+03  0.47000000000E+01 0.  1.
        -11    1    1    2    0    0 -0.35786115335E+02 -0.11167952096E+02  0.13779713590E+02  0.39940577254E+02  0.00000000000E+00 0.  1.
         11    1    1    2    0    0  0.27122609120E+02  0.30151950464E+02  0.98136132269E+02  0.10618604663E+03  0.00000000000E+00 0. -1.
<mgrwt>
<rscale>  0 0.11760425E+03</rscale>
<asrwt>0</asrwt>
<pdfrwt beam="1">  1        2 0.43114067E-01 0.12674232E+03</pdfrwt>
<pdfrwt beam="2">  1       -2 0.67172386E-02 0.12674232E+03</pdfrwt>
<totfact> 0.13676159E+04</totfact>
</mgrwt>
</event>
<event>
 6    1  0.7270761E-006  0.1395795E+03  0.7546771E-02  0.1225085E+00
          2   -1    0    0  501    0  0.00000000000E+00  0.00000000000E+00  0.40135791779E+03  0.40135791779E+03  0.00000000000E+00 0. -1.
         -2   -1    0    0    0  501 -0.00000000000E+00 -0.00000000000E+00 -0.39835854840E+02  0.39835854840E+02  0.00000000000E+00 0.  1.
          5    1    1    2  502    0  0.98301022770E+01 -0.66780291116E+02  0.78254838341E+02  0.10345118615E+03  0.47000000000E+01 0. -1.
         -5    1    1    2    0  502 -0.62868067152E+02  0.34481595228E+02  0.89635606711E+02  0.11488257600E+03  0.47000000000E+01 0. -1.
        -11    1    1    2    0    0  0.36314058687E+02  0.49243072679E+02  0.55229148230E+02  0.82424813494E+02  0.00000000000E+00 0.  1.
         11    1    1    2    0    0  0.16723906188E+02 -0.16944376791E+02  0.13840246967E+03  0.14043519699E+03  0.00000000000E+00 0. -1.
<mgrwt>
<rscale>  0 0.13161112E+03</rscale>
<asrwt>0</asrwt>
<pdfrwt beam="1">  1        2 0.61747369E-01 0.13957948E+03</pdfrwt>
<pdfrwt beam="2">  1       -2 0.61285933E-02 0.13957948E+03</pdfrwt>
<totfact> 0.10822154E+04</totfact>
</mgrwt>
</event>
<event>
 6    1  0.7270761E-006  0.1771737E+03  0.7546771E-02  0.1177986E+00
         -2   -1    0    0    0  501 -0.00000000000E+00  0.00000000000E+00  0.30102553468E+02  0.30102553468E+02  0.00000000000E+00 0.  1.
          2   -1    0    0  501    0  0.00000000000E+00 -0.00000000000E+00 -0.91338081880E+03  0.91338081880E+03  0.00000000000E+00 0. -1.
          5    1    1    2  502    0 -0.79727985183E+02 -0.66344098761E+02 -0.33984239557E+03  0.35534917319E+03  0.47000000000E+01 0.  1.
         -5    1    1    2    0  502 -0.45490142365E+02  0.57104227072E+02 -0.21713551143E+03  0.22912914727E+03  0.47000000000E+01 0.  1.
        -11    1    1    2    0    0  0.60667743003E+02 -0.32908588357E+02 -0.11550354913E+03  0.13455340981E+03  0.00000000000E+00 0.  1.
         11    1    1    2    0    0  0.64550384545E+02  0.42148460046E+02 -0.21079680920E+03  0.22445164200E+03  0.00000000000E+00 0. -1.
<mgrwt>
<rscale>  0 0.16986786E+03</rscale>
<asrwt>0</asrwt>
<pdfrwt beam="2">  1        2 0.14052011E+00 0.17717369E+03</pdfrwt>
<pdfrwt beam="1">  1       -2 0.46311626E-02 0.17717369E+03</pdfrwt>
<totfact> 0.64319282E+03</totfact>
</mgrwt>
</event>
<event>
 6    1  0.7270761E-006  0.1329740E+03  0.7546771E-02  0.1236487E+00
         -1   -1    0    0    0  501 -0.00000000000E+00  0.00000000000E+00  0.30616819657E+02  0.30616819657E+02  0.00000000000E+00 0. -1.
          1   -1    0    0  501    0  0.00000000000E+00 -0.00000000000E+00 -0.44736055613E+03  0.44736055613E+03  0.00000000000E+00 0.  1.
          5    1    1    2  502    0 -0.11751098423E+02  0.29797086697E+02 -0.10464373872E+02  0.34022754302E+02  0.47000000000E+01 0.  1.
         -5    1    1    2    0  502  0.52915048557E+01 -0.74477352672E+02 -0.21607434601E+03  0.22865932977E+03  0.47000000000E+01 0.  1.
        -11    1    1    2    0    0  0.28253705610E+02 -0.18449728815E+02 -0.55750140988E+02  0.65167036102E+02  0.00000000000E+00 0. -1.
         11    1    1    2    0    0 -0.21794112043E+02  0.63129994791E+02 -0.13445487560E+03  0.15012825562E+03  0.00000000000E+00 0.  1.
<mgrwt>
<rscale>  0 0.12409724E+03</rscale>
<asrwt>0</asrwt>
<pdfrwt beam="2">  1        1 0.68824695E-01 0.13297400E+03</pdfrwt>
<pdfrwt beam="1">  1       -1 0.47102803E-02 0.13297400E+03</pdfrwt>
<totfact> 0.95752862E+03</totfact>
</mgrwt>
</event>
<event>
 6    1  0.7270761E-006  0.1263469E+03  0.7546771E-02  0.1248463E+00
          1   -1    0    0  501    0  0.00000000000E+00  0.00000000000E+00  0.24622462736E+03  0.24622462736E+03  0.00000000000E+00 0. -1.
         -1   -1    0    0    0  501 -0.00000000000E+00 -0.00000000000E+00 -0.51823778857E+02  0.51823778857E+02  0.00000000000E+00 0.  1.
          5    1    1    2  502    0  0.65632126143E+02 -0.21727391767E+02  0.40015601004E+02  0.80018709430E+02  0.47000000000E+01 0. -1.
         -5    1    1    2    0  502 -0.56565144216E+02  0.57059828363E+01  0.34249142670E+02  0.66537715275E+02  0.47000000000E+01 0. -1.
        -11    1    1    2    0    0 -0.37723180937E+02 -0.32543729703E+01  0.10870969163E+03  0.11511483995E+03  0.00000000000E+00 0. -1.
         11    1    1    2    0    0  0.28656199010E+02  0.19275781901E+02  0.11426413203E+02  0.36377141563E+02  0.00000000000E+00 0.  1.
<mgrwt>
<rscale>  0 0.11680464E+03</rscale>
<asrwt>0</asrwt>
<pdfrwt beam="1">  1        1 0.37880711E-01 0.12634688E+03</pdfrwt>
<pdfrwt beam="2">  1       -1 0.79728892E-02 0.12634688E+03</pdfrwt>
<totfact> 0.91645994E+03</totfact>
</mgrwt>
</event>
<event>
 6    1  0.7270761E-006  0.1526339E+03  0.7546771E-02  0.1205486E+00
         -1   -1    0    0    0  501 -0.00000000000E+00  0.00000000000E+00  0.96438891392E+02  0.96438891392E+02  0.00000000000E+00 0.  1.
          1   -1    0    0  501    0  0.00000000000E+00 -0.00000000000E+00 -0.20451655308E+03  0.20451655308E+03  0.00000000000E+00 0. -1.
          5    1    1    2  502    0  0.11311065023E+03  0.37382441220E+02 -0.36559503016E+02  0.12470025408E+03  0.47000000000E+01 0. -1.
         -5    1    1    2    0  502 -0.32903761399E+02 -0.21864348872E+01 -0.13367784480E+02  0.35891860827E+02  0.47000000000E+01 0. -1.
        -11    1    1    2    0    0 -0.91049177839E+02 -0.42970585319E+02 -0.23716965127E+02  0.10343557619E+03  0.00000000000E+00 0.  1.
         11    1    1    2    0    0  0.10842289011E+02  0.77745789863E+01 -0.34433409064E+02  0.36927753373E+02  0.00000000000E+00 0. -1.
<mgrwt>
<rscale>  0 0.14599215E+03</rscale>
<asrwt>0</asrwt>
<pdfrwt beam="2">  1        1 0.31464085E-01 0.15263385E+03</pdfrwt>
<pdfrwt beam="1">  1       -1 0.14836752E-01 0.15263385E+03</pdfrwt>
<totfact> 0.45001586E+03</totfact>
</mgrwt>
</event>
<event>
 6    1  0.7270761E-006  0.1479056E+03  0.7546771E-02  0.1210777E+00
          3   -1    0    0  501    0  0.00000000000E+00  0.00000000000E+00  0.43169176101E+02  0.43169176101E+02  0.00000000000E+00 0. -1.
         -3   -1    0    0    0  501 -0.00000000000E+00 -0.00000000000E+00 -0.45412523456E+03  0.45412523456E+03  0.00000000000E+00 0.  1.
          5    1    1    2  502    0  0.63161223334E+02 -0.40416095619E+00 -0.50415327554E+02  0.80952447347E+02  0.47000000000E+01 0. -1.
         -5    1    1    2    0  502 -0.55524060873E+01  0.54545867630E+02 -0.22537053280E+03  0.23199148248E+03  0.47000000000E+01 0. -1.
        -11    1    1    2    0    0  0.16630842048E+02  0.15680812928E+02 -0.18268412976E+02  0.29261027220E+02  0.00000000000E+00 0. -1.
         11    1    1    2    0    0 -0.74239659295E+02 -0.69822519602E+02 -0.11690178513E+03  0.15508945361E+03  0.00000000000E+00 0.  1.
<mgrwt>
<rscale>  0 0.14191382E+03</rscale>
<asrwt>0</asrwt>
<pdfrwt beam="1">  1        3 0.66414118E-02 0.14790559E+03</pdfrwt>
<pdfrwt beam="2">  1       -3 0.69865419E-01 0.14790559E+03</pdfrwt>
<totfact> 0.67646590E+02</totfact>
</mgrwt>
</event>
<event>
 6    1  0.7270761E-006  0.3250685E+03  0.7546771E-02  0.1073340E+00
          1   -1    0    0  501    0  0.00000000000E+00  0.00000000000E+00  0.77077587343E+02  0.77077587343E+02  0.00000000000E+00 0. -1.
         -1   -1    0    0    0  501 -0.00000000000E+00 -0.00000000000E+00 -0.34273764080E+03  0.34273764080E+03  0.00000000000E+00 0.  1.
          5    1    1    2  502    0  0.11310809582E+03  0.27081739081E+02 -0.20020452124E+03  0.23158325125E+03  0.47000000000E+01 0.  1.
         -5    1    1    2    0  502  0.37774012170E+00  0.94979760568E-02  0.17816389552E+02  0.18429772502E+02  0.47000000000E+01 0.  1.
        -11    1    1    2    0    0 -0.71479021919E+02 -0.47979888906E+02 -0.87435385726E+02  0.12270398115E+03  0.00000000000E+00 0.  1.
         11    1    1    2    0    0 -0.42006814019E+02  0.20888651849E+02  0.41634639638E+01  0.47098223239E+02  0.00000000000E+00 0. -1.
<mgrwt>
<rscale>  0 0.32506855E+03</rscale>
<asrwt>0</asrwt>
<pdfrwt beam="1">  1        1 0.11858090E-01 0.32506855E+03</pdfrwt>
<pdfrwt beam="2">  1       -1 0.52728867E-01 0.32506855E+03</pdfrwt>
<totfact> 0.19001281E+03</totfact>
</mgrwt>
</event>
<event>
 6    1  0.7270761E-006  0.1257769E+03  0.7546771E-02  0.1249339E+00
         -1   -1    0    0    0  501 -0.00000000000E+00  0.00000000000E+00  0.25934046261E+03  0.25934046261E+03  0.00000000000E+00 0.  1.
          1   -1    0    0  501    0  0.00000000000E+00 -0.00000000000E+00 -0.92192483097E+02  0.92192483097E+02  0.00000000000E+00 0. -1.
          5    1    1    2  502    0 -0.13532163099E+02  0.97106540698E+01  0.22294038911E+03  0.22361109842E+03  0.47000000000E+01 0. -1.
         -5    1    1    2    0  502  0.22560794285E+02  0.96507741602E+00 -0.88395679898E+01  0.24701189758E+02  0.47000000000E+01 0. -1.
        -11    1    1    2    0    0 -0.18710557469E+02 -0.41035874270E+02 -0.54230620065E+02  0.70533595475E+02  0.00000000000E+00 0. -1.
         11    1    1    2    0    0  0.96819262827E+01  0.30360142784E+02  0.72777784579E+01  0.32687062054E+02  0.00000000000E+00 0.  1.
<mgrwt>
<rscale>  0 0.11629401E+03</rscale>
<asrwt>0</asrwt>
<pdfrwt beam="2">  1        1 0.14183459E-01 0.12577691E+03</pdfrwt>
<pdfrwt beam="1">  1       -1 0.39898532E-01 0.12577691E+03</pdfrwt>
<totfact> 0.24045125E+03</totfact>
</mgrwt>
</event>
<event>
 6    1  0.7270761E-006  0.1368104E+03  0.7546771E-02  0.1229865E+00
          1   -1    0    0  501    0  0.00000000000E+00  0.00000000000E+00  0.47933022473E+03  0.47933022473E+03  0.00000000000E+00 0. -1.
         -1   -1    0    0    0  501 -0.00000000000E+00 -0.00000000000E+00 -0.49437111815E+02  0.49437111815E+02  0.00000000000E+00 0.  1.
          5    1    1    2  502    0 -0.28300908416E+02  0.94423918538E+01 -0.17097039479E+02  0.34705892007E+02  0.47000000000E+01 0.  1.
         -5    1    1    2    0  502  0.57501384891E+02 -0.56782212309E+02  0.87338016827E+02  0.11908252635E+03  0.47000000000E+01 0.  1.
        -11    1    1    2    0    0  0.32829344334E+02  0.17388211086E+02  0.13297076423E+03  0.13806281133E+03  0.00000000000E+00 0.  1.
         11    1    1    2    0    0 -0.62029820809E+02  0.29951609369E+02  0.22668137134E+03  0.23691610685E+03  0.00000000000E+00 0. -1.
<mgrwt>
<rscale>  0 0.12838945E+03</rscale>
<asrwt>0</asrwt>
<pdfrwt beam="1">  1        1 0.73743108E-01 0.13681039E+03</pdfrwt>
<pdfrwt beam="2">  1       -1 0.76057098E-02 0.13681039E+03</pdfrwt>
<totfact> 0.42988703E+03</totfact>
</mgrwt>
</event>
<event>
 6    1  0.7270761E-006  0.1362398E+03  0.7546771E-02  0.1229064E+00
         -2   -1    0    0    0  501 -0.00000000000E+00  0.00000000000E+00  0.25381454709E+02  0.25381454709E+02  0.00000000000E+00 0.  1.
          2   -1    0    0  501    0  0.00000000000E+00 -0.00000000000E+00 -0.59356305229E+03  0.59356305229E+03  0.00000000000E+00 0. -1.
          5    1    1    2  502    0  0.11054393099E+02  0.44890474844E+02 -0.17103550380E+03  0.17723596672E+03  0.47000000000E+01 0. -1.
         -5    1    1    2    0  502 -0.58996747598E+02 -0.57537020163E+02 -0.14366057091E+03  0.16568516696E+03  0.47000000000E+01 0.  1.
        -11    1    1    2    0    0  0.53931986853E+02 -0.44174577495E+01 -0.25214821549E+03  0.25788930904E+03  0.00000000000E+00 0. -1.
         11    1    1    2    0    0 -0.59896323540E+01  0.17064003068E+02 -0.13373073793E+01  0.18134064284E+02  0.00000000000E+00 0.  1.
<mgrwt>
<rscale>  0 0.12892176E+03</rscale>
<asrwt>0</asrwt>
<pdfrwt beam="2">  1        2 0.91317394E-01 0.13623981E+03</pdfrwt>
<pdfrwt beam="1">  1       -2 0.39048391E-02 0.13623981E+03</pdfrwt>
<totfact> 0.13832964E+04</totfact>
</mgrwt>
</event>
<event>
 6    1  0.7270761E-006  0.1427164E+03  0.7546771E-02  0.1218705E+00
          1   -1    0    0  501    0  0.00000000000E+00  0.00000000000E+00  0.15464926137E+03  0.15464926137E+03  0.00000000000E+00 0. -1.
         -1   -1    0    0    0  501 -0.00000000000E+00 -0.00000000000E+00 -0.12348096097E+03  0.12348096097E+03  0.00000000000E+00 0.  1.
          5    1    1    2  502    0 -0.76317613446E+02  0.24057587371E+02  0.25279863416E+02  0.84049432636E+02  0.47000000000E+01 0.  1.
         -5    1    1    2    0  502  0.21954174947E+02  0.18227553817E+02 -0.54397670184E+02  0.61607029122E+02  0.47000000000E+01 0.  1.
        -11    1    1    2    0    0 -0.26133594456E+02 -0.20017155663E+02  0.26960806190E+02  0.42550397771E+02  0.00000000000E+00 0.  1.
         11    1    1    2    0    0  0.80497032955E+02 -0.22267985525E+02  0.33325300984E+02  0.89923362813E+02  0.00000000000E+00 0. -1.
<mgrwt>
<rscale>  0 0.13607873E+03</rscale>
<asrwt>0</asrwt>
<pdfrwt beam="1">  1        1 0.23792194E-01 0.14271636E+03</pdfrwt>
<pdfrwt beam="2">  1       -1 0.18997071E-01 0.14271636E+03</pdfrwt>
<totfact> 0.43006354E+03</totfact>
</mgrwt>
</event>
<event>
 6    1  0.7270761E-006  0.1279732E+03  0.7546771E-02  0.1244534E+00
          2   -1    0    0  501    0  0.00000000000E+00  0.00000000000E+00  0.54955934907E+03  0.54955934907E+03  0.00000000000E+00 0. -1.
         -2   -1    0    0    0  501 -0.00000000000E+00 -0.00000000000E+00 -0.27368446616E+02  0.27368446616E+02  0.00000000000E+00 0.  1.
          5    1    1    2  502    0 -0.38453721245E+02 -0.27543087514E+02  0.10763599389E+03  0.11766438513E+03  0.47000000000E+01 0.  1.
         -5    1    1    2    0  502  0.65592506126E+02  0.31382417957E+02  0.68134882013E+02  0.99758133321E+02  0.47000000000E+01 0.  1.
        -11    1    1    2    0    0  0.28474900677E+02 -0.23213731043E+02  0.11601898374E+03  0.12169676193E+03  0.00000000000E+00 0.  1.
         11    1    1    2    0    0 -0.55613685558E+02  0.19374400600E+02  0.23040104282E+03  0.23780851530E+03  0.00000000000E+00 0. -1.
<mgrwt>
<rscale>  0 0.11913297E+03</rscale>
<asrwt>0</asrwt>
<pdfrwt beam="1">  1        2 0.84547584E-01 0.12797324E+03</pdfrwt>
<pdfrwt beam="2">  1       -2 0.42105307E-02 0.12797324E+03</pdfrwt>
<totfact> 0.13422279E+04</totfact>
</mgrwt>
</event>
<event>
 6    1  0.7270761E-006  0.1956497E+03  0.7546771E-02  0.1177615E+00
         -1   -1    0    0    0  501 -0.00000000000E+00  0.00000000000E+00  0.80981843238E+03  0.80981843238E+03  0.00000000000E+00 0.  1.
          1   -1    0    0  501    0  0.00000000000E+00 -0.00000000000E+00 -0.44694813713E+02  0.44694813713E+02  0.00000000000E+00 0. -1.
          5    1    1    2  502    0  0.12326868711E+02 -0.38046812962E+02  0.49180508586E+02  0.63563543746E+02  0.47000000000E+01 0. -1.
         -5    1    1    2    0  502 -0.98761843453E+02  0.81750063424E+02  0.64643389804E+03  0.65904161411E+03  0.47000000000E+01 0.  1.
        -11    1    1    2    0    0  0.38037076005E+02 -0.42065662672E+02  0.14334451208E+02  0.58496287220E+02  0.00000000000E+00 0. -1.
         11    1    1    2    0    0  0.48397898736E+02 -0.16375877893E+01  0.55174760836E+02  0.73411801021E+02  0.00000000000E+00 0.  1.
<mgrwt>
<rscale>  0 0.17022314E+03</rscale>
<asrwt>0</asrwt>
<pdfrwt beam="2">  1        1 0.68761258E-02 0.19564972E+03</pdfrwt>
<pdfrwt beam="1">  1       -1 0.12458744E+00 0.19564972E+03</pdfrwt>
<totfact> 0.64464316E+02</totfact>
</mgrwt>
</event>
<event>
 6    1  0.7270761E-006  0.2384295E+03  0.7546771E-02  0.1130067E+00
          1   -1    0    0  501    0  0.00000000000E+00  0.00000000000E+00  0.98649549888E+03  0.98649549888E+03  0.00000000000E+00 0. -1.
         -1   -1    0    0    0  501 -0.00000000000E+00 -0.00000000000E+00 -0.51114180701E+02  0.51114180701E+02  0.00000000000E+00 0.  1.
          5    1    1    2  502    0  0.28479990094E+02 -0.89214266945E+01 -0.10286040714E+02  0.31915424540E+02  0.47000000000E+01 0. -1.
         -5    1    1    2    0  502  0.10585210952E+03  0.10740860276E+03  0.37069446386E+03  0.40022212904E+03  0.47000000000E+01 0.  1.
        -11    1    1    2    0    0 -0.27311248978E+02 -0.68070940007E+02  0.16302911655E+03  0.17876814603E+03  0.00000000000E+00 0.  1.
         11    1    1    2    0    0 -0.10702085064E+03 -0.30416236058E+02  0.41194377849E+03  0.42670397997E+03  0.00000000000E+00 0. -1.
<mgrwt>
<rscale>  0 0.22519661E+03</rscale>
<asrwt>0</asrwt>
<pdfrwt beam="1">  1        1 0.15176852E+00 0.23842952E+03</pdfrwt>
<pdfrwt beam="2">  1       -1 0.78637209E-02 0.23842952E+03</pdfrwt>
<totfact> 0.14476993E+03</totfact>
</mgrwt>
</event>
<event>
 6    1  0.7270761E-006  0.1362624E+03  0.7546771E-02  0.1230971E+00
         -4   -1    0    0    0  501 -0.00000000000E+00  0.00000000000E+00  0.13799127824E+03  0.13799127824E+03  0.00000000000E+00 0.  1.
          4   -1    0    0  501    0  0.00000000000E+00 -0.00000000000E+00 -0.11192695340E+03  0.11192695340E+03  0.00000000000E+00 0. -1.
          5    1    1    2  502    0  0.50340428799E+02  0.59572895049E+01  0.24368974839E+02  0.56440986921E+02  0.47000000000E+01 0. -1.
         -5    1    1    2    0  502 -0.72234420817E+02  0.43667944395E+02  0.20115885156E+02  0.86899020444E+02  0.47000000000E+01 0. -1.
        -11    1    1    2    0    0 -0.30873154435E+02 -0.86711123745E+01  0.10567347148E+02  0.33764014577E+02  0.00000000000E+00 0.  1.
         11    1    1    2    0    0  0.52767146453E+02 -0.40954121525E+02 -0.28987882299E+02  0.72814209704E+02  0.00000000000E+00 0. -1.
<mgrwt>
<rscale>  0 0.12765942E+03</rscale>
<asrwt>0</asrwt>
<pdfrwt beam="2">  1        4 0.17219531E-01 0.13626245E+03</pdfrwt>
<pdfrwt beam="1">  1       -4 0.21229427E-01 0.13626245E+03</pdfrwt>
<totfact> 0.98751180E+02</totfact>
</mgrwt>
</event>
<event>
 6    1  0.7270761E-006  0.1362996E+03  0.7546771E-02  0.1229008E+00
         -1   -1    0    0    0  501 -0.00000000000E+00  0.00000000000E+00  0.58797535587E+02  0.58797535587E+02  0.00000000000E+00 0.  1.
          1   -1    0    0  501    0  0.00000000000E+00 -0.00000000000E+00 -0.25718172642E+03  0.25718172642E+03  0.00000000000E+00 0. -1.
          5    1    1    2  502    0 -0.54929040819E+02 -0.71407117529E+02 -0.50627143487E+02  0.10344744374E+03  0.47000000000E+01 0. -1.
         -5    1    1    2    0  502  0.94757796367E+01  0.41627331819E+02 -0.50356844687E+02  0.66185549488E+02  0.47000000000E+01 0. -1.
        -11    1    1    2    0    0  0.15336331149E+02 -0.21471366830E+02  0.60153756310E+01  0.27063026266E+02  0.00000000000E+00 0.  1.
         11    1    1    2    0    0  0.30116930033E+02  0.51251152540E+02 -0.10341557829E+03  0.11928324251E+03  0.00000000000E+00 0. -1.
<mgrwt>
<rscale>  0 0.12895940E+03</rscale>
<asrwt>0</asrwt>
<pdfrwt beam="2">  1        1 0.39566418E-01 0.13629962E+03</pdfrwt>
<pdfrwt beam="1">  1       -1 0.90457750E-02 0.13629962E+03</pdfrwt>
<totfact> 0.72153662E+03</totfact>
</mgrwt>
</event>
<event>
 6    1  0.7270761E-006  0.1342044E+03  0.7546771E-02  0.1235578E+00
          2   -1    0    0  501    0  0.00000000000E+00  0.00000000000E+00  0.12274570871E+03  0.12274570871E+03  0.00000000000E+00 0. -1.
         -2   -1    0    0    0  501 -0.00000000000E+00 -0.00000000000E+00 -0.14619644515E+03  0.14619644515E+03  0.00000000000E+00 0.  1.
          5    1    1    2  502    0 -0.57862415241E+02  0.54620012935E+01 -0.61315894331E+02  0.84614546345E+02  0.47000000000E+01 0.  1.
         -5    1    1    2    0  502  0.53086525008E+02  0.43141167112E+02 -0.16523404684E+02  0.70529797530E+02  0.47000000000E+01 0.  1.
        -11    1    1    2    0    0  0.31113755647E+02  0.12024302030E+02  0.12952367621E+02  0.35782865408E+02  0.00000000000E+00 0.  1.
         11    1    1    2    0    0 -0.26337865414E+02 -0.60627470436E+02  0.41436194950E+02  0.78014944581E+02  0.00000000000E+00 0. -1.
<mgrwt>
<rscale>  0 0.12467535E+03</rscale>
<asrwt>0</asrwt>
<pdfrwt beam="1">  1        2 0.18883955E-01 0.13420436E+03</pdfrwt>
<pdfrwt beam="2">  1       -2 0.22491761E-01 0.13420436E+03</pdfrwt>
<totfact> 0.48501777E+03</totfact>
</mgrwt>
</event>
<event>
 6    1  0.7270761E-006  0.1750334E+03  0.7546771E-02  0.1191610E+00
         -1   -1    0    0    0  501 -0.00000000000E+00  0.00000000000E+00  0.70826389316E+02  0.70826389316E+02  0.00000000000E+00 0.  1.
          1   -1    0    0  501    0  0.00000000000E+00 -0.00000000000E+00 -0.30564214435E+03  0.30564214435E+03  0.00000000000E+00 0. -1.
          5    1    1    2  502    0 -0.42346948199E+02 -0.21180265119E+02 -0.66103782682E+02  0.81447331062E+02  0.47000000000E+01 0. -1.
         -5    1    1    2    0  502  0.10905347820E+03  0.42293654346E+02 -0.42481046759E+02  0.12453169733E+03  0.47000000000E+01 0.  1.
        -11    1    1    2    0    0 -0.18544100628E+02 -0.31707122709E+02 -0.11387329079E+03  0.11965095760E+03  0.00000000000E+00 0. -1.
         11    1    1    2    0    0 -0.48162429374E+02  0.10593733482E+02 -0.12357634803E+02  0.50838547680E+02  0.00000000000E+00 0.  1.
<mgrwt>
<rscale>  0 0.15744680E+03</rscale>
<asrwt>0</asrwt>
<pdfrwt beam="2">  1        1 0.47021868E-01 0.17503341E+03</pdfrwt>
<pdfrwt beam="1">  1       -1 0.10896368E-01 0.17503341E+03</pdfrwt>
<totfact> 0.44439834E+03</totfact>
</mgrwt>
</event>
<event>
 6    1  0.7270761E-006  0.1655138E+03  0.7546771E-02  0.1189720E+00
          1   -1    0    0  501    0  0.00000000000E+00  0.00000000000E+00  0.44058451059E+03  0.44058451059E+03  0.00000000000E+00 0. -1.
         -1   -1    0    0    0  501 -0.00000000000E+00 -0.00000000000E+00 -0.16816124370E+03  0.16816124370E+03  0.00000000000E+00 0.  1.
          5    1    1    2  502    0 -0.20794839230E+02  0.81719713360E+02 -0.25463811062E+02  0.88210161342E+02  0.47000000000E+01 0.  1.
         -5    1    1    2    0  502 -0.67864280446E+02 -0.19184212149E+02 -0.86088309884E+02  0.11138618251E+03  0.47000000000E+01 0.  1.
        -11    1    1    2    0    0  0.10354576274E+03 -0.44901676692E+02  0.35245338286E+03  0.37008279161E+03  0.00000000000E+00 0. -1.
         11    1    1    2    0    0 -0.14886643063E+02 -0.17633824519E+02  0.31522004971E+02  0.39066618823E+02  0.00000000000E+00 0.  1.
<mgrwt>
<rscale>  0 0.15909717E+03</rscale>
<asrwt>0</asrwt>
<pdfrwt beam="1">  1        1 0.67782232E-01 0.16551382E+03</pdfrwt>
<pdfrwt beam="2">  1       -1 0.25870961E-01 0.16551382E+03</pdfrwt>
<totfact> 0.70512162E+02</totfact>
</mgrwt>
</event>
<event>
 6    1  0.7270761E-006  0.2490312E+03  0.7546771E-02  0.1113919E+00
         -2   -1    0    0    0  501 -0.00000000000E+00  0.00000000000E+00  0.46714643084E+02  0.46714643084E+02  0.00000000000E+00 0.  1.
          2   -1    0    0  501    0  0.00000000000E+00 -0.00000000000E+00 -0.33189018718E+03  0.33189018718E+03  0.00000000000E+00 0. -1.
          5    1    1    2  502    0  0.53115481074E+02 -0.67767835076E+02 -0.45718895624E+02  0.97601440653E+02  0.47000000000E+01 0. -1.
         -5    1    1    2    0  502 -0.33774777406E+02  0.13438294038E+02 -0.84152432735E+02  0.91788045358E+02  0.47000000000E+01 0. -1.
        -11    1    1    2    0    0  0.20023898633E+02  0.41986520464E+02 -0.25573699641E+02  0.53083316875E+02  0.00000000000E+00 0.  1.
         11    1    1    2    0    0 -0.39364602300E+02  0.12343020574E+02 -0.12973051610E+03  0.13613202738E+03  0.00000000000E+00 0. -1.
<mgrwt>
<rscale>  0 0.24903118E+03</rscale>
<asrwt>0</asrwt>
<pdfrwt beam="2">  1        2 0.51060027E-01 0.24903118E+03</pdfrwt>
<pdfrwt beam="1">  1       -2 0.71868685E-02 0.24903118E+03</pdfrwt>
<totfact> 0.10802599E+04</totfact>
</mgrwt>
</event>
<event>
 6    1  0.7270761E-006  0.1812998E+03  0.7546771E-02  0.1173404E+00
          1   -1    0    0  501    0  0.00000000000E+00  0.00000000000E+00  0.43942310927E+03  0.43942310927E+03  0.00000000000E+00 0. -1.
         -1   -1    0    0    0  501 -0.00000000000E+00 -0.00000000000E+00 -0.69963277662E+02  0.69963277662E+02  0.00000000000E+00 0.  1.
          5    1    1    2  502    0 -0.81874244671E+02  0.30054948846E+02  0.11281658638E+03  0.14267573043E+03  0.47000000000E+01 0. -1.
         -5    1    1    2    0  502  0.16315008573E+02  0.75103882554E+02  0.13211250211E+02  0.78124258791E+02  0.47000000000E+01 0.  1.
        -11    1    1    2    0    0  0.83463588852E+02 -0.10837830149E+03  0.21378898482E+03  0.25380653445E+03  0.00000000000E+00 0. -1.
         11    1    1    2    0    0 -0.17904352755E+02  0.32194700911E+01  0.29643010196E+02  0.34779863264E+02  0.00000000000E+00 0.  1.
<mgrwt>
<rscale>  0 0.17433169E+03</rscale>
<asrwt>0</asrwt>
<pdfrwt beam="1">  1        1 0.67603554E-01 0.18129981E+03</pdfrwt>
<pdfrwt beam="2">  1       -1 0.10763581E-01 0.18129981E+03</pdfrwt>
<totfact> 0.28660380E+03</totfact>
</mgrwt>
</event>
<event>
 6    1  0.7270761E-006  0.1349559E+03  0.7546771E-02  0.1232852E+00
         -1   -1    0    0    0  501 -0.00000000000E+00  0.00000000000E+00  0.32592489531E+02  0.32592489531E+02  0.00000000000E+00 0.  1.
          1   -1    0    0  501    0  0.00000000000E+00 -0.00000000000E+00 -0.45191309991E+03  0.45191309991E+03  0.00000000000E+00 0. -1.
          5    1    1    2  502    0  0.54000505585E+02  0.69673012088E+02 -0.10450838663E+03  0.13680086291E+03  0.47000000000E+01 0. -1.
         -5    1    1    2    0  502 -0.37667103778E+02 -0.21497640402E+02 -0.89045696423E+02  0.99157376434E+02  0.47000000000E+01 0. -1.
        -11    1    1    2    0    0 -0.36893903433E+02 -0.65430569619E+02 -0.18574150607E+03  0.20035525106E+03  0.00000000000E+00 0.  1.
         11    1    1    2    0    0  0.20560501626E+02  0.17255197933E+02 -0.40025021262E+02  0.48192099039E+02  0.00000000000E+00 0. -1.
<mgrwt>
<rscale>  0 0.12642950E+03</rscale>
<asrwt>0</asrwt>
<pdfrwt beam="2">  1        1 0.69525091E-01 0.13495595E+03</pdfrwt>
<pdfrwt beam="1">  1       -1 0.50142292E-02 0.13495595E+03</pdfrwt>
<totfact> 0.86266040E+03</totfact>
</mgrwt>
</event>
<event>
 6    1  0.7270761E-006  0.1417952E+03  0.7546771E-02  0.1222364E+00
          2   -1    0    0  501    0  0.00000000000E+00  0.00000000000E+00  0.48479616185E+03  0.48479616185E+03  0.00000000000E+00 0. -1.
         -2   -1    0    0    0  501 -0.00000000000E+00 -0.00000000000E+00 -0.38205489154E+02  0.38205489154E+02  0.00000000000E+00 0.  1.
          5    1    1    2  502    0  0.19191227902E+01 -0.19142928614E+02 -0.20550140638E+02  0.28540025026E+02  0.47000000000E+01 0.  1.
         -5    1    1    2    0  502  0.27664088396E+02 -0.40904834306E+02  0.17164454926E+03  0.17866854381E+03  0.47000000000E+01 0.  1.
        -11    1    1    2    0    0 -0.37377915369E+02 -0.56791611952E+00  0.47871242543E+02  0.60737854330E+02  0.00000000000E+00 0.  1.
         11    1    1    2    0    0  0.77947041828E+01  0.60615679040E+02  0.24762502153E+03  0.25505522784E+03  0.00000000000E+00 0. -1.
<mgrwt>
<rscale>  0 0.13349206E+03</rscale>
<asrwt>0</asrwt>
<pdfrwt beam="1">  1        2 0.74584021E-01 0.14179517E+03</pdfrwt>
<pdfrwt beam="2">  1       -2 0.58777679E-02 0.14179517E+03</pdfrwt>
<totfact> 0.94111341E+03</totfact>
</mgrwt>
</event>
<event>
 6    1  0.7270761E-006  0.1441372E+03  0.7546771E-02  0.1218649E+00
         -2   -1    0    0    0  501 -0.00000000000E+00  0.00000000000E+00  0.21288841462E+03  0.21288841462E+03  0.00000000000E+00 0.  1.
          2   -1    0    0  501    0  0.00000000000E+00 -0.00000000000E+00 -0.10074253048E+03  0.10074253048E+03  0.00000000000E+00 0. -1.
          5    1    1    2  502    0  0.20098328135E+02 -0.37379468123E+02 -0.56839533461E+01  0.43076266744E+02  0.47000000000E+01 0. -1.
         -5    1    1    2    0  502  0.51664002272E+02  0.37673305894E+02  0.13982473595E+03  0.15382293032E+03  0.47000000000E+01 0. -1.
        -11    1    1    2    0    0 -0.76092789559E+02  0.15827202252E+02  0.12206615658E+02  0.78674102600E+02  0.00000000000E+00 0.  1.
         11    1    1    2    0    0  0.43304591523E+01 -0.16121040024E+02 -0.34201514122E+02  0.38057645436E+02  0.00000000000E+00 0. -1.
<mgrwt>
<rscale>  0 0.13611845E+03</rscale>
<asrwt>0</asrwt>
<pdfrwt beam="2">  1        2 0.15498851E-01 0.14413724E+03</pdfrwt>
<pdfrwt beam="1">  1       -2 0.32752064E-01 0.14413724E+03</pdfrwt>
<totfact> 0.31439136E+03</totfact>
</mgrwt>
</event>
<event>
 6    1  0.7270761E-006  0.1320048E+03  0.7546771E-02  0.1245975E+00
          1   -1    0    0  501    0  0.00000000000E+00  0.00000000000E+00  0.67352334453E+03  0.67352334453E+03  0.00000000000E+00 0. -1.
         -1   -1    0    0    0  501 -0.00000000000E+00 -0.00000000000E+00 -0.17558562970E+02  0.17558562970E+02  0.00000000000E+00 0.  1.
          5    1    1    2  502    0  0.19574929989E+02  0.54697334170E+02  0.21502722434E+03  0.22278638526E+03  0.47000000000E+01 0. -1.
         -5    1    1    2    0  502 -0.59746701854E+02 -0.41058271202E+02  0.20464865212E+03  0.21716033438E+03  0.47000000000E+01 0. -1.
        -11    1    1    2    0    0  0.28134556270E+02 -0.41935824965E+02  0.10816355445E+03  0.11937135830E+03  0.00000000000E+00 0.  1.
         11    1    1    2    0    0  0.12037215595E+02  0.28296761996E+02  0.12812535066E+03  0.13176382956E+03  0.00000000000E+00 0. -1.
<mgrwt>
<rscale>  0 0.11827228E+03</rscale>
<asrwt>0</asrwt>
<pdfrwt beam="1">  1        1 0.10361896E+00 0.13200483E+03</pdfrwt>
<pdfrwt beam="2">  1       -1 0.27013179E-02 0.13200483E+03</pdfrwt>
<totfact> 0.12503539E+04</totfact>
</mgrwt>
</event>
<event>
 6    1  0.7270761E-006  0.1476257E+03  0.7546771E-02  0.1212931E+00
         -1   -1    0    0    0  501 -0.00000000000E+00  0.00000000000E+00  0.16703926796E+03  0.16703926796E+03  0.00000000000E+00 0.  1.
          1   -1    0    0  501    0  0.00000000000E+00 -0.00000000000E+00 -0.11052376678E+03  0.11052376678E+03  0.00000000000E+00 0. -1.
          5    1    1    2  502    0 -0.73665351682E+02  0.43755309741E+02  0.77250358709E+02  0.11545916633E+03  0.47000000000E+01 0.  1.
         -5    1    1    2    0  502  0.27637073704E+02  0.19934518766E+02 -0.23486357280E+02  0.41652033080E+02  0.47000000000E+01 0.  1.
        -11    1    1    2    0    0  0.20042214513E+02 -0.45015073126E+02 -0.42470910387E+02  0.65052481891E+02  0.00000000000E+00 0. -1.
         11    1    1    2    0    0  0.25986063465E+02 -0.18674755382E+02  0.45222410136E+02  0.55399353439E+02  0.00000000000E+00 0.  1.
<mgrwt>
<rscale>  0 0.14029642E+03</rscale>
<asrwt>0</asrwt>
<pdfrwt beam="2">  1        1 0.17003656E-01 0.14762575E+03</pdfrwt>
<pdfrwt beam="1">  1       -1 0.25698349E-01 0.14762575E+03</pdfrwt>
<totfact> 0.40454155E+03</totfact>
</mgrwt>
</event>
<event>
 6    1  0.7270761E-006  0.1411722E+03  0.7546771E-02  0.1222906E+00
          1   -1    0    0  501    0  0.00000000000E+00  0.00000000000E+00  0.13507021030E+03  0.13507021030E+03  0.00000000000E+00 0. -1.
         -1   -1    0    0    0  501 -0.00000000000E+00 -0.00000000000E+00 -0.12840384072E+03  0.12840384072E+03  0.00000000000E+00 0.  1.
          5    1    1    2  502    0  0.90586250650E+02  0.42420040834E+02 -0.76374984857E+01  0.10042783506E+03  0.47000000000E+01 0. -1.
         -5    1    1    2    0  502 -0.27833431898E+02 -0.23270673571E+02 -0.25465230662E+02  0.44573446718E+02  0.47000000000E+01 0. -1.
        -11    1    1    2    0    0  0.19141405821E+02  0.65849057170E+00 -0.89553612478E+01  0.21142978071E+02  0.00000000000E+00 0.  1.
         11    1    1    2    0    0 -0.81894224574E+02 -0.19807857834E+02  0.48724459979E+02  0.97329791178E+02  0.00000000000E+00 0. -1.
<mgrwt>
<rscale>  0 0.13311481E+03</rscale>
<asrwt>0</asrwt>
<pdfrwt beam="1">  1        1 0.20780032E-01 0.14117217E+03</pdfrwt>
<pdfrwt beam="2">  1       -1 0.19754437E-01 0.14117217E+03</pdfrwt>
<totfact> 0.47907694E+03</totfact>
</mgrwt>
</event>
<event>
 6    1  0.7270761E-006  0.1636670E+03  0.7546771E-02  0.1191786E+00
         -1   -1    0    0    0  501 -0.00000000000E+00  0.00000000000E+00  0.25774167338E+02  0.25774167338E+02  0.00000000000E+00 0.  1.
          1   -1    0    0  501    0  0.00000000000E+00 -0.00000000000E+00 -0.89255736478E+03  0.89255736478E+03  0.00000000000E+00 0. -1.
          5    1    1    2  502    0  0.11576661734E+02  0.70379707574E+02 -0.31655132816E+03  0.32452142563E+03  0.47000000000E+01 0.  1.
         -5    1    1    2    0  502  0.79183479635E+02 -0.16436100533E+02 -0.15975385287E+03  0.17911882189E+03  0.47000000000E+01 0.  1.
        -11    1    1    2    0    0 -0.65659394085E+02  0.12471137744E+02 -0.15636908777E+03  0.17005286507E+03  0.00000000000E+00 0.  1.
         11    1    1    2    0    0 -0.25100747284E+02 -0.66414744784E+02 -0.23410892864E+03  0.24463841953E+03  0.00000000000E+00 0. -1.
<mgrwt>
<rscale>  0 0.15729443E+03</rscale>
<asrwt>0</asrwt>
<pdfrwt beam="2">  1        1 0.13731652E+00 0.16366696E+03</pdfrwt>
<pdfrwt beam="1">  1       -1 0.39652566E-02 0.16366696E+03</pdfrwt>
<totfact> 0.47365049E+03</totfact>
</mgrwt>
</event>
<event>
 6    1  0.7270761E-006  0.2013831E+03  0.7546771E-02  0.1178127E+00
          3   -1    0    0  501    0  0.00000000000E+00  0.00000000000E+00  0.43794301691E+03  0.43794301691E+03  0.00000000000E+00 0. -1.
         -3   -1    0    0    0  501 -0.00000000000E+00 -0.00000000000E+00 -0.12738006306E+03  0.12738006306E+03  0.00000000000E+00 0.  1.
          5    1    1    2  502    0 -0.77275569355E+02  0.57928484863E+01 -0.38529922537E+02  0.86670154283E+02  0.47000000000E+01 0. -1.
         -5    1    1    2    0  502  0.11706256687E+03  0.12359277342E+02  0.28895210719E+01  0.11784241864E+03  0.47000000000E+01 0.  1.
        -11    1    1    2    0    0  0.14934932393E+02 -0.38554048775E+02  0.11056312091E+03  0.11804096995E+03  0.00000000000E+00 0. -1.
         11    1    1    2    0    0 -0.54721929905E+02  0.20401922947E+02  0.23564023440E+03  0.24276953709E+03  0.00000000000E+00 0.  1.
<mgrwt>
<rscale>  0 0.16973307E+03</rscale>
<asrwt>0</asrwt>
<pdfrwt beam="1">  1        3 0.67375848E-01 0.20138310E+03</pdfrwt>
<pdfrwt beam="2">  1       -3 0.19596933E-01 0.20138310E+03</pdfrwt>
<totfact> 0.12283067E+02</totfact>
</mgrwt>
</event>
<event>
 6    1  0.7270761E-006  0.1288886E+03  0.7546771E-02  0.1242706E+00
         -3   -1    0    0    0  501 -0.00000000000E+00  0.00000000000E+00  0.70840687239E+02  0.70840687239E+02  0.00000000000E+00 0.  1.
          3   -1    0    0  501    0  0.00000000000E+00 -0.00000000000E+00 -0.22617772924E+03  0.22617772924E+03  0.00000000000E+00 0. -1.
          5    1    1    2  502    0  0.51274040766E+02  0.28493913403E+02 -0.37269540633E+02  0.69656579133E+02  0.47000000000E+01 0. -1.
         -5    1    1    2    0  502 -0.58233344968E+02  0.21624263580E+01  0.16843005340E+02  0.60840573491E+02  0.47000000000E+01 0. -1.
        -11    1    1    2    0    0  0.39051472926E+02  0.27850950897E+00 -0.21309179896E+02  0.44487933792E+02  0.00000000000E+00 0.  1.
         11    1    1    2    0    0 -0.32092168724E+02 -0.30934849270E+02 -0.11360132681E+03  0.12203333006E+03  0.00000000000E+00 0. -1.
<mgrwt>
<rscale>  0 0.12023718E+03</rscale>
<asrwt>0</asrwt>
<pdfrwt beam="2">  1        3 0.34796574E-01 0.12888857E+03</pdfrwt>
<pdfrwt beam="1">  1       -3 0.10898567E-01 0.12888857E+03</pdfrwt>
<totfact> 0.11846088E+03</totfact>
</mgrwt>
</event>
<event>
 6    1  0.7270761E-006  0.1276463E+03  0.7546771E-02  0.1246984E+00
         -2   -1    0    0    0  501 -0.00000000000E+00  0.00000000000E+00  0.84034928159E+02  0.84034928159E+02  0.00000000000E+00 0.  1.
          2   -1    0    0  501    0  0.00000000000E+00 -0.00000000000E+00 -0.25928132364E+03  0.25928132364E+03  0.00000000000E+00 0. -1.
          5    1    1    2  502    0  0.84852949830E+01  0.36786238344E+02  0.50028946856E+02  0.62850720648E+02  0.47000000000E+01 0. -1.
         -5    1    1    2    0  502  0.71953302130E+01 -0.57334941896E+02 -0.31746141126E+02  0.66098228535E+02  0.47000000000E+01 0. -1.
        -11    1    1    2    0    0 -0.11192747782E+02  0.40067513665E+02 -0.18940377667E+03  0.19391873006E+03  0.00000000000E+00 0. -1.
         11    1    1    2    0    0 -0.44878774139E+01 -0.19518810113E+02 -0.41254245492E+01  0.20448572557E+02  0.00000000000E+00 0.  1.
<mgrwt>
<rscale>  0 0.11767443E+03</rscale>
<asrwt>0</asrwt>
<pdfrwt beam="2">  1        2 0.39889434E-01 0.12764627E+03</pdfrwt>
<pdfrwt beam="1">  1       -2 0.12928451E-01 0.12764627E+03</pdfrwt>
<totfact> 0.53451059E+03</totfact>
</mgrwt>
</event>
<event>
 6    1  0.7270761E-006  0.1251236E+03  0.7546771E-02  0.1246794E+00
         -3   -1    0    0    0  501 -0.00000000000E+00  0.00000000000E+00  0.37936733465E+02  0.37936733465E+02  0.00000000000E+00 0.  1.
          3   -1    0    0  501    0  0.00000000000E+00 -0.00000000000E+00 -0.34034279259E+03  0.34034279259E+03  0.00000000000E+00 0. -1.
          5    1    1    2  502    0  0.54507994038E+02  0.38319526606E+01 -0.10022080523E+03  0.11424580988E+03  0.47000000000E+01 0.  1.
         -5    1    1    2    0  502 -0.59995361261E+02 -0.43130430531E+01 -0.34012266173E+02  0.69260161445E+02  0.47000000000E+01 0.  1.
        -11    1    1    2    0    0 -0.32899535722E+02  0.27502973105E+02 -0.12034626368E+03  0.12775764620E+03  0.00000000000E+00 0. -1.
         11    1    1    2    0    0  0.38386902944E+02 -0.27021882713E+02 -0.47826724038E+02  0.67015908524E+02  0.00000000000E+00 0.  1.
<mgrwt>
<rscale>  0 0.11778669E+03</rscale>
<asrwt>0</asrwt>
<pdfrwt beam="2">  1        3 0.52360428E-01 0.12512364E+03</pdfrwt>
<pdfrwt beam="1">  1       -3 0.58364208E-02 0.12512364E+03</pdfrwt>
<totfact> 0.14696653E+03</totfact>
</mgrwt>
</event>
<event>
 6    1  0.7270761E-006  0.4320255E+03  0.7546771E-02  0.1033222E+00
          2   -1    0    0  501    0  0.00000000000E+00  0.00000000000E+00  0.97932707149E+03  0.97932707149E+03  0.00000000000E+00 0. -1.
         -2   -1    0    0    0  501 -0.00000000000E+00 -0.00000000000E+00 -0.47646495014E+02  0.47646495014E+02  0.00000000000E+00 0.  1.
          5    1    1    2  502    0  0.22128455759E+02  0.17267311082E+02 -0.74357872739E+01  0.29414444048E+02  0.47000000000E+01 0.  1.
         -5    1    1    2    0  502  0.11474925528E+03 -0.69404724148E+02  0.21740556444E+03  0.25548322209E+03  0.47000000000E+01 0.  1.
        -11    1    1    2    0    0 -0.82226770037E+02 -0.13980664765E+02  0.28200061424E+03  0.29407660078E+03  0.00000000000E+00 0.  1.
         11    1    1    2    0    0 -0.54650941001E+02  0.66118077831E+02  0.43971018507E+03  0.44799929958E+03  0.00000000000E+00 0. -1.
<mgrwt>
<rscale>  0 0.43202547E+03</rscale>
<asrwt>0</asrwt>
<pdfrwt beam="1">  1        2 0.15066569E+00 0.43202547E+03</pdfrwt>
<pdfrwt beam="2">  1       -2 0.73302307E-02 0.43202547E+03</pdfrwt>
<totfact> 0.29426622E+03</totfact>
</mgrwt>
</event>
<event>
 6    1  0.7270761E-006  0.2291602E+03  0.7546771E-02  0.1159025E+00
          1   -1    0    0  501    0  0.00000000000E+00  0.00000000000E+00  0.19380299377E+03  0.19380299377E+03  0.00000000000E+00 0. -1.
         -1   -1    0    0    0  501 -0.00000000000E+00 -0.00000000000E+00 -0.14572787627E+03  0.14572787627E+03  0.00000000000E+00 0.  1.
          5    1    1    2  502    0  0.32205637137E+02  0.53401492070E+02  0.10022321305E+03  0.11813426621E+03  0.47000000000E+01 0. -1.
         -5    1    1    2    0  502 -0.13525422931E+02 -0.92963122347E+02 -0.64143472382E+02  0.11384882183E+03  0.47000000000E+01 0.  1.
        -11    1    1    2    0    0 -0.52257730117E+02 -0.30659222974E+01  0.21040254425E+01  0.52389857412E+02  0.00000000000E+00 0.  1.
         11    1    1    2    0    0  0.33577515912E+02  0.42627552574E+02  0.98913513799E+01  0.55157924592E+02  0.00000000000E+00 0. -1.
<mgrwt>
<rscale>  0 0.18937612E+03</rscale>
<asrwt>0</asrwt>
<pdfrwt beam="1">  1        1 0.29815845E-01 0.22916022E+03</pdfrwt>
<pdfrwt beam="2">  1       -1 0.22419673E-01 0.22916022E+03</pdfrwt>
<totfact> 0.25259110E+03</totfact>
</mgrwt>
</event>
<event>
 6    1  0.7270761E-006  0.2153484E+03  0.7546771E-02  0.1140846E+00
         -1   -1    0    0    0  501 -0.00000000000E+00  0.00000000000E+00  0.30647192514E+03  0.30647192514E+03  0.00000000000E+00 0.  1.
          1   -1    0    0  501    0  0.00000000000E+00 -0.00000000000E+00 -0.14964072468E+03  0.14964072468E+03  0.00000000000E+00 0. -1.
          5    1    1    2  502    0 -0.54436494381E+02  0.62833708133E+01  0.89669020131E+02  0.10519237539E+03  0.47000000000E+01 0. -1.
         -5    1    1    2    0  502 -0.80247004454E+02 -0.11858524355E+03  0.51192868401E+02  0.15213428768E+03  0.47000000000E+01 0. -1.
        -11    1    1    2    0    0  0.81299180641E+02  0.91909834722E+02  0.49742354035E+02  0.13240572600E+03  0.00000000000E+00 0. -1.
         11    1    1    2    0    0  0.53384318194E+02  0.20392038017E+02 -0.33773042106E+02  0.66380260746E+02  0.00000000000E+00 0.  1.
<mgrwt>
<rscale>  0 0.21091197E+03</rscale>
<asrwt>0</asrwt>
<pdfrwt beam="2">  1        1 0.23021650E-01 0.21534842E+03</pdfrwt>
<pdfrwt beam="1">  1       -1 0.47149527E-01 0.21534842E+03</pdfrwt>
<totfact> 0.97237514E+02</totfact>
</mgrwt>
</event>
<event>
 6    1  0.7270761E-006  0.1283029E+03  0.7546771E-02  0.1245157E+00
         -2   -1    0    0    0  501 -0.00000000000E+00  0.00000000000E+00  0.19698241099E+02  0.19698241099E+02  0.00000000000E+00 0. -1.
          2   -1    0    0  501    0  0.00000000000E+00 -0.00000000000E+00 -0.62864687108E+03  0.62864687108E+03  0.00000000000E+00 0.  1.
          5    1    1    2  502    0  0.64902247956E+02  0.19607892375E+02 -0.10737998164E+03  0.12707998147E+03  0.47000000000E+01 0.  1.
         -5    1    1    2    0  502 -0.35973948905E+02 -0.18857596977E+02 -0.23541033579E+03  0.23893482408E+03  0.47000000000E+01 0.  1.
        -11    1    1    2    0    0  0.19093003639E+02 -0.31686707727E+02 -0.10971578306E+03  0.11578490094E+03  0.00000000000E+00 0. -1.
         11    1    1    2    0    0 -0.48021302690E+02  0.30936412329E+02 -0.15644252950E+03  0.16654540569E+03  0.00000000000E+00 0.  1.
<mgrwt>
<rscale>  0 0.11875961E+03</rscale>
<asrwt>0</asrwt>
<pdfrwt beam="2">  1        2 0.96714902E-01 0.12830291E+03</pdfrwt>
<pdfrwt beam="1">  1       -2 0.30304987E-02 0.12830291E+03</pdfrwt>
<totfact> 0.18745602E+04</totfact>
</mgrwt>
</event>
<event>
 6    1  0.7270761E-006  0.1408883E+03  0.7546771E-02  0.1222748E+00
         -1   -1    0    0    0  501 -0.00000000000E+00  0.00000000000E+00  0.27673140004E+03  0.27673140004E+03  0.00000000000E+00 0.  1.
          1   -1    0    0  501    0  0.00000000000E+00 -0.00000000000E+00 -0.65119766498E+02  0.65119766498E+02  0.00000000000E+00 0. -1.
          5    1    1    2  502    0 -0.27067396326E+02 -0.93764853749E+02  0.10522459336E+03  0.14359246773E+03  0.47000000000E+01 0. -1.
         -5    1    1    2    0  502 -0.98287549024E+01  0.40250882467E+02  0.67016477880E+02  0.78930578800E+02  0.47000000000E+01 0. -1.
        -11    1    1    2    0    0  0.15379850722E+02 -0.14632861018E+01 -0.26623021171E+02  0.30780940056E+02  0.00000000000E+00 0. -1.
         11    1    1    2    0    0  0.21516300506E+02  0.54977257384E+02  0.65993583471E+02  0.88547179945E+02  0.00000000000E+00 0.  1.
<mgrwt>
<rscale>  0 0.13322489E+03</rscale>
<asrwt>0</asrwt>
<pdfrwt beam="2">  1        1 0.10018426E-01 0.14088832E+03</pdfrwt>
<pdfrwt beam="1">  1       -1 0.42574061E-01 0.14088832E+03</pdfrwt>
<totfact> 0.34037279E+03</totfact>
</mgrwt>
</event>
<event>
 6    1  0.7270761E-006  0.1285367E+03  0.7546771E-02  0.1243636E+00
          1   -1    0    0  501    0  0.00000000000E+00  0.00000000000E+00  0.89239506482E+02  0.89239506482E+02  0.00000000000E+00 0. -1.
         -1   -1    0    0    0  501 -0.00000000000E+00 -0.00000000000E+00 -0.15283342493E+03  0.15283342493E+03  0.00000000000E+00 0.  1.
          5    1    1    2  502    0 -0.46277405068E+02 -0.27893955849E+02 -0.94351617284E+02  0.10883009086E+03  0.47000000000E+01 0.  1.
         -5    1    1    2    0  502  0.18732974985E+02  0.16314592885E+02  0.26408072995E+02  0.36559083852E+02  0.47000000000E+01 0.  1.
        -11    1    1    2    0    0  0.49863950046E+02 -0.83778109616E+01  0.28656282124E+02  0.58118703839E+02  0.00000000000E+00 0. -1.
         11    1    1    2    0    0 -0.22319519964E+02  0.19957173926E+02 -0.24306656285E+02  0.38565052862E+02  0.00000000000E+00 0.  1.
<mgrwt>
<rscale>  0 0.11967372E+03</rscale>
<asrwt>0</asrwt>
<pdfrwt beam="1">  1        1 0.13729155E-01 0.12853671E+03</pdfrwt>
<pdfrwt beam="2">  1       -1 0.23512834E-01 0.12853671E+03</pdfrwt>
<totfact> 0.61184200E+03</totfact>
</mgrwt>
</event>
<event>
 6    1  0.7270761E-006  0.1694948E+03  0.7546771E-02  0.1185553E+00
         -2   -1    0    0    0  501 -0.00000000000E+00  0.00000000000E+00  0.89384185407E+02  0.89384185407E+02  0.00000000000E+00 0.  1.
          2   -1    0    0  501    0  0.00000000000E+00 -0.00000000000E+00 -0.31952057142E+03  0.31952057142E+03  0.00000000000E+00 0. -1.
          5    1    1    2  502    0  0.13152017554E+02 -0.11486654510E+03 -0.33451372053E+02  0.12045074945E+03  0.47000000000E+01 0.  1.
         -5    1    1    2    0  502 -0.53022597678E+02  0.75639659660E+01 -0.13843469347E+02  0.55518835446E+02  0.47000000000E+01 0.  1.
        -11    1    1    2    0    0  0.43862117396E+01  0.53662444734E+02 -0.19290399972E+02  0.57192799890E+02  0.00000000000E+00 0.  1.
         11    1    1    2    0    0  0.35484368385E+02  0.53640134405E+02 -0.16355114464E+03  0.17574237205E+03  0.00000000000E+00 0. -1.
<mgrwt>
<rscale>  0 0.16281621E+03</rscale>
<asrwt>0</asrwt>
<pdfrwt beam="2">  1        2 0.49157010E-01 0.16949482E+03</pdfrwt>
<pdfrwt beam="1">  1       -2 0.13751413E-01 0.16949482E+03</pdfrwt>
<totfact> 0.39341532E+03</totfact>
</mgrwt>
</event>
<event>
 6    1  0.7270761E-006  0.3296458E+03  0.7546771E-02  0.1071294E+00
          1   -1    0    0  501    0  0.00000000000E+00  0.00000000000E+00  0.97135385140E+03  0.97135385140E+03  0.00000000000E+00 0. -1.
         -1   -1    0    0    0  501 -0.00000000000E+00 -0.00000000000E+00 -0.27967758678E+02  0.27967758678E+02  0.00000000000E+00 0.  1.
          5    1    1    2  502    0 -0.83969444261E+02 -0.10639045575E+03  0.45987262859E+03  0.47945252233E+03  0.47000000000E+01 0. -1.
         -5    1    1    2    0  502 -0.12843189471E+01  0.17952172395E+02  0.81541806877E+01  0.20310357740E+02  0.47000000000E+01 0. -1.
        -11    1    1    2    0    0  0.45754884996E+02  0.10192497884E+03  0.33650121487E+03  0.35456350408E+03  0.00000000000E+00 0.  1.
         11    1    1    2    0    0  0.39498878212E+02 -0.13486695478E+02  0.13885806858E+03  0.14499522593E+03  0.00000000000E+00 0. -1.
<mgrwt>
<rscale>  0 0.32964581E+03</rscale>
<asrwt>0</asrwt>
<pdfrwt beam="1">  1        1 0.14943903E+00 0.32964581E+03</pdfrwt>
<pdfrwt beam="2">  1       -1 0.43027329E-02 0.32964581E+03</pdfrwt>
<totfact> 0.37163940E+03</totfact>
</mgrwt>
</event>
<event>
 6    1  0.7270761E-006  0.2004443E+03  0.7546771E-02  0.1153512E+00
          1   -1    0    0  501    0  0.00000000000E+00  0.00000000000E+00  0.28063209260E+03  0.28063209260E+03  0.00000000000E+00 0. -1.
         -1   -1    0    0    0  501 -0.00000000000E+00 -0.00000000000E+00 -0.14667463229E+03  0.14667463229E+03  0.00000000000E+00 0.  1.
          5    1    1    2  502    0 -0.12390489827E+02  0.10136812769E+03 -0.20284315128E+02  0.10422362971E+03  0.47000000000E+01 0.  1.
         -5    1    1    2    0  502 -0.93220870322E+02  0.14393643160E+02  0.18455955710E+02  0.96228997335E+02  0.47000000000E+01 0.  1.
        -11    1    1    2    0    0 -0.10281412485E+02 -0.40761417928E+02  0.19419168623E+02  0.46306638230E+02  0.00000000000E+00 0.  1.
         11    1    1    2    0    0  0.11589277263E+03 -0.75000352919E+02  0.11636665111E+03  0.18054745962E+03  0.00000000000E+00 0. -1.
<mgrwt>
<rscale>  0 0.19559178E+03</rscale>
<asrwt>0</asrwt>
<pdfrwt beam="1">  1        1 0.43174168E-01 0.20044429E+03</pdfrwt>
<pdfrwt beam="2">  1       -1 0.22565328E-01 0.20044429E+03</pdfrwt>
<totfact> 0.15644513E+03</totfact>
</mgrwt>
</event>
<event>
 6    1  0.7270761E-006  0.2503904E+03  0.7546771E-02  0.1152997E+00
         -1   -1    0    0    0  501 -0.00000000000E+00  0.00000000000E+00  0.17157433929E+03  0.17157433929E+03  0.00000000000E+00 0.  1.
          1   -1    0    0  501    0  0.00000000000E+00 -0.00000000000E+00 -0.18157532739E+03  0.18157532739E+03  0.00000000000E+00 0. -1.
          5    1    1    2  502    0 -0.12869214567E+03  0.71455092443E+01  0.13901810236E+02  0.12972307808E+03  0.47000000000E+01 0. -1.
         -5    1    1    2    0  502  0.12014715190E+03  0.16852757237E+02  0.12983568841E+02  0.12210657884E+03  0.47000000000E+01 0.  1.
        -11    1    1    2    0    0  0.10174928676E+02 -0.54679542697E+02 -0.42613387802E+02  0.70066271366E+02  0.00000000000E+00 0. -1.
         11    1    1    2    0    0 -0.16299349024E+01  0.30681276216E+02  0.57270206294E+01  0.31253738389E+02  0.00000000000E+00 0.  1.
<mgrwt>
<rscale>  0 0.19618615E+03</rscale>
<asrwt>0</asrwt>
<pdfrwt beam="2">  1        1 0.27934665E-01 0.25039040E+03</pdfrwt>
<pdfrwt beam="1">  1       -1 0.26396052E-01 0.25039040E+03</pdfrwt>
<totfact> 0.20973258E+03</totfact>
</mgrwt>
</event>
<event>
 6    1  0.7270761E-006  0.1413054E+03  0.7546771E-02  0.1223094E+00
         -2   -1    0    0    0  501 -0.00000000000E+00  0.00000000000E+00  0.67263106433E+02  0.67263106433E+02  0.00000000000E+00 0.  1.
          2   -1    0    0  501    0  0.00000000000E+00 -0.00000000000E+00 -0.32206904125E+03  0.32206904125E+03  0.00000000000E+00 0. -1.
          5    1    1    2  502    0 -0.20096048581E+02  0.52764023738E+02 -0.76734277004E+02  0.95384131997E+02  0.47000000000E+01 0.  1.
         -5    1    1    2    0  502 -0.31744363950E+02 -0.12087652245E+02  0.37949283471E+02  0.51147376232E+02  0.47000000000E+01 0.  1.
        -11    1    1    2    0    0 -0.17832044782E+02 -0.86288263189E+01 -0.84888957243E+01  0.21552257779E+02  0.00000000000E+00 0.  1.
         11    1    1    2    0    0  0.69672457313E+02 -0.32047545173E+02 -0.20753204556E+03  0.22124838168E+03  0.00000000000E+00 0. -1.
<mgrwt>
<rscale>  0 0.13298424E+03</rscale>
<asrwt>0</asrwt>
<pdfrwt beam="2">  1        2 0.49549083E-01 0.14130537E+03</pdfrwt>
<pdfrwt beam="1">  1       -2 0.10348170E-01 0.14130537E+03</pdfrwt>
<totfact> 0.60908724E+03</totfact>
</mgrwt>
</event>
<event>
 6    1  0.7270761E-006  0.2772802E+03  0.7546771E-02  0.1097184E+00
          1   -1    0    0  501    0  0.00000000000E+00  0.00000000000E+00  0.74913502505E+03  0.74913502505E+03  0.00000000000E+00 0. -1.
         -1   -1    0    0    0  501 -0.00000000000E+00 -0.00000000000E+00 -0.25657684953E+02  0.25657684953E+02  0.00000000000E+00 0.  1.
          5    1    1    2  502    0 -0.29387991127E+02  0.75086631819E+01  0.18388621523E+03  0.18643031995E+03  0.47000000000E+01 0.  1.
         -5    1    1    2    0  502  0.69441686719E+02 -0.25933927919E+02  0.81909388695E+02  0.11057103793E+03  0.47000000000E+01 0.  1.
        -11    1    1    2    0    0 -0.83610971180E+02  0.59802412668E+01  0.36666189305E+03  0.37612165798E+03  0.00000000000E+00 0. -1.
         11    1    1    2    0    0  0.43557275588E+02  0.12445023470E+02  0.91019843120E+02  0.10166969414E+03  0.00000000000E+00 0.  1.
<mgrwt>
<rscale>  0 0.27728015E+03</rscale>
<asrwt>0</asrwt>
<pdfrwt beam="1">  1        1 0.11525153E+00 0.27728015E+03</pdfrwt>
<pdfrwt beam="2">  1       -1 0.39473367E-02 0.27728015E+03</pdfrwt>
<totfact> 0.63782932E+03</totfact>
</mgrwt>
</event>
<event>
 6    1  0.7270761E-006  0.1307371E+03  0.7546771E-02  0.1241676E+00
         -2   -1    0    0    0  501 -0.00000000000E+00  0.00000000000E+00  0.74522669845E+02  0.74522669845E+02  0.00000000000E+00 0.  1.
          2   -1    0    0  501    0  0.00000000000E+00 -0.00000000000E+00 -0.22679976974E+03  0.22679976974E+03  0.00000000000E+00 0. -1.
          5    1    1    2  502    0  0.50560046888E+02 -0.93564747038E+01 -0.56629112833E+02  0.76634250701E+02  0.47000000000E+01 0.  1.
         -5    1    1    2    0  502 -0.16123320916E+02  0.25842292876E+02  0.45083910767E+02  0.54611670809E+02  0.47000000000E+01 0.  1.
        -11    1    1    2    0    0 -0.44016355906E+02  0.90834534056E+01 -0.13485386622E+03  0.14214610071E+03  0.00000000000E+00 0. -1.
         11    1    1    2    0    0  0.95796299340E+01 -0.25569271578E+02 -0.58780316153E+01  0.27930417368E+02  0.00000000000E+00 0.  1.
<mgrwt>
<rscale>  0 0.12086537E+03</rscale>
<asrwt>0</asrwt>
<pdfrwt beam="2">  1        2 0.34892272E-01 0.13073714E+03</pdfrwt>
<pdfrwt beam="1">  1       -2 0.11465026E-01 0.13073714E+03</pdfrwt>
<totfact> 0.74803504E+03</totfact>
</mgrwt>
</event>
<event>
 6    1  0.7270761E-006  0.1467835E+03  0.7546771E-02  0.1215731E+00
          2   -1    0    0  501    0  0.00000000000E+00  0.00000000000E+00  0.92819431453E+02  0.92819431453E+02  0.00000000000E+00 0. -1.
         -2   -1    0    0    0  501 -0.00000000000E+00 -0.00000000000E+00 -0.18524112169E+03  0.18524112169E+03  0.00000000000E+00 0.  1.
          5    1    1    2  502    0 -0.36821268773E+02 -0.64691393791E+01 -0.69963973943E+02  0.79465107111E+02  0.47000000000E+01 0.  1.
         -5    1    1    2    0  502 -0.24004493297E+01  0.72660612328E+02  0.20070805420E+02  0.75566222422E+02  0.47000000000E+01 0.  1.
        -11    1    1    2    0    0  0.39724621457E+01 -0.45424023772E+02  0.18788344080E+02  0.49316571905E+02  0.00000000000E+00 0. -1.
         11    1    1    2    0    0  0.35249255957E+02 -0.20767449177E+02 -0.61316865798E+02  0.73712651710E+02  0.00000000000E+00 0.  1.
<mgrwt>
<rscale>  0 0.13822974E+03</rscale>
<asrwt>0</asrwt>
<pdfrwt beam="1">  1        2 0.14279912E-01 0.14678346E+03</pdfrwt>
<pdfrwt beam="2">  1       -2 0.28498634E-01 0.14678346E+03</pdfrwt>
<totfact> 0.44548873E+03</totfact>
</mgrwt>
</event>
<event>
 6    1  0.7270761E-006  0.1375778E+03  0.7546771E-02  0.1228218E+00
          1   -1    0    0  501    0  0.00000000000E+00  0.00000000000E+00  0.38960274101E+02  0.38960274101E+02  0.00000000000E+00 0. -1.
         -1   -1    0    0    0  501 -0.00000000000E+00 -0.00000000000E+00 -0.39963067696E+03  0.39963067696E+03  0.00000000000E+00 0.  1.
          5    1    1    2  502    0 -0.17208786395E+02  0.44198760778E+02 -0.18432287167E+02  0.51102954843E+02  0.47000000000E+01 0. -1.
         -5    1    1    2    0  502  0.40842980896E+02  0.81857365352E+01 -0.22187275158E+03  0.22579805860E+03  0.47000000000E+01 0. -1.
        -11    1    1    2    0    0 -0.49168721474E+02 -0.36353945710E+02 -0.11612872712E+03  0.13124425245E+03  0.00000000000E+00 0.  1.
         11    1    1    2    0    0  0.25534526973E+02 -0.16030551603E+02 -0.42366369922E+01  0.30445685169E+02  0.00000000000E+00 0. -1.
<mgrwt>
<rscale>  0 0.12948790E+03</rscale>
<asrwt>0</asrwt>
<pdfrwt beam="1">  1        1 0.59938882E-02 0.13757783E+03</pdfrwt>
<pdfrwt beam="2">  1       -1 0.61481644E-01 0.13757783E+03</pdfrwt>
<totfact> 0.34503602E+03</totfact>
</mgrwt>
</event>
<event>
 6    1  0.7270761E-006  0.1917705E+03  0.7546771E-02  0.1161591E+00
          2   -1    0    0  501    0  0.00000000000E+00  0.00000000000E+00  0.46555879109E+03  0.46555879109E+03  0.00000000000E+00 0. -1.
         -2   -1    0    0    0  501 -0.00000000000E+00 -0.00000000000E+00 -0.77415764183E+02  0.77415764183E+02  0.00000000000E+00 0.  1.
          5    1    1    2  502    0  0.11177869463E+02  0.11863213960E+03  0.14371580123E+03  0.18674809459E+03  0.47000000000E+01 0. -1.
         -5    1    1    2    0  502  0.32555310249E+02  0.20072103231E+02 -0.18026498933E+02  0.42541535202E+02  0.47000000000E+01 0. -1.
        -11    1    1    2    0    0  0.10940255275E+02 -0.41137269437E+02  0.14660101668E+03  0.15265589479E+03  0.00000000000E+00 0. -1.
         11    1    1    2    0    0 -0.54673434987E+02 -0.97566973391E+02  0.11585270794E+03  0.16102903069E+03  0.00000000000E+00 0.  1.
<mgrwt>
<rscale>  0 0.18657098E+03</rscale>
<asrwt>0</asrwt>
<pdfrwt beam="1">  1        2 0.71624428E-01 0.19177052E+03</pdfrwt>
<pdfrwt beam="2">  1       -2 0.11910118E-01 0.19177052E+03</pdfrwt>
<totfact> 0.33237873E+03</totfact>
</mgrwt>
</event>
<event>
 6    1  0.7270761E-006  0.1259010E+03  0.7546771E-02  0.1248285E+00
          1   -1    0    0  501    0  0.00000000000E+00  0.00000000000E+00  0.70128226130E+03  0.70128226130E+03  0.00000000000E+00 0. -1.
         -1   -1    0    0    0  501 -0.00000000000E+00 -0.00000000000E+00 -0.20024881151E+02  0.20024881151E+02  0.00000000000E+00 0.  1.
          5    1    1    2  502    0  0.96849212605E+00 -0.49636031527E+02  0.50608552167E+02  0.71049202355E+02  0.47000000000E+01 0.  1.
         -5    1    1    2    0  502  0.81533681526E+01  0.61702818131E+02  0.19826648665E+03  0.20785909869E+03  0.47000000000E+01 0.  1.
        -11    1    1    2    0    0  0.10462217386E+02  0.37927341561E+02  0.15916935267E+03  0.16395982453E+03  0.00000000000E+00 0. -1.
         11    1    1    2    0    0 -0.19584077665E+02 -0.49994128165E+02  0.27321298866E+03  0.27843901688E+03  0.00000000000E+00 0.  1.
<mgrwt>
<rscale>  0 0.11690922E+03</rscale>
<asrwt>0</asrwt>
<pdfrwt beam="1">  1        1 0.10788956E+00 0.12590097E+03</pdfrwt>
<pdfrwt beam="2">  1       -1 0.30807515E-02 0.12590097E+03</pdfrwt>
<totfact> 0.97233223E+03</totfact>
</mgrwt>
</event>
<event>
 6    1  0.7270761E-006  0.1438283E+03  0.7546771E-02  0.1218881E+00
          1   -1    0    0  501    0  0.00000000000E+00  0.00000000000E+00  0.89719777484E+02  0.89719777484E+02  0.00000000000E+00 0. -1.
         -1   -1    0    0    0  501 -0.00000000000E+00 -0.00000000000E+00 -0.23149608281E+03  0.23149608281E+03  0.00000000000E+00 0.  1.
          5    1    1    2  502    0 -0.41506652285E+02 -0.90237053540E+01 -0.11018027428E+03  0.11817788406E+03  0.47000000000E+01 0. -1.
         -5    1    1    2    0  502  0.20060232085E+02  0.76902859852E+02 -0.37626785974E+02  0.88058661058E+02  0.47000000000E+01 0. -1.
        -11    1    1    2    0    0  0.75435859969E+01 -0.10654840835E+02 -0.38819549019E+02  0.40955936187E+02  0.00000000000E+00 0.  1.
         11    1    1    2    0    0  0.13902834202E+02 -0.57224313662E+02  0.44850303941E+02  0.74023378986E+02  0.00000000000E+00 0. -1.
<mgrwt>
<rscale>  0 0.13595296E+03</rscale>
<asrwt>0</asrwt>
<pdfrwt beam="1">  1        1 0.13803043E-01 0.14382832E+03</pdfrwt>
<pdfrwt beam="2">  1       -1 0.35614781E-01 0.14382832E+03</pdfrwt>
<totfact> 0.30535234E+03</totfact>
</mgrwt>
</event>
<event>
 6    1  0.7270761E-006  0.1398549E+03  0.7546771E-02  0.1224652E+00
         -3   -1    0    0    0  501 -0.00000000000E+00  0.00000000000E+00  0.79754019398E+02  0.79754019398E+02  0.00000000000E+00 0.  1.
          3   -1    0    0  501    0  0.00000000000E+00 -0.00000000000E+00 -0.32883338602E+03  0.32883338602E+03  0.00000000000E+00 0. -1.
          5    1    1    2  502    0 -0.79052585305E+02 -0.17545809571E+02 -0.40952273850E+01  0.81215931715E+02  0.47000000000E+01 0.  1.
         -5    1    1    2    0  502  0.46227809001E+02 -0.35875199277E+02 -0.17133659778E+00  0.58703999902E+02  0.47000000000E+01 0.  1.
        -11    1    1    2    0    0  0.11913260429E+02 -0.16428186517E+01  0.42345239465E+01  0.12749738046E+02  0.00000000000E+00 0.  1.
         11    1    1    2    0    0  0.20911515874E+02  0.55063827500E+02 -0.24904732659E+03  0.25591773576E+03  0.00000000000E+00 0. -1.
<mgrwt>
<rscale>  0 0.13190776E+03</rscale>
<asrwt>0</asrwt>
<pdfrwt beam="2">  1        3 0.50589751E-01 0.13985487E+03</pdfrwt>
<pdfrwt beam="1">  1       -3 0.12269849E-01 0.13985487E+03</pdfrwt>
<totfact> 0.47601472E+02</totfact>
</mgrwt>
</event>
<event>
 6    1  0.7270761E-006  0.1252612E+03  0.7546771E-02  0.1250302E+00
         -2   -1    0    0    0  501 -0.00000000000E+00  0.00000000000E+00  0.51933524853E+03  0.51933524853E+03  0.00000000000E+00 0.  1.
          2   -1    0    0  501    0  0.00000000000E+00 -0.00000000000E+00 -0.22990595936E+02  0.22990595936E+02  0.00000000000E+00 0. -1.
          5    1    1    2  502    0 -0.29933058201E+02 -0.25228029487E+02  0.28330103602E+03  0.28603148158E+03  0.47000000000E+01 0.  1.
         -5    1    1    2    0  502  0.37930326739E+02  0.24373404489E+02  0.39155665138E+02  0.59900155637E+02  0.47000000000E+01 0.  1.
        -11    1    1    2    0    0 -0.94941889639E+01  0.28238553126E+02  0.16484723862E+03  0.16751766350E+03  0.00000000000E+00 0. -1.
         11    1    1    2    0    0  0.14969204257E+01 -0.27383928127E+02  0.90407128222E+01  0.28876543747E+02  0.00000000000E+00 0.  1.
<mgrwt>
<rscale>  0 0.11573560E+03</rscale>
<asrwt>0</asrwt>
<pdfrwt beam="2">  1        2 0.35370151E-02 0.12526122E+03</pdfrwt>
<pdfrwt beam="1">  1       -2 0.79897722E-01 0.12526122E+03</pdfrwt>
<totfact> 0.33840324E+03</totfact>
</mgrwt>
</event>
<event>
 6    1  0.7270761E-006  0.1911014E+03  0.7546771E-02  0.1181374E+00
         -3   -1    0    0    0  501 -0.00000000000E+00  0.00000000000E+00  0.71102173714E+03  0.71102173714E+03  0.00000000000E+00 0.  1.
          3   -1    0    0  501    0  0.00000000000E+00 -0.00000000000E+00 -0.38181397469E+02  0.38181397469E+02  0.00000000000E+00 0. -1.
          5    1    1    2  502    0  0.31962007637E+02 -0.86020787094E+02  0.12651822336E+03  0.15636526656E+03  0.47000000000E+01 0. -1.
         -5    1    1    2    0  502 -0.33434448883E+02  0.23811260086E+02  0.43140456703E+03  0.43337839002E+03  0.47000000000E+01 0.  1.
        -11    1    1    2    0    0 -0.34350986184E+02  0.15927238509E+02  0.97428851745E+01  0.39097199259E+02  0.00000000000E+00 0. -1.
         11    1    1    2    0    0  0.35823427430E+02  0.46282288499E+02  0.10517466411E+03  0.12036227877E+03  0.00000000000E+00 0.  1.
<mgrwt>
<rscale>  0 0.16666234E+03</rscale>
<asrwt>0</asrwt>
<pdfrwt beam="2">  1        3 0.58740617E-02 0.19110139E+03</pdfrwt>
<pdfrwt beam="1">  1       -3 0.10938795E+00 0.19110139E+03</pdfrwt>
<totfact> 0.31477098E+02</totfact>
</mgrwt>
</event>
<event>
 6    1  0.7270761E-006  0.2546093E+03  0.7546771E-02  0.1112627E+00
          2   -1    0    0  501    0  0.00000000000E+00  0.00000000000E+00  0.71248026349E+03  0.71248026349E+03  0.00000000000E+00 0. -1.
         -2   -1    0    0    0  501 -0.00000000000E+00 -0.00000000000E+00 -0.94432678460E+02  0.94432678460E+02  0.00000000000E+00 0.  1.
          5    1    1    2  502    0 -0.13473980189E+03  0.15915814077E+03  0.18857523802E+03  0.28119181777E+03  0.47000000000E+01 0. -1.
         -5    1    1    2    0  502  0.22844254634E+02  0.32384551044E+02  0.85644370928E+01  0.40817382313E+02  0.47000000000E+01 0. -1.
        -11    1    1    2    0    0  0.13315051827E+02 -0.10550152643E+03  0.14791385511E+03  0.18217126891E+03  0.00000000000E+00 0.  1.
         11    1    1    2    0    0  0.98580495429E+02 -0.86041165387E+02  0.27299405481E+03  0.30273247295E+03  0.00000000000E+00 0. -1.
<mgrwt>
<rscale>  0 0.25107550E+03</rscale>
<asrwt>0</asrwt>
<pdfrwt beam="1">  1        2 0.10961234E+00 0.25460926E+03</pdfrwt>
<pdfrwt beam="2">  1       -2 0.14528105E-01 0.25460926E+03</pdfrwt>
<totfact> 0.14811297E+03</totfact>
</mgrwt>
</event>
<event>
 6    1  0.7270761E-006  0.1433153E+03  0.7546771E-02  0.1218774E+00
         -1   -1    0    0    0  501 -0.00000000000E+00  0.00000000000E+00  0.10728995081E+03  0.10728995081E+03  0.00000000000E+00 0.  1.
          1   -1    0    0  501    0  0.00000000000E+00 -0.00000000000E+00 -0.17002756620E+03  0.17002756620E+03  0.00000000000E+00 0. -1.
          5    1    1    2  502    0  0.36602097732E+02 -0.11831422751E+02  0.39633674850E+00  0.38754912018E+02  0.47000000000E+01 0.  1.
         -5    1    1    2    0  502 -0.85045138410E+02  0.60639779628E+02  0.33023707272E+01  0.10460809765E+03  0.47000000000E+01 0.  1.
        -11    1    1    2    0    0  0.24529201933E+02  0.21234154912E+02  0.28547664928E+01  0.32568708510E+02  0.00000000000E+00 0.  1.
         11    1    1    2    0    0  0.23913838745E+02 -0.70042511789E+02 -0.69291089363E+02  0.10138579884E+03  0.00000000000E+00 0. -1.
<mgrwt>
<rscale>  0 0.13602907E+03</rscale>
<asrwt>0</asrwt>
<pdfrwt beam="2">  1        1 0.26158087E-01 0.14331529E+03</pdfrwt>
<pdfrwt beam="1">  1       -1 0.16506146E-01 0.14331529E+03</pdfrwt>
<totfact> 0.47745930E+03</totfact>
</mgrwt>
</event>
<event>
 6    1  0.7270761E-006  0.1281069E+03  0.7546771E-02  0.1247117E+00
          2   -1    0    0  501    0  0.00000000000E+00  0.00000000000E+00  0.37946017226E+03  0.37946017226E+03  0.00000000000E+00 0. -1.
         -2   -1    0    0    0  501 -0.00000000000E+00 -0.00000000000E+00 -0.33311766297E+02  0.33311766297E+02  0.00000000000E+00 0.  1.
          5    1    1    2  502    0 -0.13828441382E+02 -0.20311638472E+02 -0.13784395899E+02  0.28563753583E+02  0.47000000000E+01 0.  1.
         -5    1    1    2    0  502 -0.10810169272E+02  0.33703367133E+02  0.16880639771E+03  0.17254120268E+03  0.47000000000E+01 0.  1.
        -11    1    1    2    0    0  0.37551014127E+02 -0.34603166647E+02  0.17441187167E+03  0.18173320770E+03  0.00000000000E+00 0. -1.
         11    1    1    2    0    0 -0.12912403473E+02  0.21211437986E+02  0.16714532486E+02  0.29933774588E+02  0.00000000000E+00 0.  1.
<mgrwt>
<rscale>  0 0.11759566E+03</rscale>
<asrwt>0</asrwt>
<pdfrwt beam="1">  1        2 0.58378485E-01 0.12810692E+03</pdfrwt>
<pdfrwt beam="2">  1       -2 0.51248874E-02 0.12810692E+03</pdfrwt>
<totfact> 0.14950613E+04</totfact>
</mgrwt>
</event>
<event>
 6    1  0.7270761E-006  0.1774106E+03  0.7546771E-02  0.1176880E+00
          1   -1    0    0  501    0  0.00000000000E+00  0.00000000000E+00  0.65746837216E+02  0.65746837216E+02  0.00000000000E+00 0.  1.
         -1   -1    0    0    0  501 -0.00000000000E+00 -0.00000000000E+00 -0.46008681994E+03  0.46008681994E+03  0.00000000000E+00 0. -1.
          5    1    1    2  502    0  0.60374694493E+02 -0.46933900773E+02 -0.43857535326E+02  0.88280621779E+02  0.47000000000E+01 0.  1.
         -5    1    1    2    0  502  0.29511258218E+02 -0.41210751566E+02 -0.24877913155E+03  0.25393382347E+03  0.47000000000E+01 0.  1.
        -11    1    1    2    0    0 -0.93214510756E+02  0.66952387663E+02 -0.11152166279E+03  0.16002702428E+03  0.00000000000E+00 0. -1.
         11    1    1    2    0    0  0.33285580459E+01  0.21192264676E+02  0.98183469342E+01  0.23592187632E+02  0.00000000000E+00 0.  1.
<mgrwt>
<rscale>  0 0.17093171E+03</rscale>
<asrwt>0</asrwt>
<pdfrwt beam="1">  1        1 0.10114898E-01 0.17741056E+03</pdfrwt>
<pdfrwt beam="2">  1       -1 0.70782587E-01 0.17741056E+03</pdfrwt>
<totfact> 0.13091464E+03</totfact>
</mgrwt>
</event>
<event>
 6    1  0.7270761E-006  0.3034846E+03  0.7546771E-02  0.1083512E+00
          1   -1    0    0  501    0  0.00000000000E+00  0.00000000000E+00  0.41210447716E+03  0.41210447716E+03  0.00000000000E+00 0. -1.
         -1   -1    0    0    0  501 -0.00000000000E+00 -0.00000000000E+00 -0.55873507785E+02  0.55873507785E+02  0.00000000000E+00 0.  1.
          5    1    1    2  502    0 -0.30183467691E+02  0.30814527474E+02  0.65605801448E+01  0.43882890027E+02  0.47000000000E+01 0.  1.
         -5    1    1    2    0  502 -0.38144292602E+02 -0.94162464729E+02  0.11717281103E+03  0.15515513033E+03  0.47000000000E+01 0.  1.
        -11    1    1    2    0    0  0.50730801773E+01  0.70904238400E+02  0.11238725194E+03  0.13298135796E+03  0.00000000000E+00 0.  1.
         11    1    1    2    0    0  0.63254680115E+02 -0.75563011448E+01  0.12011032626E+03  0.13595860663E+03  0.00000000000E+00 0. -1.
<mgrwt>
<rscale>  0 0.30348458E+03</rscale>
<asrwt>0</asrwt>
<pdfrwt beam="1">  1        1 0.63400687E-01 0.30348458E+03</pdfrwt>
<pdfrwt beam="2">  1       -1 0.85959245E-02 0.30348458E+03</pdfrwt>
<totfact> 0.44866214E+03</totfact>
</mgrwt>
</event>
<event>
 6    1  0.7270761E-006  0.1225557E+03  0.7546771E-02  0.1248321E+00
          3   -1    0    0  501    0  0.00000000000E+00  0.00000000000E+00  0.71753070434E+02  0.71753070434E+02  0.00000000000E+00 0. -1.
         -3   -1    0    0    0  501 -0.00000000000E+00 -0.00000000000E+00 -0.17609533284E+03  0.17609533284E+03  0.00000000000E+00 0.  1.
          5    1    1    2  502    0  0.32837489984E+02 -0.32465104244E+01  0.64780481503E+01  0.33954317638E+02  0.47000000000E+01 0. -1.
         -5    1    1    2    0  502 -0.74061092343E+02 -0.15338876465E+02 -0.74250162276E+02  0.10609195600E+03  0.47000000000E+01 0.  1.
        -11    1    1    2    0    0  0.13780384688E+02 -0.36648103481E+02 -0.19864297427E+02  0.43904131960E+02  0.00000000000E+00 0. -1.
         11    1    1    2    0    0  0.27443217670E+02  0.55233490370E+02 -0.16705850857E+02  0.63897997679E+02  0.00000000000E+00 0.  1.
<mgrwt>
<rscale>  0 0.11688802E+03</rscale>
<asrwt>0</asrwt>
<pdfrwt beam="1">  1        3 0.11038934E-01 0.12255570E+03</pdfrwt>
<pdfrwt beam="2">  1       -3 0.27091589E-01 0.12255570E+03</pdfrwt>
<totfact> 0.18272408E+03</totfact>
</mgrwt>
</event>
<event>
 6    1  0.7270761E-006  0.1450135E+03  0.7546771E-02  0.1216421E+00
         -1   -1    0    0    0  501 -0.00000000000E+00  0.00000000000E+00  0.18869626360E+03  0.18869626360E+03  0.00000000000E+00 0.  1.
          1   -1    0    0  501    0  0.00000000000E+00 -0.00000000000E+00 -0.11050906730E+03  0.11050906730E+03  0.00000000000E+00 0. -1.
          5    1    1    2  502    0 -0.39244895626E+01 -0.58599893664E+02 -0.73722453935E+01  0.59378355972E+02  0.47000000000E+01 0.  1.
         -5    1    1    2    0  502  0.41657553139E+02 -0.44836129134E+01  0.11133747790E+03  0.11905283913E+03  0.47000000000E+01 0.  1.
        -11    1    1    2    0    0 -0.18267605802E+02  0.37220094390E+02  0.33453496440E+02  0.53274546194E+02  0.00000000000E+00 0.  1.
         11    1    1    2    0    0 -0.19465457774E+02  0.25863412187E+02 -0.59231532655E+02  0.67499589606E+02  0.00000000000E+00 0. -1.
<mgrwt>
<rscale>  0 0.13772686E+03</rscale>
<asrwt>0</asrwt>
<pdfrwt beam="2">  1        1 0.17001395E-01 0.14501352E+03</pdfrwt>
<pdfrwt beam="1">  1       -1 0.29030194E-01 0.14501352E+03</pdfrwt>
<totfact> 0.33003809E+03</totfact>
</mgrwt>
</event>
<event>
 6    1  0.7270761E-006  0.1276089E+03  0.7546771E-02  0.1247168E+00
         -1   -1    0    0    0  501 -0.00000000000E+00  0.00000000000E+00  0.10930382244E+03  0.10930382244E+03  0.00000000000E+00 0.  1.
          1   -1    0    0  501    0  0.00000000000E+00 -0.00000000000E+00 -0.11100219328E+03  0.11100219328E+03  0.00000000000E+00 0. -1.
          5    1    1    2  502    0  0.39303757525E+02 -0.35386777712E+02 -0.58209521935E+01  0.53413321155E+02  0.47000000000E+01 0.  1.
         -5    1    1    2    0  502 -0.64977342025E+02  0.36076716476E+02 -0.41651876393E+01  0.74585677153E+02  0.47000000000E+01 0.  1.
        -11    1    1    2    0    0  0.40522652082E+02  0.21407162342E+02 -0.22957150999E+02  0.51258001456E+02  0.00000000000E+00 0. -1.
         11    1    1    2    0    0 -0.14849067582E+02 -0.22097101106E+02  0.31244919991E+02  0.41049015951E+02  0.00000000000E+00 0.  1.
<mgrwt>
<rscale>  0 0.11756550E+03</rscale>
<asrwt>0</asrwt>
<pdfrwt beam="2">  1        1 0.17077260E-01 0.12760886E+03</pdfrwt>
<pdfrwt beam="1">  1       -1 0.16815973E-01 0.12760886E+03</pdfrwt>
<totfact> 0.78966757E+03</totfact>
</mgrwt>
</event>
<event>
 6    1  0.7270761E-006  0.1595998E+03  0.7546771E-02  0.1199260E+00
         -2   -1    0    0    0  501 -0.00000000000E+00  0.00000000000E+00  0.30531606009E+02  0.30531606009E+02  0.00000000000E+00 0.  1.
          2   -1    0    0  501    0  0.00000000000E+00 -0.00000000000E+00 -0.68603712001E+03  0.68603712001E+03  0.00000000000E+00 0. -1.
          5    1    1    2  502    0 -0.32859963163E+01  0.68196627808E+01 -0.28285807404E+03  0.28299838449E+03  0.47000000000E+01 0. -1.
         -5    1    1    2    0  502 -0.89992804165E+02 -0.13011055797E+02 -0.12237463023E+03  0.15253075919E+03  0.47000000000E+01 0.  1.
        -11    1    1    2    0    0 -0.15465231891E+02 -0.75537012297E+01 -0.23107820086E+02  0.28813246066E+02  0.00000000000E+00 0. -1.
         11    1    1    2    0    0  0.10874403237E+03  0.13745094245E+02 -0.22716498964E+03  0.25222633628E+03  0.00000000000E+00 0.  1.
<mgrwt>
<rscale>  0 0.15099175E+03</rscale>
<asrwt>0</asrwt>
<pdfrwt beam="2">  1        2 0.10554416E+00 0.15959978E+03</pdfrwt>
<pdfrwt beam="1">  1       -2 0.46971705E-02 0.15959978E+03</pdfrwt>
<totfact> 0.89667575E+03</totfact>
</mgrwt>
</event>
<event>
 6    1  0.7270761E-006  0.1320782E+03  0.7546771E-02  0.1237478E+00
         -2   -1    0    0    0  501 -0.00000000000E+00  0.00000000000E+00  0.26019235570E+02  0.26019235570E+02  0.00000000000E+00 0. -1.
          2   -1    0    0  501    0  0.00000000000E+00 -0.00000000000E+00 -0.62278740877E+03  0.62278740877E+03  0.00000000000E+00 0.  1.
          5    1    1    2  502    0  0.23457681739E+01  0.70200001362E+02 -0.13896736247E+03  0.15578048867E+03  0.47000000000E+01 0.  1.
         -5    1    1    2    0  502 -0.36431517145E+02 -0.44702873455E+02 -0.62979221513E+02  0.85522363619E+02  0.47000000000E+01 0.  1.
        -11    1    1    2    0    0 -0.22886087960E+02 -0.36251893482E+02 -0.16356898226E+03  0.16909401161E+03  0.00000000000E+00 0.  1.
         11    1    1    2    0    0  0.56971836931E+02  0.10754765575E+02 -0.23125260696E+03  0.23840978044E+03  0.00000000000E+00 0. -1.
<mgrwt>
<rscale>  0 0.12347142E+03</rscale>
<asrwt>0</asrwt>
<pdfrwt beam="2">  1        2 0.95813435E-01 0.13207817E+03</pdfrwt>
<pdfrwt beam="1">  1       -2 0.40029598E-02 0.13207817E+03</pdfrwt>
<totfact> 0.12592763E+04</totfact>
</mgrwt>
</event>
<event>
 6    1  0.7270761E-006  0.1419628E+03  0.7546771E-02  0.1221121E+00
         -1   -1    0    0    0  501 -0.00000000000E+00  0.00000000000E+00  0.11558291224E+04  0.11558291224E+04  0.00000000000E+00 0.  1.
          1   -1    0    0  501    0  0.00000000000E+00 -0.00000000000E+00 -0.19886996406E+02  0.19886996406E+02  0.00000000000E+00 0. -1.
          5    1    1    2  502    0 -0.65788666845E+02  0.11739259639E+02  0.90659003105E+03  0.90906189740E+03  0.47000000000E+01 0.  1.
         -5    1    1    2    0  502  0.60276001419E+01  0.18463646118E+02  0.19760899453E+02  0.28103760222E+02  0.47000000000E+01 0.  1.
        -11    1    1    2    0    0  0.71147421235E+02 -0.52343824066E+02  0.17371865578E+03  0.19488458849E+03  0.00000000000E+00 0.  1.
         11    1    1    2    0    0 -0.11386354532E+02  0.22140918309E+02  0.35872539745E+02  0.43665872726E+02  0.00000000000E+00 0. -1.
<mgrwt>
<rscale>  0 0.13436346E+03</rscale>
<asrwt>0</asrwt>
<pdfrwt beam="2">  1        1 0.30595388E-02 0.14196275E+03</pdfrwt>
<pdfrwt beam="1">  1       -1 0.17781981E+00 0.14196275E+03</pdfrwt>
<totfact> 0.77501575E+02</totfact>
</mgrwt>
</event>
<event>
 6    1  0.7270761E-006  0.1380491E+03  0.7546771E-02  0.1227714E+00
         -1   -1    0    0    0  501 -0.00000000000E+00  0.00000000000E+00  0.10202949261E+03  0.10202949261E+03  0.00000000000E+00 0.  1.
          1   -1    0    0  501    0  0.00000000000E+00 -0.00000000000E+00 -0.15389031688E+03  0.15389031688E+03  0.00000000000E+00 0. -1.
          5    1    1    2  502    0 -0.63488729638E+02 -0.37888311759E+02 -0.36034712315E+02  0.82382846823E+02  0.47000000000E+01 0. -1.
         -5    1    1    2    0  502  0.42729410843E+02 -0.16882821956E+02  0.31227177319E+02  0.55749967098E+02  0.47000000000E+01 0. -1.
        -11    1    1    2    0    0  0.55574060314E+00  0.18455632928E+02  0.27094468435E+02  0.32787641790E+02  0.00000000000E+00 0.  1.
         11    1    1    2    0    0  0.20203578192E+02  0.36315500787E+02 -0.74147757715E+02  0.84999353782E+02  0.00000000000E+00 0. -1.
<mgrwt>
<rscale>  0 0.12982594E+03</rscale>
<asrwt>0</asrwt>
<pdfrwt beam="2">  1        1 0.23675433E-01 0.13804913E+03</pdfrwt>
<pdfrwt beam="1">  1       -1 0.15696845E-01 0.13804913E+03</pdfrwt>
<totfact> 0.58452196E+03</totfact>
</mgrwt>
</event>
<event>
 6    1  0.7270761E-006  0.4208312E+03  0.7546771E-02  0.1036796E+00
          2   -1    0    0  501    0  0.00000000000E+00  0.00000000000E+00  0.30703964457E+03  0.30703964457E+03  0.00000000000E+00 0. -1.
         -2   -1    0    0    0  501 -0.00000000000E+00 -0.00000000000E+00 -0.14419869130E+03  0.14419869130E+03  0.00000000000E+00 0.  1.
          5    1    1    2  502    0 -0.11298938961E+03 -0.69449390748E+02 -0.42356586046E+02  0.13930538547E+03  0.47000000000E+01 0.  1.
         -5    1    1    2    0  502  0.34091226567E+02 -0.27201039775E+02 -0.11866992653E+02  0.45442533031E+02  0.47000000000E+01 0.  1.
        -11    1    1    2    0    0  0.28263645377E+02  0.73450563126E+02  0.18769041245E+03  0.20352275008E+03  0.00000000000E+00 0. -1.
         11    1    1    2    0    0  0.50634517665E+02  0.23199867397E+02  0.29374119514E+02  0.62967667288E+02  0.00000000000E+00 0.  1.
<mgrwt>
<rscale>  0 0.42083115E+03</rscale>
<asrwt>0</asrwt>
<pdfrwt beam="1">  1        2 0.47236868E-01 0.42083115E+03</pdfrwt>
<pdfrwt beam="2">  1       -2 0.22184414E-01 0.42083115E+03</pdfrwt>
<totfact> 0.18842513E+03</totfact>
</mgrwt>
</event>
<event>
 6    1  0.7270761E-006  0.1739649E+03  0.7546771E-02  0.1179550E+00
          1   -1    0    0  501    0  0.00000000000E+00  0.00000000000E+00  0.70151157896E+03  0.70151157896E+03  0.00000000000E+00 0. -1.
         -1   -1    0    0    0  501 -0.00000000000E+00 -0.00000000000E+00 -0.53180868031E+02  0.53180868031E+02  0.00000000000E+00 0.  1.
          5    1    1    2  502    0  0.95381115623E+02 -0.67139242916E+01  0.86148185374E+02  0.12878755313E+03  0.47000000000E+01 0. -1.
         -5    1    1    2    0  502 -0.79583986225E+01 -0.76979995328E+02  0.51967062426E+02  0.93337673886E+02  0.47000000000E+01 0. -1.
        -11    1    1    2    0    0 -0.43908027893E+02  0.94331897337E+02  0.40621844013E+03  0.41933261603E+03  0.00000000000E+00 0. -1.
         11    1    1    2    0    0 -0.43514689107E+02 -0.10637977718E+02  0.10399702300E+03  0.11323460395E+03  0.00000000000E+00 0.  1.
<mgrwt>
<rscale>  0 0.16837765E+03</rscale>
<asrwt>0</asrwt>
<pdfrwt beam="1">  1        1 0.10792485E+00 0.17396492E+03</pdfrwt>
<pdfrwt beam="2">  1       -1 0.81816725E-02 0.17396492E+03</pdfrwt>
<totfact> 0.23132218E+03</totfact>
</mgrwt>
</event>
<event>
 6    1  0.7270761E-006  0.3444967E+03  0.7546771E-02  0.1064897E+00
          2   -1    0    0  501    0  0.00000000000E+00  0.00000000000E+00  0.89714316021E+03  0.89714316021E+03  0.00000000000E+00 0. -1.
         -2   -1    0    0    0  501 -0.00000000000E+00 -0.00000000000E+00 -0.33071089151E+02  0.33071089151E+02  0.00000000000E+00 0.  1.
          5    1    1    2  502    0 -0.32699398324E+02 -0.12220148120E+01  0.59007189854E+02  0.67636398673E+02  0.47000000000E+01 0. -1.
         -5    1    1    2    0  502  0.89489321490E+02  0.11126180185E+03  0.26771251810E+03  0.30344622185E+03  0.47000000000E+01 0. -1.
        -11    1    1    2    0    0  0.92974999929E+01 -0.80983482854E+02  0.31359798870E+03  0.32401923788E+03  0.00000000000E+00 0.  1.
         11    1    1    2    0    0 -0.66087423159E+02 -0.29056304181E+02  0.22375437441E+03  0.23511239095E+03  0.00000000000E+00 0. -1.
<mgrwt>
<rscale>  0 0.34449674E+03</rscale>
<asrwt>0</asrwt>
<pdfrwt beam="1">  1        2 0.13802201E+00 0.34449674E+03</pdfrwt>
<pdfrwt beam="2">  1       -2 0.50878605E-02 0.34449674E+03</pdfrwt>
<totfact> 0.58403546E+03</totfact>
</mgrwt>
</event>
<event>
 6    1  0.7270761E-006  0.1661749E+03  0.7546771E-02  0.1187921E+00
         -1   -1    0    0    0  501 -0.00000000000E+00  0.00000000000E+00  0.49953913349E+03  0.49953913349E+03  0.00000000000E+00 0. -1.
          1   -1    0    0  501    0  0.00000000000E+00 -0.00000000000E+00 -0.49370528822E+02  0.49370528822E+02  0.00000000000E+00 0.  1.
          5    1    1    2  502    0  0.29258575594E+02 -0.13443596142E+03  0.22566025915E+03  0.26433640409E+03  0.47000000000E+01 0.  1.
         -5    1    1    2    0  502 -0.56126648113E+01  0.27524012996E+02  0.49536593274E+02  0.57140505518E+02  0.47000000000E+01 0.  1.
        -11    1    1    2    0    0 -0.43841301025E+01 -0.15558208381E+02  0.44998839934E+02  0.47813952359E+02  0.00000000000E+00 0. -1.
         11    1    1    2    0    0 -0.19261780680E+02  0.12247015680E+03  0.12997291231E+03  0.17961880034E+03  0.00000000000E+00 0.  1.
<mgrwt>
<rscale>  0 0.16068912E+03</rscale>
<asrwt>0</asrwt>
<pdfrwt beam="2">  1        1 0.75954663E-02 0.16617490E+03</pdfrwt>
<pdfrwt beam="1">  1       -1 0.76852171E-01 0.16617490E+03</pdfrwt>
<totfact> 0.16270095E+03</totfact>
</mgrwt>
</event>
<event>
 6    1  0.7270761E-006  0.1650927E+03  0.7546771E-02  0.1190145E+00
          1   -1    0    0  501    0  0.00000000000E+00  0.00000000000E+00  0.57597936733E+03  0.57597936733E+03  0.00000000000E+00 0. -1.
         -1   -1    0    0    0  501 -0.00000000000E+00 -0.00000000000E+00 -0.43968801974E+02  0.43968801974E+02  0.00000000000E+00 0.  1.
          5    1    1    2  502    0 -0.11566077513E+03  0.71794298464E+02  0.16709961816E+03  0.21558341445E+03  0.47000000000E+01 0. -1.
         -5    1    1    2    0  502  0.25605994064E+02 -0.12462545151E+02  0.33710594533E+02  0.44378780373E+02  0.47000000000E+01 0. -1.
        -11    1    1    2    0    0  0.59619317054E+01 -0.33866131038E+02  0.28102243128E+02  0.44409408124E+02  0.00000000000E+00 0.  1.
         11    1    1    2    0    0  0.84092849360E+02 -0.25465622276E+02  0.30309810954E+03  0.31557656636E+03  0.00000000000E+00 0. -1.
<mgrwt>
<rscale>  0 0.15872387E+03</rscale>
<asrwt>0</asrwt>
<pdfrwt beam="1">  1        1 0.88612205E-01 0.16509270E+03</pdfrwt>
<pdfrwt beam="2">  1       -1 0.67644315E-02 0.16509270E+03</pdfrwt>
<totfact> 0.40555011E+03</totfact>
</mgrwt>
</event>
<event>
 6    1  0.7270761E-006  0.1709224E+03  0.7546771E-02  0.1183588E+00
          2   -1    0    0  501    0  0.00000000000E+00  0.00000000000E+00  0.30458660484E+03  0.30458660484E+03  0.00000000000E+00 0. -1.
         -2   -1    0    0    0  501 -0.00000000000E+00 -0.00000000000E+00 -0.83000689354E+02  0.83000689354E+02  0.00000000000E+00 0.  1.
          5    1    1    2  502    0 -0.10599683046E+03 -0.72760344453E+02  0.54929902930E+02  0.13988845566E+03  0.47000000000E+01 0.  1.
         -5    1    1    2    0  502  0.22576255824E+01  0.19565455608E+02  0.67197661276E+02  0.70182046189E+02  0.47000000000E+01 0.  1.
        -11    1    1    2    0    0  0.74826700124E+01 -0.10465419572E+02  0.50577400324E+02  0.52188013767E+02  0.00000000000E+00 0. -1.
         11    1    1    2    0    0  0.96256534864E+02  0.63660308417E+02  0.48880950955E+02  0.12532877857E+03  0.00000000000E+00 0.  1.
<mgrwt>
<rscale>  0 0.16461024E+03</rscale>
<asrwt>0</asrwt>
<pdfrwt beam="1">  1        2 0.46859477E-01 0.17092242E+03</pdfrwt>
<pdfrwt beam="2">  1       -2 0.12769337E-01 0.17092242E+03</pdfrwt>
<totfact> 0.46707573E+03</totfact>
</mgrwt>
</event>
<event>
 6    1  0.7270761E-006  0.1280900E+03  0.7546771E-02  0.1245264E+00
         -1   -1    0    0    0  501 -0.00000000000E+00  0.00000000000E+00  0.92901720496E+02  0.92901720496E+02  0.00000000000E+00 0.  1.
          1   -1    0    0  501    0  0.00000000000E+00 -0.00000000000E+00 -0.13416408231E+03  0.13416408231E+03  0.00000000000E+00 0. -1.
          5    1    1    2  502    0 -0.57290334380E+02 -0.24383743328E+02 -0.43429296302E+02  0.76058813621E+02  0.47000000000E+01 0. -1.
         -5    1    1    2    0  502  0.30344601821E+02  0.31903870639E+02  0.28863303239E+02  0.52856712869E+02  0.47000000000E+01 0. -1.
        -11    1    1    2    0    0  0.11010267165E+02 -0.48889043757E+02 -0.13694227471E+02  0.51950904213E+02  0.00000000000E+00 0.  1.
         11    1    1    2    0    0  0.15935465395E+02  0.41368916445E+02 -0.13002141285E+02  0.46199372108E+02  0.00000000000E+00 0. -1.
<mgrwt>
<rscale>  0 0.11869618E+03</rscale>
<asrwt>0</asrwt>
<pdfrwt beam="2">  1        1 0.20640628E-01 0.12808999E+03</pdfrwt>
<pdfrwt beam="1">  1       -1 0.14292572E-01 0.12808999E+03</pdfrwt>
<totfact> 0.80072313E+03</totfact>
</mgrwt>
</event>
<event>
 6    1  0.7270761E-006  0.1451914E+03  0.7546771E-02  0.1217240E+00
          1   -1    0    0  501    0  0.00000000000E+00  0.00000000000E+00  0.33562616033E+02  0.33562616033E+02  0.00000000000E+00 0. -1.
         -1   -1    0    0    0  501 -0.00000000000E+00 -0.00000000000E+00 -0.52488793418E+03  0.52488793418E+03  0.00000000000E+00 0.  1.
          5    1    1    2  502    0  0.11927287379E+02  0.31252538534E+02 -0.12343305932E+03  0.12797183863E+03  0.47000000000E+01 0.  1.
         -5    1    1    2    0  502 -0.56504367322E+02 -0.90163431085E+02 -0.20127775310E+03  0.22772134666E+03  0.47000000000E+01 0.  1.
        -11    1    1    2    0    0 -0.11397789544E+02  0.34684159809E+02 -0.12157180098E+03  0.12693542981E+03  0.00000000000E+00 0.  1.
         11    1    1    2    0    0  0.55974869487E+02  0.24226732742E+02 -0.45042704748E+02  0.75821935114E+02  0.00000000000E+00 0. -1.
<mgrwt>
<rscale>  0 0.13713281E+03</rscale>
<asrwt>0</asrwt>
<pdfrwt beam="1">  1        1 0.51634795E-02 0.14519136E+03</pdfrwt>
<pdfrwt beam="2">  1       -1 0.80751988E-01 0.14519136E+03</pdfrwt>
<totfact> 0.24715900E+03</totfact>
</mgrwt>
</event>
<event>
 6    1  0.7270761E-006  0.3310628E+03  0.7546771E-02  0.1070668E+00
          2   -1    0    0  501    0  0.00000000000E+00  0.00000000000E+00  0.53167608132E+03  0.53167608132E+03  0.00000000000E+00 0. -1.
         -2   -1    0    0    0  501 -0.00000000000E+00 -0.00000000000E+00 -0.51536345571E+02  0.51536345571E+02  0.00000000000E+00 0.  1.
          5    1    1    2  502    0  0.36476023145E+02  0.44847637330E+01  0.82017991747E+02  0.89998079649E+02  0.47000000000E+01 0.  1.
         -5    1    1    2    0  502 -0.40108978387E+02  0.97081637117E+02  0.41636669450E+02  0.11308968412E+03  0.47000000000E+01 0. -1.
        -11    1    1    2    0    0 -0.38109507497E+02 -0.62578065921E+02  0.22882199900E+03  0.24026621927E+03  0.00000000000E+00 0. -1.
         11    1    1    2    0    0  0.41742462739E+02 -0.38988334929E+02  0.12766307555E+03  0.13985844385E+03  0.00000000000E+00 0.  1.
<mgrwt>
<rscale>  0 0.33106279E+03</rscale>
<asrwt>0</asrwt>
<pdfrwt beam="1">  1        2 0.81796317E-01 0.33106279E+03</pdfrwt>
<pdfrwt beam="2">  1       -2 0.79286689E-02 0.33106279E+03</pdfrwt>
<totfact> 0.55791941E+03</totfact>
</mgrwt>
</event>
<event>
 6    1  0.7270761E-006  0.1290554E+03  0.7546771E-02  0.1243706E+00
          1   -1    0    0  501    0  0.00000000000E+00  0.00000000000E+00  0.29689248751E+03  0.29689248751E+03  0.00000000000E+00 0. -1.
         -1   -1    0    0    0  501 -0.00000000000E+00 -0.00000000000E+00 -0.53362094411E+02  0.53362094411E+02  0.00000000000E+00 0.  1.
          5    1    1    2  502    0 -0.52552724242E+02  0.18720852228E+00  0.23152520905E+02  0.57619034151E+02  0.47000000000E+01 0. -1.
         -5    1    1    2    0  502  0.71735112723E+02  0.25538685732E+02  0.34445718101E+02  0.83706322113E+02  0.47000000000E+01 0. -1.
        -11    1    1    2    0    0  0.35289723336E+02 -0.56529872273E+01  0.53591240163E+02  0.64415385273E+02  0.00000000000E+00 0.  1.
         11    1    1    2    0    0 -0.54472111817E+02 -0.20072907027E+02  0.13234091393E+03  0.14451384039E+03  0.00000000000E+00 0. -1.
<mgrwt>
<rscale>  0 0.11963185E+03</rscale>
<asrwt>0</asrwt>
<pdfrwt beam="1">  1        1 0.45675766E-01 0.12905541E+03</pdfrwt>
<pdfrwt beam="2">  1       -1 0.82095532E-02 0.12905541E+03</pdfrwt>
<totfact> 0.69725114E+03</totfact>
</mgrwt>
</event>
<event>
 6    1  0.7270761E-006  0.1274616E+03  0.7546771E-02  0.1245904E+00
         -2   -1    0    0    0  501 -0.00000000000E+00  0.00000000000E+00  0.14787358396E+03  0.14787358396E+03  0.00000000000E+00 0.  1.
          2   -1    0    0  501    0  0.00000000000E+00 -0.00000000000E+00 -0.11181762324E+03  0.11181762324E+03  0.00000000000E+00 0. -1.
          5    1    1    2  502    0 -0.28058047334E+02  0.41284316880E+02  0.48640883329E+02  0.69854666068E+02  0.47000000000E+01 0.  1.
         -5    1    1    2    0  502  0.41540658551E+02 -0.62261388167E+02  0.36312186890E+02  0.83323296178E+02  0.47000000000E+01 0.  1.
        -11    1    1    2    0    0  0.16019038781E+02  0.24445714798E+02  0.17295571878E+02  0.33960850726E+02  0.00000000000E+00 0.  1.
         11    1    1    2    0    0 -0.29501649998E+02 -0.34686435111E+01 -0.66192681374E+02  0.72552394225E+02  0.00000000000E+00 0. -1.
<mgrwt>
<rscale>  0 0.11831439E+03</rscale>
<asrwt>0</asrwt>
<pdfrwt beam="2">  1        2 0.17202711E-01 0.12746162E+03</pdfrwt>
<pdfrwt beam="1">  1       -2 0.22749782E-01 0.12746162E+03</pdfrwt>
<totfact> 0.52730727E+03</totfact>
</mgrwt>
</event>
<event>
 6    1  0.7270761E-006  0.1703266E+03  0.7546771E-02  0.1184155E+00
         -1   -1    0    0    0  501 -0.00000000000E+00  0.00000000000E+00  0.71758319738E+02  0.71758319738E+02  0.00000000000E+00 0.  1.
          1   -1    0    0  501    0  0.00000000000E+00 -0.00000000000E+00 -0.71045123011E+03  0.71045123011E+03  0.00000000000E+00 0. -1.
          5    1    1    2  502    0 -0.89127889143E+02 -0.19400105533E+02  0.14559000865E+02  0.92488914060E+02  0.47000000000E+01 0.  1.
         -5    1    1    2    0  502 -0.23285927619E+02  0.47474161554E+02 -0.67502875404E+02  0.85876414854E+02  0.47000000000E+01 0.  1.
        -11    1    1    2    0    0  0.20552496649E+02  0.97566052083E+01 -0.22846651590E+02  0.32242300671E+02  0.00000000000E+00 0.  1.
         11    1    1    2    0    0  0.91861320113E+02 -0.37830661230E+02 -0.56290238424E+03  0.57160192026E+03  0.00000000000E+00 0. -1.
<mgrwt>
<rscale>  0 0.16408995E+03</rscale>
<asrwt>0</asrwt>
<pdfrwt beam="2">  1        1 0.10930019E+00 0.17032656E+03</pdfrwt>
<pdfrwt beam="1">  1       -1 0.11039741E-01 0.17032656E+03</pdfrwt>
<totfact> 0.14350570E+03</totfact>
</mgrwt>
</event>
<event>
 6    1  0.7270761E-006  0.1307689E+03  0.7546771E-02  0.1239242E+00
         -1   -1    0    0    0  501 -0.00000000000E+00  0.00000000000E+00  0.64460102495E+02  0.64460102495E+02  0.00000000000E+00 0.  1.
          1   -1    0    0  501    0  0.00000000000E+00 -0.00000000000E+00 -0.20954601387E+03  0.20954601387E+03  0.00000000000E+00 0. -1.
          5    1    1    2  502    0  0.59259580541E+02 -0.12222465587E+01 -0.37889989734E+02  0.70504844476E+02  0.47000000000E+01 0.  1.
         -5    1    1    2    0  502 -0.59911572250E+02 -0.37194131873E+02 -0.29190393115E+02  0.76465475775E+02  0.47000000000E+01 0.  1.
        -11    1    1    2    0    0 -0.18807134353E+02 -0.23182510436E+02 -0.62752018477E+01  0.30504348065E+02  0.00000000000E+00 0.  1.
         11    1    1    2    0    0  0.19459126062E+02  0.61598888867E+02 -0.71730326678E+02  0.96531448047E+02  0.00000000000E+00 0. -1.
<mgrwt>
<rscale>  0 0.12236761E+03</rscale>
<asrwt>0</asrwt>
<pdfrwt beam="2">  1        1 0.32237848E-01 0.13076887E+03</pdfrwt>
<pdfrwt beam="1">  1       -1 0.99169390E-02 0.13076887E+03</pdfrwt>
<totfact> 0.80602894E+03</totfact>
</mgrwt>
</event>
<event>
 6    1  0.7270761E-006  0.2489846E+03  0.7546771E-02  0.1113948E+00
         -1   -1    0    0    0  501 -0.00000000000E+00  0.00000000000E+00  0.17100774840E+03  0.17100774840E+03  0.00000000000E+00 0.  1.
          1   -1    0    0  501    0  0.00000000000E+00 -0.00000000000E+00 -0.90629423611E+02  0.90629423611E+02  0.00000000000E+00 0. -1.
          5    1    1    2  502    0 -0.43597737146E+01 -0.45038355875E+01 -0.30400392537E+02  0.31393725937E+02  0.47000000000E+01 0.  1.
         -5    1    1    2    0  502  0.47879032076E+02 -0.97829573702E+01  0.11845629961E+03  0.12822672454E+03  0.47000000000E+01 0.  1.
        -11    1    1    2    0    0 -0.57158532168E+02 -0.93436319860E+01 -0.31382658634E+02  0.65873154785E+02  0.00000000000E+00 0. -1.
         11    1    1    2    0    0  0.13639273806E+02  0.23630424944E+02  0.23705076349E+02  0.36143566754E+02  0.00000000000E+00 0.  1.
<mgrwt>
<rscale>  0 0.24898461E+03</rscale>
<asrwt>0</asrwt>
<pdfrwt beam="2">  1        1 0.13942988E-01 0.24898461E+03</pdfrwt>
<pdfrwt beam="1">  1       -1 0.26308884E-01 0.24898461E+03</pdfrwt>
<totfact> 0.51837187E+03</totfact>
</mgrwt>
</event>
<event>
 6    1  0.7270761E-006  0.2350977E+03  0.7546771E-02  0.1126001E+00
         -1   -1    0    0    0  501 -0.00000000000E+00  0.00000000000E+00  0.45080612882E+03  0.45080612882E+03  0.00000000000E+00 0.  1.
          1   -1    0    0  501    0  0.00000000000E+00 -0.00000000000E+00 -0.11426059385E+03  0.11426059385E+03  0.00000000000E+00 0. -1.
          5    1    1    2  502    0  0.42481819310E+02  0.76231184628E+02  0.14783882735E+03  0.17173906764E+03  0.47000000000E+01 0. -1.
         -5    1    1    2    0  502  0.78670028612E+01  0.11641371482E+03  0.23360431394E+02  0.11908754128E+03  0.47000000000E+01 0. -1.
        -11    1    1    2    0    0  0.22236098997E+02 -0.85516807829E+02  0.54213910808E+02  0.10366637181E+03  0.00000000000E+00 0.  1.
         11    1    1    2    0    0 -0.72584921169E+02 -0.10712809162E+03  0.11113236541E+03  0.17057374194E+03  0.00000000000E+00 0. -1.
<mgrwt>
<rscale>  0 0.23090973E+03</rscale>
<asrwt>0</asrwt>
<pdfrwt beam="2">  1        1 0.17578553E-01 0.23509770E+03</pdfrwt>
<pdfrwt beam="1">  1       -1 0.69354788E-01 0.23509770E+03</pdfrwt>
<totfact> 0.66087241E+02</totfact>
</mgrwt>
</event>
<event>
 6    1  0.7770748E-006  0.1955278E+03  0.7546771E-02  0.1158487E+00
         -1   -1    0    0    0  501 -0.00000000000E+00  0.00000000000E+00  0.70261201790E+02  0.70261201790E+02  0.00000000000E+00 0.  1.
          1   -1    0    0  501    0  0.00000000000E+00 -0.00000000000E+00 -0.52293638247E+03  0.52293638247E+03  0.00000000000E+00 0. -1.
          5    1    1    2  502    0  0.39325849190E+02 -0.51935063975E+02 -0.14147752147E+03  0.15582603237E+03  0.47000000000E+01 0.  1.
         -5    1    1    2    0  502 -0.65947487498E+01 -0.94812233140E+02 -0.18797170257E+02  0.96996257009E+02  0.47000000000E+01 0.  1.
        -11    1    1    2    0    0 -0.59917307025E+02  0.76007300955E+02 -0.18695402870E+03  0.21052078835E+03  0.00000000000E+00 0.  1.
         11    1    1    2    0    0  0.27186206585E+02  0.70739996161E+02 -0.10544646025E+03  0.12985450652E+03  0.00000000000E+00 0. -1.
<mgrwt>
<rscale>  0 0.18997188E+03</rscale>
<asrwt>0</asrwt>
<pdfrwt beam="2">  1        1 0.80451751E-01 0.19552783E+03</pdfrwt>
<pdfrwt beam="1">  1       -1 0.10809416E-01 0.19552783E+03</pdfrwt>
<totfact> 0.22723615E+03</totfact>
</mgrwt>
</event>
<event>
 6    1  0.7270761E-006  0.1500407E+03  0.7546771E-02  0.1209783E+00
         -4   -1    0    0    0  501 -0.00000000000E+00  0.00000000000E+00  0.43575896241E+03  0.43575896241E+03  0.00000000000E+00 0.  1.
          4   -1    0    0  501    0  0.00000000000E+00 -0.00000000000E+00 -0.45565064161E+02  0.45565064161E+02  0.00000000000E+00 0. -1.
          5    1    1    2  502    0  0.42291785272E+02 -0.17073004498E+02  0.25028860581E+03  0.25445345111E+03  0.47000000000E+01 0.  1.
         -5    1    1    2    0  502  0.29169550836E+01 -0.52518507441E+02  0.23605380926E+02  0.57844673561E+02  0.47000000000E+01 0.  1.
        -11    1    1    2    0    0 -0.15032242710E+02  0.24473081978E+02  0.11080719698E+03  0.11446892577E+03  0.00000000000E+00 0.  1.
         11    1    1    2    0    0 -0.30176497646E+02  0.45118429960E+02  0.54927145323E+01  0.54556976136E+02  0.00000000000E+00 0. -1.
<mgrwt>
<rscale>  0 0.14266830E+03</rscale>
<asrwt>0</asrwt>
<pdfrwt beam="2">  1        4 0.70100101E-02 0.15004067E+03</pdfrwt>
<pdfrwt beam="1">  1       -4 0.67039838E-01 0.15004067E+03</pdfrwt>
<totfact> 0.48717998E+02</totfact>
</mgrwt>
</event>
<event>
 6    1  0.7270761E-006  0.2725612E+03  0.7546771E-02  0.1101899E+00
          2   -1    0    0  501    0  0.00000000000E+00  0.00000000000E+00  0.23764615192E+03  0.23764615192E+03  0.00000000000E+00 0. -1.
         -2   -1    0    0    0  501 -0.00000000000E+00 -0.00000000000E+00 -0.38865877083E+03  0.38865877083E+03  0.00000000000E+00 0.  1.
          5    1    1    2  502    0  0.47495868103E+02  0.17562695076E+03 -0.16566080110E+03  0.24610216241E+03  0.47000000000E+01 0. -1.
         -5    1    1    2    0  502  0.85655598521E+02  0.26701182589E+02 -0.63885924607E+02  0.11024217012E+03  0.47000000000E+01 0. -1.
        -11    1    1    2    0    0 -0.87426047022E+02 -0.78765832156E+02  0.22045428697E+01  0.11769549704E+03  0.00000000000E+00 0.  1.
         11    1    1    2    0    0 -0.45725419602E+02 -0.12356230120E+03  0.76329563926E+02  0.15226509319E+03  0.00000000000E+00 0. -1.
<mgrwt>
<rscale>  0 0.26891978E+03</rscale>
<asrwt>0</asrwt>
<pdfrwt beam="1">  1        2 0.36560947E-01 0.27256116E+03</pdfrwt>
<pdfrwt beam="2">  1       -2 0.59793656E-01 0.27256116E+03</pdfrwt>
<totfact> 0.37732699E+02</totfact>
</mgrwt>
</event>
<event>
 6    1  0.7270761E-006  0.1879386E+03  0.7546771E-02  0.1165922E+00
         -1   -1    0    0    0  501 -0.00000000000E+00  0.00000000000E+00  0.94190645439E+02  0.94190645439E+02  0.00000000000E+00 0.  1.
          1   -1    0    0  501    0  0.00000000000E+00 -0.00000000000E+00 -0.45444938289E+03  0.45444938289E+03  0.00000000000E+00 0. -1.
          5    1    1    2  502    0 -0.24598374454E+02  0.52200294564E+02 -0.76479362225E+02  0.95922539711E+02  0.47000000000E+01 0.  1.
         -5    1    1    2    0  502  0.27879536249E+02  0.88120621849E+02  0.30712733789E+02  0.97508330687E+02  0.47000000000E+01 0.  1.
        -11    1    1    2    0    0  0.23113216954E+02 -0.12202324099E+03 -0.28778483054E+03  0.31343899060E+03  0.00000000000E+00 0. -1.
         11    1    1    2    0    0 -0.26394378749E+02 -0.18297675426E+02 -0.26707278482E+02  0.41770167338E+02  0.00000000000E+00 0.  1.
<mgrwt>
<rscale>  0 0.18195717E+03</rscale>
<asrwt>0</asrwt>
<pdfrwt beam="2">  1        1 0.69915290E-01 0.18793860E+03</pdfrwt>
<pdfrwt beam="1">  1       -1 0.14490869E-01 0.18793860E+03</pdfrwt>
<totfact> 0.17278550E+03</totfact>
</mgrwt>
</event>
<event>
 6    1  0.7270761E-006  0.1136688E+03  0.7546771E-02  0.1262965E+00
         -2   -1    0    0    0  501 -0.00000000000E+00  0.00000000000E+00  0.47527822816E+03  0.47527822816E+03  0.00000000000E+00 0.  1.
          2   -1    0    0  501    0  0.00000000000E+00 -0.00000000000E+00 -0.10149721174E+03  0.10149721174E+03  0.00000000000E+00 0. -1.
          5    1    1    2  502    0  0.18200397398E+02  0.27968301950E+02  0.33775300482E+02  0.47711018665E+02  0.47000000000E+01 0. -1.
         -5    1    1    2    0  502 -0.15148954266E+02 -0.77241967826E+01  0.41037046374E+03  0.41074951191E+03  0.47000000000E+01 0.  1.
        -11    1    1    2    0    0  0.77073935229E+01  0.31621557096E+02 -0.30958430745E+01  0.32694204875E+02  0.00000000000E+00 0.  1.
         11    1    1    2    0    0 -0.10758836655E+02 -0.51865662263E+02 -0.67268904719E+02  0.85620704449E+02  0.00000000000E+00 0. -1.
<mgrwt>
<rscale>  0 0.10871648E+03</rscale>
<asrwt>0</asrwt>
<pdfrwt beam="2">  1        2 0.15614956E-01 0.11366881E+03</pdfrwt>
<pdfrwt beam="1">  1       -2 0.73119726E-01 0.11366881E+03</pdfrwt>
<totfact> 0.63335410E+02</totfact>
</mgrwt>
</event>
<event>
 6    1  0.7270761E-006  0.1258597E+03  0.7546771E-02  0.1247017E+00
         -2   -1    0    0    0  501 -0.00000000000E+00  0.00000000000E+00  0.19249227437E+02  0.19249227437E+02  0.00000000000E+00 0.  1.
          2   -1    0    0  501    0  0.00000000000E+00 -0.00000000000E+00 -0.65626734154E+03  0.65626734154E+03  0.00000000000E+00 0. -1.
          5    1    1    2  502    0 -0.45078488379E+02 -0.14065784990E+02 -0.38726159805E+02  0.61251301009E+02  0.47000000000E+01 0. -1.
         -5    1    1    2    0  502  0.34302213443E+02  0.39468907939E+01 -0.26855653174E+03  0.27080790338E+03  0.47000000000E+01 0. -1.
        -11    1    1    2    0    0 -0.28370216477E+02  0.36062433120E+02 -0.11870428131E+03  0.12726379952E+03  0.00000000000E+00 0. -1.
         11    1    1    2    0    0  0.39146491413E+02 -0.25943538923E+02 -0.21103114124E+03  0.21619356506E+03  0.00000000000E+00 0.  1.
<mgrwt>
<rscale>  0 0.11765473E+03</rscale>
<asrwt>0</asrwt>
<pdfrwt beam="2">  1        2 0.10096419E+00 0.12585969E+03</pdfrwt>
<pdfrwt beam="1">  1       -2 0.29614201E-02 0.12585969E+03</pdfrwt>
<totfact> 0.18421821E+04</totfact>
</mgrwt>
</event>
<event>
 6    1  0.7270761E-006  0.1912061E+03  0.7546771E-02  0.1162349E+00
         -3   -1    0    0    0  501 -0.00000000000E+00  0.00000000000E+00  0.38158640969E+02  0.38158640969E+02  0.00000000000E+00 0.  1.
          3   -1    0    0  501    0  0.00000000000E+00 -0.00000000000E+00 -0.96351486497E+03  0.96351486497E+03  0.00000000000E+00 0. -1.
          5    1    1    2  502    0  0.44105472735E+02 -0.11900740236E+03 -0.14992251629E+03  0.19648640011E+03  0.47000000000E+01 0.  1.
         -5    1    1    2    0  502  0.45947824592E+02  0.57609161994E+01 -0.16965464847E+03  0.17592379171E+03  0.47000000000E+01 0.  1.
        -11    1    1    2    0    0 -0.10120200907E+03  0.86881943869E+02 -0.55661885520E+03  0.57237650963E+03  0.00000000000E+00 0. -1.
         11    1    1    2    0    0  0.11148711746E+02  0.26364542287E+02 -0.49160204046E+02  0.56886804493E+02  0.00000000000E+00 0.  1.
<mgrwt>
<rscale>  0 0.18575209E+03</rscale>
<asrwt>0</asrwt>
<pdfrwt beam="2">  1        3 0.14823305E+00 0.19120614E+03</pdfrwt>
<pdfrwt beam="1">  1       -3 0.58705602E-02 0.19120614E+03</pdfrwt>
<totfact> 0.15195517E+02</totfact>
</mgrwt>
</event>
<event>
 6    1  0.7270761E-006  0.1589494E+03  0.7546771E-02  0.1197416E+00
          1   -1    0    0  501    0  0.00000000000E+00  0.00000000000E+00  0.11099706504E+03  0.11099706504E+03  0.00000000000E+00 0. -1.
         -1   -1    0    0    0  501 -0.00000000000E+00 -0.00000000000E+00 -0.21725741534E+03  0.21725741534E+03  0.00000000000E+00 0.  1.
          5    1    1    2  502    0 -0.92672993456E+01 -0.29502935641E+02 -0.68592495438E+02  0.75387840392E+02  0.47000000000E+01 0. -1.
         -5    1    1    2    0  502 -0.73471643226E+02  0.82359333021E+02 -0.41690676311E+02  0.11807347113E+03  0.47000000000E+01 0. -1.
        -11    1    1    2    0    0  0.18070404529E+02  0.29811707280E+01 -0.36040681645E+02  0.40427189269E+02  0.00000000000E+00 0.  1.
         11    1    1    2    0    0  0.64668538043E+02 -0.55837568108E+02  0.40063503094E+02  0.94365979595E+02  0.00000000000E+00 0. -1.
<mgrwt>
<rscale>  0 0.15251505E+03</rscale>
<asrwt>0</asrwt>
<pdfrwt beam="1">  1        1 0.17076472E-01 0.15894937E+03</pdfrwt>
<pdfrwt beam="2">  1       -1 0.33424217E-01 0.15894937E+03</pdfrwt>
<totfact> 0.25964235E+03</totfact>
</mgrwt>
</event>
<event>
 6    1  0.7270761E-006  0.1447667E+03  0.7546771E-02  0.1216997E+00
          2   -1    0    0  501    0  0.00000000000E+00  0.00000000000E+00  0.67673676909E+03  0.67673676909E+03  0.00000000000E+00 0. -1.
         -2   -1    0    0    0  501 -0.00000000000E+00 -0.00000000000E+00 -0.25447856035E+02  0.25447856035E+02  0.00000000000E+00 0.  1.
          5    1    1    2  502    0 -0.93041609650E+01  0.22800914394E+02  0.13796431173E+02  0.28616090257E+02  0.47000000000E+01 0.  1.
         -5    1    1    2    0  502 -0.12229793628E+02 -0.92589984850E+02  0.36827496483E+03  0.37996185712E+03  0.47000000000E+01 0.  1.
        -11    1    1    2    0    0 -0.16206637672E+02 -0.16229555337E+00  0.39425869854E+01  0.16680091025E+02  0.00000000000E+00 0.  1.
         11    1    1    2    0    0  0.37740592265E+02  0.69951366009E+02  0.26527493007E+03  0.27692658672E+03  0.00000000000E+00 0. -1.
<mgrwt>
<rscale>  0 0.13730857E+03</rscale>
<asrwt>0</asrwt>
<pdfrwt beam="1">  1        2 0.10411334E+00 0.14476667E+03</pdfrwt>
<pdfrwt beam="2">  1       -2 0.39150553E-02 0.14476667E+03</pdfrwt>
<totfact> 0.11891852E+04</totfact>
</mgrwt>
</event>
<event>
 6    1  0.7270761E-006  0.1342686E+03  0.7546771E-02  0.1234019E+00
          2   -1    0    0  501    0  0.00000000000E+00  0.00000000000E+00  0.53683335107E+03  0.53683335107E+03  0.00000000000E+00 0. -1.
         -2   -1    0    0    0  501 -0.00000000000E+00 -0.00000000000E+00 -0.42003904151E+02  0.42003904151E+02  0.00000000000E+00 0.  1.
          5    1    1    2  502    0  0.77983642745E+01  0.79981569985E+02  0.33041909048E+02  0.87015652478E+02  0.47000000000E+01 0.  1.
         -5    1    1    2    0  502  0.22820483660E+02 -0.41716860283E+02  0.58289145620E+02  0.75370985157E+02  0.47000000000E+01 0.  1.
        -11    1    1    2    0    0 -0.53705665242E+02 -0.53168226539E+02  0.29459018494E+03  0.30412914339E+03  0.00000000000E+00 0.  1.
         11    1    1    2    0    0  0.23086817307E+02  0.14903516838E+02  0.10890820731E+03  0.11232147420E+03  0.00000000000E+00 0. -1.
<mgrwt>
<rscale>  0 0.12567453E+03</rscale>
<asrwt>0</asrwt>
<pdfrwt beam="1">  1        2 0.82589741E-01 0.13426861E+03</pdfrwt>
<pdfrwt beam="2">  1       -2 0.64621395E-02 0.13426861E+03</pdfrwt>
<totfact> 0.72577250E+03</totfact>
</mgrwt>
</event>
<event>
 6    1  0.7270761E-006  0.1297545E+03  0.7546771E-02  0.1238393E+00
         -1   -1    0    0    0  501 -0.00000000000E+00  0.00000000000E+00  0.10530969784E+03  0.10530969784E+03  0.00000000000E+00 0.  1.
          1   -1    0    0  501    0  0.00000000000E+00 -0.00000000000E+00 -0.16841250286E+03  0.16841250286E+03  0.00000000000E+00 0. -1.
          5    1    1    2  502    0 -0.18592056082E+02 -0.17692652903E+02 -0.36836695336E+02  0.45141185622E+02  0.47000000000E+01 0.  1.
         -5    1    1    2    0  502  0.53803378607E+02  0.17278360140E+02  0.67556195254E+02  0.88200197255E+02  0.47000000000E+01 0.  1.
        -11    1    1    2    0    0 -0.65338208949E+02 -0.17973994274E+02 -0.72048211283E+02  0.98909507975E+02  0.00000000000E+00 0. -1.
         11    1    1    2    0    0  0.30126886424E+02  0.18388287037E+02 -0.21774093655E+02  0.41471309845E+02  0.00000000000E+00 0.  1.
<mgrwt>
<rscale>  0 0.12289688E+03</rscale>
<asrwt>0</asrwt>
<pdfrwt beam="2">  1        1 0.25909616E-01 0.12975452E+03</pdfrwt>
<pdfrwt beam="1">  1       -1 0.16201492E-01 0.12975452E+03</pdfrwt>
<totfact> 0.49466403E+03</totfact>
</mgrwt>
</event>
<event>
 6    1  0.7270761E-006  0.3527455E+03  0.7546771E-02  0.1061494E+00
          1   -1    0    0  501    0  0.00000000000E+00  0.00000000000E+00  0.51559761814E+03  0.51559761814E+03  0.00000000000E+00 0. -1.
         -1   -1    0    0    0  501 -0.00000000000E+00 -0.00000000000E+00 -0.60332594876E+02  0.60332594876E+02  0.00000000000E+00 0.  1.
          5    1    1    2  502    0  0.13187913777E+03  0.35542897425E+02  0.18703672464E+03  0.23164678046E+03  0.47000000000E+01 0. -1.
         -5    1    1    2    0  502 -0.89091153808E+01  0.13961604789E+02 -0.12023525870E+02  0.20998902817E+02  0.47000000000E+01 0. -1.
        -11    1    1    2    0    0 -0.58281727991E+02 -0.71795086217E+02  0.15187056462E+03  0.17780878105E+03  0.00000000000E+00 0. -1.
         11    1    1    2    0    0 -0.64688294395E+02  0.22290584003E+02  0.12838125988E+03  0.14547574868E+03  0.00000000000E+00 0.  1.
<mgrwt>
<rscale>  0 0.35274547E+03</rscale>
<asrwt>0</asrwt>
<pdfrwt beam="1">  1        1 0.79322707E-01 0.35274547E+03</pdfrwt>
<pdfrwt beam="2">  1       -1 0.92819380E-02 0.35274547E+03</pdfrwt>
<totfact> 0.29742849E+03</totfact>
</mgrwt>
</event>
<event>
 6    1  0.7270761E-006  0.2564796E+03  0.7546771E-02  0.1111502E+00
          1   -1    0    0  501    0  0.00000000000E+00  0.00000000000E+00  0.70376774688E+02  0.70376774688E+02  0.00000000000E+00 0. -1.
         -1   -1    0    0    0  501 -0.00000000000E+00 -0.00000000000E+00 -0.93071267909E+03  0.93071267909E+03  0.00000000000E+00 0.  1.
          5    1    1    2  502    0  0.10712771160E+02 -0.11644936709E+03 -0.78344008617E+02  0.14083711246E+03  0.47000000000E+01 0.  1.
         -5    1    1    2    0  502 -0.52238601798E+02 -0.10362103492E+03 -0.25123370789E+03  0.27677907504E+03  0.47000000000E+01 0.  1.
        -11    1    1    2    0    0  0.39895711168E+02  0.16733979351E+03 -0.29157738741E+03  0.33854341983E+03  0.00000000000E+00 0. -1.
         11    1    1    2    0    0  0.16301194704E+01  0.52730608504E+02 -0.23918080048E+03  0.24492984645E+03  0.00000000000E+00 0.  1.
<mgrwt>
<rscale>  0 0.25287358E+03</rscale>
<asrwt>0</asrwt>
<pdfrwt beam="1">  1        1 0.10827196E-01 0.25647965E+03</pdfrwt>
<pdfrwt beam="2">  1       -1 0.14318656E+00 0.25647965E+03</pdfrwt>
<totfact> 0.24651835E+02</totfact>
</mgrwt>
</event>
<event>
 6    1  0.7270761E-006  0.1408377E+03  0.7546771E-02  0.1223664E+00
         -1   -1    0    0    0  501 -0.00000000000E+00  0.00000000000E+00  0.31869545893E+03  0.31869545893E+03  0.00000000000E+00 0.  1.
          1   -1    0    0  501    0  0.00000000000E+00 -0.00000000000E+00 -0.50342966052E+02  0.50342966052E+02  0.00000000000E+00 0. -1.
          5    1    1    2  502    0  0.92606019794E+02 -0.24825352184E+02  0.13752634168E+03  0.16771331990E+03  0.47000000000E+01 0. -1.
         -5    1    1    2    0  502 -0.39994335810E+02 -0.13181237834E+02  0.34708137426E+02  0.54772591059E+02  0.47000000000E+01 0. -1.
        -11    1    1    2    0    0  0.13187557274E+02 -0.18054136134E+02  0.31497705961E+02  0.38626014280E+02  0.00000000000E+00 0.  1.
         11    1    1    2    0    0 -0.65799241258E+02  0.56060726152E+02  0.64620307811E+02  0.10792649975E+03  0.00000000000E+00 0. -1.
<mgrwt>
<rscale>  0 0.13258895E+03</rscale>
<asrwt>0</asrwt>
<pdfrwt beam="2">  1        1 0.77450719E-02 0.14083772E+03</pdfrwt>
<pdfrwt beam="1">  1       -1 0.49030069E-01 0.14083772E+03</pdfrwt>
<totfact> 0.37250577E+03</totfact>
</mgrwt>
</event>
<event>
 6    1  0.7270761E-006  0.1257560E+03  0.7546771E-02  0.1248906E+00
         -2   -1    0    0    0  501 -0.00000000000E+00  0.00000000000E+00  0.35712559294E+02  0.35712559294E+02  0.00000000000E+00 0.  1.
          2   -1    0    0  501    0  0.00000000000E+00 -0.00000000000E+00 -0.40620972727E+03  0.40620972727E+03  0.00000000000E+00 0. -1.
          5    1    1    2  502    0 -0.89650735406E+01 -0.31228545619E+02  0.15662478272E+02  0.36373037139E+02  0.47000000000E+01 0.  1.
         -5    1    1    2    0  502  0.18344541553E+02  0.20999431633E+02 -0.13182505821E+03  0.13482371566E+03  0.47000000000E+01 0.  1.
        -11    1    1    2    0    0 -0.42698627733E+01 -0.35169876571E+02 -0.18016005726E+03  0.18361045225E+03  0.00000000000E+00 0. -1.
         11    1    1    2    0    0 -0.51096052393E+01  0.45398990557E+02 -0.74174530785E+02  0.87115081510E+02  0.00000000000E+00 0.  1.
<mgrwt>
<rscale>  0 0.11654625E+03</rscale>
<asrwt>0</asrwt>
<pdfrwt beam="2">  1        2 0.62493806E-01 0.12575605E+03</pdfrwt>
<pdfrwt beam="1">  1       -2 0.54942397E-02 0.12575605E+03</pdfrwt>
<totfact> 0.12504242E+04</totfact>
</mgrwt>
</event>
<event>
 6    1  0.7270761E-006  0.2466972E+03  0.7546771E-02  0.1115410E+00
          1   -1    0    0  501    0  0.00000000000E+00  0.00000000000E+00  0.61619976496E+03  0.61619976496E+03  0.00000000000E+00 0. -1.
         -1   -1    0    0    0  501 -0.00000000000E+00 -0.00000000000E+00 -0.24691462285E+02  0.24691462285E+02  0.00000000000E+00 0.  1.
          5    1    1    2  502    0  0.42509383093E+01  0.21762213018E+02  0.78970269155E+01  0.24002446252E+02  0.47000000000E+01 0.  1.
         -5    1    1    2    0  502 -0.31727578301E+02 -0.68594761140E+02  0.37125269406E+03  0.37889646782E+03  0.47000000000E+01 0.  1.
        -11    1    1    2    0    0  0.58449474871E+02  0.10619599811E+02  0.12776641123E+03  0.14090199733E+03  0.00000000000E+00 0.  1.
         11    1    1    2    0    0 -0.30972834879E+02  0.36212948311E+02  0.84592170474E+02  0.97090315847E+02  0.00000000000E+00 0. -1.
<mgrwt>
<rscale>  0 0.24669717E+03</rscale>
<asrwt>0</asrwt>
<pdfrwt beam="1">  1        1 0.94799952E-01 0.24669717E+03</pdfrwt>
<pdfrwt beam="2">  1       -1 0.37986870E-02 0.24669717E+03</pdfrwt>
<totfact> 0.89185008E+03</totfact>
</mgrwt>
</event>
<event>
 6    1  0.7270761E-006  0.1261505E+03  0.7546771E-02  0.1248114E+00
          3   -1    0    0  501    0  0.00000000000E+00  0.00000000000E+00  0.24718576635E+02  0.24718576635E+02  0.00000000000E+00 0. -1.
         -3   -1    0    0    0  501 -0.00000000000E+00 -0.00000000000E+00 -0.77992320058E+03  0.77992320058E+03  0.00000000000E+00 0.  1.
          5    1    1    2  502    0  0.11645519198E+02  0.14133074684E+01 -0.70365004046E+00  0.12657040680E+02  0.47000000000E+01 0.  1.
         -5    1    1    2    0  502  0.51878734676E+01  0.14150834028E+01 -0.65681177829E+03  0.65685060599E+03  0.47000000000E+01 0.  1.
        -11    1    1    2    0    0 -0.26843531296E+02  0.17375114474E+02  0.28451341478E+01  0.32102407445E+02  0.00000000000E+00 0. -1.
         11    1    1    2    0    0  0.10010138631E+02 -0.20203505345E+02 -0.10053432976E+03  0.10303172310E+03  0.00000000000E+00 0.  1.
<mgrwt>
<rscale>  0 0.11700898E+03</rscale>
<asrwt>0</asrwt>
<pdfrwt beam="1">  1        3 0.38028586E-02 0.12615051E+03</pdfrwt>
<pdfrwt beam="2">  1       -3 0.11998816E+00 0.12615051E+03</pdfrwt>
<totfact> 0.47796791E+02</totfact>
</mgrwt>
</event>
<event>
 6    1  0.7270761E-006  0.4256799E+03  0.7546771E-02  0.1035233E+00
          2   -1    0    0  501    0  0.00000000000E+00  0.00000000000E+00  0.37606938195E+03  0.37606938195E+03  0.00000000000E+00 0. -1.
         -2   -1    0    0    0  501 -0.00000000000E+00 -0.00000000000E+00 -0.12045871442E+03  0.12045871442E+03  0.00000000000E+00 0.  1.
          5    1    1    2  502    0 -0.77211378499E+02  0.13166477769E+03 -0.24366361572E+02  0.15463835304E+03  0.47000000000E+01 0. -1.
         -5    1    1    2    0  502  0.85923331637E+01  0.55141468580E+01  0.42589818420E+02  0.44047890277E+02  0.47000000000E+01 0. -1.
        -11    1    1    2    0    0  0.34669475869E+02 -0.85926138427E+02  0.60710292644E+02  0.11077460654E+03  0.00000000000E+00 0.  1.
         11    1    1    2    0    0  0.33949569466E+02 -0.51252786121E+02  0.17667691803E+03  0.18706724651E+03  0.00000000000E+00 0. -1.
<mgrwt>
<rscale>  0 0.42567985E+03</rscale>
<asrwt>0</asrwt>
<pdfrwt beam="1">  1        2 0.57856827E-01 0.42567985E+03</pdfrwt>
<pdfrwt beam="2">  1       -2 0.18532110E-01 0.42567985E+03</pdfrwt>
<totfact> 0.20605561E+03</totfact>
</mgrwt>
</event>
<event>
 6    1  0.7270761E-006  0.3494092E+03  0.7546771E-02  0.1062858E+00
         -1   -1    0    0    0  501 -0.00000000000E+00  0.00000000000E+00  0.36594717386E+02  0.36594717386E+02  0.00000000000E+00 0.  1.
          1   -1    0    0  501    0  0.00000000000E+00 -0.00000000000E+00 -0.83404630365E+03  0.83404630365E+03  0.00000000000E+00 0. -1.
          5    1    1    2  502    0  0.10735067507E+03  0.91555368937E+02 -0.29825705018E+03  0.32997865234E+03  0.47000000000E+01 0.  1.
         -5    1    1    2    0  502  0.16223153008E+02 -0.37660105362E+02 -0.62056569832E+02  0.74529068749E+02  0.47000000000E+01 0.  1.
        -11    1    1    2    0    0 -0.59883261782E+02 -0.69990497345E+01 -0.31432753050E+03  0.32005747636E+03  0.00000000000E+00 0. -1.
         11    1    1    2    0    0 -0.63690566299E+02 -0.46896213841E+02 -0.12281043574E+03  0.14607582358E+03  0.00000000000E+00 0.  1.
<mgrwt>
<rscale>  0 0.34940915E+03</rscale>
<asrwt>0</asrwt>
<pdfrwt beam="2">  1        1 0.12831482E+00 0.34940915E+03</pdfrwt>
<pdfrwt beam="1">  1       -1 0.56299565E-02 0.34940915E+03</pdfrwt>
<totfact> 0.31853097E+03</totfact>
</mgrwt>
</event>
<event>
 6    1  0.7270761E-006  0.1308274E+03  0.7546771E-02  0.1240417E+00
         -1   -1    0    0    0  501 -0.00000000000E+00  0.00000000000E+00  0.52977658126E+02  0.52977658126E+02  0.00000000000E+00 0.  1.
          1   -1    0    0  501    0  0.00000000000E+00 -0.00000000000E+00 -0.25255804444E+03  0.25255804444E+03  0.00000000000E+00 0. -1.
          5    1    1    2  502    0  0.32681827798E+02  0.51200019554E+02 -0.99436724601E+02  0.11661601978E+03  0.47000000000E+01 0. -1.
         -5    1    1    2    0  502  0.45864528294E+01 -0.41105267955E+02  0.87923394285E+01  0.42544962520E+02  0.47000000000E+01 0. -1.
        -11    1    1    2    0    0 -0.23698193163E+02 -0.41548566265E+02 -0.21450413020E+02  0.52421445388E+02  0.00000000000E+00 0.  1.
         11    1    1    2    0    0 -0.13570087465E+02  0.31453814666E+02 -0.87485588121E+02  0.93953274875E+02  0.00000000000E+00 0. -1.
<mgrwt>
<rscale>  0 0.12163900E+03</rscale>
<asrwt>0</asrwt>
<pdfrwt beam="2">  1        1 0.38855083E-01 0.13082742E+03</pdfrwt>
<pdfrwt beam="1">  1       -1 0.81504091E-02 0.13082742E+03</pdfrwt>
<totfact> 0.86146677E+03</totfact>
</mgrwt>
</event>
<event>
 6    1  0.7270761E-006  0.1458895E+03  0.7546771E-02  0.1218036E+00
         -2   -1    0    0    0  501 -0.00000000000E+00  0.00000000000E+00  0.11360703421E+03  0.11360703421E+03  0.00000000000E+00 0.  1.
          2   -1    0    0  501    0  0.00000000000E+00 -0.00000000000E+00 -0.16996818515E+03  0.16996818515E+03  0.00000000000E+00 0. -1.
          5    1    1    2  502    0  0.94428300801E+02 -0.39151578323E+01 -0.11208950207E+02  0.95287790497E+02  0.47000000000E+01 0.  1.
         -5    1    1    2    0  502 -0.27310681079E+02 -0.30084449804E+02  0.32300056791E+02  0.52118433300E+02  0.47000000000E+01 0.  1.
        -11    1    1    2    0    0 -0.33457114782E+02  0.52073671375E+02 -0.75891034409E+02  0.97931072106E+02  0.00000000000E+00 0. -1.
         11    1    1    2    0    0 -0.33660504940E+02 -0.18074063739E+02 -0.15612231187E+01  0.38237923460E+02  0.00000000000E+00 0.  1.
<mgrwt>
<rscale>  0 0.13655856E+03</rscale>
<asrwt>0</asrwt>
<pdfrwt beam="2">  1        2 0.26148952E-01 0.14588955E+03</pdfrwt>
<pdfrwt beam="1">  1       -2 0.17478005E-01 0.14588955E+03</pdfrwt>
<totfact> 0.51903503E+03</totfact>
</mgrwt>
</event>
<event>
 6    1  0.7270761E-006  0.3019582E+03  0.7546771E-02  0.1084266E+00
          1   -1    0    0  501    0  0.00000000000E+00  0.00000000000E+00  0.46156422524E+02  0.46156422524E+02  0.00000000000E+00 0. -1.
         -1   -1    0    0    0  501 -0.00000000000E+00 -0.00000000000E+00 -0.49385738483E+03  0.49385738483E+03  0.00000000000E+00 0.  1.
          5    1    1    2  502    0 -0.56572380271E+01  0.99117540681E+01 -0.14609178742E+03  0.14661223537E+03  0.47000000000E+01 0. -1.
         -5    1    1    2    0  502  0.10523095016E+03 -0.28963334420E+02 -0.10427777793E+03  0.15102441055E+03  0.47000000000E+01 0. -1.
        -11    1    1    2    0    0 -0.80047347421E+02 -0.16636115402E+02 -0.66563810367E+02  0.10542807508E+03  0.00000000000E+00 0. -1.
         11    1    1    2    0    0 -0.19526364716E+02  0.35687695754E+02 -0.13076758659E+03  0.13694908635E+03  0.00000000000E+00 0.  1.
<mgrwt>
<rscale>  0 0.30195821E+03</rscale>
<asrwt>0</asrwt>
<pdfrwt beam="1">  1        1 0.71009877E-02 0.30195821E+03</pdfrwt>
<pdfrwt beam="2">  1       -1 0.75978063E-01 0.30195821E+03</pdfrwt>
<totfact> 0.18602768E+03</totfact>
</mgrwt>
</event>
<event>
 6    1  0.7270761E-006  0.1552016E+03  0.7546771E-02  0.1202966E+00
         -1   -1    0    0    0  501 -0.00000000000E+00  0.00000000000E+00  0.10556503043E+03  0.10556503043E+03  0.00000000000E+00 0.  1.
          1   -1    0    0  501    0  0.00000000000E+00 -0.00000000000E+00 -0.25774551541E+03  0.25774551541E+03  0.00000000000E+00 0. -1.
          5    1    1    2  502    0 -0.35533810380E+02  0.34146947581E+01 -0.56768709334E+02  0.67224163660E+02  0.47000000000E+01 0. -1.
         -5    1    1    2    0  502 -0.56305297798E+02  0.18957169749E+01  0.67932039247E+02  0.88378347230E+02  0.47000000000E+01 0. -1.
        -11    1    1    2    0    0  0.12905465007E+02 -0.18733704814E+02 -0.10801353869E+03  0.11038309320E+03  0.00000000000E+00 0. -1.
         11    1    1    2    0    0  0.78933643171E+02  0.13423293081E+02 -0.55330276202E+02  0.97324941746E+02  0.00000000000E+00 0.  1.
<mgrwt>
<rscale>  0 0.14798935E+03</rscale>
<asrwt>0</asrwt>
<pdfrwt beam="2">  1        1 0.39653156E-01 0.15520155E+03</pdfrwt>
<pdfrwt beam="1">  1       -1 0.16240774E-01 0.15520155E+03</pdfrwt>
<totfact> 0.29295250E+03</totfact>
</mgrwt>
</event>
<event>
 6    1  0.7270761E-006  0.2943481E+03  0.7546771E-02  0.1089768E+00
         -2   -1    0    0    0  501 -0.00000000000E+00  0.00000000000E+00  0.13029615317E+03  0.13029615317E+03  0.00000000000E+00 0.  1.
          2   -1    0    0  501    0  0.00000000000E+00 -0.00000000000E+00 -0.71702130525E+03  0.71702130525E+03  0.00000000000E+00 0. -1.
          5    1    1    2  502    0  0.17766921499E+03  0.65541527444E+01 -0.88525139439E+02  0.19866579269E+03  0.47000000000E+01 0. -1.
         -5    1    1    2    0  502  0.69484243359E+02  0.93094403221E+02 -0.68679033796E+02  0.13503158027E+03  0.47000000000E+01 0. -1.
        -11    1    1    2    0    0 -0.10576246827E+03 -0.91620986337E+02 -0.21980677893E+03  0.26056692978E+03  0.00000000000E+00 0. -1.
         11    1    1    2    0    0 -0.14139099008E+03 -0.80275696278E+01 -0.20971419992E+03  0.25305315567E+03  0.00000000000E+00 0.  1.
<mgrwt>
<rscale>  0 0.29111655E+03</rscale>
<asrwt>0</asrwt>
<pdfrwt beam="2">  1        2 0.11031097E+00 0.29434807E+03</pdfrwt>
<pdfrwt beam="1">  1       -2 0.20045562E-01 0.29434807E+03</pdfrwt>
<totfact> 0.85453095E+02</totfact>
</mgrwt>
</event>
<event>
 6    1  0.7270761E-006  0.3236762E+03  0.7546771E-02  0.1073970E+00
         -2   -1    0    0    0  501 -0.00000000000E+00  0.00000000000E+00  0.27467044230E+03  0.27467044230E+03  0.00000000000E+00 0.  1.
          2   -1    0    0  501    0  0.00000000000E+00 -0.00000000000E+00 -0.95356322044E+02  0.95356322044E+02  0.00000000000E+00 0. -1.
          5    1    1    2  502    0  0.91374650900E+02  0.87758793461E+02  0.56339804465E+02  0.13873426478E+03  0.47000000000E+01 0.  1.
         -5    1    1    2    0  502 -0.76446216200E+01 -0.11003546902E+02  0.72015659601E+02  0.73402067490E+02  0.47000000000E+01 0.  1.
        -11    1    1    2    0    0 -0.78313972299E+02 -0.59425264385E+02  0.77880240070E+02  0.12541838820E+03  0.00000000000E+00 0.  1.
         11    1    1    2    0    0 -0.54160569810E+01 -0.17329982173E+02 -0.26921583876E+02  0.32472043880E+02  0.00000000000E+00 0. -1.
<mgrwt>
<rscale>  0 0.32367615E+03</rscale>
<asrwt>0</asrwt>
<pdfrwt beam="2">  1        2 0.14670204E-01 0.32367615E+03</pdfrwt>
<pdfrwt beam="1">  1       -2 0.42256991E-01 0.32367615E+03</pdfrwt>
<totfact> 0.21501509E+03</totfact>
</mgrwt>
</event>
<event>
 6    1  0.7270761E-006  0.1273160E+03  0.7546771E-02  0.1260801E+00
          2   -1    0    0  501    0  0.00000000000E+00  0.00000000000E+00  0.81441649530E+02  0.81441649530E+02  0.00000000000E+00 0. -1.
         -2   -1    0    0    0  501 -0.00000000000E+00 -0.00000000000E+00 -0.15762610598E+03  0.15762610598E+03  0.00000000000E+00 0.  1.
          5    1    1    2  502    0 -0.33355505390E+02  0.42051694102E+02 -0.33841964999E+02  0.63626278468E+02  0.47000000000E+01 0.  1.
         -5    1    1    2    0  502  0.29375116891E+02 -0.66049587999E+02 -0.68915450224E+02  0.99984373013E+02  0.47000000000E+01 0.  1.
        -11    1    1    2    0    0 -0.25418390168E+02  0.29590852888E+02  0.68228060707E+01  0.39601310787E+02  0.00000000000E+00 0.  1.
         11    1    1    2    0    0  0.29398778667E+02 -0.55929589917E+01  0.19750152702E+02  0.35855793244E+02  0.00000000000E+00 0. -1.
<mgrwt>
<rscale>  0 0.10987508E+03</rscale>
<asrwt>0</asrwt>
<pdfrwt beam="1">  1        2 0.12529485E-01 0.12731598E+03</pdfrwt>
<pdfrwt beam="2">  1       -2 0.24250170E-01 0.12731598E+03</pdfrwt>
<totfact> 0.68450282E+03</totfact>
</mgrwt>
</event>
<event>
 6    1  0.7270761E-006  0.1319835E+03  0.7546771E-02  0.1230968E+00
         -1   -1    0    0    0  501 -0.00000000000E+00  0.00000000000E+00  0.24651044943E+03  0.24651044943E+03  0.00000000000E+00 0.  1.
          1   -1    0    0  501    0  0.00000000000E+00 -0.00000000000E+00 -0.62721213633E+02  0.62721213633E+02  0.00000000000E+00 0. -1.
          5    1    1    2  502    0  0.45443350719E+00  0.66530305626E+02  0.98588492016E+01  0.67422362641E+02  0.47000000000E+01 0. -1.
         -5    1    1    2    0  502  0.24589436876E+02 -0.65934067272E+01  0.10309725292E+03  0.10629791615E+03  0.47000000000E+01 0.  1.
        -11    1    1    2    0    0  0.34316084839E+02 -0.10019222840E+02  0.35160164942E+02  0.50141955523E+02  0.00000000000E+00 0.  1.
         11    1    1    2    0    0 -0.59359955221E+02 -0.49917676058E+02  0.35672968737E+02  0.85369428752E+02  0.00000000000E+00 0. -1.
<mgrwt>
<rscale>  0 0.12766114E+03</rscale>
<asrwt>0</asrwt>
<pdfrwt beam="2">  1        1 0.96494175E-02 0.13198354E+03</pdfrwt>
<pdfrwt beam="1">  1       -1 0.37924684E-01 0.13198354E+03</pdfrwt>
<totfact> 0.43656783E+03</totfact>
</mgrwt>
</event>
<event>
 6    1  0.7270761E-006  0.1363926E+03  0.7546771E-02  0.1230271E+00
          3   -1    0    0  501    0  0.00000000000E+00  0.00000000000E+00  0.13842235837E+03  0.13842235837E+03  0.00000000000E+00 0. -1.
         -3   -1    0    0    0  501 -0.00000000000E+00 -0.00000000000E+00 -0.11261496702E+03  0.11261496702E+03  0.00000000000E+00 0.  1.
          5    1    1    2  502    0 -0.91330664194E+02  0.15359350664E+02  0.40723576163E+01  0.92821732216E+02  0.47000000000E+01 0.  1.
         -5    1    1    2    0  502  0.39703834328E+02  0.22581721056E+01 -0.19192386794E+02  0.44406435485E+02  0.47000000000E+01 0.  1.
        -11    1    1    2    0    0  0.13951450859E+02  0.66339041040E+01 -0.27778022543E+02  0.31784747933E+02  0.00000000000E+00 0.  1.
         11    1    1    2    0    0  0.37675379007E+02 -0.24251426873E+02  0.68705443066E+02  0.82024409754E+02  0.00000000000E+00 0. -1.
<mgrwt>
<rscale>  0 0.12812081E+03</rscale>
<asrwt>0</asrwt>
<pdfrwt beam="1">  1        3 0.21295747E-01 0.13639265E+03</pdfrwt>
<pdfrwt beam="2">  1       -3 0.17325380E-01 0.13639265E+03</pdfrwt>
<totfact> 0.13350926E+03</totfact>
</mgrwt>
</event>
<event>
 6    1  0.7270761E-006  0.1952052E+03  0.7546771E-02  0.1158530E+00
          1   -1    0    0  501    0  0.00000000000E+00  0.00000000000E+00  0.16727504411E+03  0.16727504411E+03  0.00000000000E+00 0. -1.
         -1   -1    0    0    0  501 -0.00000000000E+00 -0.00000000000E+00 -0.21114437041E+03  0.21114437041E+03  0.00000000000E+00 0.  1.
          5    1    1    2  502    0 -0.52450884732E+02  0.10474911008E+02  0.17409691489E+02  0.56444720103E+02  0.47000000000E+01 0. -1.
         -5    1    1    2    0  502 -0.30620085235E+02 -0.13529591216E+03 -0.76160734660E+01  0.13900600002E+03  0.47000000000E+01 0. -1.
        -11    1    1    2    0    0 -0.14534928845E+02  0.24994537968E+02 -0.29448322854E+02  0.41269780756E+02  0.00000000000E+00 0.  1.
         11    1    1    2    0    0  0.97605898812E+02  0.99826463180E+02 -0.24214621470E+02  0.14169891364E+03  0.00000000000E+00 0. -1.
<mgrwt>
<rscale>  0 0.18992401E+03</rscale>
<asrwt>0</asrwt>
<pdfrwt beam="1">  1        1 0.25734622E-01 0.19520520E+03</pdfrwt>
<pdfrwt beam="2">  1       -1 0.32483749E-01 0.19520520E+03</pdfrwt>
<totfact> 0.16261877E+03</totfact>
</mgrwt>
</event>
<event>
 6    1  0.7270761E-006  0.1266116E+03  0.7546771E-02  0.1249260E+00
         -1   -1    0    0    0  501 -0.00000000000E+00  0.00000000000E+00  0.76428432633E+02  0.76428432633E+02  0.00000000000E+00 0.  1.
          1   -1    0    0  501    0  0.00000000000E+00 -0.00000000000E+00 -0.17143251605E+03  0.17143251605E+03  0.00000000000E+00 0. -1.
          5    1    1    2  502    0 -0.40666488454E+01 -0.25715237354E+02 -0.63101112200E+02  0.68422594411E+02  0.47000000000E+01 0. -1.
         -5    1    1    2    0  502  0.12071544409E+02  0.32536180987E+02  0.47642883835E+02  0.59129177550E+02  0.47000000000E+01 0.  1.
        -11    1    1    2    0    0 -0.31182000477E+02 -0.36559412651E+02 -0.62747934063E+02  0.79032974361E+02  0.00000000000E+00 0. -1.
         11    1    1    2    0    0  0.23177104914E+02  0.29738469018E+02 -0.16797920987E+02  0.41276202359E+02  0.00000000000E+00 0.  1.
<mgrwt>
<rscale>  0 0.11633977E+03</rscale>
<asrwt>0</asrwt>
<pdfrwt beam="2">  1        1 0.26374233E-01 0.12661160E+03</pdfrwt>
<pdfrwt beam="1">  1       -1 0.11758220E-01 0.12661160E+03</pdfrwt>
<totfact> 0.79520061E+03</totfact>
</mgrwt>
</event>
<event>
 6    1  0.7270761E-006  0.1460740E+03  0.7546771E-02  0.1215290E+00
          2   -1    0    0  501    0  0.00000000000E+00  0.00000000000E+00  0.26406818064E+03  0.26406818064E+03  0.00000000000E+00 0. -1.
         -2   -1    0    0    0  501 -0.00000000000E+00 -0.00000000000E+00 -0.67524840103E+02  0.67524840103E+02  0.00000000000E+00 0.  1.
          5    1    1    2  502    0  0.55879645273E+02 -0.43706621834E+02 -0.83796609708E+01  0.71589889412E+02  0.47000000000E+01 0.  1.
         -5    1    1    2    0  502 -0.17616083374E+02 -0.21411291361E+02  0.93143383187E+02  0.97296195315E+02  0.47000000000E+01 0.  1.
        -11    1    1    2    0    0 -0.67089238493E+02  0.43009106625E+02  0.61430858614E+02  0.10062057227E+03  0.00000000000E+00 0.  1.
         11    1    1    2    0    0  0.28825676594E+02  0.22108806570E+02  0.50348759711E+02  0.62086363748E+02  0.00000000000E+00 0. -1.
<mgrwt>
<rscale>  0 0.13855230E+03</rscale>
<asrwt>0</asrwt>
<pdfrwt beam="1">  1        2 0.40625873E-01 0.14607403E+03</pdfrwt>
<pdfrwt beam="2">  1       -2 0.10388437E-01 0.14607403E+03</pdfrwt>
<totfact> 0.74903506E+03</totfact>
</mgrwt>
</event>
<event>
 6    1  0.7270761E-006  0.3558225E+03  0.7546771E-02  0.1060250E+00
          3   -1    0    0  501    0  0.00000000000E+00  0.00000000000E+00  0.87113591390E+02  0.87113591390E+02  0.00000000000E+00 0. -1.
         -3   -1    0    0    0  501 -0.00000000000E+00 -0.00000000000E+00 -0.36334647763E+03  0.36334647763E+03  0.00000000000E+00 0.  1.
          5    1    1    2  502    0  0.55509201111E+02  0.59671259295E+02 -0.29907798884E+03  0.31001881234E+03  0.47000000000E+01 0.  1.
         -5    1    1    2    0  502 -0.40509905355E+01 -0.26017315856E+02 -0.92223687752E+01  0.28292284010E+02  0.47000000000E+01 0.  1.
        -11    1    1    2    0    0 -0.51296551964E+02  0.11229180877E+01 -0.15157041952E+02  0.53500776716E+02  0.00000000000E+00 0.  1.
         11    1    1    2    0    0 -0.16165861095E+00 -0.34776861527E+02  0.47224513322E+02  0.58648195963E+02  0.00000000000E+00 0. -1.
<mgrwt>
<rscale>  0 0.35582252E+03</rscale>
<asrwt>0</asrwt>
<pdfrwt beam="1">  1        3 0.13402091E-01 0.35582252E+03</pdfrwt>
<pdfrwt beam="2">  1       -3 0.55899457E-01 0.35582252E+03</pdfrwt>
<totfact> 0.37163979E+02</totfact>
</mgrwt>
</event>
<event>
 6    1  0.7270761E-006  0.4285783E+03  0.7546771E-02  0.1034310E+00
          2   -1    0    0  501    0  0.00000000000E+00  0.00000000000E+00  0.15265332974E+03  0.15265332974E+03  0.00000000000E+00 0. -1.
         -2   -1    0    0    0  501 -0.00000000000E+00 -0.00000000000E+00 -0.30081121115E+03  0.30081121115E+03  0.00000000000E+00 0.  1.
          5    1    1    2  502    0 -0.73151194222E+02 -0.10662720855E+03  0.50688715822E+02  0.13896724338E+03  0.47000000000E+01 0. -1.
         -5    1    1    2    0  502 -0.67300686203E+01 -0.33365588790E+01 -0.14181028724E+03  0.14208685378E+03  0.47000000000E+01 0.  1.
        -11    1    1    2    0    0  0.35441701234E+01  0.75171212246E+02 -0.91378729917E+01  0.75807473347E+02  0.00000000000E+00 0.  1.
         11    1    1    2    0    0  0.76337092719E+02  0.34792555188E+02 -0.47898436993E+02  0.96602970387E+02  0.00000000000E+00 0. -1.
<mgrwt>
<rscale>  0 0.42857827E+03</rscale>
<asrwt>0</asrwt>
<pdfrwt beam="1">  1        2 0.23485128E-01 0.42857827E+03</pdfrwt>
<pdfrwt beam="2">  1       -2 0.46278648E-01 0.42857827E+03</pdfrwt>
<totfact> 0.10425984E+03</totfact>
</mgrwt>
</event>
<event>
 6    1  0.7270761E-006  0.1908968E+03  0.7546771E-02  0.1181040E+00
          2   -1    0    0  501    0  0.00000000000E+00  0.00000000000E+00  0.14077891945E+03  0.14077891945E+03  0.00000000000E+00 0. -1.
         -2   -1    0    0    0  501 -0.00000000000E+00 -0.00000000000E+00 -0.16359471242E+03  0.16359471242E+03  0.00000000000E+00 0.  1.
          5    1    1    2  502    0  0.22806170923E+02  0.32808294296E+01  0.87834758670E+02  0.90928104041E+02  0.47000000000E+01 0. -1.
         -5    1    1    2    0  502  0.10413488224E+02  0.39783361042E+02 -0.91026507084E+02  0.99995357616E+02  0.47000000000E+01 0.  1.
        -11    1    1    2    0    0 -0.42692247689E+02  0.20506639156E+02 -0.10763738715E+02  0.48569623566E+02  0.00000000000E+00 0. -1.
         11    1    1    2    0    0  0.94725885428E+01 -0.63570829628E+02 -0.88603058358E+01  0.64880546644E+02  0.00000000000E+00 0.  1.
<mgrwt>
<rscale>  0 0.16697489E+03</rscale>
<asrwt>0</asrwt>
<pdfrwt beam="1">  1        2 0.21658295E-01 0.19089678E+03</pdfrwt>
<pdfrwt beam="2">  1       -2 0.25168417E-01 0.19089678E+03</pdfrwt>
<totfact> 0.34822092E+03</totfact>
</mgrwt>
</event>
<event>
 6    1  0.7270761E-006  0.1343741E+03  0.7546771E-02  0.1238179E+00
         -1   -1    0    0    0  501 -0.00000000000E+00  0.00000000000E+00  0.12743102753E+03  0.12743102753E+03  0.00000000000E+00 0.  1.
          1   -1    0    0  501    0  0.00000000000E+00 -0.00000000000E+00 -0.13125980236E+03  0.13125980236E+03  0.00000000000E+00 0. -1.
          5    1    1    2  502    0  0.10612935009E+02  0.51269405745E+02  0.48264682932E+01  0.52787983018E+02  0.47000000000E+01 0. -1.
         -5    1    1    2    0  502 -0.16977052565E+02 -0.75071488212E+02  0.52602187871E+02  0.93343606235E+02  0.47000000000E+01 0.  1.
        -11    1    1    2    0    0 -0.27819154903E+02  0.83475448796E+01  0.11069195727E+02  0.31082374090E+02  0.00000000000E+00 0.  1.
         11    1    1    2    0    0  0.34183272459E+02  0.15454537587E+02 -0.72326626729E+02  0.81476866545E+02  0.00000000000E+00 0. -1.
<mgrwt>
<rscale>  0 0.12303102E+03</rscale>
<asrwt>0</asrwt>
<pdfrwt beam="2">  1        1 0.20193816E-01 0.13437407E+03</pdfrwt>
<pdfrwt beam="1">  1       -1 0.19604774E-01 0.13437407E+03</pdfrwt>
<totfact> 0.50140410E+03</totfact>
</mgrwt>
</event>
<event>
 6    1  0.7270761E-006  0.2421291E+03  0.7546771E-02  0.1148904E+00
          2   -1    0    0  501    0  0.00000000000E+00  0.00000000000E+00  0.56666746183E+03  0.56666746183E+03  0.00000000000E+00 0. -1.
         -2   -1    0    0    0  501 -0.00000000000E+00 -0.00000000000E+00 -0.57316419864E+02  0.57316419864E+02  0.00000000000E+00 0.  1.
          5    1    1    2  502    0 -0.74666793129E+02 -0.74281823611E+02  0.31180901956E+03  0.32915023013E+03  0.47000000000E+01 0. -1.
         -5    1    1    2    0  502  0.11560756538E+02  0.57670311782E+02 -0.77783955658E+01  0.59515623077E+02  0.47000000000E+01 0.  1.
        -11    1    1    2    0    0 -0.29723824106E+01  0.30380357658E+02  0.13273176675E+03  0.13619663393E+03  0.00000000000E+00 0.  1.
         11    1    1    2    0    0  0.66078419002E+02 -0.13768845828E+02  0.72588651222E+02  0.99121394559E+02  0.00000000000E+00 0. -1.
<mgrwt>
<rscale>  0 0.20099323E+03</rscale>
<asrwt>0</asrwt>
<pdfrwt beam="1">  1        2 0.87179606E-01 0.24212915E+03</pdfrwt>
<pdfrwt beam="2">  1       -2 0.88179111E-02 0.24212915E+03</pdfrwt>
<totfact> 0.43375649E+03</totfact>
</mgrwt>
</event>
<event>
 6    1  0.7270761E-006  0.2708897E+03  0.7546771E-02  0.1100771E+00
          2   -1    0    0  501    0  0.00000000000E+00  0.00000000000E+00  0.35226770681E+03  0.35226770681E+03  0.00000000000E+00 0. -1.
         -2   -1    0    0    0  501 -0.00000000000E+00 -0.00000000000E+00 -0.52077737781E+02  0.52077737781E+02  0.00000000000E+00 0.  1.
          5    1    1    2  502    0  0.63516627423E+02  0.30940041502E+02  0.17987754879E+02  0.73056809764E+02  0.47000000000E+01 0. -1.
         -5    1    1    2    0  502  0.13506186593E+02 -0.63039258309E+01  0.15248991274E+03  0.15328868205E+03  0.47000000000E+01 0. -1.
        -11    1    1    2    0    0 -0.58065738435E+02  0.85478054398E+01  0.20296475429E+02  0.62101866901E+02  0.00000000000E+00 0.  1.
         11    1    1    2    0    0 -0.18957075581E+02 -0.33183921111E+02  0.10941582598E+03  0.11589808588E+03  0.00000000000E+00 0. -1.
<mgrwt>
<rscale>  0 0.27088968E+03</rscale>
<asrwt>0</asrwt>
<pdfrwt beam="1">  1        2 0.54195030E-01 0.27088968E+03</pdfrwt>
<pdfrwt beam="2">  1       -2 0.80119599E-02 0.27088968E+03</pdfrwt>
<totfact> 0.85870904E+03</totfact>
</mgrwt>
</event>
<event>
 6    1  0.7270761E-006  0.2983632E+03  0.7546771E-02  0.1125729E+00
         -3   -1    0    0    0  501 -0.00000000000E+00  0.00000000000E+00  0.29106167251E+03  0.29106167251E+03  0.00000000000E+00 0.  1.
          3   -1    0    0  501    0  0.00000000000E+00 -0.00000000000E+00 -0.14437899802E+03  0.14437899802E+03  0.00000000000E+00 0. -1.
          5    1    1    2  502    0  0.66424424875E+02  0.36211070770E+02 -0.78096661100E+02  0.10883301127E+03  0.47000000000E+01 0. -1.
         -5    1    1    2    0  502 -0.15519500427E+02 -0.49946009097E+02  0.21163205063E+03  0.21804970436E+03  0.47000000000E+01 0.  1.
        -11    1    1    2    0    0  0.21962389539E-01  0.43445091644E+02 -0.11046438339E+02  0.44827449964E+02  0.00000000000E+00 0.  1.
         11    1    1    2    0    0 -0.50926886838E+02 -0.29710153318E+02  0.24193723291E+02  0.63730504940E+02  0.00000000000E+00 0. -1.
<mgrwt>
<rscale>  0 0.23129819E+03</rscale>
<asrwt>0</asrwt>
<pdfrwt beam="2">  1        3 0.22212154E-01 0.29836322E+03</pdfrwt>
<pdfrwt beam="1">  1       -3 0.44778719E-01 0.29836322E+03</pdfrwt>
<totfact> 0.23517383E+02</totfact>
</mgrwt>
</event>
<event>
 6    1  0.7270761E-006  0.1381617E+03  0.7546771E-02  0.1227041E+00
         -1   -1    0    0    0  501 -0.00000000000E+00  0.00000000000E+00  0.11717614209E+03  0.11717614209E+03  0.00000000000E+00 0.  1.
          1   -1    0    0  501    0  0.00000000000E+00 -0.00000000000E+00 -0.18123636192E+03  0.18123636192E+03  0.00000000000E+00 0. -1.
          5    1    1    2  502    0  0.40117547037E+02 -0.20206316875E+02 -0.24500535310E+02  0.51381699586E+02  0.47000000000E+01 0. -1.
         -5    1    1    2    0  502 -0.57034350191E+00  0.63782642635E+02  0.68265739693E+02  0.93545988738E+02  0.47000000000E+01 0. -1.
        -11    1    1    2    0    0 -0.20121587387E+02 -0.52449832729E+02 -0.11734805606E+03  0.13010161219E+03  0.00000000000E+00 0. -1.
         11    1    1    2    0    0 -0.19425616149E+02  0.88735069688E+01  0.95226318518E+01  0.23383203503E+02  0.00000000000E+00 0.  1.
<mgrwt>
<rscale>  0 0.13027961E+03</rscale>
<asrwt>0</asrwt>
<pdfrwt beam="2">  1        1 0.27882517E-01 0.13816165E+03</pdfrwt>
<pdfrwt beam="1">  1       -1 0.18027099E-01 0.13816165E+03</pdfrwt>
<totfact> 0.38251855E+03</totfact>
</mgrwt>
</event>
<event>
 6    1  0.7270761E-006  0.1289281E+03  0.7546771E-02  0.1243545E+00
          4   -1    0    0  501    0  0.00000000000E+00  0.00000000000E+00  0.13422230043E+03  0.13422230043E+03  0.00000000000E+00 0. -1.
         -4   -1    0    0    0  501 -0.00000000000E+00 -0.00000000000E+00 -0.13859596852E+03  0.13859596852E+03  0.00000000000E+00 0.  1.
          5    1    1    2  502    0  0.38814687685E+02  0.64358249287E+02 -0.72434444174E+02  0.10448637679E+03  0.47000000000E+01 0. -1.
         -5    1    1    2    0  502 -0.15108182186E+02 -0.43505528623E+02 -0.66610496502E+01  0.46770158993E+02  0.47000000000E+01 0. -1.
        -11    1    1    2    0    0 -0.52074390675E+01  0.28350290416E+02 -0.16231808687E+01  0.28870246006E+02  0.00000000000E+00 0.  1.
         11    1    1    2    0    0 -0.18499066431E+02 -0.49203011081E+02  0.76345006609E+02  0.92691487162E+02  0.00000000000E+00 0. -1.
<mgrwt>
<rscale>  0 0.11972864E+03</rscale>
<asrwt>0</asrwt>
<pdfrwt beam="1">  1        4 0.20649585E-01 0.12892805E+03</pdfrwt>
<pdfrwt beam="2">  1       -4 0.21322457E-01 0.12892805E+03</pdfrwt>
<totfact> 0.70012584E+02</totfact>
</mgrwt>
</event>
<event>
 6    1  0.7270761E-006  0.1277916E+03  0.7546771E-02  0.1252007E+00
         -2   -1    0    0    0  501 -0.00000000000E+00  0.00000000000E+00  0.23477985471E+02  0.23477985471E+02  0.00000000000E+00 0. -1.
          2   -1    0    0  501    0  0.00000000000E+00 -0.00000000000E+00 -0.49168856358E+03  0.49168856358E+03  0.00000000000E+00 0.  1.
          5    1    1    2  502    0  0.23143204092E+02  0.44321607122E+02 -0.16483548776E+03  0.17231610714E+03  0.47000000000E+01 0.  1.
         -5    1    1    2    0  502 -0.48772972342E+01 -0.63650774579E+02 -0.68711120781E+02  0.93906960615E+02  0.47000000000E+01 0.  1.
        -11    1    1    2    0    0  0.19683516375E+02  0.19388750135E+02 -0.29973684837E+02  0.40765012344E+02  0.00000000000E+00 0. -1.
         11    1    1    2    0    0 -0.37949423234E+02 -0.59582677605E-01 -0.20469028473E+03  0.20817846896E+03  0.00000000000E+00 0.  1.
<mgrwt>
<rscale>  0 0.11475659E+03</rscale>
<asrwt>0</asrwt>
<pdfrwt beam="2">  1        2 0.75644390E-01 0.12779164E+03</pdfrwt>
<pdfrwt beam="1">  1       -2 0.36119980E-02 0.12779164E+03</pdfrwt>
<totfact> 0.19044335E+04</totfact>
</mgrwt>
</event>
<event>
 6    1  0.7270761E-006  0.1463704E+03  0.7546771E-02  0.1214551E+00
          2   -1    0    0  501    0  0.00000000000E+00  0.00000000000E+00  0.75413658867E+02  0.75413658867E+02  0.00000000000E+00 0. -1.
         -2   -1    0    0    0  501 -0.00000000000E+00 -0.00000000000E+00 -0.25010965077E+03  0.25010965077E+03  0.00000000000E+00 0.  1.
          5    1    1    2  502    0 -0.31266792000E+02 -0.59766018989E+02  0.11140056089E+02  0.68525762728E+02  0.47000000000E+01 0. -1.
         -5    1    1    2    0  502 -0.42133322201E+02  0.39573614207E+02 -0.65819408349E+02  0.87724411064E+02  0.47000000000E+01 0. -1.
        -11    1    1    2    0    0  0.89484765783E+02  0.35085271066E+02 -0.10677184681E+03  0.14366184888E+03  0.00000000000E+00 0. -1.
         11    1    1    2    0    0 -0.16084651582E+02 -0.14892866284E+02 -0.13244792833E+02  0.25611286962E+02  0.00000000000E+00 0.  1.
<mgrwt>
<rscale>  0 0.13909594E+03</rscale>
<asrwt>0</asrwt>
<pdfrwt beam="1">  1        2 0.11602101E-01 0.14637037E+03</pdfrwt>
<pdfrwt beam="2">  1       -2 0.38478408E-01 0.14637037E+03</pdfrwt>
<totfact> 0.32931905E+03</totfact>
</mgrwt>
</event>
<event>
 6    1  0.7270761E-006  0.1482070E+03  0.7546771E-02  0.1206503E+00
          2   -1    0    0  501    0  0.00000000000E+00  0.00000000000E+00  0.12928169830E+03  0.12928169830E+03  0.00000000000E+00 0. -1.
         -2   -1    0    0    0  501 -0.00000000000E+00 -0.00000000000E+00 -0.17378377337E+03  0.17378377337E+03  0.00000000000E+00 0.  1.
          5    1    1    2  502    0  0.21863744062E+02 -0.72849500411E+02 -0.63572562010E+02  0.99240282422E+02  0.47000000000E+01 0. -1.
         -5    1    1    2    0  502  0.13600149659E+02  0.62864441586E+02 -0.68684962944E+01  0.64854979208E+02  0.47000000000E+01 0.  1.
        -11    1    1    2    0    0 -0.32094748240E+02  0.38190895662E+02 -0.42076342429E+02  0.65261289968E+02  0.00000000000E+00 0.  1.
         11    1    1    2    0    0 -0.33691454810E+01 -0.28205836837E+02  0.68015325663E+02  0.73708920071E+02  0.00000000000E+00 0. -1.
<mgrwt>
<rscale>  0 0.14519676E+03</rscale>
<asrwt>0</asrwt>
<pdfrwt beam="1">  1        2 0.19889492E-01 0.14820699E+03</pdfrwt>
<pdfrwt beam="2">  1       -2 0.26735965E-01 0.14820699E+03</pdfrwt>
<totfact> 0.34028023E+03</totfact>
</mgrwt>
</event>
<event>
 6    1  0.7270761E-006  0.1271100E+03  0.7546771E-02  0.1246313E+00
          3   -1    0    0  501    0  0.00000000000E+00  0.00000000000E+00  0.76971737263E+02  0.76971737263E+02  0.00000000000E+00 0. -1.
         -3   -1    0    0    0  501 -0.00000000000E+00 -0.00000000000E+00 -0.18647835519E+03  0.18647835519E+03  0.00000000000E+00 0.  1.
          5    1    1    2  502    0 -0.25248865982E+02  0.19416979915E+02 -0.10981595065E+03  0.11443844354E+03  0.47000000000E+01 0. -1.
         -5    1    1    2    0  502  0.47174462345E+02 -0.26580229691E+02 -0.12599004587E+01  0.54365576031E+02  0.47000000000E+01 0. -1.
        -11    1    1    2    0    0 -0.21927269216E+02  0.44444876850E+02 -0.17767346583E+02  0.52648179627E+02  0.00000000000E+00 0. -1.
         11    1    1    2    0    0  0.16728523965E-02 -0.37281627074E+02  0.19336579773E+02  0.41997893249E+02  0.00000000000E+00 0.  1.
<mgrwt>
<rscale>  0 0.11807162E+03</rscale>
<asrwt>0</asrwt>
<pdfrwt beam="1">  1        3 0.11841806E-01 0.12711000E+03</pdfrwt>
<pdfrwt beam="2">  1       -3 0.28688977E-01 0.12711000E+03</pdfrwt>
<totfact> 0.14732395E+03</totfact>
</mgrwt>
</event>
<event>
 6    1  0.7270761E-006  0.1278137E+03  0.7546771E-02  0.1245250E+00
          2   -1    0    0  501    0  0.00000000000E+00  0.00000000000E+00  0.49043302198E+02  0.49043302198E+02  0.00000000000E+00 0. -1.
         -2   -1    0    0    0  501 -0.00000000000E+00 -0.00000000000E+00 -0.26639007263E+03  0.26639007263E+03  0.00000000000E+00 0.  1.
          5    1    1    2  502    0 -0.51311744715E+02  0.48768869255E+02 -0.12888286052E+03  0.14711960947E+03  0.47000000000E+01 0. -1.
         -5    1    1    2    0  502  0.41443914565E+02 -0.23960574513E+02 -0.29595384880E+02  0.56477287396E+02  0.47000000000E+01 0. -1.
        -11    1    1    2    0    0  0.25088771070E+02 -0.16286033036E+02 -0.79428123760E+02  0.84873483196E+02  0.00000000000E+00 0.  1.
         11    1    1    2    0    0 -0.15220940920E+02 -0.85222617063E+01  0.20559598726E+02  0.26962994768E+02  0.00000000000E+00 0. -1.
<mgrwt>
<rscale>  0 0.11870404E+03</rscale>
<asrwt>0</asrwt>
<pdfrwt beam="1">  1        2 0.75451235E-02 0.12781370E+03</pdfrwt>
<pdfrwt beam="2">  1       -2 0.40983088E-01 0.12781370E+03</pdfrwt>
<totfact> 0.49297480E+03</totfact>
</mgrwt>
</event>
<event>
 6    1  0.7270761E-006  0.1331803E+03  0.7546771E-02  0.1236339E+00
         -2   -1    0    0    0  501 -0.00000000000E+00  0.00000000000E+00  0.62596038686E+02  0.62596038686E+02  0.00000000000E+00 0.  1.
          2   -1    0    0  501    0  0.00000000000E+00 -0.00000000000E+00 -0.22659216959E+03  0.22659216959E+03  0.00000000000E+00 0. -1.
          5    1    1    2  502    0  0.44030532347E+02  0.83220081021E+01 -0.73486359827E+02  0.86199064254E+02  0.47000000000E+01 0. -1.
         -5    1    1    2    0  502 -0.49150734801E+02  0.37338639539E+02  0.76339110152E+01  0.62372552709E+02  0.47000000000E+01 0. -1.
        -11    1    1    2    0    0  0.35956582942E+02 -0.24316559098E+02 -0.93170271326E+02  0.10278555522E+03  0.00000000000E+00 0. -1.
         11    1    1    2    0    0 -0.30836380488E+02 -0.21344088544E+02 -0.49734107699E+01  0.37831036096E+02  0.00000000000E+00 0.  1.
<mgrwt>
<rscale>  0 0.12419072E+03</rscale>
<asrwt>0</asrwt>
<pdfrwt beam="2">  1        2 0.34860333E-01 0.13318026E+03</pdfrwt>
<pdfrwt beam="1">  1       -2 0.96301599E-02 0.13318026E+03</pdfrwt>
<totfact> 0.98714267E+03</totfact>
</mgrwt>
</event>
<event>
 6    1  0.7270761E-006  0.2370427E+03  0.7546771E-02  0.1121779E+00
          1   -1    0    0  501    0  0.00000000000E+00  0.00000000000E+00  0.32116157105E+02  0.32116157105E+02  0.00000000000E+00 0. -1.
         -1   -1    0    0    0  501 -0.00000000000E+00 -0.00000000000E+00 -0.43739082450E+03  0.43739082450E+03  0.00000000000E+00 0.  1.
          5    1    1    2  502    0 -0.38003837358E+02  0.20282237957E+02 -0.27392237332E+03  0.27732871729E+03  0.47000000000E+01 0.  1.
         -5    1    1    2    0  502 -0.39537977760E+01 -0.14115764887E+01  0.13657531884E+02  0.15041384318E+02  0.47000000000E+01 0.  1.
        -11    1    1    2    0    0  0.34466150405E+02  0.33421482776E+02 -0.80828475781E+02  0.94011454258E+02  0.00000000000E+00 0. -1.
         11    1    1    2    0    0  0.74914847290E+01 -0.52292144244E+02 -0.64181350183E+02  0.83125425740E+02  0.00000000000E+00 0.  1.
<mgrwt>
<rscale>  0 0.23704272E+03</rscale>
<asrwt>0</asrwt>
<pdfrwt beam="1">  1        1 0.49409476E-02 0.23704272E+03</pdfrwt>
<pdfrwt beam="2">  1       -1 0.67290891E-01 0.23704272E+03</pdfrwt>
<totfact> 0.38873869E+03</totfact>
</mgrwt>
</event>
<event>
 6    1  0.7270761E-006  0.1273607E+03  0.7546771E-02  0.1247519E+00
         -2   -1    0    0    0  501 -0.00000000000E+00  0.00000000000E+00  0.40440292534E+03  0.40440292534E+03  0.00000000000E+00 0.  1.
          2   -1    0    0  501    0  0.00000000000E+00 -0.00000000000E+00 -0.29887031774E+02  0.29887031774E+02  0.00000000000E+00 0. -1.
          5    1    1    2  502    0  0.70620769920E+02 -0.11273123804E+02  0.13436906334E+03  0.15228759518E+03  0.47000000000E+01 0. -1.
         -5    1    1    2    0  502 -0.54956672494E+02 -0.75364967033E+01  0.10003407991E+03  0.11448118526E+03  0.47000000000E+01 0. -1.
        -11    1    1    2    0    0 -0.77277940875E+01  0.53977255676E+02  0.70496021055E+02  0.89123240046E+02  0.00000000000E+00 0.  1.
         11    1    1    2    0    0 -0.79363033391E+01 -0.35167635169E+02  0.69616729256E+02  0.78397936620E+02  0.00000000000E+00 0. -1.
<mgrwt>
<rscale>  0 0.11735899E+03</rscale>
<asrwt>0</asrwt>
<pdfrwt beam="2">  1        2 0.45980052E-02 0.12736070E+03</pdfrwt>
<pdfrwt beam="1">  1       -2 0.62215831E-01 0.12736070E+03</pdfrwt>
<totfact> 0.40774149E+03</totfact>
</mgrwt>
</event>
<event>
 6    1  0.9989475E-006  0.2577168E+03  0.7546771E-02  0.1110716E+00
         -2   -1    0    0    0  501 -0.00000000000E+00  0.00000000000E+00  0.52600670164E+02  0.52600670164E+02  0.00000000000E+00 0.  1.
          2   -1    0    0  501    0  0.00000000000E+00 -0.00000000000E+00 -0.12168752291E+04  0.12168752291E+04  0.00000000000E+00 0. -1.
          5    1    1    2  502    0  0.67840507801E+02 -0.19401165292E+03 -0.39457420098E+03  0.44491993217E+03  0.47000000000E+01 0.  1.
         -5    1    1    2    0  502  0.51309509853E+02  0.27124089205E+01 -0.11839807133E+03  0.12915191155E+03  0.47000000000E+01 0.  1.
        -11    1    1    2    0    0 -0.10480380081E+03  0.86419778080E+02 -0.32115951036E+03  0.34870567217E+03  0.00000000000E+00 0.  1.
         11    1    1    2    0    0 -0.14346216847E+02  0.10487946592E+03 -0.33014277630E+03  0.34669838340E+03  0.00000000000E+00 0. -1.
<mgrwt>
<rscale>  0 0.25414005E+03</rscale>
<asrwt>0</asrwt>
<pdfrwt beam="2">  1        2 0.18721156E+00 0.25771676E+03</pdfrwt>
<pdfrwt beam="1">  1       -2 0.80924114E-02 0.25771676E+03</pdfrwt>
<totfact> 0.18149894E+03</totfact>
</mgrwt>
</event>
<event>
 6    1  0.7270761E-006  0.1525162E+03  0.7546771E-02  0.1206103E+00
          1   -1    0    0  501    0  0.00000000000E+00  0.00000000000E+00  0.75419100718E+03  0.75419100718E+03  0.00000000000E+00 0. -1.
         -1   -1    0    0    0  501 -0.00000000000E+00 -0.00000000000E+00 -0.33154542964E+02  0.33154542964E+02  0.00000000000E+00 0.  1.
          5    1    1    2  502    0  0.99073378538E+02 -0.69638328885E+01  0.14320948222E+03  0.17434183406E+03  0.47000000000E+01 0.  1.
         -5    1    1    2    0  502 -0.21612673377E+02  0.47510460985E+02  0.58568411284E+02  0.78591986575E+02  0.47000000000E+01 0.  1.
        -11    1    1    2    0    0 -0.82081749995E+02 -0.58423430707E+02  0.48635968490E+03  0.49668546791E+03  0.00000000000E+00 0. -1.
         11    1    1    2    0    0  0.46210448339E+01  0.17876802611E+02  0.32898885804E+02  0.37726261597E+02  0.00000000000E+00 0.  1.
<mgrwt>
<rscale>  0 0.14550839E+03</rscale>
<asrwt>0</asrwt>
<pdfrwt beam="1">  1        1 0.11602937E+00 0.15251623E+03</pdfrwt>
<pdfrwt beam="2">  1       -1 0.51006995E-02 0.15251623E+03</pdfrwt>
<totfact> 0.42139171E+03</totfact>
</mgrwt>
</event>
<event>
 6    1  0.7270761E-006  0.1445136E+03  0.7546771E-02  0.1217329E+00
          1   -1    0    0  501    0  0.00000000000E+00  0.00000000000E+00  0.50684410185E+03  0.50684410185E+03  0.00000000000E+00 0. -1.
         -1   -1    0    0    0  501 -0.00000000000E+00 -0.00000000000E+00 -0.33776208285E+02  0.33776208285E+02  0.00000000000E+00 0.  1.
          5    1    1    2  502    0  0.28146027675E+02  0.35745671861E+02  0.27631256322E+03  0.28007262366E+03  0.47000000000E+01 0. -1.
         -5    1    1    2    0  502  0.11841857028E+02  0.24760303234E+02 -0.40764804129E+01  0.28142670212E+02  0.47000000000E+01 0. -1.
        -11    1    1    2    0    0  0.17068729353E+02 -0.53755825041E+02  0.12611387549E+03  0.13815114852E+03  0.00000000000E+00 0.  1.
         11    1    1    2    0    0 -0.57056614056E+02 -0.67501500531E+01  0.74717935279E+02  0.94253867749E+02  0.00000000000E+00 0. -1.
<mgrwt>
<rscale>  0 0.13706831E+03</rscale>
<asrwt>0</asrwt>
<pdfrwt beam="1">  1        1 0.77976010E-01 0.14451361E+03</pdfrwt>
<pdfrwt beam="2">  1       -1 0.51963401E-02 0.14451361E+03</pdfrwt>
<totfact> 0.70832597E+03</totfact>
</mgrwt>
</event>
<event>
 6    1  0.7270761E-006  0.1256619E+03  0.7546771E-02  0.1249472E+00
         -2   -1    0    0    0  501 -0.00000000000E+00  0.00000000000E+00  0.20869283729E+02  0.20869283729E+02  0.00000000000E+00 0.  1.
          2   -1    0    0  501    0  0.00000000000E+00 -0.00000000000E+00 -0.60266495105E+03  0.60266495105E+03  0.00000000000E+00 0. -1.
          5    1    1    2  502    0  0.55782218124E+01 -0.35270491981E+02 -0.23797060309E+03  0.24068074725E+03  0.47000000000E+01 0.  1.
         -5    1    1    2    0  502  0.58851930188E+01  0.41339205997E+02 -0.20577791891E+02  0.46787829277E+02  0.47000000000E+01 0.  1.
        -11    1    1    2    0    0  0.27433266420E+02  0.28677116717E+02 -0.14706793036E+03  0.15232838629E+03  0.00000000000E+00 0. -1.
         11    1    1    2    0    0 -0.38896681251E+02 -0.34745830733E+02 -0.17617934198E+03  0.18373727195E+03  0.00000000000E+00 0.  1.
<mgrwt>
<rscale>  0 0.11621664E+03</rscale>
<asrwt>0</asrwt>
<pdfrwt beam="2">  1        2 0.92717694E-01 0.12566189E+03</pdfrwt>
<pdfrwt beam="1">  1       -2 0.32106587E-02 0.12566189E+03</pdfrwt>
<totfact> 0.18039592E+04</totfact>
</mgrwt>
</event>
<event>
 6    1  0.7270761E-006  0.1714887E+03  0.7546771E-02  0.1182684E+00
          2   -1    0    0  501    0  0.00000000000E+00  0.00000000000E+00  0.46038175851E+03  0.46038175851E+03  0.00000000000E+00 0. -1.
         -2   -1    0    0    0  501 -0.00000000000E+00 -0.00000000000E+00 -0.62026085287E+02  0.62026085287E+02  0.00000000000E+00 0.  1.
          5    1    1    2  502    0 -0.15315055613E+01 -0.17913784081E+02 -0.24570179458E+02  0.30806377392E+02  0.47000000000E+01 0. -1.
         -5    1    1    2    0  502  0.38905082430E+02 -0.93394491575E+02  0.15281314443E+03  0.18333053103E+03  0.47000000000E+01 0. -1.
        -11    1    1    2    0    0 -0.48955343577E+02  0.98101749635E+02  0.26921299458E+03  0.29068232729E+03  0.00000000000E+00 0. -1.
         11    1    1    2    0    0  0.11581766708E+02  0.13206526020E+02  0.89971365944E+00  0.17588608082E+02  0.00000000000E+00 0.  1.
<mgrwt>
<rscale>  0 0.16544440E+03</rscale>
<asrwt>0</asrwt>
<pdfrwt beam="1">  1        2 0.70827961E-01 0.17148865E+03</pdfrwt>
<pdfrwt beam="2">  1       -2 0.95424749E-02 0.17148865E+03</pdfrwt>
<totfact> 0.47649844E+03</totfact>
</mgrwt>
</event>
<event>
 6    1  0.7270761E-006  0.4584490E+03  0.7546771E-02  0.1025232E+00
          1   -1    0    0  501    0  0.00000000000E+00  0.00000000000E+00  0.34057577443E+02  0.34057577443E+02  0.00000000000E+00 0. -1.
         -1   -1    0    0    0  501 -0.00000000000E+00 -0.00000000000E+00 -0.15427952141E+04  0.15427952141E+04  0.00000000000E+00 0.  1.
          5    1    1    2  502    0  0.12935395007E+02 -0.19249649295E+02 -0.11996487067E+03  0.12227646396E+03  0.47000000000E+01 0.  1.
         -5    1    1    2    0  502 -0.11926563094E+02  0.17533548928E+03 -0.11070605127E+04  0.11209325785E+04  0.47000000000E+01 0.  1.
        -11    1    1    2    0    0 -0.20247351161E+02 -0.11733979841E+03 -0.25837030058E+03  0.28448865661E+03  0.00000000000E+00 0.  1.
         11    1    1    2    0    0  0.19238519248E+02 -0.38746041574E+02 -0.23341952667E+02  0.49155092461E+02  0.00000000000E+00 0. -1.
<mgrwt>
<rscale>  0 0.45844898E+03</rscale>
<asrwt>0</asrwt>
<pdfrwt beam="1">  1        1 0.52396283E-02 0.45844898E+03</pdfrwt>
<pdfrwt beam="2">  1       -1 0.23735307E+00 0.45844898E+03</pdfrwt>
<totfact> 0.14664991E+02</totfact>
</mgrwt>
</event>
<event>
 6    1  0.7270761E-006  0.2711774E+03  0.7546771E-02  0.1102508E+00
          2   -1    0    0  501    0  0.00000000000E+00  0.00000000000E+00  0.62853994652E+03  0.62853994652E+03  0.00000000000E+00 0.  1.
         -2   -1    0    0    0  501 -0.00000000000E+00 -0.00000000000E+00 -0.11168855411E+03  0.11168855411E+03  0.00000000000E+00 0. -1.
          5    1    1    2  502    0  0.17126382591E+03  0.18719826152E+03  0.23121988127E+03  0.34330629280E+03  0.47000000000E+01 0.  1.
         -5    1    1    2    0  502 -0.16506952579E+02 -0.29072152841E+01  0.16452934977E+02  0.23952462369E+02  0.47000000000E+01 0.  1.
        -11    1    1    2    0    0 -0.10387426999E+03 -0.12367040946E+03  0.23860273362E+03  0.28812410283E+03  0.00000000000E+00 0.  1.
         11    1    1    2    0    0 -0.50882603335E+02 -0.60620636779E+02  0.30575842544E+02  0.84845642628E+02  0.00000000000E+00 0. -1.
<mgrwt>
<rscale>  0 0.26786413E+03</rscale>
<asrwt>0</asrwt>
<pdfrwt beam="1">  1        2 0.96698451E-01 0.27117738E+03</pdfrwt>
<pdfrwt beam="2">  1       -2 0.17182855E-01 0.27117738E+03</pdfrwt>
<totfact> 0.13021753E+03</totfact>
</mgrwt>
</event>
<event>
 6    1  0.7270761E-006  0.2271237E+03  0.7546771E-02  0.1131629E+00
          2   -1    0    0  501    0  0.00000000000E+00  0.00000000000E+00  0.75128545166E+03  0.75128545166E+03  0.00000000000E+00 0. -1.
         -2   -1    0    0    0  501 -0.00000000000E+00 -0.00000000000E+00 -0.64379657337E+02  0.64379657337E+02  0.00000000000E+00 0.  1.
          5    1    1    2  502    0 -0.46380227133E+02 -0.17885977290E+02  0.19093890373E+02  0.53457462548E+02  0.47000000000E+01 0.  1.
         -5    1    1    2    0  502 -0.14322757010E+03  0.15317967234E+02  0.36995257743E+03  0.39703372213E+03  0.47000000000E+01 0.  1.
        -11    1    1    2    0    0  0.13461732213E+03  0.14411077948E+02  0.12827862795E+03  0.18650712848E+03  0.00000000000E+00 0.  1.
         11    1    1    2    0    0  0.54990475112E+02 -0.11843067892E+02  0.16958069857E+03  0.17866679584E+03  0.00000000000E+00 0. -1.
<mgrwt>
<rscale>  0 0.22305006E+03</rscale>
<asrwt>0</asrwt>
<pdfrwt beam="1">  1        2 0.11558237E+00 0.22712365E+03</pdfrwt>
<pdfrwt beam="2">  1       -2 0.99045632E-02 0.22712365E+03</pdfrwt>
<totfact> 0.25754443E+03</totfact>
</mgrwt>
</event>
<event>
 6    1  0.7270761E-006  0.2050594E+03  0.7546771E-02  0.1149668E+00
          1   -1    0    0  501    0  0.00000000000E+00  0.00000000000E+00  0.10421534545E+03  0.10421534545E+03  0.00000000000E+00 0. -1.
         -1   -1    0    0    0  501 -0.00000000000E+00 -0.00000000000E+00 -0.50672200085E+03  0.50672200085E+03  0.00000000000E+00 0.  1.
          5    1    1    2  502    0  0.94426588870E+02 -0.35210947653E+02 -0.86496801987E+02  0.13289085098E+03  0.47000000000E+01 0. -1.
         -5    1    1    2    0  502  0.52114583763E+02 -0.33637453419E+02 -0.28238696941E+03  0.28915722126E+03  0.47000000000E+01 0.  1.
        -11    1    1    2    0    0 -0.65309085937E+02  0.30566144179E+01  0.23854157759E+02  0.69596267429E+02  0.00000000000E+00 0.  1.
         11    1    1    2    0    0 -0.81232086696E+02  0.65791786655E+02 -0.57477041763E+02  0.11929300663E+03  0.00000000000E+00 0. -1.
<mgrwt>
<rscale>  0 0.20008457E+03</rscale>
<asrwt>0</asrwt>
<pdfrwt beam="1">  1        1 0.16033130E-01 0.20505935E+03</pdfrwt>
<pdfrwt beam="2">  1       -1 0.77957232E-01 0.20505935E+03</pdfrwt>
<totfact> 0.58778320E+02</totfact>
</mgrwt>
</event>
<event>
 6    1  0.7270761E-006  0.3737886E+03  0.7546771E-02  0.1054287E+00
          2   -1    0    0  501    0  0.00000000000E+00  0.00000000000E+00  0.18798044975E+04  0.18798044975E+04  0.00000000000E+00 0. -1.
         -2   -1    0    0    0  501 -0.00000000000E+00 -0.00000000000E+00 -0.76045790735E+02  0.76045790735E+02  0.00000000000E+00 0.  1.
          5    1    1    2  502    0 -0.16592786452E+03  0.34623396106E+02  0.34176815967E+03  0.38152116684E+03  0.47000000000E+01 0.  1.
         -5    1    1    2    0  502 -0.18177264133E+03 -0.91165188837E+02  0.35267855641E+03  0.40713221310E+03  0.47000000000E+01 0.  1.
        -11    1    1    2    0    0  0.33534011906E+03  0.39810949616E+02  0.10775776186E+04  0.11292525985E+04  0.00000000000E+00 0. -1.
         11    1    1    2    0    0  0.12360386791E+02  0.16730843115E+02  0.31734372103E+02  0.37944309794E+02  0.00000000000E+00 0.  1.
<mgrwt>
<rscale>  0 0.37106405E+03</rscale>
<asrwt>0</asrwt>
<pdfrwt beam="1">  1        2 0.28920066E+00 0.37378859E+03</pdfrwt>
<pdfrwt beam="2">  1       -2 0.11699354E-01 0.37378859E+03</pdfrwt>
<totfact> 0.43711119E+02</totfact>
</mgrwt>
</event>
<event>
 6    1  0.7270761E-006  0.1342232E+03  0.7546771E-02  0.1233987E+00
         -2   -1    0    0    0  501 -0.00000000000E+00  0.00000000000E+00  0.44428316585E+02  0.44428316585E+02  0.00000000000E+00 0.  1.
          2   -1    0    0  501    0  0.00000000000E+00 -0.00000000000E+00 -0.32582268349E+03  0.32582268349E+03  0.00000000000E+00 0. -1.
          5    1    1    2  502    0 -0.22896866055E+01  0.53291707089E+02 -0.90849169945E+02  0.10545572715E+03  0.47000000000E+01 0. -1.
         -5    1    1    2    0  502 -0.46605327926E+02 -0.53461872716E+02 -0.37983615873E+02  0.80592018836E+02  0.47000000000E+01 0. -1.
        -11    1    1    2    0    0  0.40748976081E+02  0.15138687153E+02 -0.15985974000E+03  0.16566470769E+03  0.00000000000E+00 0. -1.
         11    1    1    2    0    0  0.81460384499E+01 -0.14968521526E+02  0.72981589129E+01  0.18538546400E+02  0.00000000000E+00 0.  1.
<mgrwt>
<rscale>  0 0.12569530E+03</rscale>
<asrwt>0</asrwt>
<pdfrwt beam="2">  1        2 0.50126569E-01 0.13422324E+03</pdfrwt>
<pdfrwt beam="1">  1       -2 0.68351253E-02 0.13422324E+03</pdfrwt>
<totfact> 0.11408217E+04</totfact>
</mgrwt>
</event>
<event>
 6    1  0.7270761E-006  0.1391263E+03  0.7546771E-02  0.1226664E+00
         -1   -1    0    0    0  501 -0.00000000000E+00  0.00000000000E+00  0.11230052803E+03  0.11230052803E+03  0.00000000000E+00 0.  1.
          1   -1    0    0  501    0  0.00000000000E+00 -0.00000000000E+00 -0.14502615377E+03  0.14502615377E+03  0.00000000000E+00 0. -1.
          5    1    1    2  502    0 -0.47207451572E+02  0.97152180645E+01  0.10453880167E+02  0.49540918003E+02  0.47000000000E+01 0.  1.
         -5    1    1    2    0  502  0.56658116242E+02 -0.70049654004E+02  0.35317418450E+01  0.90286540318E+02  0.47000000000E+01 0.  1.
        -11    1    1    2    0    0 -0.14737948807E+02  0.70227423375E+02 -0.64489521217E+02  0.96477958497E+02  0.00000000000E+00 0. -1.
         11    1    1    2    0    0  0.52872841380E+01 -0.98929874361E+01  0.17778273467E+02  0.21021264982E+02  0.00000000000E+00 0.  1.
<mgrwt>
<rscale>  0 0.13053498E+03</rscale>
<asrwt>0</asrwt>
<pdfrwt beam="2">  1        1 0.22311716E-01 0.13912628E+03</pdfrwt>
<pdfrwt beam="1">  1       -1 0.17277004E-01 0.13912628E+03</pdfrwt>
<totfact> 0.54166752E+03</totfact>
</mgrwt>
</event>
<event>
 6    1  0.7270761E-006  0.1516724E+03  0.7546771E-02  0.1206991E+00
          1   -1    0    0  501    0  0.00000000000E+00  0.00000000000E+00  0.34580709669E+03  0.34580709669E+03  0.00000000000E+00 0. -1.
         -1   -1    0    0    0  501 -0.00000000000E+00 -0.00000000000E+00 -0.56099423325E+02  0.56099423325E+02  0.00000000000E+00 0.  1.
          5    1    1    2  502    0 -0.85052528143E+02  0.36502886367E+02  0.88233725126E+02  0.12795965578E+03  0.47000000000E+01 0.  1.
         -5    1    1    2    0  502  0.44031091529E+02  0.38973615221E+02  0.54379776865E+02  0.80230479473E+02  0.47000000000E+01 0.  1.
        -11    1    1    2    0    0  0.16092728402E+02 -0.19145923627E+02  0.12622221174E+03  0.12867629555E+03  0.00000000000E+00 0. -1.
         11    1    1    2    0    0  0.24928708212E+02 -0.56330577961E+02  0.20871959633E+02  0.65040089218E+02  0.00000000000E+00 0.  1.
<mgrwt>
<rscale>  0 0.14481655E+03</rscale>
<asrwt>0</asrwt>
<pdfrwt beam="1">  1        1 0.53201091E-01 0.15167241E+03</pdfrwt>
<pdfrwt beam="2">  1       -1 0.86306807E-02 0.15167241E+03</pdfrwt>
<totfact> 0.54014168E+03</totfact>
</mgrwt>
</event>
<event>
 6    1  0.7270761E-006  0.5270199E+03  0.7546771E-02  0.1006957E+00
         -1   -1    0    0    0  501 -0.00000000000E+00  0.00000000000E+00  0.12313368528E+04  0.12313368528E+04  0.00000000000E+00 0.  1.
          1   -1    0    0  501    0  0.00000000000E+00 -0.00000000000E+00 -0.56391948679E+02  0.56391948679E+02  0.00000000000E+00 0. -1.
          5    1    1    2  502    0 -0.49059321218E+02 -0.26037443225E+02  0.57548772763E+03  0.57818075037E+03  0.47000000000E+01 0. -1.
         -5    1    1    2    0  502  0.36650937491E+02 -0.92158154300E+02  0.50302249128E+03  0.51272812811E+03  0.47000000000E+01 0.  1.
        -11    1    1    2    0    0 -0.46749975368E+02  0.69414115251E+02  0.85018122572E+02  0.11929778187E+03  0.00000000000E+00 0.  1.
         11    1    1    2    0    0  0.59158359095E+02  0.48781482274E+02  0.11416562647E+02  0.77522141136E+02  0.00000000000E+00 0. -1.
<mgrwt>
<rscale>  0 0.52701987E+03</rscale>
<asrwt>0</asrwt>
<pdfrwt beam="2">  1        1 0.86756853E-02 0.52701987E+03</pdfrwt>
<pdfrwt beam="1">  1       -1 0.18943642E+00 0.52701987E+03</pdfrwt>
<totfact> 0.15051460E+02</totfact>
</mgrwt>
</event>
<event>
 6    1  0.7270761E-006  0.1437926E+03  0.7546771E-02  0.1218697E+00
         -1   -1    0    0    0  501 -0.00000000000E+00  0.00000000000E+00  0.19893764818E+03  0.19893764818E+03  0.00000000000E+00 0.  1.
          1   -1    0    0  501    0  0.00000000000E+00 -0.00000000000E+00 -0.85600277132E+02  0.85600277132E+02  0.00000000000E+00 0. -1.
          5    1    1    2  502    0  0.30812106077E+02  0.48663651701E+02  0.38024068118E+02  0.69176994977E+02  0.47000000000E+01 0.  1.
         -5    1    1    2    0  502 -0.81255663042E+02  0.14405882478E+01  0.79747393166E+01  0.81793915043E+02  0.47000000000E+01 0.  1.
        -11    1    1    2    0    0  0.34352004591E+02 -0.48274435467E+02  0.88756382397E+02  0.10671540074E+03  0.00000000000E+00 0.  1.
         11    1    1    2    0    0  0.16091552374E+02 -0.18298044820E+01 -0.21417818786E+02  0.26851614547E+02  0.00000000000E+00 0. -1.
<mgrwt>
<rscale>  0 0.13608401E+03</rscale>
<asrwt>0</asrwt>
<pdfrwt beam="2">  1        1 0.13169273E-01 0.14379265E+03</pdfrwt>
<pdfrwt beam="1">  1       -1 0.30605792E-01 0.14379265E+03</pdfrwt>
<totfact> 0.42036333E+03</totfact>
</mgrwt>
</event>
<event>
 6    1  0.7270761E-006  0.1446337E+03  0.7546771E-02  0.1217113E+00
         -1   -1    0    0    0  501 -0.00000000000E+00  0.00000000000E+00  0.47313875063E+03  0.47313875063E+03  0.00000000000E+00 0.  1.
          1   -1    0    0  501    0  0.00000000000E+00 -0.00000000000E+00 -0.36968106325E+02  0.36968106325E+02  0.00000000000E+00 0. -1.
          5    1    1    2  502    0  0.80167582218E+00  0.26506099126E+02  0.16479083756E+03  0.16697702273E+03  0.47000000000E+01 0.  1.
         -5    1    1    2    0  502  0.71337116047E+02 -0.16834190593E+02  0.39689705815E+02  0.83484949820E+02  0.47000000000E+01 0.  1.
        -11    1    1    2    0    0  0.21670063154E+02 -0.25445856692E+01  0.60385268116E+02  0.64206285976E+02  0.00000000000E+00 0.  1.
         11    1    1    2    0    0 -0.93808855023E+02 -0.71273228637E+01  0.17130483282E+03  0.19543859844E+03  0.00000000000E+00 0. -1.
<mgrwt>
<rscale>  0 0.13722440E+03</rscale>
<asrwt>0</asrwt>
<pdfrwt beam="2">  1        1 0.56874013E-02 0.14463370E+03</pdfrwt>
<pdfrwt beam="1">  1       -1 0.72790573E-01 0.14463370E+03</pdfrwt>
<totfact> 0.26722633E+03</totfact>
</mgrwt>
</event>
<event>
 6    1  0.7270761E-006  0.1436969E+03  0.7546771E-02  0.1217884E+00
          1   -1    0    0  501    0  0.00000000000E+00  0.00000000000E+00  0.13381743018E+03  0.13381743018E+03  0.00000000000E+00 0. -1.
         -1   -1    0    0    0  501 -0.00000000000E+00 -0.00000000000E+00 -0.13105755951E+03  0.13105755951E+03  0.00000000000E+00 0.  1.
          5    1    1    2  502    0  0.39240124721E+00 -0.50670364116E+02  0.15731787882E+02  0.53265551048E+02  0.47000000000E+01 0.  1.
         -5    1    1    2    0  502  0.69922646221E+02  0.59579878733E+02  0.73971526291E+01  0.92280801207E+02  0.47000000000E+01 0.  1.
        -11    1    1    2    0    0 -0.60952280678E+02  0.38595837827E+01  0.28907871157E+02  0.67570273950E+02  0.00000000000E+00 0. -1.
         11    1    1    2    0    0 -0.93627667902E+01 -0.12769098399E+02 -0.49276940998E+02  0.51758363479E+02  0.00000000000E+00 0.  1.
<mgrwt>
<rscale>  0 0.13666786E+03</rscale>
<asrwt>0</asrwt>
<pdfrwt beam="1">  1        1 0.20587297E-01 0.14369688E+03</pdfrwt>
<pdfrwt beam="2">  1       -1 0.20162701E-01 0.14369688E+03</pdfrwt>
<totfact> 0.46959543E+03</totfact>
</mgrwt>
</event>
<event>
 6    1  0.7270761E-006  0.2373096E+03  0.7546771E-02  0.1121598E+00
         -2   -1    0    0    0  501 -0.00000000000E+00  0.00000000000E+00  0.56684038602E+02  0.56684038602E+02  0.00000000000E+00 0.  1.
          2   -1    0    0  501    0  0.00000000000E+00 -0.00000000000E+00 -0.24837617076E+03  0.24837617076E+03  0.00000000000E+00 0. -1.
          5    1    1    2  502    0  0.22516378996E+01 -0.27064563852E+02  0.21246802926E+02  0.34800533391E+02  0.47000000000E+01 0. -1.
         -5    1    1    2    0  502  0.26957519049E+02  0.58109500910E+02 -0.10034483421E+03  0.11914108310E+03  0.47000000000E+01 0. -1.
        -11    1    1    2    0    0  0.33898973705E+01 -0.31923186147E+02  0.18136713317E+01  0.32153858581E+02  0.00000000000E+00 0.  1.
         11    1    1    2    0    0 -0.32599054319E+02  0.87824908896E+00 -0.11440777220E+03  0.11896473429E+03  0.00000000000E+00 0. -1.
<mgrwt>
<rscale>  0 0.23730962E+03</rscale>
<asrwt>0</asrwt>
<pdfrwt beam="2">  1        2 0.38211718E-01 0.23730962E+03</pdfrwt>
<pdfrwt beam="1">  1       -2 0.87206215E-02 0.23730962E+03</pdfrwt>
<totfact> 0.10883866E+04</totfact>
</mgrwt>
</event>
<event>
 6    1  0.7270761E-006  0.2385760E+03  0.7546771E-02  0.1123415E+00
          3   -1    0    0  501    0  0.00000000000E+00  0.00000000000E+00  0.24870246356E+04  0.24870246356E+04  0.00000000000E+00 0. -1.
         -3   -1    0    0    0  501 -0.00000000000E+00 -0.00000000000E+00 -0.22555222256E+02  0.22555222256E+02  0.00000000000E+00 0.  1.
          5    1    1    2  502    0 -0.10018481880E+03  0.35723603630E+02  0.70295605970E+03  0.71097291485E+03  0.47000000000E+01 0. -1.
         -5    1    1    2    0  502 -0.15930384001E+02  0.13103669732E+03  0.84747509947E+03  0.85770655087E+03  0.47000000000E+01 0. -1.
        -11    1    1    2    0    0  0.76628580897E+02 -0.15986540578E+03  0.81498527008E+03  0.83404429009E+03  0.00000000000E+00 0. -1.
         11    1    1    2    0    0  0.39486621899E+02 -0.68948951668E+01  0.99052984048E+02  0.10685610201E+03  0.00000000000E+00 0.  1.
<mgrwt>
<rscale>  0 0.23464093E+03</rscale>
<asrwt>0</asrwt>
<pdfrwt beam="1">  1        3 0.38261896E+00 0.23857596E+03</pdfrwt>
<pdfrwt beam="2">  1       -3 0.34700362E-02 0.23857596E+03</pdfrwt>
<totfact> 0.16779132E+01</totfact>
</mgrwt>
</event>
<event>
 6    1  0.7270761E-006  0.1258289E+03  0.7546771E-02  0.1248546E+00
         -3   -1    0    0    0  501 -0.00000000000E+00  0.00000000000E+00  0.53631465298E+02  0.53631465298E+02  0.00000000000E+00 0.  1.
          3   -1    0    0  501    0  0.00000000000E+00 -0.00000000000E+00 -0.22590202824E+03  0.22590202824E+03  0.00000000000E+00 0. -1.
          5    1    1    2  502    0 -0.56688695431E+02 -0.15673351943E+02 -0.52429557704E+02  0.78931683574E+02  0.47000000000E+01 0. -1.
         -5    1    1    2    0  502  0.66465893847E+02  0.50848047762E+01 -0.59761738052E+02  0.89650017398E+02  0.47000000000E+01 0. -1.
        -11    1    1    2    0    0 -0.46752038155E+02 -0.87642561548E+01 -0.15840855474E+02  0.50134797893E+02  0.00000000000E+00 0.  1.
         11    1    1    2    0    0  0.36974839739E+02  0.19352803322E+02 -0.44238411709E+02  0.60816994670E+02  0.00000000000E+00 0. -1.
<mgrwt>
<rscale>  0 0.11675621E+03</rscale>
<asrwt>0</asrwt>
<pdfrwt beam="2">  1        3 0.34754158E-01 0.12582886E+03</pdfrwt>
<pdfrwt beam="1">  1       -3 0.82509947E-02 0.12582886E+03</pdfrwt>
<totfact> 0.18683223E+03</totfact>
</mgrwt>
</event>
<event>
 6    1  0.7270761E-006  0.1470995E+03  0.7546771E-02  0.1223427E+00
          1   -1    0    0  501    0  0.00000000000E+00  0.00000000000E+00  0.32847955823E+02  0.32847955823E+02  0.00000000000E+00 0. -1.
         -1   -1    0    0    0  501 -0.00000000000E+00 -0.00000000000E+00 -0.59261405162E+03  0.59261405162E+03  0.00000000000E+00 0.  1.
          5    1    1    2  502    0  0.93204011058E+01  0.13395706185E+02  0.43056626933E+01  0.17519804571E+02  0.47000000000E+01 0. -1.
         -5    1    1    2    0  502 -0.13678707099E+02  0.18830242410E+02 -0.47571339462E+03  0.47630558351E+03  0.47000000000E+01 0.  1.
        -11    1    1    2    0    0 -0.98408680143E+01  0.21978686150E+02 -0.67801886750E+02  0.71951380634E+02  0.00000000000E+00 0.  1.
         11    1    1    2    0    0  0.14199174008E+02 -0.54204634746E+02 -0.20556477111E+02  0.59685238725E+02  0.00000000000E+00 0. -1.
<mgrwt>
<rscale>  0 0.13275281E+03</rscale>
<asrwt>0</asrwt>
<pdfrwt beam="1">  1        1 0.50535321E-02 0.14709950E+03</pdfrwt>
<pdfrwt beam="2">  1       -1 0.91171385E-01 0.14709950E+03</pdfrwt>
<totfact> 0.19754352E+03</totfact>
</mgrwt>
</event>
<event>
 6    1  0.7270761E-006  0.1622400E+03  0.7546771E-02  0.1194936E+00
         -2   -1    0    0    0  501 -0.00000000000E+00  0.00000000000E+00  0.43318584100E+02  0.43318584100E+02  0.00000000000E+00 0.  1.
          2   -1    0    0  501    0  0.00000000000E+00 -0.00000000000E+00 -0.52783639819E+03  0.52783639819E+03  0.00000000000E+00 0. -1.
          5    1    1    2  502    0 -0.25309290958E+02 -0.15784031328E+02 -0.27305750418E+01  0.30319002190E+02  0.47000000000E+01 0. -1.
         -5    1    1    2    0  502  0.91437134328E+02 -0.63741255417E+02 -0.20356552897E+03  0.23213080743E+03  0.47000000000E+01 0. -1.
        -11    1    1    2    0    0 -0.35770813677E+02  0.89578030736E+02 -0.16572070055E+03  0.19174755615E+03  0.00000000000E+00 0.  1.
         11    1    1    2    0    0 -0.30357029694E+02 -0.10052743991E+02 -0.11250100953E+03  0.11695761651E+03  0.00000000000E+00 0. -1.
<mgrwt>
<rscale>  0 0.15459645E+03</rscale>
<asrwt>0</asrwt>
<pdfrwt beam="2">  1        2 0.81205601E-01 0.16224001E+03</pdfrwt>
<pdfrwt beam="1">  1       -2 0.66643975E-02 0.16224001E+03</pdfrwt>
<totfact> 0.71329424E+03</totfact>
</mgrwt>
</event>
<event>
 6    1  0.7270761E-006  0.1324695E+03  0.7546771E-02  0.1236993E+00
         -1   -1    0    0    0  501 -0.00000000000E+00  0.00000000000E+00  0.66238289741E+02  0.66238289741E+02  0.00000000000E+00 0.  1.
          1   -1    0    0  501    0  0.00000000000E+00 -0.00000000000E+00 -0.20612734105E+03  0.20612734105E+03  0.00000000000E+00 0. -1.
          5    1    1    2  502    0 -0.25016238631E+02  0.31679882076E+02 -0.53877724304E+02  0.67485748864E+02  0.47000000000E+01 0. -1.
         -5    1    1    2    0  502  0.31688283286E+02 -0.75027655485E+02 -0.19222242609E+02  0.83814563151E+02  0.47000000000E+01 0. -1.
        -11    1    1    2    0    0  0.14818464651E+02  0.41332629296E+02  0.67495089460E+01  0.44424419075E+02  0.00000000000E+00 0.  1.
         11    1    1    2    0    0 -0.21490509306E+02  0.20151441133E+01 -0.73538593343E+02  0.76640899700E+02  0.00000000000E+00 0. -1.
<mgrwt>
<rscale>  0 0.12377727E+03</rscale>
<asrwt>0</asrwt>
<pdfrwt beam="2">  1        1 0.31711899E-01 0.13246954E+03</pdfrwt>
<pdfrwt beam="1">  1       -1 0.10190506E-01 0.13246954E+03</pdfrwt>
<totfact> 0.78994983E+03</totfact>
</mgrwt>
</event>
<event>
 6    1  0.7270761E-006  0.3895178E+03  0.7546771E-02  0.1047471E+00
          2   -1    0    0  501    0  0.00000000000E+00  0.00000000000E+00  0.18395020518E+03  0.18395020518E+03  0.00000000000E+00 0. -1.
         -2   -1    0    0    0  501 -0.00000000000E+00 -0.00000000000E+00 -0.20620266040E+03  0.20620266040E+03  0.00000000000E+00 0.  1.
          5    1    1    2  502    0 -0.11821226950E+03  0.12220585958E+03 -0.23861567009E+02  0.17175528276E+03  0.47000000000E+01 0.  1.
         -5    1    1    2    0  502 -0.12270400895E+02 -0.30013863304E+02 -0.46329561516E+01  0.33090013770E+02  0.47000000000E+01 0.  1.
        -11    1    1    2    0    0  0.70706205358E+02 -0.10049718292E+03  0.16861644987E+02  0.12402969936E+03  0.00000000000E+00 0.  1.
         11    1    1    2    0    0  0.59776465036E+02  0.83051866438E+01 -0.10619577038E+02  0.61277869691E+02  0.00000000000E+00 0. -1.
<mgrwt>
<rscale>  0 0.38951776E+03</rscale>
<asrwt>0</asrwt>
<pdfrwt beam="1">  1        2 0.28300032E-01 0.38951776E+03</pdfrwt>
<pdfrwt beam="2">  1       -2 0.31723486E-01 0.38951776E+03</pdfrwt>
<totfact> 0.17382367E+03</totfact>
</mgrwt>
</event>
<event>
 6    1  0.7270761E-006  0.3671166E+03  0.7546771E-02  0.1056770E+00
          1   -1    0    0  501    0  0.00000000000E+00  0.00000000000E+00  0.15600705281E+04  0.15600705281E+04  0.00000000000E+00 0. -1.
         -1   -1    0    0    0  501 -0.00000000000E+00 -0.00000000000E+00 -0.11117359217E+03  0.11117359217E+03  0.00000000000E+00 0.  1.
          5    1    1    2  502    0  0.10222402581E+03 -0.22500668784E+03  0.23160419208E+03  0.33873345394E+03  0.47000000000E+01 0.  1.
         -5    1    1    2    0  502 -0.35139810146E+02 -0.11359310023E+03  0.87818603553E+02  0.14789319053E+03  0.47000000000E+01 0.  1.
        -11    1    1    2    0    0  0.13386422687E+02  0.75369645227E+02  0.34074819445E+03  0.34924076474E+03  0.00000000000E+00 0. -1.
         11    1    1    2    0    0 -0.80470638350E+02  0.26323014284E+03  0.78872594588E+03  0.83537671109E+03  0.00000000000E+00 0.  1.
<mgrwt>
<rscale>  0 0.36461722E+03</rscale>
<asrwt>0</asrwt>
<pdfrwt beam="1">  1        1 0.24001083E+00 0.36711656E+03</pdfrwt>
<pdfrwt beam="2">  1       -1 0.17103631E-01 0.36711656E+03</pdfrwt>
<totfact> 0.16799072E+02</totfact>
</mgrwt>
</event>
<event>
 6    1  0.7270761E-006  0.1613297E+03  0.7546771E-02  0.1195077E+00
          1   -1    0    0  501    0  0.00000000000E+00  0.00000000000E+00  0.89781538989E+03  0.89781538989E+03  0.00000000000E+00 0. -1.
         -1   -1    0    0    0  501 -0.00000000000E+00 -0.00000000000E+00 -0.25500658712E+02  0.25500658712E+02  0.00000000000E+00 0.  1.
          5    1    1    2  502    0 -0.85271180374E+02 -0.88858330958E+02  0.23104168056E+03  0.26185745233E+03  0.47000000000E+01 0.  1.
         -5    1    1    2    0  502  0.99406492254E+01  0.20104749871E+02  0.15281622814E+03  0.15452477813E+03  0.47000000000E+01 0.  1.
        -11    1    1    2    0    0  0.17633909181E+02 -0.21521728432E+02  0.12226844799E+03  0.12539423002E+03  0.00000000000E+00 0.  1.
         11    1    1    2    0    0  0.57696621967E+02  0.90275309519E+02  0.36618837448E+03  0.38153958812E+03  0.00000000000E+00 0. -1.
<mgrwt>
<rscale>  0 0.15447700E+03</rscale>
<asrwt>0</asrwt>
<pdfrwt beam="1">  1        1 0.13812542E+00 0.16132969E+03</pdfrwt>
<pdfrwt beam="2">  1       -1 0.39231790E-02 0.16132969E+03</pdfrwt>
<totfact> 0.47640929E+03</totfact>
</mgrwt>
</event>
<event>
 6    1  0.7270761E-006  0.1321984E+03  0.7546771E-02  0.1236367E+00
         -1   -1    0    0    0  501 -0.00000000000E+00  0.00000000000E+00  0.26826064738E+03  0.26826064738E+03  0.00000000000E+00 0.  1.
          1   -1    0    0  501    0  0.00000000000E+00 -0.00000000000E+00 -0.53479346414E+02  0.53479346414E+02  0.00000000000E+00 0. -1.
          5    1    1    2  502    0  0.71970254144E+02  0.23974002297E+02  0.13487923843E+03  0.15481915006E+03  0.47000000000E+01 0. -1.
         -5    1    1    2    0  502 -0.42073348430E+02  0.69893735404E+01  0.16029502041E+02  0.45804507707E+02  0.47000000000E+01 0. -1.
        -11    1    1    2    0    0 -0.31160932566E+01 -0.55276404854E+02  0.64419185405E+02  0.84941288070E+02  0.00000000000E+00 0.  1.
         11    1    1    2    0    0 -0.26780812458E+02  0.24313029016E+02 -0.54662490516E+00  0.36175047956E+02  0.00000000000E+00 0. -1.
<mgrwt>
<rscale>  0 0.12417346E+03</rscale>
<asrwt>0</asrwt>
<pdfrwt beam="2">  1        1 0.82275919E-02 0.13219835E+03</pdfrwt>
<pdfrwt beam="1">  1       -1 0.41270868E-01 0.13219835E+03</pdfrwt>
<totfact> 0.46575919E+03</totfact>
</mgrwt>
</event>
<event>
 6    1  0.7270761E-006  0.1261518E+03  0.7546771E-02  0.1248480E+00
         -2   -1    0    0    0  501 -0.00000000000E+00  0.00000000000E+00  0.18859205594E+02  0.18859205594E+02  0.00000000000E+00 0.  1.
          2   -1    0    0  501    0  0.00000000000E+00 -0.00000000000E+00 -0.63506299356E+03  0.63506299356E+03  0.00000000000E+00 0. -1.
          5    1    1    2  502    0  0.30097776007E+02 -0.44938213429E+02 -0.12875299641E+03  0.13973096733E+03  0.47000000000E+01 0. -1.
         -5    1    1    2    0  502 -0.42656043147E+02  0.56395920344E+02 -0.22039785928E+03  0.23151100238E+03  0.47000000000E+01 0. -1.
        -11    1    1    2    0    0 -0.30934085370E+02 -0.17291933714E+02 -0.50304336175E+02  0.61534176253E+02  0.00000000000E+00 0.  1.
         11    1    1    2    0    0  0.43492352509E+02  0.58342267996E+01 -0.21674859610E+03  0.22114605318E+03  0.00000000000E+00 0. -1.
<mgrwt>
<rscale>  0 0.11679509E+03</rscale>
<asrwt>0</asrwt>
<pdfrwt beam="2">  1        2 0.97701979E-01 0.12615181E+03</pdfrwt>
<pdfrwt beam="1">  1       -2 0.29014168E-02 0.12615181E+03</pdfrwt>
<totfact> 0.19721330E+04</totfact>
</mgrwt>
</event>
<event>
 6    1  0.7270761E-006  0.1844606E+03  0.7546771E-02  0.1169104E+00
          1   -1    0    0  501    0  0.00000000000E+00  0.00000000000E+00  0.10676249135E+04  0.10676249135E+04  0.00000000000E+00 0. -1.
         -1   -1    0    0    0  501 -0.00000000000E+00 -0.00000000000E+00 -0.42312034380E+02  0.42312034380E+02  0.00000000000E+00 0.  1.
          5    1    1    2  502    0 -0.57299524128E+01  0.46894678620E+02  0.93186737424E+02  0.10458394365E+03  0.47000000000E+01 0. -1.
         -5    1    1    2    0  502  0.13038657251E+03  0.65892380643E+01  0.12074676806E+03  0.17789308122E+03  0.47000000000E+01 0. -1.
        -11    1    1    2    0    0 -0.10143109870E+03  0.86491214415E+00  0.56960610274E+03  0.57856730649E+03  0.00000000000E+00 0.  1.
         11    1    1    2    0    0 -0.23225521398E+02 -0.54348828828E+02  0.24177327093E+03  0.24889261655E+03  0.00000000000E+00 0. -1.
<mgrwt>
<rscale>  0 0.17866210E+03</rscale>
<asrwt>0</asrwt>
<pdfrwt beam="1">  1        1 0.16424997E+00 0.18446063E+03</pdfrwt>
<pdfrwt beam="2">  1       -1 0.65095446E-02 0.18446063E+03</pdfrwt>
<totfact> 0.16793450E+03</totfact>
</mgrwt>
</event>
<event>
 6    1  0.7270761E-006  0.1562133E+03  0.7546771E-02  0.1200991E+00
          2   -1    0    0  501    0  0.00000000000E+00  0.00000000000E+00  0.69901778973E+03  0.69901778973E+03  0.00000000000E+00 0. -1.
         -2   -1    0    0    0  501 -0.00000000000E+00 -0.00000000000E+00 -0.31924648807E+02  0.31924648807E+02  0.00000000000E+00 0.  1.
          5    1    1    2  502    0  0.20679220659E+02  0.24047238731E+02  0.31452233820E+02  0.44913615641E+02  0.47000000000E+01 0. -1.
         -5    1    1    2    0  502 -0.25901730673E+02 -0.11758951219E+03  0.22989985507E+03  0.25956545685E+03  0.47000000000E+01 0. -1.
        -11    1    1    2    0    0  0.18787210283E+02  0.19828416398E+02  0.20906297580E+02  0.34397654652E+02  0.00000000000E+00 0.  1.
         11    1    1    2    0    0 -0.13564700269E+02  0.73713857059E+02  0.38483475446E+03  0.39206571140E+03  0.00000000000E+00 0. -1.
<mgrwt>
<rscale>  0 0.14957948E+03</rscale>
<asrwt>0</asrwt>
<pdfrwt beam="1">  1        2 0.10754119E+00 0.15621329E+03</pdfrwt>
<pdfrwt beam="2">  1       -2 0.49114850E-02 0.15621329E+03</pdfrwt>
<totfact> 0.81896509E+03</totfact>
</mgrwt>
</event>
<event>
 6    1  0.7270761E-006  0.2451565E+03  0.7546771E-02  0.1119099E+00
         -1   -1    0    0    0  501 -0.00000000000E+00  0.00000000000E+00  0.27562329741E+03  0.27562329741E+03  0.00000000000E+00 0.  1.
          1   -1    0    0  501    0  0.00000000000E+00 -0.00000000000E+00 -0.43025805729E+03  0.43025805729E+03  0.00000000000E+00 0. -1.
          5    1    1    2  502    0  0.16161141517E+02 -0.45335412477E+02  0.59053870079E+02  0.76327791078E+02  0.47000000000E+01 0.  1.
         -5    1    1    2    0  502 -0.15751974595E+03 -0.11117606585E+03  0.11824537466E+03  0.22622255990E+03  0.47000000000E+01 0.  1.
        -11    1    1    2    0    0 -0.12585504538E+01  0.45425780645E+02 -0.94990974623E+02  0.10530133312E+03  0.00000000000E+00 0. -1.
         11    1    1    2    0    0  0.14261715489E+03  0.11108569768E+03 -0.23694303000E+03  0.29802967061E+03  0.00000000000E+00 0.  1.
<mgrwt>
<rscale>  0 0.24104493E+03</rscale>
<asrwt>0</asrwt>
<pdfrwt beam="2">  1        1 0.66193548E-01 0.24515647E+03</pdfrwt>
<pdfrwt beam="1">  1       -1 0.42403584E-01 0.24515647E+03</pdfrwt>
<totfact> 0.30930007E+02</totfact>
</mgrwt>
</event>
<event>
 6    1  0.7270761E-006  0.1486678E+03  0.7546771E-02  0.1264394E+00
         -1   -1    0    0    0  501 -0.00000000000E+00  0.00000000000E+00  0.20816544115E+02  0.20816544115E+02  0.00000000000E+00 0.  1.
          1   -1    0    0  501    0  0.00000000000E+00 -0.00000000000E+00 -0.43768701920E+03  0.43768701920E+03  0.00000000000E+00 0. -1.
          5    1    1    2  502    0  0.17266284171E+02 -0.71404054662E+02 -0.19159987665E+03  0.20525415057E+03  0.47000000000E+01 0. -1.
         -5    1    1    2    0  502 -0.15243138847E+02  0.69855042628E+02 -0.11514619025E+03  0.13562011426E+03  0.47000000000E+01 0.  1.
        -11    1    1    2    0    0  0.33450103005E+01 -0.18788404828E+02 -0.38344113775E+02  0.42830646867E+02  0.00000000000E+00 0. -1.
         11    1    1    2    0    0 -0.53681556244E+01  0.20337416862E+02 -0.71780294407E+02  0.74798651623E+02  0.00000000000E+00 0.  1.
<mgrwt>
<rscale>  0 0.10796026E+03</rscale>
<asrwt>0</asrwt>
<pdfrwt beam="2">  1        1 0.67336459E-01 0.14866780E+03</pdfrwt>
<pdfrwt beam="1">  1       -1 0.32025455E-02 0.14866780E+03</pdfrwt>
<totfact> 0.17500162E+04</totfact>
</mgrwt>
</event>
<event>
 6    1  0.7270761E-006  0.1705887E+03  0.7546771E-02  0.1183387E+00
          1   -1    0    0  501    0  0.00000000000E+00  0.00000000000E+00  0.73991141657E+02  0.73991141657E+02  0.00000000000E+00 0. -1.
         -1   -1    0    0    0  501 -0.00000000000E+00 -0.00000000000E+00 -0.48782359609E+03  0.48782359609E+03  0.00000000000E+00 0.  1.
          5    1    1    2  502    0  0.16791993856E+02 -0.97283153619E+02 -0.18706600010E+03  0.21156975547E+03  0.47000000000E+01 0. -1.
         -5    1    1    2    0  502  0.67626726323E+02  0.17603558417E+02 -0.18210459854E+03  0.19510877528E+03  0.47000000000E+01 0. -1.
        -11    1    1    2    0    0 -0.76208040324E+02  0.86372956332E+02 -0.63221544553E+01  0.11535996980E+03  0.00000000000E+00 0.  1.
         11    1    1    2    0    0 -0.82106798546E+01 -0.66933611301E+01 -0.38339701340E+02  0.39776237199E+02  0.00000000000E+00 0. -1.
<mgrwt>
<rscale>  0 0.16479508E+03</rscale>
<asrwt>0</asrwt>
<pdfrwt beam="1">  1        1 0.11383253E-01 0.17058868E+03</pdfrwt>
<pdfrwt beam="2">  1       -1 0.75049783E-01 0.17058868E+03</pdfrwt>
<totfact> 0.99391988E+02</totfact>
</mgrwt>
</event>
<event>
 6    1  0.7270761E-006  0.2442217E+03  0.7546771E-02  0.1117012E+00
         -2   -1    0    0    0  501 -0.00000000000E+00  0.00000000000E+00  0.58698019544E+02  0.58698019544E+02  0.00000000000E+00 0.  1.
          2   -1    0    0  501    0  0.00000000000E+00 -0.00000000000E+00 -0.25403004757E+03  0.25403004757E+03  0.00000000000E+00 0. -1.
          5    1    1    2  502    0  0.24762473785E+02 -0.30958580239E+02 -0.75357887080E+02  0.85279041643E+02  0.47000000000E+01 0.  1.
         -5    1    1    2    0  502 -0.67730595170E+02  0.56664462852E+02 -0.69312125211E+02  0.11235904758E+03  0.47000000000E+01 0.  1.
        -11    1    1    2    0    0  0.12258177557E+01 -0.48595644397E+02 -0.45680803617E+01  0.48825266427E+02  0.00000000000E+00 0.  1.
         11    1    1    2    0    0  0.41742303629E+02  0.22889761783E+02 -0.46093935369E+02  0.66264711458E+02  0.00000000000E+00 0. -1.
<mgrwt>
<rscale>  0 0.24422171E+03</rscale>
<asrwt>0</asrwt>
<pdfrwt beam="2">  1        2 0.39081546E-01 0.24422171E+03</pdfrwt>
<pdfrwt beam="1">  1       -2 0.90304646E-02 0.24422171E+03</pdfrwt>
<totfact> 0.10070417E+04</totfact>
</mgrwt>
</event>
<event>
 6    1  0.7270761E-006  0.1420207E+03  0.7546771E-02  0.1221939E+00
          1   -1    0    0  501    0  0.00000000000E+00  0.00000000000E+00  0.42683571835E+02  0.42683571835E+02  0.00000000000E+00 0. -1.
         -1   -1    0    0    0  501 -0.00000000000E+00 -0.00000000000E+00 -0.42942327075E+03  0.42942327075E+03  0.00000000000E+00 0.  1.
          5    1    1    2  502    0 -0.11231592060E+02  0.35461221839E+02 -0.71514263485E+02  0.80746682881E+02  0.47000000000E+01 0.  1.
         -5    1    1    2    0  502  0.42034452133E+02 -0.95423906497E+02 -0.22364047718E+03  0.24679904807E+03  0.47000000000E+01 0.  1.
        -11    1    1    2    0    0 -0.12911772657E+02  0.45605495010E+02 -0.10692882950E+03  0.11696302675E+03  0.00000000000E+00 0.  1.
         11    1    1    2    0    0 -0.17891087416E+02  0.14357189648E+02  0.15343871257E+02  0.27598084873E+02  0.00000000000E+00 0. -1.
<mgrwt>
<rscale>  0 0.13378931E+03</rscale>
<asrwt>0</asrwt>
<pdfrwt beam="1">  1        1 0.65667032E-02 0.14202072E+03</pdfrwt>
<pdfrwt beam="2">  1       -1 0.66065120E-01 0.14202072E+03</pdfrwt>
<totfact> 0.26583730E+03</totfact>
</mgrwt>
</event>
<event>
 6    1  0.7270761E-006  0.3317228E+03  0.7546771E-02  0.1071641E+00
         -2   -1    0    0    0  501 -0.00000000000E+00  0.00000000000E+00  0.27175803898E+03  0.27175803898E+03  0.00000000000E+00 0. -1.
          2   -1    0    0  501    0  0.00000000000E+00 -0.00000000000E+00 -0.45763492838E+03  0.45763492838E+03  0.00000000000E+00 0.  1.
          5    1    1    2  502    0  0.51395309089E+02 -0.27019653424E+03  0.51459161533E+02  0.27985314045E+03  0.47000000000E+01 0. -1.
         -5    1    1    2    0  502 -0.39757714537E+02 -0.36853837816E+02 -0.68941893832E+01  0.54849804688E+02  0.47000000000E+01 0. -1.
        -11    1    1    2    0    0  0.31190771686E+02  0.16533799946E+03 -0.90856261242E+02  0.19121814378E+03  0.00000000000E+00 0.  1.
         11    1    1    2    0    0 -0.42828366238E+02  0.14171237260E+03 -0.13958560031E+03  0.20347187844E+03  0.00000000000E+00 0. -1.
<mgrwt>
<rscale>  0 0.32886339E+03</rscale>
<asrwt>0</asrwt>
<pdfrwt beam="2">  1        2 0.70405372E-01 0.33172281E+03</pdfrwt>
<pdfrwt beam="1">  1       -2 0.41808930E-01 0.33172281E+03</pdfrwt>
<totfact> 0.37754843E+02</totfact>
</mgrwt>
</event>
<event>
 6    1  0.7270761E-006  0.1492181E+03  0.7546771E-02  0.1211087E+00
         -1   -1    0    0    0  501 -0.00000000000E+00  0.00000000000E+00  0.14594342586E+03  0.14594342586E+03  0.00000000000E+00 0.  1.
          1   -1    0    0  501    0  0.00000000000E+00 -0.00000000000E+00 -0.14504141920E+03  0.14504141920E+03  0.00000000000E+00 0. -1.
          5    1    1    2  502    0  0.24404208499E+02  0.13532461079E+02 -0.13134548796E+02  0.31197744588E+02  0.47000000000E+01 0. -1.
         -5    1    1    2    0  502 -0.79430255836E+02 -0.73630662730E+02  0.67010554767E+02  0.12744859547E+03  0.47000000000E+01 0. -1.
        -11    1    1    2    0    0  0.74565628474E+02  0.48417074099E+02 -0.61418529562E+02  0.10805777060E+03  0.00000000000E+00 0. -1.
         11    1    1    2    0    0 -0.19539581137E+02  0.11681127552E+02  0.84445302541E+01  0.24280734402E+02  0.00000000000E+00 0.  1.
<mgrwt>
<rscale>  0 0.14167965E+03</rscale>
<asrwt>0</asrwt>
<pdfrwt beam="2">  1        1 0.22314065E-01 0.14921809E+03</pdfrwt>
<pdfrwt beam="1">  1       -1 0.22452835E-01 0.14921809E+03</pdfrwt>
<totfact> 0.35697902E+03</totfact>
</mgrwt>
</event>
<event>
 6    1  0.7270761E-006  0.2974408E+03  0.7546771E-02  0.1086527E+00
          1   -1    0    0  501    0  0.00000000000E+00  0.00000000000E+00  0.78018721976E+03  0.78018721976E+03  0.00000000000E+00 0. -1.
         -1   -1    0    0    0  501 -0.00000000000E+00 -0.00000000000E+00 -0.28349294367E+02  0.28349294367E+02  0.00000000000E+00 0.  1.
          5    1    1    2  502    0  0.19420096357E+02 -0.89087538712E+02  0.10470267121E+03  0.13891892980E+03  0.47000000000E+01 0.  1.
         -5    1    1    2    0  502 -0.97856209610E+01 -0.99624441449E+01  0.24632505776E+03  0.24676533944E+03  0.47000000000E+01 0.  1.
        -11    1    1    2    0    0  0.15654804840E+02  0.58260542819E+02  0.34037022843E+03  0.34567507311E+03  0.00000000000E+00 0. -1.
         11    1    1    2    0    0 -0.25289280236E+02  0.40789440038E+02  0.60439967985E+02  0.77177171777E+02  0.00000000000E+00 0.  1.
<mgrwt>
<rscale>  0 0.29744080E+03</rscale>
<asrwt>0</asrwt>
<pdfrwt beam="1">  1        1 0.12002879E+00 0.29744080E+03</pdfrwt>
<pdfrwt beam="2">  1       -1 0.43614305E-02 0.29744080E+03</pdfrwt>
<totfact> 0.51773935E+03</totfact>
</mgrwt>
</event>
<event>
 6    1  0.7270761E-006  0.3613917E+03  0.7546771E-02  0.1069247E+00
         -1   -1    0    0    0  501 -0.00000000000E+00  0.00000000000E+00  0.19282288464E+03  0.19282288464E+03  0.00000000000E+00 0.  1.
          1   -1    0    0  501    0  0.00000000000E+00 -0.00000000000E+00 -0.50923860956E+03  0.50923860956E+03  0.00000000000E+00 0. -1.
          5    1    1    2  502    0 -0.88308102919E+02 -0.10439499208E+03 -0.20096273897E+03  0.24311468049E+03  0.47000000000E+01 0. -1.
         -5    1    1    2    0  502  0.53159791797E+02 -0.14102141448E+03  0.34646218637E+02  0.15471086993E+03  0.47000000000E+01 0.  1.
        -11    1    1    2    0    0 -0.25590167318E+02  0.14404437102E+03 -0.88213657629E+02  0.17083701847E+03  0.00000000000E+00 0. -1.
         11    1    1    2    0    0  0.60738478439E+02  0.10137203555E+03 -0.61885546961E+02  0.13339892532E+03  0.00000000000E+00 0.  1.
<mgrwt>
<rscale>  0 0.33430585E+03</rscale>
<asrwt>0</asrwt>
<pdfrwt beam="2">  1        1 0.78344400E-01 0.36139173E+03</pdfrwt>
<pdfrwt beam="1">  1       -1 0.29665060E-01 0.36139173E+03</pdfrwt>
<totfact> 0.45946710E+02</totfact>
</mgrwt>
</event>
<event>
 6    1  0.7270761E-006  0.1276139E+03  0.7546771E-02  0.1245838E+00
         -1   -1    0    0    0  501 -0.00000000000E+00  0.00000000000E+00  0.15361080026E+03  0.15361080026E+03  0.00000000000E+00 0.  1.
          1   -1    0    0  501    0  0.00000000000E+00 -0.00000000000E+00 -0.80673255949E+02  0.80673255949E+02  0.00000000000E+00 0. -1.
          5    1    1    2  502    0 -0.64364475609E+02  0.54202655664E+01  0.49662537045E+02  0.81612637410E+02  0.47000000000E+01 0.  1.
         -5    1    1    2    0  502  0.52607395850E+02  0.17434487002E+02  0.82708460265E+00  0.55626194406E+02  0.47000000000E+01 0.  1.
        -11    1    1    2    0    0 -0.11473724893E+02 -0.46645372037E+02  0.37113735696E+02  0.60703101014E+02  0.00000000000E+00 0.  1.
         11    1    1    2    0    0  0.23230804652E+02  0.23790619468E+02 -0.14665813037E+02  0.36342123376E+02  0.00000000000E+00 0. -1.
<mgrwt>
<rscale>  0 0.11835364E+03</rscale>
<asrwt>0</asrwt>
<pdfrwt beam="2">  1        1 0.12411270E-01 0.12761385E+03</pdfrwt>
<pdfrwt beam="1">  1       -1 0.23632431E-01 0.12761385E+03</pdfrwt>
<totfact> 0.69172654E+03</totfact>
</mgrwt>
</event>
<event>
 6    1  0.7270761E-006  0.1454280E+03  0.7546771E-02  0.1216117E+00
          4   -1    0    0  501    0  0.00000000000E+00  0.00000000000E+00  0.10849588240E+03  0.10849588240E+03  0.00000000000E+00 0. -1.
         -4   -1    0    0    0  501 -0.00000000000E+00 -0.00000000000E+00 -0.16287597083E+03  0.16287597083E+03  0.00000000000E+00 0.  1.
          5    1    1    2  502    0 -0.52761932998E+01  0.27166825359E+02 -0.74177788693E+02  0.79311467968E+02  0.47000000000E+01 0.  1.
         -5    1    1    2    0  502 -0.68062322402E+02 -0.15071039986E+02  0.24998936385E+02  0.74206824467E+02  0.47000000000E+01 0.  1.
        -11    1    1    2    0    0 -0.21716773177E+02  0.87826217500E+00 -0.25126375190E+01  0.21879280815E+02  0.00000000000E+00 0. -1.
         11    1    1    2    0    0  0.95055288880E+02 -0.12974047548E+02 -0.26885986038E+01  0.95974279972E+02  0.00000000000E+00 0.  1.
<mgrwt>
<rscale>  0 0.13794815E+03</rscale>
<asrwt>0</asrwt>
<pdfrwt beam="1">  1        4 0.16691674E-01 0.14542801E+03</pdfrwt>
<pdfrwt beam="2">  1       -4 0.25057842E-01 0.14542801E+03</pdfrwt>
<totfact> 0.78053482E+02</totfact>
</mgrwt>
</event>
<event>
 6    1  0.7270761E-006  0.1267447E+03  0.7546771E-02  0.1248094E+00
         -1   -1    0    0    0  501 -0.00000000000E+00  0.00000000000E+00  0.43731015170E+02  0.43731015170E+02  0.00000000000E+00 0.  1.
          1   -1    0    0  501    0  0.00000000000E+00 -0.00000000000E+00 -0.37582345602E+03  0.37582345602E+03  0.00000000000E+00 0. -1.
          5    1    1    2  502    0  0.29251967866E+02  0.42573668061E+02 -0.45988363682E+02  0.69319653998E+02  0.47000000000E+01 0. -1.
         -5    1    1    2    0  502 -0.43732879373E+02 -0.57789642659E+02 -0.30908892272E+02  0.78928177215E+02  0.47000000000E+01 0. -1.
        -11    1    1    2    0    0  0.33976552120E+02 -0.22367227001E+02 -0.18426122421E+03  0.18869790059E+03  0.00000000000E+00 0. -1.
         11    1    1    2    0    0 -0.19495640614E+02  0.37583201599E+02 -0.70933960685E+02  0.82608739392E+02  0.00000000000E+00 0.  1.
<mgrwt>
<rscale>  0 0.11702114E+03</rscale>
<asrwt>0</asrwt>
<pdfrwt beam="2">  1        1 0.57818993E-01 0.12674475E+03</pdfrwt>
<pdfrwt beam="1">  1       -1 0.67278485E-02 0.12674475E+03</pdfrwt>
<totfact> 0.70058645E+03</totfact>
</mgrwt>
</event>
<event>
 6    1  0.7270761E-006  0.1972358E+03  0.7546771E-02  0.1156715E+00
          3   -1    0    0  501    0  0.00000000000E+00  0.00000000000E+00  0.56318719787E+03  0.56318719787E+03  0.00000000000E+00 0. -1.
         -3   -1    0    0    0  501 -0.00000000000E+00 -0.00000000000E+00 -0.63664145190E+02  0.63664145190E+02  0.00000000000E+00 0.  1.
          5    1    1    2  502    0  0.69680304480E+02  0.23382893152E+01  0.18801170477E+03  0.20057742535E+03  0.47000000000E+01 0.  1.
         -5    1    1    2    0  502  0.79268236642E+02 -0.35395911066E+02  0.26635210200E+02  0.90927709104E+02  0.47000000000E+01 0.  1.
        -11    1    1    2    0    0 -0.23531208146E+02  0.44958908511E+02  0.89153101616E+02  0.10258312112E+03  0.00000000000E+00 0.  1.
         11    1    1    2    0    0 -0.12541733298E+03 -0.11901286760E+02  0.19572303610E+03  0.23276308749E+03  0.00000000000E+00 0. -1.
<mgrwt>
<rscale>  0 0.19194947E+03</rscale>
<asrwt>0</asrwt>
<pdfrwt beam="1">  1        3 0.86644181E-01 0.19723576E+03</pdfrwt>
<pdfrwt beam="2">  1       -3 0.97944842E-02 0.19723576E+03</pdfrwt>
<totfact> 0.23324990E+02</totfact>
</mgrwt>
</event>
<event>
 6    1  0.7270761E-006  0.1334063E+03  0.7546771E-02  0.1234858E+00
          4   -1    0    0  501    0  0.00000000000E+00  0.00000000000E+00  0.59398022071E+03  0.59398022071E+03  0.00000000000E+00 0. -1.
         -4   -1    0    0    0  501 -0.00000000000E+00 -0.00000000000E+00 -0.24035416420E+02  0.24035416420E+02  0.00000000000E+00 0.  1.
          5    1    1    2  502    0  0.44750312043E+02 -0.35513858248E+02  0.34164605262E+03  0.34642162147E+03  0.47000000000E+01 0. -1.
         -5    1    1    2    0  502  0.18310943882E+01  0.33763762994E+02  0.21233283668E+02  0.40203071195E+02  0.47000000000E+01 0. -1.
        -11    1    1    2    0    0 -0.54206378593E+02 -0.29364745213E+02  0.83820351954E+02  0.10405032986E+03  0.00000000000E+00 0.  1.
         11    1    1    2    0    0  0.76249721622E+01  0.31114840466E+02  0.12324511605E+03  0.12734061460E+03  0.00000000000E+00 0. -1.
<mgrwt>
<rscale>  0 0.12513555E+03</rscale>
<asrwt>0</asrwt>
<pdfrwt beam="1">  1        4 0.91381562E-01 0.13340630E+03</pdfrwt>
<pdfrwt beam="2">  1       -4 0.36977568E-02 0.13340630E+03</pdfrwt>
<totfact> 0.67451989E+02</totfact>
</mgrwt>
</event>
<event>
 6    1  0.7270761E-006  0.1264171E+03  0.7546771E-02  0.1247211E+00
          1   -1    0    0  501    0  0.00000000000E+00  0.00000000000E+00  0.31392627830E+02  0.31392627830E+02  0.00000000000E+00 0. -1.
         -1   -1    0    0    0  501 -0.00000000000E+00 -0.00000000000E+00 -0.51926764345E+03  0.51926764345E+03  0.00000000000E+00 0.  1.
          5    1    1    2  502    0 -0.71812582430E+02  0.92213542233E+01 -0.20370294050E+03  0.21623842937E+03  0.47000000000E+01 0. -1.
         -5    1    1    2    0  502  0.49816497665E+02 -0.15502849580E+02 -0.20366873068E+03  0.21029755976E+03  0.47000000000E+01 0.  1.
        -11    1    1    2    0    0  0.30179968829E+02  0.22432128744E+02 -0.94195641002E+02  0.10142410809E+03  0.00000000000E+00 0.  1.
         11    1    1    2    0    0 -0.81838840631E+01 -0.16150633387E+02  0.13692296559E+02  0.22700174057E+02  0.00000000000E+00 0. -1.
<mgrwt>
<rscale>  0 0.11754026E+03</rscale>
<asrwt>0</asrwt>
<pdfrwt beam="1">  1        1 0.48296354E-02 0.12641705E+03</pdfrwt>
<pdfrwt beam="2">  1       -1 0.79887324E-01 0.12641705E+03</pdfrwt>
<totfact> 0.27481854E+03</totfact>
</mgrwt>
</event>
<event>
 6    1  0.7270761E-006  0.4182189E+03  0.7546771E-02  0.1037648E+00
          2   -1    0    0  501    0  0.00000000000E+00  0.00000000000E+00  0.20508384045E+03  0.20508384045E+03  0.00000000000E+00 0. -1.
         -2   -1    0    0    0  501 -0.00000000000E+00 -0.00000000000E+00 -0.21321408143E+03  0.21321408143E+03  0.00000000000E+00 0.  1.
          5    1    1    2  502    0 -0.14528784331E+03  0.39806718374E+02 -0.95434102689E+02  0.17838971438E+03  0.47000000000E+01 0.  1.
         -5    1    1    2    0  502 -0.63539360911E+01 -0.18732937610E+02  0.24285709621E+02  0.31673035016E+02  0.47000000000E+01 0.  1.
        -11    1    1    2    0    0  0.17718298345E+02 -0.42700201801E+02  0.55690932410E+02  0.72379038974E+02  0.00000000000E+00 0. -1.
         11    1    1    2    0    0  0.13392348105E+03  0.21626421037E+02  0.73272196801E+01  0.13585613351E+03  0.00000000000E+00 0.  1.
<mgrwt>
<rscale>  0 0.41821890E+03</rscale>
<asrwt>0</asrwt>
<pdfrwt beam="1">  1        2 0.31551360E-01 0.41821890E+03</pdfrwt>
<pdfrwt beam="2">  1       -2 0.32802166E-01 0.41821890E+03</pdfrwt>
<totfact> 0.14486900E+03</totfact>
</mgrwt>
</event>
<event>
 6    1  0.7270761E-006  0.1599494E+03  0.7546771E-02  0.1198383E+00
         -2   -1    0    0    0  501 -0.00000000000E+00  0.00000000000E+00  0.81955135028E+02  0.81955135028E+02  0.00000000000E+00 0.  1.
          2   -1    0    0  501    0  0.00000000000E+00 -0.00000000000E+00 -0.34757791848E+03  0.34757791848E+03  0.00000000000E+00 0. -1.
          5    1    1    2  502    0  0.25234782379E+02  0.57574190255E+02 -0.50319243427E+02  0.80657906521E+02  0.47000000000E+01 0.  1.
         -5    1    1    2    0  502 -0.75423049992E+02  0.28684980333E+02  0.17307488689E+02  0.82662589674E+02  0.47000000000E+01 0.  1.
        -11    1    1    2    0    0  0.26383182013E+02 -0.43722211231E+02 -0.33150960015E+02  0.60882593555E+02  0.00000000000E+00 0.  1.
         11    1    1    2    0    0  0.23805085600E+02 -0.42536959358E+02 -0.19946006870E+03  0.20532996376E+03  0.00000000000E+00 0. -1.
<mgrwt>
<rscale>  0 0.15171384E+03</rscale>
<asrwt>0</asrwt>
<pdfrwt beam="2">  1        2 0.53473526E-01 0.15994939E+03</pdfrwt>
<pdfrwt beam="1">  1       -2 0.12608482E-01 0.15994939E+03</pdfrwt>
<totfact> 0.41273254E+03</totfact>
</mgrwt>
</event>
<event>
 6    1  0.7270761E-006  0.1586596E+03  0.7546771E-02  0.1198265E+00
         -1   -1    0    0    0  501 -0.00000000000E+00  0.00000000000E+00  0.16187927691E+03  0.16187927691E+03  0.00000000000E+00 0.  1.
          1   -1    0    0  501    0  0.00000000000E+00 -0.00000000000E+00 -0.16721825974E+03  0.16721825974E+03  0.00000000000E+00 0. -1.
          5    1    1    2  502    0  0.22620266565E+02  0.76766900894E+02  0.86998049110E+02  0.11830293353E+03  0.47000000000E+01 0.  1.
         -5    1    1    2    0  502 -0.51908647335E+02  0.16449345618E+02 -0.13886402371E+02  0.56391584569E+02  0.47000000000E+01 0.  1.
        -11    1    1    2    0    0  0.31480936527E+02 -0.71985888883E+02 -0.59132006028E+01  0.78790757734E+02  0.00000000000E+00 0.  1.
         11    1    1    2    0    0 -0.21925557568E+01 -0.21230357628E+02 -0.72537428967E+02  0.75612260824E+02  0.00000000000E+00 0. -1.
<mgrwt>
<rscale>  0 0.15181084E+03</rscale>
<asrwt>0</asrwt>
<pdfrwt beam="2">  1        1 0.25725886E-01 0.15865958E+03</pdfrwt>
<pdfrwt beam="1">  1       -1 0.24904504E-01 0.15865958E+03</pdfrwt>
<totfact> 0.25243754E+03</totfact>
</mgrwt>
</event>
<event>
 6    1  0.7270761E-006  0.2503780E+03  0.7546771E-02  0.1113066E+00
          4   -1    0    0  501    0  0.00000000000E+00  0.00000000000E+00  0.48608380333E+02  0.48608380333E+02  0.00000000000E+00 0. -1.
         -4   -1    0    0    0  501 -0.00000000000E+00 -0.00000000000E+00 -0.32241942846E+03  0.32241942846E+03  0.00000000000E+00 0.  1.
          5    1    1    2  502    0 -0.35282980139E+02 -0.10872287016E+01 -0.80974093963E+01  0.36520251815E+02  0.47000000000E+01 0. -1.
         -5    1    1    2    0  502  0.79424477520E+02  0.45652915449E+02 -0.12444588642E+03  0.15460046884E+03  0.47000000000E+01 0.  1.
        -11    1    1    2    0    0  0.16919203854E+02 -0.47161187519E+02 -0.68749695874E+02  0.85070310626E+02  0.00000000000E+00 0. -1.
         11    1    1    2    0    0 -0.61060701236E+02  0.25955007714E+01 -0.72518056440E+02  0.94836777516E+02  0.00000000000E+00 0.  1.
<mgrwt>
<rscale>  0 0.25037800E+03</rscale>
<asrwt>0</asrwt>
<pdfrwt beam="1">  1        4 0.74782123E-02 0.25037800E+03</pdfrwt>
<pdfrwt beam="2">  1       -4 0.49602989E-01 0.25037800E+03</pdfrwt>
<totfact> 0.90133477E+02</totfact>
</mgrwt>
</event>
<event>
 6    1  0.7270761E-006  0.3719153E+03  0.7546771E-02  0.1053963E+00
         -3   -1    0    0    0  501 -0.00000000000E+00  0.00000000000E+00  0.56466223477E+02  0.56466223477E+02  0.00000000000E+00 0.  1.
          3   -1    0    0  501    0  0.00000000000E+00 -0.00000000000E+00 -0.61240604260E+03  0.61240604260E+03  0.00000000000E+00 0. -1.
          5    1    1    2  502    0 -0.77513461834E+02 -0.11151456848E+03 -0.87241772080E+02  0.16148390800E+03  0.47000000000E+01 0.  1.
         -5    1    1    2    0  502  0.18046549544E+02 -0.14413883938E+02 -0.10188392779E+03  0.10457467544E+03  0.47000000000E+01 0.  1.
        -11    1    1    2    0    0 -0.21862849461E+02  0.33992825530E+02 -0.59857853019E+02  0.72225057578E+02  0.00000000000E+00 0.  1.
         11    1    1    2    0    0  0.81329761752E+02  0.91935626888E+02 -0.30695626623E+03  0.33058862505E+03  0.00000000000E+00 0. -1.
<mgrwt>
<rscale>  0 0.37191535E+03</rscale>
<asrwt>0</asrwt>
<pdfrwt beam="2">  1        3 0.94216320E-01 0.37191535E+03</pdfrwt>
<pdfrwt beam="1">  1       -3 0.86871107E-02 0.37191535E+03</pdfrwt>
<totfact> 0.25043153E+02</totfact>
</mgrwt>
</event>
<event>
 6    1  0.7270761E-006  0.3461364E+03  0.7546771E-02  0.1065265E+00
          1   -1    0    0  501    0  0.00000000000E+00  0.00000000000E+00  0.91093380345E+03  0.91093380345E+03  0.00000000000E+00 0. -1.
         -1   -1    0    0    0  501 -0.00000000000E+00 -0.00000000000E+00 -0.16855149558E+03  0.16855149558E+03  0.00000000000E+00 0.  1.
          5    1    1    2  502    0  0.15593480024E+03 -0.12588146326E+03  0.13004947176E+03  0.23894928296E+03  0.47000000000E+01 0.  1.
         -5    1    1    2    0  502  0.98610465228E+02 -0.72579519686E+02 -0.20231687639E+02  0.12419026417E+03  0.47000000000E+01 0.  1.
        -11    1    1    2    0    0 -0.23871392754E+02  0.44141974501E+02  0.48954831598E+02  0.70106582014E+02  0.00000000000E+00 0.  1.
         11    1    1    2    0    0 -0.23067387272E+03  0.15431900845E+03  0.58360969215E+03  0.64623916989E+03  0.00000000000E+00 0. -1.
<mgrwt>
<rscale>  0 0.34361859E+03</rscale>
<asrwt>0</asrwt>
<pdfrwt beam="1">  1        1 0.14014366E+00 0.34613637E+03</pdfrwt>
<pdfrwt beam="2">  1       -1 0.25931000E-01 0.34613637E+03</pdfrwt>
<totfact> 0.24492587E+02</totfact>
</mgrwt>
</event>
<event>
 6    1  0.7270761E-006  0.4295229E+03  0.7546771E-02  0.1034673E+00
          2   -1    0    0  501    0  0.00000000000E+00  0.00000000000E+00  0.11042373618E+04  0.11042373618E+04  0.00000000000E+00 0. -1.
         -2   -1    0    0    0  501 -0.00000000000E+00 -0.00000000000E+00 -0.16433882264E+03  0.16433882264E+03  0.00000000000E+00 0.  1.
          5    1    1    2  502    0 -0.20850818130E+03 -0.32127914214E+03  0.43516930003E+03  0.57973300625E+03  0.47000000000E+01 0.  1.
         -5    1    1    2    0  502 -0.33001904672E+02 -0.11191774362E+02  0.54195394018E+01  0.35578686494E+02  0.47000000000E+01 0.  1.
        -11    1    1    2    0    0  0.85037179075E+02  0.17993641165E+03  0.28137174412E+03  0.34464255751E+03  0.00000000000E+00 0.  1.
         11    1    1    2    0    0  0.15647290690E+03  0.15253450485E+03  0.21793795561E+03  0.30862193418E+03  0.00000000000E+00 0. -1.
<mgrwt>
<rscale>  0 0.42743741E+03</rscale>
<asrwt>0</asrwt>
<pdfrwt beam="1">  1        2 0.16988267E+00 0.42952294E+03</pdfrwt>
<pdfrwt beam="2">  1       -2 0.25282897E-01 0.42952294E+03</pdfrwt>
<totfact> 0.31347735E+02</totfact>
</mgrwt>
</event>
<event>
 6    1  0.7270761E-006  0.1328076E+03  0.7546771E-02  0.1235850E+00
         -1   -1    0    0    0  501 -0.00000000000E+00  0.00000000000E+00  0.75327696937E+02  0.75327696937E+02  0.00000000000E+00 0.  1.
          1   -1    0    0  501    0  0.00000000000E+00 -0.00000000000E+00 -0.18554405290E+03  0.18554405290E+03  0.00000000000E+00 0. -1.
          5    1    1    2  502    0 -0.44964630149E+02  0.19812600769E+02 -0.70423037504E+01  0.49860216163E+02  0.47000000000E+01 0.  1.
         -5    1    1    2    0  502  0.49550498744E+02 -0.64444209335E+02 -0.42816051330E+02  0.91997892879E+02  0.47000000000E+01 0.  1.
        -11    1    1    2    0    0 -0.11757499439E+01  0.64824776633E+02 -0.11246841007E+02  0.65803689001E+02  0.00000000000E+00 0.  1.
         11    1    1    2    0    0 -0.34101186507E+01 -0.20193168067E+02 -0.49111159877E+02  0.53209951797E+02  0.00000000000E+00 0. -1.
<mgrwt>
<rscale>  0 0.12450168E+03</rscale>
<asrwt>0</asrwt>
<pdfrwt beam="2">  1        1 0.28545239E-01 0.13280763E+03</pdfrwt>
<pdfrwt beam="1">  1       -1 0.11588877E-01 0.13280763E+03</pdfrwt>
<totfact> 0.73938469E+03</totfact>
</mgrwt>
</event>
<event>
 6    1  0.7270761E-006  0.1862974E+03  0.7546771E-02  0.1169260E+00
          2   -1    0    0  501    0  0.00000000000E+00  0.00000000000E+00  0.18556582840E+03  0.18556582840E+03  0.00000000000E+00 0. -1.
         -2   -1    0    0    0  501 -0.00000000000E+00 -0.00000000000E+00 -0.18999678409E+03  0.18999678409E+03  0.00000000000E+00 0.  1.
          5    1    1    2  502    0 -0.84646171081E+02 -0.86020991358E+02 -0.85632300100E+02  0.14805257868E+03  0.47000000000E+01 0.  1.
         -5    1    1    2    0  502 -0.42530620514E+02  0.32112947521E+02  0.73917274193E+01  0.54007617186E+02  0.47000000000E+01 0.  1.
        -11    1    1    2    0    0  0.37189288242E+02 -0.68941378418E+01 -0.65700940797E+01  0.38389301019E+02  0.00000000000E+00 0.  1.
         11    1    1    2    0    0  0.89987503353E+02  0.60802181678E+02  0.80379711074E+02  0.13511311561E+03  0.00000000000E+00 0. -1.
<mgrwt>
<rscale>  0 0.17850229E+03</rscale>
<asrwt>0</asrwt>
<pdfrwt beam="1">  1        2 0.28548589E-01 0.18629744E+03</pdfrwt>
<pdfrwt beam="2">  1       -2 0.29230275E-01 0.18629744E+03</pdfrwt>
<totfact> 0.19587795E+03</totfact>
</mgrwt>
</event>
<event>
 6    1  0.7270761E-006  0.3452929E+03  0.7546771E-02  0.1064564E+00
          2   -1    0    0  501    0  0.00000000000E+00  0.00000000000E+00  0.30204605326E+03  0.30204605326E+03  0.00000000000E+00 0. -1.
         -2   -1    0    0    0  501 -0.00000000000E+00 -0.00000000000E+00 -0.98682950564E+02  0.98682950564E+02  0.00000000000E+00 0.  1.
          5    1    1    2  502    0 -0.94225513107E+02 -0.88831073651E+02  0.12743393241E+02  0.13020710825E+03  0.47000000000E+01 0.  1.
         -5    1    1    2    0  502  0.11321331381E+02 -0.13248230112E+02  0.64511067157E+02  0.66988476107E+02  0.47000000000E+01 0.  1.
        -11    1    1    2    0    0  0.50075562572E+02 -0.24948159595E+01  0.40830477834E+02  0.64659987579E+02  0.00000000000E+00 0.  1.
         11    1    1    2    0    0  0.32828619155E+02  0.10457411972E+03  0.85278164464E+02  0.13887343189E+03  0.00000000000E+00 0. -1.
<mgrwt>
<rscale>  0 0.34529289E+03</rscale>
<asrwt>0</asrwt>
<pdfrwt beam="1">  1        2 0.46468623E-01 0.34529289E+03</pdfrwt>
<pdfrwt beam="2">  1       -2 0.15181993E-01 0.34529289E+03</pdfrwt>
<totfact> 0.36524941E+03</totfact>
</mgrwt>
</event>
<event>
 6    1  0.7270761E-006  0.1644575E+03  0.7546771E-02  0.1198894E+00
          2   -1    0    0  501    0  0.00000000000E+00  0.00000000000E+00  0.63687618200E+03  0.63687618200E+03  0.00000000000E+00 0. -1.
         -2   -1    0    0    0  501 -0.00000000000E+00 -0.00000000000E+00 -0.34222100583E+02  0.34222100583E+02  0.00000000000E+00 0.  1.
          5    1    1    2  502    0  0.39057435342E+02 -0.71677922903E+02  0.46716054336E+02  0.94168400326E+02  0.47000000000E+01 0. -1.
         -5    1    1    2    0  502  0.17598401583E+01 -0.27097068274E+02  0.20284128999E+03  0.20470473144E+03  0.47000000000E+01 0. -1.
        -11    1    1    2    0    0 -0.22199072158E+02  0.69517856695E+02  0.30043193862E+03  0.30916804645E+03  0.00000000000E+00 0. -1.
         11    1    1    2    0    0 -0.18618203341E+02  0.29257134482E+02  0.52664798475E+02  0.63057104375E+02  0.00000000000E+00 0.  1.
<mgrwt>
<rscale>  0 0.15129220E+03</rscale>
<asrwt>0</asrwt>
<pdfrwt beam="1">  1        2 0.97980942E-01 0.16445753E+03</pdfrwt>
<pdfrwt beam="2">  1       -2 0.52649390E-02 0.16445753E+03</pdfrwt>
<totfact> 0.82528641E+03</totfact>
</mgrwt>
</event>
<event>
 6    1  0.7270761E-006  0.1288459E+03  0.7546771E-02  0.1243357E+00
          2   -1    0    0  501    0  0.00000000000E+00  0.00000000000E+00  0.60872345721E+03  0.60872345721E+03  0.00000000000E+00 0. -1.
         -2   -1    0    0    0  501 -0.00000000000E+00 -0.00000000000E+00 -0.20928183515E+02  0.20928183515E+02  0.00000000000E+00 0.  1.
          5    1    1    2  502    0  0.11091704046E+02 -0.65090767606E+02  0.14713746525E+03  0.16134236147E+03  0.47000000000E+01 0. -1.
         -5    1    1    2    0  502  0.19485555360E+02  0.58759873979E+02  0.16901940909E+03  0.18006126820E+03  0.47000000000E+01 0. -1.
        -11    1    1    2    0    0 -0.56422871593E+02 -0.18930954511E+02  0.15073489392E+03  0.16205841454E+03  0.00000000000E+00 0.  1.
         11    1    1    2    0    0  0.25845612187E+02  0.25261848138E+02  0.12090350544E+03  0.12618959651E+03  0.00000000000E+00 0. -1.
<mgrwt>
<rscale>  0 0.11984238E+03</rscale>
<asrwt>0</asrwt>
<pdfrwt beam="1">  1        2 0.93649749E-01 0.12884591E+03</pdfrwt>
<pdfrwt beam="2">  1       -2 0.32197210E-02 0.12884591E+03</pdfrwt>
<totfact> 0.17798801E+04</totfact>
</mgrwt>
</event>
<event>
 6    1  0.7270761E-006  0.1617529E+03  0.7546771E-02  0.1192248E+00
          4   -1    0    0  501    0  0.00000000000E+00  0.00000000000E+00  0.81442230685E+02  0.81442230685E+02  0.00000000000E+00 0. -1.
         -4   -1    0    0    0  501 -0.00000000000E+00 -0.00000000000E+00 -0.41811524472E+03  0.41811524472E+03  0.00000000000E+00 0.  1.
          5    1    1    2  502    0  0.60750278218E+02 -0.34194030750E+02 -0.26688002827E+03  0.27587473160E+03  0.47000000000E+01 0. -1.
         -5    1    1    2    0  502 -0.17984996251E+02 -0.59125067388E+02 -0.48988719987E+02  0.79001382075E+02  0.47000000000E+01 0. -1.
        -11    1    1    2    0    0  0.10163800972E+02  0.29735325077E+02  0.33334047853E+02  0.45811037468E+02  0.00000000000E+00 0. -1.
         11    1    1    2    0    0 -0.52929082939E+02  0.63583773061E+02 -0.54138313623E+02  0.98870324261E+02  0.00000000000E+00 0.  1.
<mgrwt>
<rscale>  0 0.15689457E+03</rscale>
<asrwt>0</asrwt>
<pdfrwt beam="1">  1        4 0.12529574E-01 0.16175287E+03</pdfrwt>
<pdfrwt beam="2">  1       -4 0.64325422E-01 0.16175287E+03</pdfrwt>
<totfact> 0.20304675E+02</totfact>
</mgrwt>
</event>
<event>
 6    1  0.7270761E-006  0.1275883E+03  0.7546771E-02  0.1246653E+00
          2   -1    0    0  501    0  0.00000000000E+00  0.00000000000E+00  0.91732100453E+02  0.91732100453E+02  0.00000000000E+00 0. -1.
         -2   -1    0    0    0  501 -0.00000000000E+00 -0.00000000000E+00 -0.13325353185E+03  0.13325353185E+03  0.00000000000E+00 0.  1.
          5    1    1    2  502    0  0.71566177586E+01  0.72084218720E+02 -0.61465988557E+01  0.72850685952E+02  0.47000000000E+01 0.  1.
         -5    1    1    2    0  502  0.83682245002E+01 -0.51768838726E+02 -0.26021500981E+02  0.58730301869E+02  0.47000000000E+01 0.  1.
        -11    1    1    2    0    0 -0.10730084708E+02 -0.32704980939E+02  0.33807060112E+02  0.48245909769E+02  0.00000000000E+00 0. -1.
         11    1    1    2    0    0 -0.47947575506E+01  0.12389600944E+02 -0.43160391668E+02  0.45158734709E+02  0.00000000000E+00 0.  1.
<mgrwt>
<rscale>  0 0.11786995E+03</rscale>
<asrwt>0</asrwt>
<pdfrwt beam="1">  1        2 0.14112631E-01 0.12758828E+03</pdfrwt>
<pdfrwt beam="2">  1       -2 0.20500544E-01 0.12758828E+03</pdfrwt>
<totfact> 0.79308512E+03</totfact>
</mgrwt>
</event>
<event>
 6    1  0.7270761E-006  0.1251765E+03  0.7546771E-02  0.1251129E+00
          1   -1    0    0  501    0  0.00000000000E+00  0.00000000000E+00  0.11635590354E+03  0.11635590354E+03  0.00000000000E+00 0. -1.
         -1   -1    0    0    0  501 -0.00000000000E+00 -0.00000000000E+00 -0.10889337316E+03  0.10889337316E+03  0.00000000000E+00 0.  1.
          5    1    1    2  502    0  0.62874774779E+01 -0.47227260225E+02 -0.50851172681E+02  0.69841808714E+02  0.47000000000E+01 0.  1.
         -5    1    1    2    0  502 -0.97698940329E+01  0.52973277929E+02  0.22399590663E+02  0.58527349726E+02  0.47000000000E+01 0.  1.
        -11    1    1    2    0    0  0.24954618254E+01  0.13120747011E+02 -0.27575243630E+02  0.30639441789E+02  0.00000000000E+00 0.  1.
         11    1    1    2    0    0  0.98695472959E+00 -0.18866764716E+02  0.63489356025E+02  0.66240676468E+02  0.00000000000E+00 0. -1.
<mgrwt>
<rscale>  0 0.11525914E+03</rscale>
<asrwt>0</asrwt>
<pdfrwt beam="1">  1        1 0.17900908E-01 0.12517647E+03</pdfrwt>
<pdfrwt beam="2">  1       -1 0.16752827E-01 0.12517647E+03</pdfrwt>
<totfact> 0.74680170E+03</totfact>
</mgrwt>
</event>
<event>
 6    1  0.7270761E-006  0.2057011E+03  0.7546771E-02  0.1149003E+00
         -2   -1    0    0    0  501 -0.00000000000E+00  0.00000000000E+00  0.65000580882E+02  0.65000580882E+02  0.00000000000E+00 0.  1.
          2   -1    0    0  501    0  0.00000000000E+00 -0.00000000000E+00 -0.76720506478E+03  0.76720506478E+03  0.00000000000E+00 0. -1.
          5    1    1    2  502    0  0.14006463321E+03 -0.19454904578E+02 -0.17488913844E+03  0.22495531897E+03  0.47000000000E+01 0.  1.
         -5    1    1    2    0  502  0.22932005671E+02  0.30455937731E+02  0.88238051683E+01  0.39413076064E+02  0.47000000000E+01 0.  1.
        -11    1    1    2    0    0 -0.43181523129E+02  0.78432815152E+01 -0.48801853366E+02  0.65633694827E+02  0.00000000000E+00 0.  1.
         11    1    1    2    0    0 -0.11981511575E+03 -0.18844314668E+02 -0.48733729726E+03  0.50220355580E+03  0.00000000000E+00 0. -1.
<mgrwt>
<rscale>  0 0.20087534E+03</rscale>
<asrwt>0</asrwt>
<pdfrwt beam="2">  1        2 0.11803155E+00 0.20570113E+03</pdfrwt>
<pdfrwt beam="1">  1       -2 0.10000089E-01 0.20570113E+03</pdfrwt>
<totfact> 0.24663962E+03</totfact>
</mgrwt>
</event>
<event>
 6    1  0.7270761E-006  0.2422875E+03  0.7546771E-02  0.1118278E+00
         -1   -1    0    0    0  501 -0.00000000000E+00  0.00000000000E+00  0.25220518569E+02  0.25220518569E+02  0.00000000000E+00 0.  1.
          1   -1    0    0  501    0  0.00000000000E+00 -0.00000000000E+00 -0.58189953908E+03  0.58189953908E+03  0.00000000000E+00 0. -1.
          5    1    1    2  502    0  0.99500647238E+01 -0.53350265277E+02 -0.20533434192E+03  0.21243713556E+03  0.47000000000E+01 0. -1.
         -5    1    1    2    0  502  0.15068394574E+02  0.16381215847E+02  0.56643372405E+01  0.23443025915E+02  0.47000000000E+01 0.  1.
        -11    1    1    2    0    0  0.24896305807E+02  0.30635808187E+02 -0.74772373650E+02  0.84553454378E+02  0.00000000000E+00 0.  1.
         11    1    1    2    0    0 -0.49914765105E+02  0.63332412428E+01 -0.28223664218E+03  0.28668644180E+03  0.00000000000E+00 0. -1.
<mgrwt>
<rscale>  0 0.24228750E+03</rscale>
<asrwt>0</asrwt>
<pdfrwt beam="2">  1        1 0.89522997E-01 0.24228750E+03</pdfrwt>
<pdfrwt beam="1">  1       -1 0.38800802E-02 0.24228750E+03</pdfrwt>
<totfact> 0.93486980E+03</totfact>
</mgrwt>
</event>
<event>
 6    1  0.7270761E-006  0.2331442E+03  0.7546771E-02  0.1160174E+00
         -2   -1    0    0    0  501 -0.00000000000E+00  0.00000000000E+00  0.23691768220E+04  0.23691768220E+04  0.00000000000E+00 0.  1.
          2   -1    0    0  501    0  0.00000000000E+00 -0.00000000000E+00 -0.21054531280E+02  0.21054531280E+02  0.00000000000E+00 0. -1.
          5    1    1    2  502    0 -0.10703987514E+02 -0.48412430284E+02  0.12264157626E+03  0.13236836851E+03  0.47000000000E+01 0. -1.
         -5    1    1    2    0  502  0.37110239561E+01  0.10371846899E+03  0.20764694921E+04  0.20790668422E+04  0.47000000000E+01 0.  1.
        -11    1    1    2    0    0 -0.12200008484E+02 -0.60871017399E+02  0.14591696550E+03  0.15857453070E+03  0.00000000000E+00 0. -1.
         11    1    1    2    0    0  0.19192972042E+02  0.55649786949E+01  0.30942568798E+01  0.20221611937E+02  0.00000000000E+00 0.  1.
<mgrwt>
<rscale>  0 0.18811365E+03</rscale>
<asrwt>0</asrwt>
<pdfrwt beam="2">  1        2 0.32391605E-02 0.23314416E+03</pdfrwt>
<pdfrwt beam="1">  1       -2 0.36448853E+00 0.23314416E+03</pdfrwt>
<totfact> 0.42670109E+01</totfact>
</mgrwt>
</event>
<event>
 6    1  0.7270761E-006  0.2085186E+03  0.7546771E-02  0.1158487E+00
          2   -1    0    0  501    0  0.00000000000E+00  0.00000000000E+00  0.14123611723E+03  0.14123611723E+03  0.00000000000E+00 0. -1.
         -2   -1    0    0    0  501 -0.00000000000E+00 -0.00000000000E+00 -0.22706701560E+03  0.22706701560E+03  0.00000000000E+00 0.  1.
          5    1    1    2  502    0 -0.11060320358E+03  0.31374968138E+02  0.10312594790E+02  0.11552444278E+03  0.47000000000E+01 0. -1.
         -5    1    1    2    0  502  0.41245603159E+01 -0.55293251799E+02 -0.93847007442E+02  0.10910410853E+03  0.47000000000E+01 0.  1.
        -11    1    1    2    0    0 -0.14141178659E+02  0.14057791192E+02 -0.10194991793E+02  0.22394916493E+02  0.00000000000E+00 0.  1.
         11    1    1    2    0    0  0.12061982192E+03  0.98604924684E+01  0.78985060738E+01  0.12127966503E+03  0.00000000000E+00 0. -1.
<mgrwt>
<rscale>  0 0.18997202E+03</rscale>
<asrwt>0</asrwt>
<pdfrwt beam="1">  1        2 0.21728633E-01 0.20851856E+03</pdfrwt>
<pdfrwt beam="2">  1       -2 0.34933387E-01 0.20851856E+03</pdfrwt>
<totfact> 0.19237573E+03</totfact>
</mgrwt>
</event>
<event>
 6    1  0.7270761E-006  0.1715391E+03  0.7546771E-02  0.1182839E+00
         -1   -1    0    0    0  501 -0.00000000000E+00  0.00000000000E+00  0.65880151976E+02  0.65880151976E+02  0.00000000000E+00 0.  1.
          1   -1    0    0  501    0  0.00000000000E+00 -0.00000000000E+00 -0.38991522816E+03  0.38991522816E+03  0.00000000000E+00 0. -1.
          5    1    1    2  502    0  0.79868554148E+02  0.31205196330E+02 -0.11239085894E+03  0.14144449581E+03  0.47000000000E+01 0. -1.
         -5    1    1    2    0  502  0.29928823010E+02 -0.72983056789E+02 -0.42749445229E+02  0.89843564558E+02  0.47000000000E+01 0. -1.
        -11    1    1    2    0    0 -0.92228449764E+02  0.31409971784E+02 -0.61554991091E+02  0.11524621556E+03  0.00000000000E+00 0.  1.
         11    1    1    2    0    0 -0.17568927394E+02  0.10367888676E+02 -0.10733978092E+03  0.10926110421E+03  0.00000000000E+00 0. -1.
<mgrwt>
<rscale>  0 0.16530024E+03</rscale>
<asrwt>0</asrwt>
<pdfrwt beam="2">  1        1 0.59986957E-01 0.17153907E+03</pdfrwt>
<pdfrwt beam="1">  1       -1 0.10135408E-01 0.17153907E+03</pdfrwt>
<totfact> 0.36550228E+03</totfact>
</mgrwt>
</event>
<event>
 6    1  0.7270761E-006  0.1706941E+03  0.7546771E-02  0.1182872E+00
         -1   -1    0    0    0  501 -0.00000000000E+00  0.00000000000E+00  0.87255954001E+03  0.87255954001E+03  0.00000000000E+00 0.  1.
          1   -1    0    0  501    0  0.00000000000E+00 -0.00000000000E+00 -0.30263987631E+02  0.30263987631E+02  0.00000000000E+00 0. -1.
          5    1    1    2  502    0  0.11313299101E+03  0.68014855557E+02  0.32978829621E+03  0.35525695566E+03  0.47000000000E+01 0.  1.
         -5    1    1    2    0  502 -0.24743426243E+02  0.74620558460E+01  0.19083863255E+03  0.19263798455E+03  0.47000000000E+01 0.  1.
        -11    1    1    2    0    0  0.36756892218E+01 -0.13337319404E+02 -0.80879925208E+00  0.13858172187E+02  0.00000000000E+00 0. -1.
         11    1    1    2    0    0 -0.92065253990E+02 -0.62139591998E+02  0.32247742288E+03  0.34107041524E+03  0.00000000000E+00 0.  1.
<mgrwt>
<rscale>  0 0.16527050E+03</rscale>
<asrwt>0</asrwt>
<pdfrwt beam="2">  1        1 0.46559988E-02 0.17069407E+03</pdfrwt>
<pdfrwt beam="1">  1       -1 0.13423991E+00 0.17069407E+03</pdfrwt>
<totfact> 0.91517795E+02</totfact>
</mgrwt>
</event>
<event>
 6    1  0.7270761E-006  0.2400600E+03  0.7546771E-02  0.1119753E+00
          1   -1    0    0  501    0  0.00000000000E+00  0.00000000000E+00  0.72617608792E+03  0.72617608792E+03  0.00000000000E+00 0. -1.
         -1   -1    0    0    0  501 -0.00000000000E+00 -0.00000000000E+00 -0.19839824300E+02  0.19839824300E+02  0.00000000000E+00 0.  1.
          5    1    1    2  502    0 -0.25055420477E+02  0.98429490365E+01  0.25676098837E+03  0.25821106268E+03  0.47000000000E+01 0. -1.
         -5    1    1    2    0  502  0.68775557943E+02  0.60268117376E+01  0.91522961472E+02  0.11473858247E+03  0.47000000000E+01 0. -1.
        -11    1    1    2    0    0 -0.32675526695E+02  0.31111926599E+02  0.89691978590E+02  0.10040066257E+03  0.00000000000E+00 0.  1.
         11    1    1    2    0    0 -0.11044610771E+02 -0.46981687374E+02  0.26836033519E+03  0.27266560450E+03  0.00000000000E+00 0. -1.
<mgrwt>
<rscale>  0 0.24006004E+03</rscale>
<asrwt>0</asrwt>
<pdfrwt beam="1">  1        1 0.11171938E+00 0.24006004E+03</pdfrwt>
<pdfrwt beam="2">  1       -1 0.30522812E-02 0.24006004E+03</pdfrwt>
<totfact> 0.97268109E+03</totfact>
</mgrwt>
</event>
<event>
 6    1  0.7270761E-006  0.1544630E+03  0.7546771E-02  0.1200577E+00
          3   -1    0    0  501    0  0.00000000000E+00  0.00000000000E+00  0.29956442466E+02  0.29956442466E+02  0.00000000000E+00 0. -1.
         -3   -1    0    0    0  501 -0.00000000000E+00 -0.00000000000E+00 -0.71624444902E+03  0.71624444902E+03  0.00000000000E+00 0.  1.
          5    1    1    2  502    0  0.37581543018E+02  0.10688194969E+02 -0.20169989128E+02  0.44221356252E+02  0.47000000000E+01 0.  1.
         -5    1    1    2    0  502  0.50612375654E+02 -0.32033838912E+02 -0.38007912391E+03  0.38479866143E+03  0.47000000000E+01 0.  1.
        -11    1    1    2    0    0 -0.46782801452E+02  0.40463237294E+02 -0.58570049568E+02  0.85184240270E+02  0.00000000000E+00 0. -1.
         11    1    1    2    0    0 -0.41411117220E+02 -0.19117593351E+02 -0.22746884394E+03  0.23199663353E+03  0.00000000000E+00 0.  1.
<mgrwt>
<rscale>  0 0.14991535E+03</rscale>
<asrwt>0</asrwt>
<pdfrwt beam="1">  1        3 0.46086839E-02 0.15446302E+03</pdfrwt>
<pdfrwt beam="2">  1       -3 0.11019144E+00 0.15446302E+03</pdfrwt>
<totfact> 0.44364436E+02</totfact>
</mgrwt>
</event>
<event>
 6    1  0.7270761E-006  0.1263334E+03  0.7546771E-02  0.1248574E+00
          1   -1    0    0  501    0  0.00000000000E+00  0.00000000000E+00  0.36508976260E+03  0.36508976260E+03  0.00000000000E+00 0. -1.
         -1   -1    0    0    0  501 -0.00000000000E+00 -0.00000000000E+00 -0.35532671387E+02  0.35532671387E+02  0.00000000000E+00 0.  1.
          5    1    1    2  502    0  0.53614289039E+02  0.38727445318E+02  0.39373603315E+02  0.77114704486E+02  0.47000000000E+01 0.  1.
         -5    1    1    2    0  502 -0.35405717756E+02 -0.35829367485E+02  0.92992825135E+02  0.10586342121E+03  0.47000000000E+01 0.  1.
        -11    1    1    2    0    0 -0.49983837012E+01  0.34581786466E+02  0.30813806048E+02  0.46587277641E+02  0.00000000000E+00 0.  1.
         11    1    1    2    0    0 -0.13210187582E+02 -0.37479864299E+02  0.16637685671E+03  0.17105703065E+03  0.00000000000E+00 0. -1.
<mgrwt>
<rscale>  0 0.11673991E+03</rscale>
<asrwt>0</asrwt>
<pdfrwt beam="1">  1        1 0.56167653E-01 0.12633338E+03</pdfrwt>
<pdfrwt beam="2">  1       -1 0.54665651E-02 0.12633338E+03</pdfrwt>
<totfact> 0.98901463E+03</totfact>
</mgrwt>
</event>
<event>
 6    1  0.7270761E-006  0.2257166E+03  0.7546771E-02  0.1132969E+00
          1   -1    0    0  501    0  0.00000000000E+00  0.00000000000E+00  0.17619882052E+04  0.17619882052E+04  0.00000000000E+00 0. -1.
         -1   -1    0    0    0  501 -0.00000000000E+00 -0.00000000000E+00 -0.26860462830E+02  0.26860462830E+02  0.00000000000E+00 0.  1.
          5    1    1    2  502    0 -0.27791375807E+02  0.12160835485E+02  0.44553950102E+03  0.44659577188E+03  0.47000000000E+01 0.  1.
         -5    1    1    2    0  502 -0.15813415924E+03 -0.39558419768E+02  0.51974494083E+03  0.54472761488E+03  0.47000000000E+01 0.  1.
        -11    1    1    2    0    0  0.12722134420E+03  0.55475263879E+02  0.59478801690E+03  0.61076637135E+03  0.00000000000E+00 0.  1.
         11    1    1    2    0    0  0.58704190847E+02 -0.28077679595E+02  0.17505528362E+03  0.18675890993E+03  0.00000000000E+00 0. -1.
<mgrwt>
<rscale>  0 0.22122985E+03</rscale>
<asrwt>0</asrwt>
<pdfrwt beam="1">  1        1 0.27107502E+00 0.22571664E+03</pdfrwt>
<pdfrwt beam="2">  1       -1 0.41323803E-02 0.22571664E+03</pdfrwt>
<totfact> 0.11318712E+03</totfact>
</mgrwt>
</event>
<event>
 6    1  0.7270761E-006  0.1294396E+03  0.7546771E-02  0.1242691E+00
          1   -1    0    0  501    0  0.00000000000E+00  0.00000000000E+00  0.33836897034E+03  0.33836897034E+03  0.00000000000E+00 0. -1.
         -1   -1    0    0    0  501 -0.00000000000E+00 -0.00000000000E+00 -0.51068982320E+02  0.51068982320E+02  0.00000000000E+00 0.  1.
          5    1    1    2  502    0 -0.31026171257E+02  0.24264800326E+02 -0.10539272764E+02  0.41043514812E+02  0.47000000000E+01 0. -1.
         -5    1    1    2    0  502  0.60177097182E+02 -0.41160686347E+02  0.70799587560E+02  0.10173572000E+03  0.47000000000E+01 0. -1.
        -11    1    1    2    0    0 -0.51425677095E+02  0.33555328177E+02  0.10634138487E+03  0.12279678518E+03  0.00000000000E+00 0.  1.
         11    1    1    2    0    0  0.22274751170E+02 -0.16659442156E+02  0.12069828835E+03  0.12386193267E+03  0.00000000000E+00 0. -1.
<mgrwt>
<rscale>  0 0.12024659E+03</rscale>
<asrwt>0</asrwt>
<pdfrwt beam="1">  1        1 0.52056763E-01 0.12943958E+03</pdfrwt>
<pdfrwt beam="2">  1       -1 0.78567667E-02 0.12943958E+03</pdfrwt>
<totfact> 0.63368983E+03</totfact>
</mgrwt>
</event>
<event>
 6    1  0.7270761E-006  0.1683715E+03  0.7546771E-02  0.1186372E+00
          2   -1    0    0  501    0  0.00000000000E+00  0.00000000000E+00  0.46646045937E+03  0.46646045937E+03  0.00000000000E+00 0. -1.
         -2   -1    0    0    0  501 -0.00000000000E+00 -0.00000000000E+00 -0.64943678738E+02  0.64943678738E+02  0.00000000000E+00 0.  1.
          5    1    1    2  502    0  0.24106226755E+02  0.91543461905E+02 -0.27806160895E+00  0.94781237089E+02  0.47000000000E+01 0.  1.
         -5    1    1    2    0  502 -0.56314416162E+01  0.19735544023E+02  0.97282981897E+02  0.99535287207E+02  0.47000000000E+01 0.  1.
        -11    1    1    2    0    0 -0.25482305072E+02 -0.12581647404E+03  0.27349170674E+03  0.30212058299E+03  0.00000000000E+00 0.  1.
         11    1    1    2    0    0  0.70075199334E+01  0.14537468112E+02  0.31020153603E+02  0.34967030819E+02  0.00000000000E+00 0. -1.
<mgrwt>
<rscale>  0 0.16207694E+03</rscale>
<asrwt>0</asrwt>
<pdfrwt beam="1">  1        2 0.71763146E-01 0.16837149E+03</pdfrwt>
<pdfrwt beam="2">  1       -2 0.99913355E-02 0.16837149E+03</pdfrwt>
<totfact> 0.43650635E+03</totfact>
</mgrwt>
</event>
<event>
 6    1  0.7270761E-006  0.1302906E+03  0.7546771E-02  0.1241849E+00
          1   -1    0    0  501    0  0.00000000000E+00  0.00000000000E+00  0.46303508070E+03  0.46303508070E+03  0.00000000000E+00 0. -1.
         -1   -1    0    0    0  501 -0.00000000000E+00 -0.00000000000E+00 -0.31355237835E+02  0.31355237835E+02  0.00000000000E+00 0.  1.
          5    1    1    2  502    0  0.10250558435E+02 -0.44421194027E+01 -0.20084058375E+02  0.23457744432E+02  0.47000000000E+01 0. -1.
         -5    1    1    2    0  502  0.23088491060E+02  0.19878352591E+02  0.18093081790E+03  0.18353821996E+03  0.47000000000E+01 0. -1.
        -11    1    1    2    0    0  0.12081389574E+02  0.74097830164E+01  0.26298275106E+01  0.14414605479E+02  0.00000000000E+00 0.  1.
         11    1    1    2    0    0 -0.45420439069E+02 -0.22846016204E+02  0.26820325582E+03  0.27297974866E+03  0.00000000000E+00 0. -1.
<mgrwt>
<rscale>  0 0.12075997E+03</rscale>
<asrwt>0</asrwt>
<pdfrwt beam="1">  1        1 0.71236161E-01 0.13029063E+03</pdfrwt>
<pdfrwt beam="2">  1       -1 0.48238831E-02 0.13029063E+03</pdfrwt>
<totfact> 0.88326137E+03</totfact>
</mgrwt>
</event>
<event>
 6    1  0.7270761E-006  0.1432090E+03  0.7546771E-02  0.1219323E+00
         -4   -1    0    0    0  501 -0.00000000000E+00  0.00000000000E+00  0.35754750046E+03  0.35754750046E+03  0.00000000000E+00 0.  1.
          4   -1    0    0  501    0  0.00000000000E+00 -0.00000000000E+00 -0.48390862755E+02  0.48390862755E+02  0.00000000000E+00 0. -1.
          5    1    1    2  502    0  0.45191193047E+02  0.84715993358E+02  0.15133151634E+03  0.17928290855E+03  0.47000000000E+01 0.  1.
         -5    1    1    2    0  502 -0.43759046168E+02 -0.14839531555E+02  0.57072405112E+02  0.73582710221E+02  0.47000000000E+01 0.  1.
        -11    1    1    2    0    0  0.12361249982E+02 -0.19884247916E+02  0.98413017588E+02  0.10115980351E+03  0.00000000000E+00 0.  1.
         11    1    1    2    0    0 -0.13793396860E+02 -0.49992213887E+02  0.23396986646E+01  0.51912940931E+02  0.00000000000E+00 0. -1.
<mgrwt>
<rscale>  0 0.13563701E+03</rscale>
<asrwt>0</asrwt>
<pdfrwt beam="2">  1        4 0.74447484E-02 0.14320903E+03</pdfrwt>
<pdfrwt beam="1">  1       -4 0.55007306E-01 0.14320903E+03</pdfrwt>
<totfact> 0.66352209E+02</totfact>
</mgrwt>
</event>
<event>
 6    1  0.7270761E-006  0.1316783E+03  0.7546771E-02  0.1238824E+00
         -1   -1    0    0    0  501 -0.00000000000E+00  0.00000000000E+00  0.11597387495E+03  0.11597387495E+03  0.00000000000E+00 0.  1.
          1   -1    0    0  501    0  0.00000000000E+00 -0.00000000000E+00 -0.11562379985E+03  0.11562379985E+03  0.00000000000E+00 0. -1.
          5    1    1    2  502    0 -0.74765968615E+01  0.39279227204E+02  0.28137046881E+02  0.49117620031E+02  0.47000000000E+01 0. -1.
         -5    1    1    2    0  502  0.24158121326E+02 -0.77153910140E+02 -0.17965446329E+02  0.82952926034E+02  0.47000000000E+01 0. -1.
        -11    1    1    2    0    0 -0.12273622268E+01  0.37316175526E+02 -0.46551486794E+02  0.59674486144E+02  0.00000000000E+00 0. -1.
         11    1    1    2    0    0 -0.15454162238E+02  0.55850741031E+00  0.36729961344E+02  0.39852642589E+02  0.00000000000E+00 0.  1.
<mgrwt>
<rscale>  0 0.12262802E+03</rscale>
<asrwt>0</asrwt>
<pdfrwt beam="2">  1        1 0.17788277E-01 0.13167827E+03</pdfrwt>
<pdfrwt beam="1">  1       -1 0.17842135E-01 0.13167827E+03</pdfrwt>
<totfact> 0.68401808E+03</totfact>
</mgrwt>
</event>
<event>
 6    1  0.7270761E-006  0.1270872E+03  0.7546771E-02  0.1247443E+00
         -2   -1    0    0    0  501 -0.00000000000E+00  0.00000000000E+00  0.13315189318E+03  0.13315189318E+03  0.00000000000E+00 0.  1.
          2   -1    0    0  501    0  0.00000000000E+00 -0.00000000000E+00 -0.12334687669E+03  0.12334687669E+03  0.00000000000E+00 0. -1.
          5    1    1    2  502    0  0.12680140830E+02 -0.54416701726E+02  0.77971203207E+02  0.96039376964E+02  0.47000000000E+01 0.  1.
         -5    1    1    2    0  502  0.92711381004E+01  0.47905809336E+02 -0.70064563297E+01  0.49518693441E+02  0.47000000000E+01 0.  1.
        -11    1    1    2    0    0  0.21382470928E+02  0.27754478588E+02 -0.50587483687E+02  0.61535474732E+02  0.00000000000E+00 0. -1.
         11    1    1    2    0    0 -0.43333749859E+02 -0.21243586197E+02 -0.10572246699E+02  0.49405224740E+02  0.00000000000E+00 0.  1.
<mgrwt>
<rscale>  0 0.11740376E+03</rscale>
<asrwt>0</asrwt>
<pdfrwt beam="2">  1        2 0.18976443E-01 0.12708720E+03</pdfrwt>
<pdfrwt beam="1">  1       -2 0.20484906E-01 0.12708720E+03</pdfrwt>
<totfact> 0.56368380E+03</totfact>
</mgrwt>
</event>
<event>
 6    1  0.7270761E-006  0.3378212E+03  0.7546771E-02  0.1067728E+00
         -4   -1    0    0    0  501 -0.00000000000E+00  0.00000000000E+00  0.45678364252E+02  0.45678364252E+02  0.00000000000E+00 0. -1.
          4   -1    0    0  501    0  0.00000000000E+00 -0.00000000000E+00 -0.62460182303E+03  0.62460182303E+03  0.00000000000E+00 0.  1.
          5    1    1    2  502    0 -0.30910323798E+02 -0.10527555167E+03 -0.19575339427E+03  0.22445460848E+03  0.47000000000E+01 0.  1.
         -5    1    1    2    0  502  0.41850831730E+02  0.45907712433E+01 -0.26706810503E+02  0.50079047758E+02  0.47000000000E+01 0.  1.
        -11    1    1    2    0    0  0.21457527593E+02  0.90429859684E+02 -0.34872052986E+03  0.36089332628E+03  0.00000000000E+00 0.  1.
         11    1    1    2    0    0 -0.32398035524E+02  0.10254920742E+02 -0.77427241477E+01  0.34853204766E+02  0.00000000000E+00 0. -1.
<mgrwt>
<rscale>  0 0.33782119E+03</rscale>
<asrwt>0</asrwt>
<pdfrwt beam="2">  1        4 0.96092587E-01 0.33782119E+03</pdfrwt>
<pdfrwt beam="1">  1       -4 0.70274407E-02 0.33782119E+03</pdfrwt>
<totfact> 0.24529093E+02</totfact>
</mgrwt>
</event>
<event>
 6    1  0.7270761E-006  0.2929128E+03  0.7546771E-02  0.1088838E+00
          2   -1    0    0  501    0  0.00000000000E+00  0.00000000000E+00  0.95767727386E+02  0.95767727386E+02  0.00000000000E+00 0. -1.
         -2   -1    0    0    0  501 -0.00000000000E+00 -0.00000000000E+00 -0.22397392275E+03  0.22397392275E+03  0.00000000000E+00 0.  1.
          5    1    1    2  502    0  0.53870289836E+02  0.65738823861E+02 -0.12820994944E+03  0.15389438660E+03  0.47000000000E+01 0. -1.
         -5    1    1    2    0  502 -0.36657084337E+00  0.11714920453E+02  0.28833733236E+02  0.31477736700E+02  0.47000000000E+01 0. -1.
        -11    1    1    2    0    0 -0.43825733310E+02 -0.27196473800E+02 -0.56240666867E+02  0.76310914665E+02  0.00000000000E+00 0.  1.
         11    1    1    2    0    0 -0.96779856824E+01 -0.50257270515E+02  0.27410687713E+02  0.58058612172E+02  0.00000000000E+00 0. -1.
<mgrwt>
<rscale>  0 0.29291278E+03</rscale>
<asrwt>0</asrwt>
<pdfrwt beam="1">  1        2 0.14733497E-01 0.29291278E+03</pdfrwt>
<pdfrwt beam="2">  1       -2 0.34457527E-01 0.29291278E+03</pdfrwt>
<totfact> 0.31440023E+03</totfact>
</mgrwt>
</event>
<event>
 6    1  0.7270761E-006  0.1284672E+03  0.7546771E-02  0.1241844E+00
          4   -1    0    0  501    0  0.00000000000E+00  0.00000000000E+00  0.13645970118E+02  0.13645970118E+02  0.00000000000E+00 0. -1.
         -4   -1    0    0    0  501 -0.00000000000E+00 -0.00000000000E+00 -0.10043890452E+04  0.10043890452E+04  0.00000000000E+00 0.  1.
          5    1    1    2  502    0 -0.57006683956E+01 -0.52338017633E+02 -0.16032143891E+03  0.16881001003E+03  0.47000000000E+01 0.  1.
         -5    1    1    2    0  502  0.35331348137E+02  0.51266187867E+02 -0.50080765015E+03  0.50468496969E+03  0.47000000000E+01 0.  1.
        -11    1    1    2    0    0 -0.63271254892E+02 -0.10635063593E+02 -0.19443485489E+03  0.20474684141E+03  0.00000000000E+00 0.  1.
         11    1    1    2    0    0  0.33640575151E+02  0.11706893359E+02 -0.13517913108E+03  0.13979319414E+03  0.00000000000E+00 0. -1.
<mgrwt>
<rscale>  0 0.12076251E+03</rscale>
<asrwt>0</asrwt>
<pdfrwt beam="1">  1        4 0.20993796E-02 0.12846718E+03</pdfrwt>
<pdfrwt beam="2">  1       -4 0.15452142E+00 0.12846718E+03</pdfrwt>
<totfact> 0.45853351E+02</totfact>
</mgrwt>
</event>
<event>
 6    1  0.7270761E-006  0.1627955E+03  0.7546771E-02  0.1193107E+00
         -2   -1    0    0    0  501 -0.00000000000E+00  0.00000000000E+00  0.19327227651E+03  0.19327227651E+03  0.00000000000E+00 0.  1.
          2   -1    0    0  501    0  0.00000000000E+00 -0.00000000000E+00 -0.14847099982E+03  0.14847099982E+03  0.00000000000E+00 0. -1.
          5    1    1    2  502    0 -0.26807897598E+02  0.68839695945E+01 -0.28741211039E+02  0.40177103219E+02  0.47000000000E+01 0.  1.
         -5    1    1    2    0  502 -0.69810434383E+02  0.32388387653E+02  0.13119871495E+03  0.15217653304E+03  0.47000000000E+01 0.  1.
        -11    1    1    2    0    0  0.28598464841E+02 -0.22446449487E+02  0.22632562575E+02  0.42824621126E+02  0.00000000000E+00 0.  1.
         11    1    1    2    0    0  0.68019867140E+02 -0.16825907761E+02 -0.80288789790E+02  0.10656501895E+03  0.00000000000E+00 0. -1.
<mgrwt>
<rscale>  0 0.15615507E+03</rscale>
<asrwt>0</asrwt>
<pdfrwt beam="2">  1        2 0.22841692E-01 0.16279552E+03</pdfrwt>
<pdfrwt beam="1">  1       -2 0.29734196E-01 0.16279552E+03</pdfrwt>
<totfact> 0.24194321E+03</totfact>
</mgrwt>
</event>
<event>
 6    1  0.7270761E-006  0.1155895E+03  0.7546771E-02  0.1291641E+00
         -3   -1    0    0    0  501 -0.00000000000E+00  0.00000000000E+00  0.10071894814E+03  0.10071894814E+03  0.00000000000E+00 0.  1.
          3   -1    0    0  501    0  0.00000000000E+00 -0.00000000000E+00 -0.78366923831E+02  0.78366923831E+02  0.00000000000E+00 0. -1.
          5    1    1    2  502    0  0.40739894955E+02 -0.31656848179E+02 -0.19663063436E+02  0.55413185626E+02  0.47000000000E+01 0. -1.
         -5    1    1    2    0  502 -0.26601944658E+02  0.24601993228E+01  0.62020061599E+02  0.67692644217E+02  0.47000000000E+01 0.  1.
        -11    1    1    2    0    0  0.78753297083E+01  0.21018343821E+02 -0.23199759330E+02  0.32280341199E+02  0.00000000000E+00 0. -1.
         11    1    1    2    0    0 -0.22013280005E+02  0.81783050356E+01  0.31947854763E+01  0.23699700928E+02  0.00000000000E+00 0.  1.
<mgrwt>
<rscale>  0 0.94793805E+02</rscale>
<asrwt>0</asrwt>
<pdfrwt beam="2">  1        3 0.12056450E-01 0.11558949E+03</pdfrwt>
<pdfrwt beam="1">  1       -3 0.15495223E-01 0.11558949E+03</pdfrwt>
<totfact> 0.41748751E+03</totfact>
</mgrwt>
</event>
<event>
 6    1  0.7270761E-006  0.1686464E+03  0.7546771E-02  0.1186169E+00
          1   -1    0    0  501    0  0.00000000000E+00  0.00000000000E+00  0.27056543435E+03  0.27056543435E+03  0.00000000000E+00 0. -1.
         -1   -1    0    0    0  501 -0.00000000000E+00 -0.00000000000E+00 -0.98442724232E+02  0.98442724232E+02  0.00000000000E+00 0.  1.
          5    1    1    2  502    0 -0.66992353812E+02  0.14551837478E+02  0.52714249762E+02  0.86606082761E+02  0.47000000000E+01 0. -1.
         -5    1    1    2    0  502 -0.28126134404E+02 -0.81016883823E+02 -0.12433185518E+02  0.86784151796E+02  0.47000000000E+01 0.  1.
        -11    1    1    2    0    0  0.11341738621E+02  0.48679694585E+02  0.83379001113E+02  0.97213196257E+02  0.00000000000E+00 0. -1.
         11    1    1    2    0    0  0.83776749595E+02  0.17785351759E+02  0.48462644762E+02  0.98404727769E+02  0.00000000000E+00 0.  1.
<mgrwt>
<rscale>  0 0.16225942E+03</rscale>
<asrwt>0</asrwt>
<pdfrwt beam="1">  1        1 0.41625451E-01 0.16864640E+03</pdfrwt>
<pdfrwt beam="2">  1       -1 0.15145035E-01 0.16864640E+03</pdfrwt>
<totfact> 0.30905070E+03</totfact>
</mgrwt>
</event>
<event>
 6    1  0.7270761E-006  0.1303937E+03  0.7546771E-02  0.1236421E+00
          1   -1    0    0  501    0  0.00000000000E+00  0.00000000000E+00  0.89745206182E+02  0.89745206182E+02  0.00000000000E+00 0. -1.
         -1   -1    0    0    0  501 -0.00000000000E+00 -0.00000000000E+00 -0.55599529086E+03  0.55599529086E+03  0.00000000000E+00 0.  1.
          5    1    1    2  502    0  0.24666784310E+02  0.51495909278E+02 -0.24542550268E+03  0.25202390023E+03  0.47000000000E+01 0. -1.
         -5    1    1    2    0  502 -0.70521242258E+02 -0.17223311631E+02 -0.26724774614E+03  0.27697172399E+03  0.47000000000E+01 0.  1.
        -11    1    1    2    0    0  0.15423479030E+02 -0.60428966576E+02  0.11226063943E+02  0.63368511253E+02  0.00000000000E+00 0.  1.
         11    1    1    2    0    0  0.30430978917E+02  0.26156368928E+02  0.35197100191E+02  0.53376361577E+02  0.00000000000E+00 0. -1.
<mgrwt>
<rscale>  0 0.12413892E+03</rscale>
<asrwt>0</asrwt>
<pdfrwt beam="1">  1        1 0.13806955E-01 0.13039367E+03</pdfrwt>
<pdfrwt beam="2">  1       -1 0.85537737E-01 0.13039367E+03</pdfrwt>
<totfact> 0.58732015E+02</totfact>
</mgrwt>
</event>
<event>
 6    1  0.7270761E-006  0.1830493E+03  0.7546771E-02  0.1173077E+00
         -2   -1    0    0    0  501 -0.00000000000E+00  0.00000000000E+00  0.55820779575E+03  0.55820779575E+03  0.00000000000E+00 0.  1.
          2   -1    0    0  501    0  0.00000000000E+00 -0.00000000000E+00 -0.57594183881E+02  0.57594183881E+02  0.00000000000E+00 0. -1.
          5    1    1    2  502    0 -0.53587449480E+02 -0.80329328872E+02  0.10496892552E+03  0.14270592540E+03  0.47000000000E+01 0. -1.
         -5    1    1    2    0  502 -0.44806018057E+02  0.13560273445E+02  0.27571795409E+03  0.27970330795E+03  0.47000000000E+01 0.  1.
        -11    1    1    2    0    0  0.41896589219E+01  0.55815081937E+02  0.34487204583E+02  0.65743774560E+02  0.00000000000E+00 0.  1.
         11    1    1    2    0    0  0.94203808615E+02  0.10953973490E+02  0.85439527677E+02  0.12764897172E+03  0.00000000000E+00 0. -1.
<mgrwt>
<rscale>  0 0.17465674E+03</rscale>
<asrwt>0</asrwt>
<pdfrwt beam="2">  1        2 0.88606440E-02 0.18304934E+03</pdfrwt>
<pdfrwt beam="1">  1       -2 0.85878119E-01 0.18304934E+03</pdfrwt>
<totfact> 0.89595325E+02</totfact>
</mgrwt>
</event>
<event>
 6    1  0.7270761E-006  0.2898299E+03  0.7546771E-02  0.1090438E+00
         -4   -1    0    0    0  501 -0.00000000000E+00  0.00000000000E+00  0.97239141974E+02  0.97239141974E+02  0.00000000000E+00 0.  1.
          4   -1    0    0  501    0  0.00000000000E+00 -0.00000000000E+00 -0.21596592655E+03  0.21596592655E+03  0.00000000000E+00 0. -1.
          5    1    1    2  502    0  0.32668626965E+02 -0.83027395255E+01 -0.21191808139E+02  0.40091862062E+02  0.47000000000E+01 0. -1.
         -5    1    1    2    0  502 -0.10849784305E+03 -0.36542418165E+02 -0.21082429646E+01  0.11460220312E+03  0.47000000000E+01 0. -1.
        -11    1    1    2    0    0  0.52380342568E+02  0.17862971399E+02  0.13335340044E+01  0.55358507456E+02  0.00000000000E+00 0.  1.
         11    1    1    2    0    0  0.23448873513E+02  0.26982186291E+02 -0.96760267480E+02  0.10315249589E+03  0.00000000000E+00 0. -1.
<mgrwt>
<rscale>  0 0.28982989E+03</rscale>
<asrwt>0</asrwt>
<pdfrwt beam="2">  1        4 0.33225527E-01 0.28982989E+03</pdfrwt>
<pdfrwt beam="1">  1       -4 0.14959868E-01 0.28982989E+03</pdfrwt>
<totfact> 0.62490956E+02</totfact>
</mgrwt>
</event>
<event>
 6    1  0.7270761E-006  0.1331532E+03  0.7546771E-02  0.1235943E+00
          2   -1    0    0  501    0  0.00000000000E+00  0.00000000000E+00  0.16445378892E+02  0.16445378892E+02  0.00000000000E+00 0. -1.
         -2   -1    0    0    0  501 -0.00000000000E+00 -0.00000000000E+00 -0.84956187627E+03  0.84956187627E+03  0.00000000000E+00 0.  1.
          5    1    1    2  502    0 -0.43533068449E+02 -0.43894109596E+02 -0.28744341407E+03  0.29405378283E+03  0.47000000000E+01 0. -1.
         -5    1    1    2    0  502  0.53008174035E+01  0.69247567278E+02 -0.23518265265E+03  0.24526780129E+03  0.47000000000E+01 0. -1.
        -11    1    1    2    0    0  0.38018423456E+02  0.18374396807E+02 -0.24034731136E+03  0.24402837757E+03  0.00000000000E+00 0.  1.
         11    1    1    2    0    0  0.21382758902E+00 -0.43727854489E+02 -0.70143119298E+02  0.82657293479E+02  0.00000000000E+00 0. -1.
<mgrwt>
<rscale>  0 0.12444272E+03</rscale>
<asrwt>0</asrwt>
<pdfrwt beam="1">  1        2 0.25300577E-02 0.13315317E+03</pdfrwt>
<pdfrwt beam="2">  1       -2 0.13070186E+00 0.13315317E+03</pdfrwt>
<totfact> 0.17070387E+03</totfact>
</mgrwt>
</event>
<event>
 6    1  0.7382047E-006  0.3351156E+03  0.7546771E-02  0.1068896E+00
         -1   -1    0    0    0  501 -0.00000000000E+00  0.00000000000E+00  0.96505198041E+02  0.96505198041E+02  0.00000000000E+00 0.  1.
          1   -1    0    0  501    0  0.00000000000E+00 -0.00000000000E+00 -0.29092331568E+03  0.29092331568E+03  0.00000000000E+00 0. -1.
          5    1    1    2  502    0  0.20378540723E+01 -0.26729611421E+02  0.25217932051E+02  0.37103356625E+02  0.47000000000E+01 0.  1.
         -5    1    1    2    0  502  0.11848196364E+03 -0.10879478401E+02 -0.10063697128E+03  0.15590455012E+03  0.47000000000E+01 0.  1.
        -11    1    1    2    0    0 -0.83092129684E+02  0.41291635078E+01 -0.23380485432E+02  0.86417585627E+02  0.00000000000E+00 0.  1.
         11    1    1    2    0    0 -0.37427688033E+02  0.33479926314E+02 -0.95618592985E+02  0.10800302136E+03  0.00000000000E+00 0. -1.
<mgrwt>
<rscale>  0 0.33511558E+03</rscale>
<asrwt>0</asrwt>
<pdfrwt beam="2">  1        1 0.44757433E-01 0.33511558E+03</pdfrwt>
<pdfrwt beam="1">  1       -1 0.14846954E-01 0.33511558E+03</pdfrwt>
<totfact> 0.29822221E+03</totfact>
</mgrwt>
</event>
<event>
 6    1  0.7270761E-006  0.3516262E+03  0.7546771E-02  0.1061950E+00
         -4   -1    0    0    0  501 -0.00000000000E+00  0.00000000000E+00  0.24625110636E+03  0.24625110636E+03  0.00000000000E+00 0.  1.
          4   -1    0    0  501    0  0.00000000000E+00 -0.00000000000E+00 -0.12552325485E+03  0.12552325485E+03  0.00000000000E+00 0. -1.
          5    1    1    2  502    0 -0.12577736163E+03  0.35085250065E+02  0.78812381391E+02  0.15259227022E+03  0.47000000000E+01 0. -1.
         -5    1    1    2    0  502  0.19059114148E+02  0.22834722899E+01  0.68397233833E+02  0.71195053717E+02  0.47000000000E+01 0. -1.
        -11    1    1    2    0    0  0.55369641242E+02  0.24927558322E+02 -0.28836884864E+02  0.67221620509E+02  0.00000000000E+00 0.  1.
         11    1    1    2    0    0  0.51348606237E+02 -0.62296280677E+02  0.23551211488E+01  0.80765416759E+02  0.00000000000E+00 0. -1.
<mgrwt>
<rscale>  0 0.35162617E+03</rscale>
<asrwt>0</asrwt>
<pdfrwt beam="2">  1        4 0.19311270E-01 0.35162617E+03</pdfrwt>
<pdfrwt beam="1">  1       -4 0.37884786E-01 0.35162617E+03</pdfrwt>
<totfact> 0.31325647E+02</totfact>
</mgrwt>
</event>
<event>
 6    1  0.7270761E-006  0.1390990E+03  0.7546771E-02  0.1226005E+00
         -2   -1    0    0    0  501 -0.00000000000E+00  0.00000000000E+00  0.14071615380E+03  0.14071615380E+03  0.00000000000E+00 0.  1.
          2   -1    0    0  501    0  0.00000000000E+00 -0.00000000000E+00 -0.20122457860E+03  0.20122457860E+03  0.00000000000E+00 0. -1.
          5    1    1    2  502    0 -0.57368843716E+02  0.46534616151E+02  0.93360045852E+02  0.11914211216E+03  0.47000000000E+01 0.  1.
         -5    1    1    2    0  502 -0.33873555407E+01 -0.40875501501E+02 -0.10720794518E+02  0.42653326196E+02  0.47000000000E+01 0.  1.
        -11    1    1    2    0    0  0.51551881829E+01 -0.42235173590E+02 -0.49786557605E+02  0.65491122846E+02  0.00000000000E+00 0.  1.
         11    1    1    2    0    0  0.55601011074E+02  0.36576058939E+02 -0.93361118529E+02  0.11465417120E+03  0.00000000000E+00 0. -1.
<mgrwt>
<rscale>  0 0.13098276E+03</rscale>
<asrwt>0</asrwt>
<pdfrwt beam="2">  1        2 0.30957628E-01 0.13909895E+03</pdfrwt>
<pdfrwt beam="1">  1       -2 0.21648639E-01 0.13909895E+03</pdfrwt>
<totfact> 0.30009923E+03</totfact>
</mgrwt>
</event>
<event>
 6    1  0.7270761E-006  0.1495689E+03  0.7546771E-02  0.1210035E+00
          2   -1    0    0  501    0  0.00000000000E+00  0.00000000000E+00  0.23603695863E+03  0.23603695863E+03  0.00000000000E+00 0. -1.
         -2   -1    0    0    0  501 -0.00000000000E+00 -0.00000000000E+00 -0.80517525085E+02  0.80517525085E+02  0.00000000000E+00 0.  1.
          5    1    1    2  502    0  0.63763704936E+02 -0.85187961112E+01  0.89242238341E+02  0.11011197509E+03  0.47000000000E+01 0. -1.
         -5    1    1    2    0  502 -0.43498275140E+00 -0.43770275576E+02 -0.27271788766E+02  0.51786742478E+02  0.47000000000E+01 0. -1.
        -11    1    1    2    0    0 -0.46876408594E+02  0.10481938878E+02 -0.30388498260E+01  0.48130066836E+02  0.00000000000E+00 0.  1.
         11    1    1    2    0    0 -0.16452313591E+02  0.41807132809E+02  0.96587833795E+02  0.10652569931E+03  0.00000000000E+00 0. -1.
<mgrwt>
<rscale>  0 0.14247656E+03</rscale>
<asrwt>0</asrwt>
<pdfrwt beam="1">  1        2 0.36313378E-01 0.14956891E+03</pdfrwt>
<pdfrwt beam="2">  1       -2 0.12387312E-01 0.14956891E+03</pdfrwt>
<totfact> 0.63912222E+03</totfact>
</mgrwt>
</event>
<event>
 6    1  0.7270761E-006  0.1303287E+03  0.7546771E-02  0.1241979E+00
         -3   -1    0    0    0  501 -0.00000000000E+00  0.00000000000E+00  0.10407454532E+03  0.10407454532E+03  0.00000000000E+00 0.  1.
          3   -1    0    0  501    0  0.00000000000E+00 -0.00000000000E+00 -0.21405114056E+03  0.21405114056E+03  0.00000000000E+00 0. -1.
          5    1    1    2  502    0  0.66964903846E+02 -0.34002520136E+02  0.18674208394E+02  0.77532482108E+02  0.47000000000E+01 0.  1.
         -5    1    1    2    0  502 -0.31511924734E+02  0.44207468034E+02  0.24654575469E+02  0.59810030278E+02  0.47000000000E+01 0.  1.
        -11    1    1    2    0    0 -0.62624687552E+02 -0.23134025618E+01 -0.12926569687E+03  0.14365522513E+03  0.00000000000E+00 0. -1.
         11    1    1    2    0    0  0.27171708440E+02 -0.78915453358E+01 -0.24039682240E+02  0.37127948362E+02  0.00000000000E+00 0.  1.
<mgrwt>
<rscale>  0 0.12068008E+03</rscale>
<asrwt>0</asrwt>
<pdfrwt beam="2">  1        3 0.32930944E-01 0.13032875E+03</pdfrwt>
<pdfrwt beam="1">  1       -3 0.16011469E-01 0.13032875E+03</pdfrwt>
<totfact> 0.68717688E+02</totfact>
</mgrwt>
</event>
<event>
 6    1  0.7270761E-006  0.1431418E+03  0.7546771E-02  0.1219807E+00
          2   -1    0    0  501    0  0.00000000000E+00  0.00000000000E+00  0.11921126060E+03  0.11921126060E+03  0.00000000000E+00 0. -1.
         -2   -1    0    0    0  501 -0.00000000000E+00 -0.00000000000E+00 -0.14748330886E+03  0.14748330886E+03  0.00000000000E+00 0.  1.
          5    1    1    2  502    0  0.72665103225E+02 -0.24561252322E+02 -0.18058420112E+02  0.78940920183E+02  0.47000000000E+01 0.  1.
         -5    1    1    2    0  502 -0.14890323965E+02  0.63675424938E+02 -0.29516550119E+02  0.71899918079E+02  0.47000000000E+01 0.  1.
        -11    1    1    2    0    0 -0.34147043017E+02  0.33822182535E+01  0.48294289126E+02  0.59243550783E+02  0.00000000000E+00 0. -1.
         11    1    1    2    0    0 -0.23627736244E+02 -0.42496390870E+02 -0.28991367159E+02  0.56610180416E+02  0.00000000000E+00 0.  1.
<mgrwt>
<rscale>  0 0.13529261E+03</rscale>
<asrwt>0</asrwt>
<pdfrwt beam="1">  1        2 0.18340194E-01 0.14314182E+03</pdfrwt>
<pdfrwt beam="2">  1       -2 0.22689740E-01 0.14314182E+03</pdfrwt>
<totfact> 0.49596306E+03</totfact>
</mgrwt>
</event>
<event>
 6    1  0.7270761E-006  0.1491745E+03  0.7546771E-02  0.1214234E+00
         -1   -1    0    0    0  501 -0.00000000000E+00  0.00000000000E+00  0.18647472400E+02  0.18647472400E+02  0.00000000000E+00 0.  1.
          1   -1    0    0  501    0  0.00000000000E+00 -0.00000000000E+00 -0.95870445960E+03  0.95870445960E+03  0.00000000000E+00 0. -1.
          5    1    1    2  502    0  0.69232367204E+01  0.38877260964E+02 -0.43043723149E+02  0.58602258739E+02  0.47000000000E+01 0.  1.
         -5    1    1    2    0  502 -0.28641227807E+02  0.39581841786E+02 -0.57907342066E+03  0.58114985902E+03  0.47000000000E+01 0.  1.
        -11    1    1    2    0    0  0.51476071406E+02 -0.50353904988E+02 -0.21870433599E+03  0.23025396469E+03  0.00000000000E+00 0. -1.
         11    1    1    2    0    0 -0.29758080319E+02 -0.28105197763E+02 -0.99235507407E+02  0.10734584955E+03  0.00000000000E+00 0.  1.
<mgrwt>
<rscale>  0 0.13932969E+03</rscale>
<asrwt>0</asrwt>
<pdfrwt beam="2">  1        1 0.14749302E+00 0.14917450E+03</pdfrwt>
<pdfrwt beam="1">  1       -1 0.28688413E-02 0.14917450E+03</pdfrwt>
<totfact> 0.67522024E+03</totfact>
</mgrwt>
</event>
<event>
 6    1  0.7270761E-006  0.1564869E+03  0.7546771E-02  0.1201557E+00
         -1   -1    0    0    0  501 -0.00000000000E+00  0.00000000000E+00  0.24089349817E+03  0.24089349817E+03  0.00000000000E+00 0.  1.
          1   -1    0    0  501    0  0.00000000000E+00 -0.00000000000E+00 -0.96055868530E+02  0.96055868530E+02  0.00000000000E+00 0. -1.
          5    1    1    2  502    0 -0.56593115794E+02  0.13428722153E+02  0.22461652621E+02  0.62527811192E+02  0.47000000000E+01 0.  1.
         -5    1    1    2    0  502  0.41457746945E+02  0.79480490480E+02  0.11401252636E+03  0.14510974921E+03  0.47000000000E+01 0.  1.
        -11    1    1    2    0    0 -0.19366956296E+02 -0.11771452558E+02  0.30888457958E+02  0.38311133193E+02  0.00000000000E+00 0.  1.
         11    1    1    2    0    0  0.34502325145E+02 -0.81137760075E+02 -0.22525007306E+02  0.91000673099E+02  0.00000000000E+00 0. -1.
<mgrwt>
<rscale>  0 0.14912158E+03</rscale>
<asrwt>0</asrwt>
<pdfrwt beam="2">  1        1 0.14777826E-01 0.15648692E+03</pdfrwt>
<pdfrwt beam="1">  1       -1 0.37060538E-01 0.15648692E+03</pdfrwt>
<totfact> 0.26186595E+03</totfact>
</mgrwt>
</event>
<event>
 6    1  0.7270761E-006  0.1732407E+03  0.7546771E-02  0.1180786E+00
         -2   -1    0    0    0  501 -0.00000000000E+00  0.00000000000E+00  0.25634029605E+02  0.25634029605E+02  0.00000000000E+00 0. -1.
          2   -1    0    0  501    0  0.00000000000E+00 -0.00000000000E+00 -0.10546451564E+04  0.10546451564E+04  0.00000000000E+00 0.  1.
          5    1    1    2  502    0 -0.57064535720E+02  0.59323427843E+02 -0.18199277025E+03  0.19979761949E+03  0.47000000000E+01 0. -1.
         -5    1    1    2    0  502 -0.62841864192E+02 -0.62561777964E+02 -0.27188448434E+03  0.28601807422E+03  0.47000000000E+01 0. -1.
        -11    1    1    2    0    0  0.25092017795E+02 -0.36590569623E+02 -0.23385010879E+03  0.23802174800E+03  0.00000000000E+00 0.  1.
         11    1    1    2    0    0  0.94814382117E+02  0.39828919744E+02 -0.34128376339E+03  0.35644174427E+03  0.00000000000E+00 0. -1.
<mgrwt>
<rscale>  0 0.16721292E+03</rscale>
<asrwt>0</asrwt>
<pdfrwt beam="2">  1        2 0.16225308E+00 0.17324066E+03</pdfrwt>
<pdfrwt beam="1">  1       -2 0.39436974E-02 0.17324066E+03</pdfrwt>
<totfact> 0.67070482E+03</totfact>
</mgrwt>
</event>
<event>
 6    1  0.7270761E-006  0.2559988E+03  0.7546771E-02  0.1109571E+00
          1   -1    0    0  501    0  0.00000000000E+00  0.00000000000E+00  0.87822165826E+03  0.87822165826E+03  0.00000000000E+00 0. -1.
         -1   -1    0    0    0  501 -0.00000000000E+00 -0.00000000000E+00 -0.18655714086E+02  0.18655714086E+02  0.00000000000E+00 0.  1.
          5    1    1    2  502    0 -0.30143926470E+01  0.82734324191E+02  0.32580847614E+03  0.33619534215E+03  0.47000000000E+01 0. -1.
         -5    1    1    2    0  502 -0.80392183445E+00 -0.30037187169E+02  0.23146448594E+02  0.38219458210E+02  0.47000000000E+01 0. -1.
        -11    1    1    2    0    0  0.50163929354E+02 -0.29445968534E+02  0.29762472871E+03  0.30325560837E+03  0.00000000000E+00 0. -1.
         11    1    1    2    0    0 -0.46345614872E+02 -0.23251168488E+02  0.21298629074E+03  0.21920696361E+03  0.00000000000E+00 0.  1.
<mgrwt>
<rscale>  0 0.25599884E+03</rscale>
<asrwt>0</asrwt>
<pdfrwt beam="1">  1        1 0.13511099E+00 0.25599884E+03</pdfrwt>
<pdfrwt beam="2">  1       -1 0.28701105E-02 0.25599884E+03</pdfrwt>
<totfact> 0.79709063E+03</totfact>
</mgrwt>
</event>
<event>
 6    1  0.7270761E-006  0.1320952E+03  0.7546771E-02  0.1236678E+00
         -1   -1    0    0    0  501 -0.00000000000E+00  0.00000000000E+00  0.95237913930E+02  0.95237913930E+02  0.00000000000E+00 0.  1.
          1   -1    0    0  501    0  0.00000000000E+00 -0.00000000000E+00 -0.15785907673E+03  0.15785907673E+03  0.00000000000E+00 0. -1.
          5    1    1    2  502    0 -0.55928379379E+02  0.66473043717E+02  0.19321453056E+01  0.87019953726E+02  0.47000000000E+01 0. -1.
         -5    1    1    2    0  502  0.33063130930E+02 -0.30288732070E+02 -0.25529674385E+00  0.45085841389E+02  0.47000000000E+01 0. -1.
        -11    1    1    2    0    0 -0.50082857344E+01 -0.62718045822E+02 -0.31182223688E+02  0.70220846420E+02  0.00000000000E+00 0. -1.
         11    1    1    2    0    0  0.27873534183E+02  0.26533734176E+02 -0.33115787675E+02  0.50770349127E+02  0.00000000000E+00 0.  1.
<mgrwt>
<rscale>  0 0.12397605E+03</rscale>
<asrwt>0</asrwt>
<pdfrwt beam="2">  1        1 0.24286012E-01 0.13209515E+03</pdfrwt>
<pdfrwt beam="1">  1       -1 0.14651987E-01 0.13209515E+03</pdfrwt>
<totfact> 0.62885750E+03</totfact>
</mgrwt>
</event>
<event>
 6    1  0.7270761E-006  0.1349498E+03  0.7546771E-02  0.1233137E+00
         -2   -1    0    0    0  501 -0.00000000000E+00  0.00000000000E+00  0.12506059442E+03  0.12506059442E+03  0.00000000000E+00 0.  1.
          2   -1    0    0  501    0  0.00000000000E+00 -0.00000000000E+00 -0.11673533288E+03  0.11673533288E+03  0.00000000000E+00 0. -1.
          5    1    1    2  502    0  0.49613532191E+02  0.26974165886E+02 -0.38225811977E+02  0.68355035681E+02  0.47000000000E+01 0.  1.
         -5    1    1    2    0  502  0.12366507638E+01 -0.27704202161E+02  0.62803733112E+02  0.68814613385E+02  0.47000000000E+01 0.  1.
        -11    1    1    2    0    0 -0.28933357400E+02 -0.18441973126E+02  0.32874177619E+02  0.47517966048E+02  0.00000000000E+00 0.  1.
         11    1    1    2    0    0 -0.21916825555E+02  0.19172009401E+02 -0.49126837207E+02  0.57108312187E+02  0.00000000000E+00 0. -1.
<mgrwt>
<rscale>  0 0.12624473E+03</rscale>
<asrwt>0</asrwt>
<pdfrwt beam="2">  1        2 0.17959282E-01 0.13494976E+03</pdfrwt>
<pdfrwt beam="1">  1       -2 0.19240091E-01 0.13494976E+03</pdfrwt>
<totfact> 0.67015129E+03</totfact>
</mgrwt>
</event>
<event>
 6    1  0.7270761E-006  0.3605008E+03  0.7546771E-02  0.1058386E+00
          1   -1    0    0  501    0  0.00000000000E+00  0.00000000000E+00  0.12810863300E+03  0.12810863300E+03  0.00000000000E+00 0. -1.
         -1   -1    0    0    0  501 -0.00000000000E+00 -0.00000000000E+00 -0.25361444616E+03  0.25361444616E+03  0.00000000000E+00 0.  1.
          5    1    1    2  502    0 -0.71195904946E+02 -0.12145306638E+03 -0.29888756021E+02  0.14399698591E+03  0.47000000000E+01 0. -1.
         -5    1    1    2    0  502 -0.97752971833E+01  0.48003585932E+01 -0.67987965909E+02  0.69014878005E+02  0.47000000000E+01 0. -1.
        -11    1    1    2    0    0  0.99904548472E+01  0.42157049275E+02  0.28151006029E+02  0.51667253963E+02  0.00000000000E+00 0. -1.
         11    1    1    2    0    0  0.70980747282E+02  0.74495658514E+02 -0.55780097253E+02  0.11704396128E+03  0.00000000000E+00 0.  1.
<mgrwt>
<rscale>  0 0.36050076E+03</rscale>
<asrwt>0</asrwt>
<pdfrwt beam="1">  1        1 0.19709021E-01 0.36050076E+03</pdfrwt>
<pdfrwt beam="2">  1       -1 0.39017607E-01 0.36050076E+03</pdfrwt>
<totfact> 0.16867390E+03</totfact>
</mgrwt>
</event>
<event>
 6    1  0.7270761E-006  0.1407547E+03  0.7546771E-02  0.1223023E+00
         -2   -1    0    0    0  501 -0.00000000000E+00  0.00000000000E+00  0.60649288665E+02  0.60649288665E+02  0.00000000000E+00 0.  1.
          2   -1    0    0  501    0  0.00000000000E+00 -0.00000000000E+00 -0.28406376386E+03  0.28406376386E+03  0.00000000000E+00 0. -1.
          5    1    1    2  502    0 -0.89078500063E+02  0.12358936631E+02 -0.69130225078E+02  0.11352885319E+03  0.47000000000E+01 0.  1.
         -5    1    1    2    0  502  0.37655260909E+02  0.26886811689E+02 -0.87098574627E+01  0.47315652103E+02  0.47000000000E+01 0.  1.
        -11    1    1    2    0    0  0.27578302887E+02  0.18183630012E+02 -0.10386812729E+03  0.10899447260E+03  0.00000000000E+00 0. -1.
         11    1    1    2    0    0  0.23844936268E+02 -0.57429378332E+02 -0.41706265369E+02  0.74874074634E+02  0.00000000000E+00 0.  1.
<mgrwt>
<rscale>  0 0.13303355E+03</rscale>
<asrwt>0</asrwt>
<pdfrwt beam="2">  1        2 0.43702117E-01 0.14075467E+03</pdfrwt>
<pdfrwt beam="1">  1       -2 0.93306599E-02 0.14075467E+03</pdfrwt>
<totfact> 0.81849904E+03</totfact>
</mgrwt>
</event>
<event>
 6    1  0.7270761E-006  0.1165079E+03  0.7546771E-02  0.1251774E+00
         -3   -1    0    0    0  501 -0.00000000000E+00  0.00000000000E+00  0.39035617146E+03  0.39035617146E+03  0.00000000000E+00 0.  1.
          3   -1    0    0  501    0  0.00000000000E+00 -0.00000000000E+00 -0.36059490181E+02  0.36059490181E+02  0.00000000000E+00 0. -1.
          5    1    1    2  502    0  0.45449411978E+02  0.28394378380E+02  0.19367805256E+03  0.20101036743E+03  0.47000000000E+01 0. -1.
         -5    1    1    2    0  502 -0.37257587605E+02 -0.29794837745E+02  0.51011838889E+02  0.70001127828E+02  0.47000000000E+01 0.  1.
        -11    1    1    2    0    0 -0.39361052128E+02 -0.39067897737E+02  0.76672201763E+02  0.94626738195E+02  0.00000000000E+00 0.  1.
         11    1    1    2    0    0  0.31169227755E+02  0.40468357103E+02  0.32934588067E+02  0.60777428183E+02  0.00000000000E+00 0. -1.
<mgrwt>
<rscale>  0 0.11488929E+03</rscale>
<asrwt>0</asrwt>
<pdfrwt beam="2">  1        3 0.55476141E-02 0.11650789E+03</pdfrwt>
<pdfrwt beam="1">  1       -3 0.60054793E-01 0.11650789E+03</pdfrwt>
<totfact> 0.11906486E+03</totfact>
</mgrwt>
</event>
<event>
 6    1  0.7270761E-006  0.1469624E+03  0.7546771E-02  0.1213890E+00
          2   -1    0    0  501    0  0.00000000000E+00  0.00000000000E+00  0.45593417868E+03  0.45593417868E+03  0.00000000000E+00 0. -1.
         -2   -1    0    0    0  501 -0.00000000000E+00 -0.00000000000E+00 -0.41881358089E+02  0.41881358089E+02  0.00000000000E+00 0.  1.
          5    1    1    2  502    0  0.48401877431E+02 -0.39677936931E+02  0.14161278459E+03  0.15489787337E+03  0.47000000000E+01 0. -1.
         -5    1    1    2    0  502  0.27676474551E+02  0.53271240477E+02  0.19780475596E+02  0.63381144833E+02  0.47000000000E+01 0. -1.
        -11    1    1    2    0    0 -0.41338165007E+02  0.41679525071E+01  0.24854920045E+02  0.48414695751E+02  0.00000000000E+00 0.  1.
         11    1    1    2    0    0 -0.34740186975E+02 -0.17761256054E+02  0.22780464036E+03  0.23112182281E+03  0.00000000000E+00 0. -1.
<mgrwt>
<rscale>  0 0.13958416E+03</rscale>
<asrwt>0</asrwt>
<pdfrwt beam="1">  1        2 0.70143716E-01 0.14696239E+03</pdfrwt>
<pdfrwt beam="2">  1       -2 0.64432862E-02 0.14696239E+03</pdfrwt>
<totfact> 0.87711772E+03</totfact>
</mgrwt>
</event>
<event>
 6    1  0.9477603E-006  0.2689810E+03  0.7546771E-02  0.1101864E+00
         -1   -1    0    0    0  501 -0.00000000000E+00  0.00000000000E+00  0.67585833356E+02  0.67585833356E+02  0.00000000000E+00 0.  1.
          1   -1    0    0  501    0  0.00000000000E+00 -0.00000000000E+00 -0.26762544075E+03  0.26762544075E+03  0.00000000000E+00 0. -1.
          5    1    1    2  502    0  0.94672236045E+02  0.25782577807E+02 -0.29164488524E+02  0.10247063475E+03  0.47000000000E+01 0.  1.
         -5    1    1    2    0  502 -0.15891067723E+02 -0.21502335956E+02 -0.71199848365E+02  0.76199638400E+02  0.47000000000E+01 0.  1.
        -11    1    1    2    0    0 -0.19434488992E+02 -0.35625499682E+02 -0.55820744816E+01  0.40963827281E+02  0.00000000000E+00 0. -1.
         11    1    1    2    0    0 -0.59346679329E+02  0.31345257831E+02 -0.94093196026E+02  0.11557717367E+03  0.00000000000E+00 0.  1.
<mgrwt>
<rscale>  0 0.26898095E+03</rscale>
<asrwt>0</asrwt>
<pdfrwt beam="2">  1        1 0.41173146E-01 0.26898095E+03</pdfrwt>
<pdfrwt beam="1">  1       -1 0.10397820E-01 0.26898095E+03</pdfrwt>
<totfact> 0.57626706E+03</totfact>
</mgrwt>
</event>
<event>
 6    1  0.7270761E-006  0.1574239E+03  0.7546771E-02  0.1199825E+00
         -2   -1    0    0    0  501 -0.00000000000E+00  0.00000000000E+00  0.40579109983E+02  0.40579109983E+02  0.00000000000E+00 0.  1.
          2   -1    0    0  501    0  0.00000000000E+00 -0.00000000000E+00 -0.53817615578E+03  0.53817615578E+03  0.00000000000E+00 0. -1.
          5    1    1    2  502    0  0.69254032110E+02 -0.27324381893E+02 -0.37210336730E+02  0.83363313087E+02  0.47000000000E+01 0. -1.
         -5    1    1    2    0  502  0.25679024566E+02  0.39349703135E+02 -0.17257640368E+03  0.17892041959E+03  0.47000000000E+01 0. -1.
        -11    1    1    2    0    0 -0.79525557368E+02  0.25044132996E+02 -0.13670160198E+03  0.16012136290E+03  0.00000000000E+00 0.  1.
         11    1    1    2    0    0 -0.15407499308E+02 -0.37069454238E+02 -0.15110870340E+03  0.15635017018E+03  0.00000000000E+00 0. -1.
<mgrwt>
<rscale>  0 0.15052886E+03</rscale>
<asrwt>0</asrwt>
<pdfrwt beam="2">  1        2 0.82796327E-01 0.15742389E+03</pdfrwt>
<pdfrwt beam="1">  1       -2 0.62429403E-02 0.15742389E+03</pdfrwt>
<totfact> 0.77000687E+03</totfact>
</mgrwt>
</event>
<event>
 6    1  0.7270761E-006  0.1940882E+03  0.7546771E-02  0.1159402E+00
         -2   -1    0    0    0  501 -0.00000000000E+00  0.00000000000E+00  0.14820335514E+03  0.14820335514E+03  0.00000000000E+00 0.  1.
          2   -1    0    0  501    0  0.00000000000E+00 -0.00000000000E+00 -0.23364596557E+03  0.23364596557E+03  0.00000000000E+00 0. -1.
          5    1    1    2  502    0 -0.46171533571E+02  0.29106013597E+02  0.53512054335E+02  0.76580679672E+02  0.47000000000E+01 0.  1.
         -5    1    1    2    0  502 -0.84346631042E+02  0.41679675205E+02 -0.71650904659E+02  0.11835324935E+03  0.47000000000E+01 0.  1.
        -11    1    1    2    0    0  0.42967966513E+02 -0.56438371899E+02 -0.67902838348E+02  0.98195373743E+02  0.00000000000E+00 0. -1.
         11    1    1    2    0    0  0.87550198100E+02 -0.14347316903E+02  0.59907823889E+00  0.88720017946E+02  0.00000000000E+00 0.  1.
<mgrwt>
<rscale>  0 0.18896093E+03</rscale>
<asrwt>0</asrwt>
<pdfrwt beam="2">  1        2 0.35945533E-01 0.19408817E+03</pdfrwt>
<pdfrwt beam="1">  1       -2 0.22800516E-01 0.19408817E+03</pdfrwt>
<totfact> 0.23683775E+03</totfact>
</mgrwt>
</event>
<event>
 6    1  0.7270761E-006  0.1759146E+03  0.7546771E-02  0.1260953E+00
         -2   -1    0    0    0  501 -0.00000000000E+00  0.00000000000E+00  0.39376091475E+02  0.39376091475E+02  0.00000000000E+00 0.  1.
          2   -1    0    0  501    0  0.00000000000E+00 -0.00000000000E+00 -0.31490158640E+03  0.31490158640E+03  0.00000000000E+00 0. -1.
          5    1    1    2  502    0  0.99667322514E+01  0.18447584547E+02 -0.20025833830E+03  0.20140789753E+03  0.47000000000E+01 0. -1.
         -5    1    1    2    0  502 -0.16025151786E+02 -0.18070017978E+02  0.33111252021E+02  0.41252588402E+02  0.47000000000E+01 0.  1.
        -11    1    1    2    0    0 -0.97579836634E+01 -0.23267388430E+01 -0.55130607797E+02  0.56035844554E+02  0.00000000000E+00 0. -1.
         11    1    1    2    0    0  0.15816403198E+02  0.19491722740E+01 -0.53247800846E+02  0.55581347389E+02  0.00000000000E+00 0.  1.
<mgrwt>
<rscale>  0 0.10979334E+03</rscale>
<asrwt>0</asrwt>
<pdfrwt beam="2">  1        2 0.48446396E-01 0.17591465E+03</pdfrwt>
<pdfrwt beam="1">  1       -2 0.60578604E-02 0.17591465E+03</pdfrwt>
<totfact> 0.14523123E+04</totfact>
</mgrwt>
</event>
<event>
 6    1  0.7270761E-006  0.1726210E+03  0.7546771E-02  0.1181354E+00
          1   -1    0    0  501    0  0.00000000000E+00  0.00000000000E+00  0.88415512946E+03  0.88415512946E+03  0.00000000000E+00 0. -1.
         -1   -1    0    0    0  501 -0.00000000000E+00 -0.00000000000E+00 -0.35269029104E+02  0.35269029104E+02  0.00000000000E+00 0.  1.
          5    1    1    2  502    0  0.10881126645E+03  0.32674288375E+02  0.45950579153E+03  0.47336578169E+03  0.47000000000E+01 0. -1.
         -5    1    1    2    0  502  0.77643293471E+01 -0.56829353974E+02  0.17620002170E+03  0.18536018432E+03  0.47000000000E+01 0. -1.
        -11    1    1    2    0    0 -0.52858353338E+02 -0.13455506084E+02  0.28058415541E+02  0.61337841862E+02  0.00000000000E+00 0.  1.
         11    1    1    2    0    0 -0.63717242461E+02  0.37610571683E+02  0.18512187159E+03  0.19936035069E+03  0.00000000000E+00 0. -1.
<mgrwt>
<rscale>  0 0.16668088E+03</rscale>
<asrwt>0</asrwt>
<pdfrwt beam="1">  1        1 0.13602385E+00 0.17262102E+03</pdfrwt>
<pdfrwt beam="2">  1       -1 0.54260051E-02 0.17262102E+03</pdfrwt>
<totfact> 0.30244268E+03</totfact>
</mgrwt>
</event>
<event>
 6    1  0.7270761E-006  0.1277160E+03  0.7546771E-02  0.1244505E+00
          2   -1    0    0  501    0  0.00000000000E+00  0.00000000000E+00  0.44281807285E+02  0.44281807285E+02  0.00000000000E+00 0. -1.
         -2   -1    0    0    0  501 -0.00000000000E+00 -0.00000000000E+00 -0.28716214230E+03  0.28716214230E+03  0.00000000000E+00 0.  1.
          5    1    1    2  502    0 -0.10495340739E+01 -0.17663734119E+02 -0.16204915215E+03  0.16308012367E+03  0.47000000000E+01 0. -1.
         -5    1    1    2    0  502  0.26657268216E+02  0.23857077859E+02  0.80695067843E+01  0.36972652765E+02  0.47000000000E+01 0. -1.
        -11    1    1    2    0    0  0.94735768876E+00  0.40234026411E+02 -0.54685291561E+02  0.67898125754E+02  0.00000000000E+00 0. -1.
         11    1    1    2    0    0 -0.26555091831E+02 -0.46427370151E+02 -0.34215398097E+02  0.63493047401E+02  0.00000000000E+00 0.  1.
<mgrwt>
<rscale>  0 0.11915034E+03</rscale>
<asrwt>0</asrwt>
<pdfrwt beam="1">  1        2 0.68125859E-02 0.12771602E+03</pdfrwt>
<pdfrwt beam="2">  1       -2 0.44178790E-01 0.12771602E+03</pdfrwt>
<totfact> 0.48593279E+03</totfact>
</mgrwt>
</event>
<event>
 6    1  0.7270761E-006  0.1344854E+03  0.7546771E-02  0.1232979E+00
          2   -1    0    0  501    0  0.00000000000E+00  0.00000000000E+00  0.99136843552E+02  0.99136843552E+02  0.00000000000E+00 0. -1.
         -2   -1    0    0    0  501 -0.00000000000E+00 -0.00000000000E+00 -0.14623242892E+03  0.14623242892E+03  0.00000000000E+00 0.  1.
          5    1    1    2  502    0 -0.65184412934E+02 -0.35651050648E+01  0.20025348626E+02  0.68445761383E+02  0.47000000000E+01 0. -1.
         -5    1    1    2    0  502  0.37064838771E+02  0.44464770493E+02 -0.32662206060E+02  0.66632032783E+02  0.47000000000E+01 0. -1.
        -11    1    1    2    0    0  0.44138190118E+02 -0.30868534793E+02  0.16181185860E+02  0.56239461617E+02  0.00000000000E+00 0.  1.
         11    1    1    2    0    0 -0.16018615954E+02 -0.10031130636E+02 -0.50639913793E+02  0.54052016687E+02  0.00000000000E+00 0. -1.
<mgrwt>
<rscale>  0 0.12634726E+03</rscale>
<asrwt>0</asrwt>
<pdfrwt beam="1">  1        2 0.15251822E-01 0.13448539E+03</pdfrwt>
<pdfrwt beam="2">  1       -2 0.22497297E-01 0.13448539E+03</pdfrwt>
<totfact> 0.62031877E+03</totfact>
</mgrwt>
</event>
<event>
 6    1  0.9024743E-006  0.2466224E+03  0.7546771E-02  0.1118008E+00
         -1   -1    0    0    0  501 -0.00000000000E+00  0.00000000000E+00  0.48337395807E+02  0.48337395807E+02  0.00000000000E+00 0.  1.
          1   -1    0    0  501    0  0.00000000000E+00 -0.00000000000E+00 -0.11818167608E+04  0.11818167608E+04  0.00000000000E+00 0. -1.
          5    1    1    2  502    0  0.12920690588E+02 -0.63220306551E+02 -0.96941605323E+02  0.11654834297E+03  0.47000000000E+01 0. -1.
         -5    1    1    2    0  502  0.16864279704E+03 -0.47383946241E+02 -0.47533586289E+03  0.50660823514E+03  0.47000000000E+01 0. -1.
        -11    1    1    2    0    0 -0.64227044495E+02 -0.73963837864E+01 -0.14494986717E+03  0.15871447234E+03  0.00000000000E+00 0.  1.
         11    1    1    2    0    0 -0.11733644313E+03  0.11800063658E+03 -0.41625202961E+03  0.44828310617E+03  0.00000000000E+00 0. -1.
<mgrwt>
<rscale>  0 0.24269851E+03</rscale>
<asrwt>0</asrwt>
<pdfrwt beam="2">  1        1 0.18181796E+00 0.24662242E+03</pdfrwt>
<pdfrwt beam="1">  1       -1 0.74365225E-02 0.24662242E+03</pdfrwt>
<totfact> 0.11378027E+03</totfact>
</mgrwt>
</event>
<event>
 6    1  0.7270761E-006  0.1453562E+03  0.7546771E-02  0.1216626E+00
         -4   -1    0    0    0  501 -0.00000000000E+00  0.00000000000E+00  0.28921857148E+03  0.28921857148E+03  0.00000000000E+00 0.  1.
          4   -1    0    0  501    0  0.00000000000E+00 -0.00000000000E+00 -0.67580787789E+02  0.67580787789E+02  0.00000000000E+00 0. -1.
          5    1    1    2  502    0  0.33428513440E+01  0.37937491137E+02 -0.51256563850E+01  0.38714212406E+02  0.47000000000E+01 0. -1.
         -5    1    1    2    0  502 -0.46414632551E+02  0.20523683922E+02  0.18857702739E+03  0.19534309554E+03  0.47000000000E+01 0.  1.
        -11    1    1    2    0    0  0.10154283447E+02  0.65850789057E+01 -0.24027152733E+02  0.26903100285E+02  0.00000000000E+00 0. -1.
         11    1    1    2    0    0  0.32917497761E+02 -0.65046253964E+02  0.62213565420E+02  0.95838951037E+02  0.00000000000E+00 0.  1.
<mgrwt>
<rscale>  0 0.13757738E+03</rscale>
<asrwt>0</asrwt>
<pdfrwt beam="2">  1        4 0.10397044E-01 0.14535618E+03</pdfrwt>
<pdfrwt beam="1">  1       -4 0.44495164E-01 0.14535618E+03</pdfrwt>
<totfact> 0.58657861E+02</totfact>
</mgrwt>
</event>
<event>
 6    1  0.7270761E-006  0.1860854E+03  0.7546771E-02  0.1167563E+00
         -2   -1    0    0    0  501 -0.00000000000E+00  0.00000000000E+00  0.74614401253E+02  0.74614401253E+02  0.00000000000E+00 0.  1.
          2   -1    0    0  501    0  0.00000000000E+00 -0.00000000000E+00 -0.43638821952E+03  0.43638821952E+03  0.00000000000E+00 0. -1.
          5    1    1    2  502    0 -0.60282402940E+02 -0.32419387385E+02 -0.20851527657E+02  0.71706770868E+02  0.47000000000E+01 0. -1.
         -5    1    1    2    0  502  0.38270492374E+02 -0.10366034185E+03 -0.10839268692E+03  0.15485852135E+03  0.47000000000E+01 0. -1.
        -11    1    1    2    0    0  0.26556312297E+02  0.77557567209E+02 -0.20258294670E+03  0.21854121865E+03  0.00000000000E+00 0. -1.
         11    1    1    2    0    0 -0.45444017313E+01  0.58522162026E+02 -0.29946656994E+02  0.65896109904E+02  0.00000000000E+00 0.  1.
<mgrwt>
<rscale>  0 0.18024823E+03</rscale>
<asrwt>0</asrwt>
<pdfrwt beam="2">  1        2 0.67136647E-01 0.18608537E+03</pdfrwt>
<pdfrwt beam="1">  1       -2 0.11479139E-01 0.18608537E+03</pdfrwt>
<totfact> 0.37807885E+03</totfact>
</mgrwt>
</event>
<event>
 6    1  0.7270761E-006  0.2779733E+03  0.7546771E-02  0.1096801E+00
          2   -1    0    0  501    0  0.00000000000E+00  0.00000000000E+00  0.83042981429E+02  0.83042981429E+02  0.00000000000E+00 0.  1.
         -2   -1    0    0    0  501 -0.00000000000E+00 -0.00000000000E+00 -0.23261801875E+03  0.23261801875E+03  0.00000000000E+00 0. -1.
          5    1    1    2  502    0  0.64593547399E+02  0.55800041475E+02 -0.18715403274E+02  0.87511869560E+02  0.47000000000E+01 0.  1.
         -5    1    1    2    0  502  0.16090815918E+01  0.35417814314E+00 -0.11489846468E+03  0.11500635535E+03  0.47000000000E+01 0.  1.
        -11    1    1    2    0    0  0.81116898817E+01 -0.27901569307E+02  0.79436798236E+01  0.30123066439E+02  0.00000000000E+00 0.  1.
         11    1    1    2    0    0 -0.74314318873E+02 -0.28252650311E+02 -0.23904849192E+02  0.83019708829E+02  0.00000000000E+00 0. -1.
<mgrwt>
<rscale>  0 0.27797334E+03</rscale>
<asrwt>0</asrwt>
<pdfrwt beam="1">  1        2 0.12775843E-01 0.27797334E+03</pdfrwt>
<pdfrwt beam="2">  1       -2 0.35787388E-01 0.27797334E+03</pdfrwt>
<totfact> 0.34707387E+03</totfact>
</mgrwt>
</event>
<event>
 6    1  0.7270761E-006  0.1359015E+03  0.7546771E-02  0.1230544E+00
          2   -1    0    0  501    0  0.00000000000E+00  0.00000000000E+00  0.19383250124E+03  0.19383250124E+03  0.00000000000E+00 0.  1.
         -2   -1    0    0    0  501 -0.00000000000E+00 -0.00000000000E+00 -0.87283808312E+02  0.87283808312E+02  0.00000000000E+00 0. -1.
          5    1    1    2  502    0  0.37448704431E+02  0.12354271694E+02  0.19287331430E+02  0.44148891791E+02  0.47000000000E+01 0. -1.
         -5    1    1    2    0  502 -0.78709978405E+02 -0.46187613073E+02 -0.10797320995E+02  0.92017544211E+02  0.47000000000E+01 0. -1.
        -11    1    1    2    0    0 -0.78939835233E+01 -0.19872698329E+02 -0.16985976074E+01  0.21450509285E+02  0.00000000000E+00 0. -1.
         11    1    1    2    0    0  0.49155257497E+02  0.53706039709E+02  0.99757280102E+02  0.12349936427E+03  0.00000000000E+00 0.  1.
<mgrwt>
<rscale>  0 0.12794028E+03</rscale>
<asrwt>0</asrwt>
<pdfrwt beam="1">  1        2 0.29820385E-01 0.13590150E+03</pdfrwt>
<pdfrwt beam="2">  1       -2 0.13428278E-01 0.13590150E+03</pdfrwt>
<totfact> 0.68960693E+03</totfact>
</mgrwt>
</event>
<event>
 6    1  0.7270761E-006  0.1456530E+03  0.7546771E-02  0.1215802E+00
          3   -1    0    0  501    0  0.00000000000E+00  0.00000000000E+00  0.20615571037E+03  0.20615571037E+03  0.00000000000E+00 0. -1.
         -3   -1    0    0    0  501 -0.00000000000E+00 -0.00000000000E+00 -0.86602927846E+02  0.86602927846E+02  0.00000000000E+00 0.  1.
          5    1    1    2  502    0 -0.41755397901E+02 -0.80528347427E+02  0.53663013645E+02  0.10549946458E+03  0.47000000000E+01 0.  1.
         -5    1    1    2    0  502  0.54137013412E+02  0.68048984114E+01  0.36056113778E+02  0.65568713609E+02  0.47000000000E+01 0.  1.
        -11    1    1    2    0    0  0.35049869095E+02  0.11136550142E+02 -0.22830793560E+01  0.36847367938E+02  0.00000000000E+00 0.  1.
         11    1    1    2    0    0 -0.47431484606E+02  0.62586898873E+02  0.32116734452E+02  0.84843092084E+02  0.00000000000E+00 0. -1.
<mgrwt>
<rscale>  0 0.13817795E+03</rscale>
<asrwt>0</asrwt>
<pdfrwt beam="1">  1        3 0.31716263E-01 0.14565301E+03</pdfrwt>
<pdfrwt beam="2">  1       -3 0.13323528E-01 0.14565301E+03</pdfrwt>
<totfact> 0.10259064E+03</totfact>
</mgrwt>
</event>
<event>
 6    1  0.7270761E-006  0.1270525E+03  0.7546771E-02  0.1247286E+00
          2   -1    0    0  501    0  0.00000000000E+00  0.00000000000E+00  0.24688910817E+03  0.24688910817E+03  0.00000000000E+00 0. -1.
         -2   -1    0    0    0  501 -0.00000000000E+00 -0.00000000000E+00 -0.18242457696E+03  0.18242457696E+03  0.00000000000E+00 0.  1.
          5    1    1    2  502    0  0.37752882105E+02  0.58994140890E+02 -0.38480635501E+02  0.80052720598E+02  0.47000000000E+01 0. -1.
         -5    1    1    2    0  502 -0.30874378523E+02 -0.13879174835E+02 -0.11092718983E+03  0.11607234893E+03  0.47000000000E+01 0.  1.
        -11    1    1    2    0    0 -0.34260077254E+02 -0.10632716536E+01  0.13110730012E+03  0.13551386492E+03  0.00000000000E+00 0.  1.
         11    1    1    2    0    0  0.27381573672E+02 -0.44051694401E+02  0.82765056416E+02  0.97674750678E+02  0.00000000000E+00 0. -1.
<mgrwt>
<rscale>  0 0.11749617E+03</rscale>
<asrwt>0</asrwt>
<pdfrwt beam="1">  1        2 0.37982940E-01 0.12705253E+03</pdfrwt>
<pdfrwt beam="2">  1       -2 0.28065319E-01 0.12705253E+03</pdfrwt>
<totfact> 0.15275574E+03</totfact>
</mgrwt>
</event>
<event>
 6    1  0.7270761E-006  0.1448500E+03  0.7546771E-02  0.1216719E+00
          1   -1    0    0  501    0  0.00000000000E+00  0.00000000000E+00  0.61767982275E+02  0.61767982275E+02  0.00000000000E+00 0. -1.
         -1   -1    0    0    0  501 -0.00000000000E+00 -0.00000000000E+00 -0.28138920994E+03  0.28138920994E+03  0.00000000000E+00 0.  1.
          5    1    1    2  502    0 -0.77478505162E+02  0.44918676580E+02 -0.11328115243E+03  0.14448292551E+03  0.47000000000E+01 0.  1.
         -5    1    1    2    0  502  0.44840798125E+02  0.20568479206E+02 -0.23907203166E+02  0.55021849084E+02  0.47000000000E+01 0.  1.
        -11    1    1    2    0    0  0.16171438315E+02 -0.12618691586E+02  0.19083136231E+02  0.28016296738E+02  0.00000000000E+00 0. -1.
         11    1    1    2    0    0  0.16466268722E+02 -0.52868464200E+02 -0.10151600830E+03  0.11563612089E+03  0.00000000000E+00 0.  1.
<mgrwt>
<rscale>  0 0.13750994E+03</rscale>
<asrwt>0</asrwt>
<pdfrwt beam="1">  1        1 0.95027663E-02 0.14484996E+03</pdfrwt>
<pdfrwt beam="2">  1       -1 0.43290649E-01 0.14484996E+03</pdfrwt>
<totfact> 0.35501770E+03</totfact>
</mgrwt>
</event>
<event>
 6    1  0.7270761E-006  0.1588818E+03  0.7546771E-02  0.1197814E+00
         -4   -1    0    0    0  501 -0.00000000000E+00  0.00000000000E+00  0.56560844379E+03  0.56560844379E+03  0.00000000000E+00 0.  1.
          4   -1    0    0  501    0  0.00000000000E+00 -0.00000000000E+00 -0.50387998996E+02  0.50387998996E+02  0.00000000000E+00 0. -1.
          5    1    1    2  502    0  0.23720669557E+02  0.69727389197E+01  0.33788585133E+03  0.33882182306E+03  0.47000000000E+01 0.  1.
         -5    1    1    2    0  502  0.74077812120E+02 -0.14328721714E+02  0.89577953431E+02  0.11721405315E+03  0.47000000000E+01 0.  1.
        -11    1    1    2    0    0  0.98797519923E+01 -0.12384525517E+02  0.35042303221E+02  0.38457105803E+02  0.00000000000E+00 0.  1.
         11    1    1    2    0    0 -0.10767823367E+03  0.19740508311E+02  0.52714336811E+02  0.12150346077E+03  0.00000000000E+00 0. -1.
<mgrwt>
<rscale>  0 0.15218441E+03</rscale>
<asrwt>0</asrwt>
<pdfrwt beam="2">  1        4 0.77520003E-02 0.15888177E+03</pdfrwt>
<pdfrwt beam="1">  1       -4 0.87016679E-01 0.15888177E+03</pdfrwt>
<totfact> 0.23492835E+02</totfact>
</mgrwt>
</event>
<event>
 6    1  0.7270761E-006  0.1264172E+03  0.7546771E-02  0.1247757E+00
         -2   -1    0    0    0  501 -0.00000000000E+00  0.00000000000E+00  0.66756725682E+03  0.66756725682E+03  0.00000000000E+00 0. -1.
          2   -1    0    0  501    0  0.00000000000E+00 -0.00000000000E+00 -0.19462776836E+02  0.19462776836E+02  0.00000000000E+00 0.  1.
          5    1    1    2  502    0 -0.21301775211E+02  0.57025664541E+02  0.39310147585E+03  0.39781472115E+03  0.47000000000E+01 0. -1.
         -5    1    1    2    0  502  0.14522357952E+02 -0.39408570626E+02  0.65977889279E+02  0.78352448545E+02  0.47000000000E+01 0. -1.
        -11    1    1    2    0    0 -0.16548256897E+02 -0.49782497379E+02  0.90159367546E+02  0.10431132924E+03  0.00000000000E+00 0.  1.
         11    1    1    2    0    0  0.23327674156E+02  0.32165403464E+02  0.98865747305E+02  0.10655153472E+03  0.00000000000E+00 0. -1.
<mgrwt>
<rscale>  0 0.11721897E+03</rscale>
<asrwt>0</asrwt>
<pdfrwt beam="2">  1        2 0.29942739E-02 0.12641721E+03</pdfrwt>
<pdfrwt beam="1">  1       -2 0.10270264E+00 0.12641721E+03</pdfrwt>
<totfact> 0.24066356E+03</totfact>
</mgrwt>
</event>
<event>
 6    1  0.7270761E-006  0.1344632E+03  0.7546771E-02  0.1233298E+00
          2   -1    0    0  501    0  0.00000000000E+00  0.00000000000E+00  0.90925496680E+02  0.90925496680E+02  0.00000000000E+00 0.  1.
         -2   -1    0    0    0  501 -0.00000000000E+00 -0.00000000000E+00 -0.17256784326E+03  0.17256784326E+03  0.00000000000E+00 0. -1.
          5    1    1    2  502    0 -0.22265712383E+02 -0.46391675531E+02  0.16797151460E+02  0.54334002279E+02  0.47000000000E+01 0. -1.
         -5    1    1    2    0  502  0.23201613368E+02 -0.33737337269E+01 -0.10219555649E+03  0.10495579407E+03  0.47000000000E+01 0. -1.
        -11    1    1    2    0    0  0.14095788794E+02  0.47355915957E+02  0.40848676164E+02  0.64108411166E+02  0.00000000000E+00 0.  1.
         11    1    1    2    0    0 -0.15031689780E+02  0.24094933003E+01 -0.37092617717E+02  0.40095132431E+02  0.00000000000E+00 0. -1.
<mgrwt>
<rscale>  0 0.12613994E+03</rscale>
<asrwt>0</asrwt>
<pdfrwt beam="1">  1        2 0.13988538E-01 0.13446320E+03</pdfrwt>
<pdfrwt beam="2">  1       -2 0.26548899E-01 0.13446320E+03</pdfrwt>
<totfact> 0.51469213E+03</totfact>
</mgrwt>
</event>
<event>
 6    1  0.7270761E-006  0.1343736E+03  0.7546771E-02  0.1233554E+00
          1   -1    0    0  501    0  0.00000000000E+00  0.00000000000E+00  0.24712674595E+03  0.24712674595E+03  0.00000000000E+00 0. -1.
         -1   -1    0    0    0  501 -0.00000000000E+00 -0.00000000000E+00 -0.88951338567E+02  0.88951338567E+02  0.00000000000E+00 0.  1.
          5    1    1    2  502    0 -0.24204967535E+02  0.30286462681E+02  0.15667247203E+02  0.42079720888E+02  0.47000000000E+01 0. -1.
         -5    1    1    2    0  502  0.53487237452E+02 -0.69947061022E+02 -0.29598232010E+02  0.93014091696E+02  0.47000000000E+01 0. -1.
        -11    1    1    2    0    0 -0.58866140979E+01  0.66833645104E+02  0.12396708179E+03  0.14095824101E+03  0.00000000000E+00 0.  1.
         11    1    1    2    0    0 -0.23395655819E+02 -0.27173046763E+02  0.48139310407E+02  0.60026030921E+02  0.00000000000E+00 0. -1.
<mgrwt>
<rscale>  0 0.12597459E+03</rscale>
<asrwt>0</asrwt>
<pdfrwt beam="1">  1        1 0.38019499E-01 0.13437361E+03</pdfrwt>
<pdfrwt beam="2">  1       -1 0.13684821E-01 0.13437361E+03</pdfrwt>
<totfact> 0.40098900E+03</totfact>
</mgrwt>
</event>
<event>
 6    1  0.7270761E-006  0.4569189E+03  0.7546771E-02  0.1025679E+00
         -1   -1    0    0    0  501 -0.00000000000E+00  0.00000000000E+00  0.14037711481E+03  0.14037711481E+03  0.00000000000E+00 0.  1.
          1   -1    0    0  501    0  0.00000000000E+00 -0.00000000000E+00 -0.37181079644E+03  0.37181079644E+03  0.00000000000E+00 0. -1.
          5    1    1    2  502    0  0.70989752101E+01  0.18636182393E+02  0.32249905317E+02  0.38207972155E+02  0.47000000000E+01 0. -1.
         -5    1    1    2    0  502 -0.13116924619E+03 -0.42732340671E+02  0.29504710896E+02  0.14115254886E+03  0.47000000000E+01 0.  1.
        -11    1    1    2    0    0  0.91876236587E+02  0.38674750776E+02 -0.11968322235E+03  0.15575959974E+03  0.00000000000E+00 0.  1.
         11    1    1    2    0    0  0.32194034393E+02 -0.14578592498E+02 -0.17350507549E+03  0.17706779050E+03  0.00000000000E+00 0. -1.
<mgrwt>
<rscale>  0 0.45691893E+03</rscale>
<asrwt>0</asrwt>
<pdfrwt beam="2">  1        1 0.57201661E-01 0.45691893E+03</pdfrwt>
<pdfrwt beam="1">  1       -1 0.21596479E-01 0.45691893E+03</pdfrwt>
<totfact> 0.11877504E+03</totfact>
</mgrwt>
</event>
<event>
 6    1  0.7270761E-006  0.1257799E+03  0.7546771E-02  0.1248803E+00
          1   -1    0    0  501    0  0.00000000000E+00  0.00000000000E+00  0.39067927374E+03  0.39067927374E+03  0.00000000000E+00 0. -1.
         -1   -1    0    0    0  501 -0.00000000000E+00 -0.00000000000E+00 -0.31303586356E+02  0.31303586356E+02  0.00000000000E+00 0.  1.
          5    1    1    2  502    0 -0.49690727091E+02  0.57040618937E+01  0.32226256179E+02  0.59685226549E+02  0.47000000000E+01 0.  1.
         -5    1    1    2    0  502  0.62282370354E+02  0.39515516860E+00  0.14266355157E+03  0.15573769213E+03  0.47000000000E+01 0.  1.
        -11    1    1    2    0    0  0.43180252498E+01  0.20508641761E+02  0.16469326491E+01  0.21022895045E+02  0.00000000000E+00 0.  1.
         11    1    1    2    0    0 -0.16909668513E+02 -0.26607858823E+02  0.18283894699E+03  0.18553704637E+03  0.00000000000E+00 0. -1.
<mgrwt>
<rscale>  0 0.11660636E+03</rscale>
<asrwt>0</asrwt>
<pdfrwt beam="1">  1        1 0.60104500E-01 0.12577992E+03</pdfrwt>
<pdfrwt beam="2">  1       -1 0.48159366E-02 0.12577992E+03</pdfrwt>
<totfact> 0.10954396E+04</totfact>
</mgrwt>
</event>
<event>
 6    1  0.7270761E-006  0.2142330E+03  0.7546771E-02  0.1141893E+00
          2   -1    0    0  501    0  0.00000000000E+00  0.00000000000E+00  0.59009109968E+03  0.59009109968E+03  0.00000000000E+00 0. -1.
         -2   -1    0    0    0  501 -0.00000000000E+00 -0.00000000000E+00 -0.79916860597E+02  0.79916860597E+02  0.00000000000E+00 0.  1.
          5    1    1    2  502    0 -0.62765177504E+02 -0.92585765725E+02  0.66103540935E+02  0.13001292107E+03  0.47000000000E+01 0.  1.
         -5    1    1    2    0  502  0.59217576432E+02 -0.81368966414E+02  0.89601593701E+02  0.13482642785E+03  0.47000000000E+01 0.  1.
        -11    1    1    2    0    0  0.42680701185E+02  0.67306725415E+02  0.18153548858E+03  0.19825985765E+03  0.00000000000E+00 0. -1.
         11    1    1    2    0    0 -0.39133100113E+02  0.10664800672E+03  0.17293361587E+03  0.20690875371E+03  0.00000000000E+00 0.  1.
<mgrwt>
<rscale>  0 0.20958785E+03</rscale>
<asrwt>0</asrwt>
<pdfrwt beam="1">  1        2 0.90783243E-01 0.21423303E+03</pdfrwt>
<pdfrwt beam="2">  1       -2 0.12294902E-01 0.21423303E+03</pdfrwt>
<totfact> 0.24267370E+03</totfact>
</mgrwt>
</event>
<event>
 6    1  0.7270761E-006  0.2686190E+03  0.7546771E-02  0.1104141E+00
         -1   -1    0    0    0  501 -0.00000000000E+00  0.00000000000E+00  0.10284751295E+04  0.10284751295E+04  0.00000000000E+00 0.  1.
          1   -1    0    0  501    0  0.00000000000E+00 -0.00000000000E+00 -0.68195313834E+02  0.68195313834E+02  0.00000000000E+00 0. -1.
          5    1    1    2  502    0  0.17443826947E+03 -0.18823201778E+02  0.35611106236E+03  0.39701410745E+03  0.47000000000E+01 0. -1.
         -5    1    1    2    0  502  0.57202409799E+02  0.72427871939E+02  0.22139059367E+03  0.23990372503E+03  0.47000000000E+01 0. -1.
        -11    1    1    2    0    0 -0.84271772189E+02 -0.23705299819E+02  0.22673241907E+03  0.24304580368E+03  0.00000000000E+00 0.  1.
         11    1    1    2    0    0 -0.14736890708E+03 -0.29899370342E+02  0.15604574055E+03  0.21670680715E+03  0.00000000000E+00 0. -1.
<mgrwt>
<rscale>  0 0.26505993E+03</rscale>
<asrwt>0</asrwt>
<pdfrwt beam="2">  1        1 0.10491587E-01 0.26861899E+03</pdfrwt>
<pdfrwt beam="1">  1       -1 0.15822693E+00 0.26861899E+03</pdfrwt>
<totfact> 0.19754311E+02</totfact>
</mgrwt>
</event>
<event>
 6    1  0.7270761E-006  0.1624262E+03  0.7546771E-02  0.1192333E+00
         -2   -1    0    0    0  501 -0.00000000000E+00  0.00000000000E+00  0.11193239364E+03  0.11193239364E+03  0.00000000000E+00 0.  1.
          2   -1    0    0  501    0  0.00000000000E+00 -0.00000000000E+00 -0.21793866382E+03  0.21793866382E+03  0.00000000000E+00 0. -1.
          5    1    1    2  502    0 -0.32828081112E+02 -0.84579096666E+02 -0.50637534370E+02  0.10400748237E+03  0.47000000000E+01 0. -1.
         -5    1    1    2    0  502 -0.46098793169E+02  0.17173129906E+02  0.32925174653E+02  0.59381581726E+02  0.47000000000E+01 0. -1.
        -11    1    1    2    0    0  0.61784581173E+02  0.41044631345E+02 -0.10677287505E+03  0.13000939612E+03  0.00000000000E+00 0. -1.
         11    1    1    2    0    0  0.17142293108E+02  0.26361335415E+02  0.18478964579E+02  0.36472597245E+02  0.00000000000E+00 0.  1.
<mgrwt>
<rscale>  0 0.15682105E+03</rscale>
<asrwt>0</asrwt>
<pdfrwt beam="2">  1        2 0.33529025E-01 0.16242616E+03</pdfrwt>
<pdfrwt beam="1">  1       -2 0.17220368E-01 0.16242616E+03</pdfrwt>
<totfact> 0.40834995E+03</totfact>
</mgrwt>
</event>
<event>
 6    1  0.7270761E-006  0.1452725E+03  0.7546771E-02  0.1214772E+00
         -2   -1    0    0    0  501 -0.00000000000E+00  0.00000000000E+00  0.15118888290E+02  0.15118888290E+02  0.00000000000E+00 0.  1.
          2   -1    0    0  501    0  0.00000000000E+00 -0.00000000000E+00 -0.11838019601E+04  0.11838019601E+04  0.00000000000E+00 0. -1.
          5    1    1    2  502    0  0.23818609126E+02  0.24112011008E+02 -0.24217467000E+03  0.24457999919E+03  0.47000000000E+01 0. -1.
         -5    1    1    2    0  502 -0.37659795165E+02 -0.96874513944E+02 -0.34870512858E+03  0.36389598558E+03  0.47000000000E+01 0. -1.
        -11    1    1    2    0    0  0.23165082683E+02  0.90124642458E+02 -0.53846366985E+03  0.54644505304E+03  0.00000000000E+00 0. -1.
         11    1    1    2    0    0 -0.93238966439E+01 -0.17362139523E+02 -0.39339603369E+02  0.43999810576E+02  0.00000000000E+00 0.  1.
<mgrwt>
<rscale>  0 0.13893273E+03</rscale>
<asrwt>0</asrwt>
<pdfrwt beam="2">  1        2 0.18212340E+00 0.14527246E+03</pdfrwt>
<pdfrwt beam="1">  1       -2 0.23259825E-02 0.14527246E+03</pdfrwt>
<totfact> 0.12234187E+04</totfact>
</mgrwt>
</event>
<event>
 6    1  0.7270761E-006  0.1277011E+03  0.7546771E-02  0.1246297E+00
         -1   -1    0    0    0  501 -0.00000000000E+00  0.00000000000E+00  0.18162031632E+02  0.18162031632E+02  0.00000000000E+00 0.  1.
          1   -1    0    0  501    0  0.00000000000E+00 -0.00000000000E+00 -0.70581778845E+03  0.70581778845E+03  0.00000000000E+00 0. -1.
          5    1    1    2  502    0  0.48609297122E+02  0.15017044456E+02 -0.13039645585E+03  0.14004892391E+03  0.47000000000E+01 0. -1.
         -5    1    1    2    0  502 -0.74725068203E+02 -0.16085283828E+02 -0.18676141069E+03  0.20185263609E+03  0.47000000000E+01 0. -1.
        -11    1    1    2    0    0 -0.28871207886E+02 -0.16524415819E+02 -0.17908348608E+03  0.18214691309E+03  0.00000000000E+00 0. -1.
         11    1    1    2    0    0  0.54986978967E+02  0.17592655191E+02 -0.19141440420E+03  0.19993134699E+03  0.00000000000E+00 0.  1.
<mgrwt>
<rscale>  0 0.11808100E+03</rscale>
<asrwt>0</asrwt>
<pdfrwt beam="2">  1        1 0.10858736E+00 0.12770107E+03</pdfrwt>
<pdfrwt beam="1">  1       -1 0.27941585E-02 0.12770107E+03</pdfrwt>
<totfact> 0.11113208E+04</totfact>
</mgrwt>
</event>
<event>
 6    1  0.7270761E-006  0.1642941E+03  0.7546771E-02  0.1206628E+00
         -1   -1    0    0    0  501 -0.00000000000E+00  0.00000000000E+00  0.74963209831E+03  0.74963209831E+03  0.00000000000E+00 0.  1.
          1   -1    0    0  501    0  0.00000000000E+00 -0.00000000000E+00 -0.24502171673E+02  0.24502171673E+02  0.00000000000E+00 0. -1.
          5    1    1    2  502    0  0.66704461000E+02 -0.18688374909E+02  0.96686794423E+02  0.11903430888E+03  0.47000000000E+01 0. -1.
         -5    1    1    2    0  502 -0.44301031894E+02 -0.14492457502E+02  0.43351902943E+03  0.43604294700E+03  0.47000000000E+01 0.  1.
        -11    1    1    2    0    0 -0.52358655391E+02  0.30394999783E+02  0.16839116141E+03  0.17894375666E+03  0.00000000000E+00 0. -1.
         11    1    1    2    0    0  0.29955226286E+02  0.27858326279E+01  0.26532941383E+02  0.40113257456E+02  0.00000000000E+00 0.  1.
<mgrwt>
<rscale>  0 0.14509927E+03</rscale>
<asrwt>0</asrwt>
<pdfrwt beam="2">  1        1 0.37695654E-02 0.16429408E+03</pdfrwt>
<pdfrwt beam="1">  1       -1 0.11532800E+00 0.16429408E+03</pdfrwt>
<totfact> 0.17613984E+03</totfact>
</mgrwt>
</event>
<event>
 6    1  0.7270761E-006  0.1359293E+03  0.7546771E-02  0.1230975E+00
         -2   -1    0    0    0  501 -0.00000000000E+00  0.00000000000E+00  0.16047563036E+04  0.16047563036E+04  0.00000000000E+00 0.  1.
          2   -1    0    0  501    0  0.00000000000E+00 -0.00000000000E+00 -0.10803891118E+02  0.10803891118E+02  0.00000000000E+00 0. -1.
          5    1    1    2  502    0  0.86540979016E+02 -0.54695724731E+01  0.62997719886E+03  0.63593444501E+03  0.47000000000E+01 0. -1.
         -5    1    1    2    0  502 -0.36626723250E+02  0.24454756885E+02  0.56966347650E+03  0.57138263751E+03  0.47000000000E+01 0. -1.
        -11    1    1    2    0    0 -0.56254972694E+02 -0.41720446856E+02  0.35900948181E+03  0.36577728971E+03  0.00000000000E+00 0.  1.
         11    1    1    2    0    0  0.63407169279E+01  0.22735262445E+02  0.35302255357E+02  0.42465822526E+02  0.00000000000E+00 0. -1.
<mgrwt>
<rscale>  0 0.12765667E+03</rscale>
<asrwt>0</asrwt>
<pdfrwt beam="2">  1        2 0.16621384E-02 0.13592935E+03</pdfrwt>
<pdfrwt beam="1">  1       -2 0.24688540E+00 0.13592935E+03</pdfrwt>
<totfact> 0.51965006E+02</totfact>
</mgrwt>
</event>
<event>
 6    1  0.7270761E-006  0.1295024E+03  0.7546771E-02  0.1244369E+00
         -1   -1    0    0    0  501 -0.00000000000E+00  0.00000000000E+00  0.16494305522E+03  0.16494305522E+03  0.00000000000E+00 0.  1.
          1   -1    0    0  501    0  0.00000000000E+00 -0.00000000000E+00 -0.86340300831E+02  0.86340300831E+02  0.00000000000E+00 0. -1.
          5    1    1    2  502    0  0.21564324917E+02  0.61436414850E+01 -0.23788432777E+02  0.33026413275E+02  0.47000000000E+01 0.  1.
         -5    1    1    2    0  502 -0.49134827342E+02  0.13490428566E+02  0.11353767940E+03  0.12453560761E+03  0.47000000000E+01 0.  1.
        -11    1    1    2    0    0  0.38158751818E+02  0.13893618713E+02 -0.32996787463E+02  0.52325051019E+02  0.00000000000E+00 0. -1.
         11    1    1    2    0    0 -0.10588249393E+02 -0.33527688765E+02  0.21850295230E+02  0.41396284142E+02  0.00000000000E+00 0.  1.
<mgrwt>
<rscale>  0 0.11923247E+03</rscale>
<asrwt>0</asrwt>
<pdfrwt beam="2">  1        1 0.13283123E-01 0.12950237E+03</pdfrwt>
<pdfrwt beam="1">  1       -1 0.25375855E-01 0.12950237E+03</pdfrwt>
<totfact> 0.56407880E+03</totfact>
</mgrwt>
</event>
<event>
 6    1  0.7270761E-006  0.1578227E+03  0.7546771E-02  0.1198989E+00
          2   -1    0    0  501    0  0.00000000000E+00  0.00000000000E+00  0.45633352816E+03  0.45633352816E+03  0.00000000000E+00 0. -1.
         -2   -1    0    0    0  501 -0.00000000000E+00 -0.00000000000E+00 -0.70577248446E+02  0.70577248446E+02  0.00000000000E+00 0.  1.
          5    1    1    2  502    0  0.49373716718E+02 -0.48041449046E+02  0.76405493860E+02  0.10298365997E+03  0.47000000000E+01 0. -1.
         -5    1    1    2    0  502 -0.31460189909E+02 -0.46631715840E+02 -0.26751373262E+02  0.62465882229E+02  0.47000000000E+01 0. -1.
        -11    1    1    2    0    0  0.32072553417E+02  0.42510312256E+02  0.20463771356E+03  0.21145299511E+03  0.00000000000E+00 0. -1.
         11    1    1    2    0    0 -0.49986080226E+02  0.52162852630E+02  0.13146444556E+03  0.15000823930E+03  0.00000000000E+00 0.  1.
<mgrwt>
<rscale>  0 0.15121394E+03</rscale>
<asrwt>0</asrwt>
<pdfrwt beam="1">  1        2 0.70205156E-01 0.15782275E+03</pdfrwt>
<pdfrwt beam="2">  1       -2 0.10858039E-01 0.15782275E+03</pdfrwt>
<totfact> 0.39080994E+03</totfact>
</mgrwt>
</event>
<event>
 6    1  0.7270761E-006  0.1156006E+03  0.7546771E-02  0.1262419E+00
         -2   -1    0    0    0  501 -0.00000000000E+00  0.00000000000E+00  0.25530255324E+03  0.25530255324E+03  0.00000000000E+00 0.  1.
          2   -1    0    0  501    0  0.00000000000E+00 -0.00000000000E+00 -0.60374977101E+02  0.60374977101E+02  0.00000000000E+00 0. -1.
          5    1    1    2  502    0 -0.27366041849E+02 -0.55771709253E+02  0.58264892164E+02  0.85301063642E+02  0.47000000000E+01 0. -1.
         -5    1    1    2    0  502  0.10338047025E+02  0.35370322452E+02  0.13387605227E+03  0.13893459720E+03  0.47000000000E+01 0.  1.
        -11    1    1    2    0    0  0.52438561176E+02  0.19262711488E+02 -0.44029894312E+00  0.55866345998E+02  0.00000000000E+00 0.  1.
         11    1    1    2    0    0 -0.35410566352E+02  0.11386753123E+01  0.32269306416E+01  0.35575523499E+02  0.00000000000E+00 0. -1.
<mgrwt>
<rscale>  0 0.10900735E+03</rscale>
<asrwt>0</asrwt>
<pdfrwt beam="2">  1        2 0.92884581E-02 0.11560056E+03</pdfrwt>
<pdfrwt beam="1">  1       -2 0.39277316E-01 0.11560056E+03</pdfrwt>
<totfact> 0.40933615E+03</totfact>
</mgrwt>
</event>
<event>
 6    1  0.7270761E-006  0.1329089E+03  0.7546771E-02  0.1236379E+00
         -2   -1    0    0    0  501 -0.00000000000E+00  0.00000000000E+00  0.55733876393E+02  0.55733876393E+02  0.00000000000E+00 0. -1.
          2   -1    0    0  501    0  0.00000000000E+00 -0.00000000000E+00 -0.38491236228E+03  0.38491236228E+03  0.00000000000E+00 0.  1.
          5    1    1    2  502    0 -0.20529318022E+02 -0.38498058080E+02 -0.19902923642E+02  0.48184745966E+02  0.47000000000E+01 0. -1.
         -5    1    1    2    0  502  0.45891307754E+02  0.75822476328E+02 -0.27291354890E+02  0.92854553446E+02  0.47000000000E+01 0. -1.
        -11    1    1    2    0    0 -0.42885366496E+02  0.83002046336E+01 -0.73760776368E+02  0.85724559998E+02  0.00000000000E+00 0. -1.
         11    1    1    2    0    0  0.17523376764E+02 -0.45624622882E+02 -0.20822343099E+03  0.21388237926E+03  0.00000000000E+00 0.  1.
<mgrwt>
<rscale>  0 0.12416580E+03</rscale>
<asrwt>0</asrwt>
<pdfrwt beam="2">  1        2 0.59217286E-01 0.13290893E+03</pdfrwt>
<pdfrwt beam="1">  1       -2 0.85744426E-02 0.13290893E+03</pdfrwt>
<totfact> 0.67374028E+03</totfact>
</mgrwt>
</event>
<event>
 6    1  0.7270761E-006  0.1302008E+03  0.7546771E-02  0.1242087E+00
          2   -1    0    0  501    0  0.00000000000E+00  0.00000000000E+00  0.38956878992E+03  0.38956878992E+03  0.00000000000E+00 0. -1.
         -2   -1    0    0    0  501 -0.00000000000E+00 -0.00000000000E+00 -0.37492160753E+02  0.37492160753E+02  0.00000000000E+00 0.  1.
          5    1    1    2  502    0 -0.63335430161E+02  0.32174283916E+01  0.28110373682E+02  0.69527057091E+02  0.47000000000E+01 0.  1.
         -5    1    1    2    0  502  0.42581005857E+02 -0.33225071055E+02  0.96550060926E+02  0.11072963321E+03  0.47000000000E+01 0.  1.
        -11    1    1    2    0    0 -0.11572348258E+02  0.48763023670E+02  0.77448660533E+02  0.92249914580E+02  0.00000000000E+00 0.  1.
         11    1    1    2    0    0  0.32326772562E+02 -0.18755381006E+02  0.14996753402E+03  0.15455434579E+03  0.00000000000E+00 0. -1.
<mgrwt>
<rscale>  0 0.12061452E+03</rscale>
<asrwt>0</asrwt>
<pdfrwt beam="1">  1        2 0.59933657E-01 0.13020081E+03</pdfrwt>
<pdfrwt beam="2">  1       -2 0.57680250E-02 0.13020081E+03</pdfrwt>
<totfact> 0.12183389E+04</totfact>
</mgrwt>
</event>
<event>
 6    1  0.7270761E-006  0.1706523E+03  0.7546771E-02  0.1183462E+00
          2   -1    0    0  501    0  0.00000000000E+00  0.00000000000E+00  0.11513392083E+04  0.11513392083E+04  0.00000000000E+00 0. -1.
         -2   -1    0    0    0  501 -0.00000000000E+00 -0.00000000000E+00 -0.22136883941E+02  0.22136883941E+02  0.00000000000E+00 0.  1.
          5    1    1    2  502    0  0.33078353745E+02 -0.19840915835E+02  0.68007343581E+02  0.78325782528E+02  0.47000000000E+01 0. -1.
         -5    1    1    2    0  502  0.37821648261E+02  0.11189610807E+03  0.56861977140E+03  0.58077685087E+03  0.47000000000E+01 0. -1.
        -11    1    1    2    0    0 -0.21068079083E+02 -0.83463089151E+02  0.39721585850E+03  0.40643620588E+03  0.00000000000E+00 0. -1.
         11    1    1    2    0    0 -0.49831922923E+02 -0.85921030886E+01  0.95359350897E+02  0.10793725298E+03  0.00000000000E+00 0.  1.
<mgrwt>
<rscale>  0 0.16472620E+03</rscale>
<asrwt>0</asrwt>
<pdfrwt beam="1">  1        2 0.17712906E+00 0.17065227E+03</pdfrwt>
<pdfrwt beam="2">  1       -2 0.34056753E-02 0.17065227E+03</pdfrwt>
<totfact> 0.73328889E+03</totfact>
</mgrwt>
</event>
<event>
 6    1  0.7270761E-006  0.1401798E+03  0.7546771E-02  0.1221236E+00
         -1   -1    0    0    0  501 -0.00000000000E+00  0.00000000000E+00  0.22299897051E+03  0.22299897051E+03  0.00000000000E+00 0.  1.
          1   -1    0    0  501    0  0.00000000000E+00 -0.00000000000E+00 -0.10167261011E+03  0.10167261011E+03  0.00000000000E+00 0. -1.
          5    1    1    2  502    0 -0.52429198166E+02 -0.10594379032E+02  0.39618956589E+01  0.53840953786E+02  0.47000000000E+01 0. -1.
         -5    1    1    2    0  502 -0.15393587835E+02  0.38866585358E+02  0.14383525442E+03  0.14986075009E+03  0.47000000000E+01 0.  1.
        -11    1    1    2    0    0  0.63051119897E+02  0.76564435543E+01 -0.47277145140E+02  0.79178237545E+02  0.00000000000E+00 0.  1.
         11    1    1    2    0    0  0.47716661038E+01 -0.35928649880E+02  0.20806355461E+02  0.41791639202E+02  0.00000000000E+00 0. -1.
<mgrwt>
<rscale>  0 0.13428261E+03</rscale>
<asrwt>0</asrwt>
<pdfrwt beam="2">  1        1 0.15641940E-01 0.14017984E+03</pdfrwt>
<pdfrwt beam="1">  1       -1 0.34307534E-01 0.14017984E+03</pdfrwt>
<totfact> 0.27648336E+03</totfact>
</mgrwt>
</event>
<event>
 6    1  0.7270761E-006  0.1549802E+03  0.7546771E-02  0.1202600E+00
         -2   -1    0    0    0  501 -0.00000000000E+00  0.00000000000E+00  0.21397743770E+02  0.21397743770E+02  0.00000000000E+00 0.  1.
          2   -1    0    0  501    0  0.00000000000E+00 -0.00000000000E+00 -0.95344604245E+03  0.95344604245E+03  0.00000000000E+00 0. -1.
          5    1    1    2  502    0 -0.11935003125E+03  0.18782343607E+02 -0.34478690120E+03  0.36537282826E+03  0.47000000000E+01 0.  1.
         -5    1    1    2    0  502  0.27741495310E+02 -0.17441005951E+02 -0.12549014811E+03  0.12978307488E+03  0.47000000000E+01 0.  1.
        -11    1    1    2    0    0 -0.84148610664E+01  0.25031602548E+02 -0.97832542185E+02  0.10133408767E+03  0.00000000000E+00 0. -1.
         11    1    1    2    0    0  0.10002339700E+03 -0.26372940204E+02 -0.36393870718E+03  0.37835379541E+03  0.00000000000E+00 0.  1.
<mgrwt>
<rscale>  0 0.14828234E+03</rscale>
<asrwt>0</asrwt>
<pdfrwt beam="2">  1        2 0.14668397E+00 0.15498021E+03</pdfrwt>
<pdfrwt beam="1">  1       -2 0.32919613E-02 0.15498021E+03</pdfrwt>
<totfact> 0.10041898E+04</totfact>
</mgrwt>
</event>
<event>
 6    1  0.7270761E-006  0.1267214E+03  0.7546771E-02  0.1246539E+00
         -1   -1    0    0    0  501 -0.00000000000E+00  0.00000000000E+00  0.20567675567E+03  0.20567675567E+03  0.00000000000E+00 0.  1.
          1   -1    0    0  501    0  0.00000000000E+00 -0.00000000000E+00 -0.66284263989E+02  0.66284263989E+02  0.00000000000E+00 0. -1.
          5    1    1    2  502    0 -0.56515883176E+02 -0.29538976318E+02  0.22675946480E+02  0.67844562949E+02  0.47000000000E+01 0. -1.
         -5    1    1    2    0  502  0.38402605700E+02  0.19279576258E+02  0.98151066227E+02  0.10724823536E+03  0.47000000000E+01 0. -1.
        -11    1    1    2    0    0  0.13058770199E+02  0.51374700539E+02  0.48407849125E+01  0.53228982079E+02  0.00000000000E+00 0. -1.
         11    1    1    2    0    0  0.50545072760E+01 -0.41115300478E+02  0.13724694057E+02  0.43639239272E+02  0.00000000000E+00 0.  1.
<mgrwt>
<rscale>  0 0.11793732E+03</rscale>
<asrwt>0</asrwt>
<pdfrwt beam="2">  1        1 0.10197579E-01 0.12672143E+03</pdfrwt>
<pdfrwt beam="1">  1       -1 0.31642577E-01 0.12672143E+03</pdfrwt>
<totfact> 0.55167649E+03</totfact>
</mgrwt>
</event>
<event>
 6    1  0.7270761E-006  0.1566731E+03  0.7546771E-02  0.1199738E+00
         -1   -1    0    0    0  501 -0.00000000000E+00  0.00000000000E+00  0.96739199416E+03  0.96739199416E+03  0.00000000000E+00 0.  1.
          1   -1    0    0  501    0  0.00000000000E+00 -0.00000000000E+00 -0.25424404656E+02  0.25424404656E+02  0.00000000000E+00 0. -1.
          5    1    1    2  502    0 -0.16338079988E+02  0.80432028522E+02  0.32105648611E+03  0.33141454607E+03  0.47000000000E+01 0. -1.
         -5    1    1    2    0  502 -0.65295957211E+02 -0.32923900580E+02  0.36877379446E+03  0.37598370541E+03  0.47000000000E+01 0. -1.
        -11    1    1    2    0    0  0.36390913242E+02 -0.42563893026E+01  0.20179382734E+03  0.20509306221E+03  0.00000000000E+00 0.  1.
         11    1    1    2    0    0  0.45243123957E+02 -0.43251738639E+02  0.50343481597E+02  0.80325085123E+02  0.00000000000E+00 0. -1.
<mgrwt>
<rscale>  0 0.15059935E+03</rscale>
<asrwt>0</asrwt>
<pdfrwt beam="2">  1        1 0.39114476E-02 0.15667313E+03</pdfrwt>
<pdfrwt beam="1">  1       -1 0.14882951E+00 0.15667313E+03</pdfrwt>
<totfact> 0.89467103E+02</totfact>
</mgrwt>
</event>
<event>
 6    1  0.7270761E-006  0.1265272E+03  0.7546771E-02  0.1248265E+00
         -2   -1    0    0    0  501 -0.00000000000E+00  0.00000000000E+00  0.23477088780E+02  0.23477088780E+02  0.00000000000E+00 0.  1.
          2   -1    0    0  501    0  0.00000000000E+00 -0.00000000000E+00 -0.56322286958E+03  0.56322286958E+03  0.00000000000E+00 0. -1.
          5    1    1    2  502    0 -0.54344485786E+02 -0.58624684438E+01 -0.12098588419E+03  0.13284338841E+03  0.47000000000E+01 0.  1.
         -5    1    1    2    0  502  0.65544977952E+02  0.22157829769E+02 -0.97747404987E+02  0.11984889960E+03  0.47000000000E+01 0.  1.
        -11    1    1    2    0    0 -0.49739098374E+02  0.15814938881E+01 -0.17028994974E+03  0.17741236150E+03  0.00000000000E+00 0.  1.
         11    1    1    2    0    0  0.38538606208E+02 -0.17876855213E+02 -0.15072254188E+03  0.15659530884E+03  0.00000000000E+00 0. -1.
<mgrwt>
<rscale>  0 0.11692103E+03</rscale>
<asrwt>0</asrwt>
<pdfrwt beam="2">  1        2 0.86649677E-01 0.12652723E+03</pdfrwt>
<pdfrwt beam="1">  1       -2 0.36118596E-02 0.12652723E+03</pdfrwt>
<totfact> 0.16377107E+04</totfact>
</mgrwt>
</event>
<event>
 6    1  0.7270761E-006  0.1386377E+03  0.7546771E-02  0.1227191E+00
          1   -1    0    0  501    0  0.00000000000E+00  0.00000000000E+00  0.16047465062E+03  0.16047465062E+03  0.00000000000E+00 0. -1.
         -1   -1    0    0    0  501 -0.00000000000E+00 -0.00000000000E+00 -0.96600666164E+02  0.96600666164E+02  0.00000000000E+00 0.  1.
          5    1    1    2  502    0  0.75054260955E+02 -0.51981582999E+01 -0.10947855188E+02  0.76171572587E+02  0.47000000000E+01 0.  1.
         -5    1    1    2    0  502 -0.38058810077E+02 -0.41980501764E+02  0.28410207839E+02  0.63561509283E+02  0.47000000000E+01 0.  1.
        -11    1    1    2    0    0 -0.64852933177E+02  0.35956565741E+02  0.46085067398E+02  0.87307565529E+02  0.00000000000E+00 0. -1.
         11    1    1    2    0    0  0.27857482299E+02  0.11222094323E+02  0.32656441162E+00  0.30034669389E+02  0.00000000000E+00 0.  1.
<mgrwt>
<rscale>  0 0.13017844E+03</rscale>
<asrwt>0</asrwt>
<pdfrwt beam="1">  1        1 0.24688408E-01 0.13863766E+03</pdfrwt>
<pdfrwt beam="2">  1       -1 0.14861641E-01 0.13863766E+03</pdfrwt>
<totfact> 0.60437760E+03</totfact>
</mgrwt>
</event>
<event>
 6    1  0.7270761E-006  0.1538203E+03  0.7546771E-02  0.1203978E+00
          1   -1    0    0  501    0  0.00000000000E+00  0.00000000000E+00  0.18252531272E+03  0.18252531272E+03  0.00000000000E+00 0. -1.
         -1   -1    0    0    0  501 -0.00000000000E+00 -0.00000000000E+00 -0.11815533742E+03  0.11815533742E+03  0.00000000000E+00 0.  1.
          5    1    1    2  502    0 -0.18226842123E+02  0.56739383834E+02 -0.59388775657E+02  0.84265604641E+02  0.47000000000E+01 0. -1.
         -5    1    1    2    0  502 -0.43341032216E+02  0.84181496558E+01  0.53676908854E+02  0.69660683756E+02  0.47000000000E+01 0. -1.
        -11    1    1    2    0    0  0.83896953324E+02 -0.34655963390E+02  0.54427507955E+02  0.10583991779E+03  0.00000000000E+00 0. -1.
         11    1    1    2    0    0 -0.22329078985E+02 -0.30501570099E+02  0.15654334146E+02  0.40914443958E+02  0.00000000000E+00 0.  1.
<mgrwt>
<rscale>  0 0.14718265E+03</rscale>
<asrwt>0</asrwt>
<pdfrwt beam="1">  1        1 0.28080817E-01 0.15382027E+03</pdfrwt>
<pdfrwt beam="2">  1       -1 0.18177744E-01 0.15382027E+03</pdfrwt>
<totfact> 0.37624986E+03</totfact>
</mgrwt>
</event>
<event>
 6    1  0.7270761E-006  0.2747716E+03  0.7546771E-02  0.1098579E+00
         -2   -1    0    0    0  501 -0.00000000000E+00  0.00000000000E+00  0.40773052887E+02  0.40773052887E+02  0.00000000000E+00 0.  1.
          2   -1    0    0  501    0  0.00000000000E+00 -0.00000000000E+00 -0.46292494226E+03  0.46292494226E+03  0.00000000000E+00 0. -1.
          5    1    1    2  502    0 -0.83496796925E+02 -0.44819514669E+02 -0.66980115596E+02  0.11614185239E+03  0.47000000000E+01 0. -1.
         -5    1    1    2    0  502  0.20932847702E+02 -0.66983974447E+01 -0.12425364210E+03  0.12626998938E+03  0.47000000000E+01 0. -1.
        -11    1    1    2    0    0  0.35929566660E+02  0.18030432060E+02 -0.20971448815E+03  0.21353265975E+03  0.00000000000E+00 0.  1.
         11    1    1    2    0    0  0.26634382562E+02  0.33487480054E+02 -0.21203643522E+02  0.47753493625E+02  0.00000000000E+00 0. -1.
<mgrwt>
<rscale>  0 0.27477164E+03</rscale>
<asrwt>0</asrwt>
<pdfrwt beam="2">  1        2 0.71219221E-01 0.27477164E+03</pdfrwt>
<pdfrwt beam="1">  1       -2 0.62727775E-02 0.27477164E+03</pdfrwt>
<totfact> 0.93232175E+03</totfact>
</mgrwt>
</event>
<event>
 6    1  0.7270761E-006  0.2068452E+03  0.7546771E-02  0.1148360E+00
          2   -1    0    0  501    0  0.00000000000E+00  0.00000000000E+00  0.12701693789E+04  0.12701693789E+04  0.00000000000E+00 0. -1.
         -2   -1    0    0    0  501 -0.00000000000E+00 -0.00000000000E+00 -0.31863650099E+02  0.31863650099E+02  0.00000000000E+00 0.  1.
          5    1    1    2  502    0 -0.38440337710E+02  0.90837524505E+01  0.26359018558E+03  0.26657466132E+03  0.47000000000E+01 0. -1.
         -5    1    1    2    0  502 -0.97643850287E+02 -0.10204194495E+03  0.25124112684E+03  0.28825522344E+03  0.47000000000E+01 0. -1.
        -11    1    1    2    0    0  0.62416788642E+02 -0.32878948445E+01  0.18559327401E+03  0.19583546439E+03  0.00000000000E+00 0. -1.
         11    1    1    2    0    0  0.73667399355E+02  0.96246087342E+02  0.53788114239E+03  0.55136767986E+03  0.00000000000E+00 0.  1.
<mgrwt>
<rscale>  0 0.20164294E+03</rscale>
<asrwt>0</asrwt>
<pdfrwt beam="1">  1        2 0.19541063E+00 0.20684516E+03</pdfrwt>
<pdfrwt beam="2">  1       -2 0.49021010E-02 0.20684516E+03</pdfrwt>
<totfact> 0.36626300E+03</totfact>
</mgrwt>
</event>
<event>
 6    1  0.7270761E-006  0.1411268E+03  0.7546771E-02  0.1221533E+00
          4   -1    0    0  501    0  0.00000000000E+00  0.00000000000E+00  0.32838680105E+02  0.32838680105E+02  0.00000000000E+00 0. -1.
         -4   -1    0    0    0  501 -0.00000000000E+00 -0.00000000000E+00 -0.49926765583E+03  0.49926765583E+03  0.00000000000E+00 0.  1.
          5    1    1    2  502    0 -0.24031916214E+02  0.18817416044E+02 -0.20741446122E+01  0.30951901709E+02  0.47000000000E+01 0.  1.
         -5    1    1    2    0  502  0.42706743576E+02  0.43977464117E+02 -0.25505546258E+03  0.26236093896E+03  0.47000000000E+01 0.  1.
        -11    1    1    2    0    0 -0.11827258967E+02  0.95603063918E+01  0.20048791749E+01  0.15339591047E+02  0.00000000000E+00 0. -1.
         11    1    1    2    0    0 -0.68475683940E+01 -0.72355186553E+02 -0.21130424771E+03  0.22345390423E+03  0.00000000000E+00 0.  1.
<mgrwt>
<rscale>  0 0.13407419E+03</rscale>
<asrwt>0</asrwt>
<pdfrwt beam="1">  1        4 0.50521054E-02 0.14112685E+03</pdfrwt>
<pdfrwt beam="2">  1       -4 0.76810398E-01 0.14112685E+03</pdfrwt>
<totfact> 0.61065000E+02</totfact>
</mgrwt>
</event>
<event>
 6    1  0.7270761E-006  0.1416556E+03  0.7546771E-02  0.1221748E+00
          2   -1    0    0  501    0  0.00000000000E+00  0.00000000000E+00  0.19592624729E+03  0.19592624729E+03  0.00000000000E+00 0. -1.
         -2   -1    0    0    0  501 -0.00000000000E+00 -0.00000000000E+00 -0.89144142975E+02  0.89144142975E+02  0.00000000000E+00 0.  1.
          5    1    1    2  502    0  0.48251412924E+02 -0.20981059251E+02  0.25874299547E+02  0.58821535797E+02  0.47000000000E+01 0.  1.
         -5    1    1    2    0  502 -0.73734363841E+02 -0.40596906723E+02 -0.45730168559E+01  0.84426700336E+02  0.47000000000E+01 0.  1.
        -11    1    1    2    0    0  0.74687876330E+01  0.53766866108E+02  0.17250651213E+00  0.54283408500E+02  0.00000000000E+00 0.  1.
         11    1    1    2    0    0  0.18014163284E+02  0.78110998653E+01  0.85308315113E+02  0.87538745635E+02  0.00000000000E+00 0. -1.
<mgrwt>
<rscale>  0 0.13392275E+03</rscale>
<asrwt>0</asrwt>
<pdfrwt beam="1">  1        2 0.30142500E-01 0.14165561E+03</pdfrwt>
<pdfrwt beam="2">  1       -2 0.13714484E-01 0.14165561E+03</pdfrwt>
<totfact> 0.66059070E+03</totfact>
</mgrwt>
</event>
<event>
 6    1  0.7270761E-006  0.1345536E+03  0.7546771E-02  0.1233182E+00
         -2   -1    0    0    0  501 -0.00000000000E+00  0.00000000000E+00  0.31490066774E+02  0.31490066774E+02  0.00000000000E+00 0. -1.
          2   -1    0    0  501    0  0.00000000000E+00 -0.00000000000E+00 -0.45410725502E+03  0.45410725502E+03  0.00000000000E+00 0.  1.
          5    1    1    2  502    0  0.39466356433E+02 -0.69959360635E+01 -0.23837814462E+03  0.24177006896E+03  0.47000000000E+01 0. -1.
         -5    1    1    2    0  502 -0.37210843455E+01  0.41678687253E+02 -0.14244592772E+02  0.44451747582E+02  0.47000000000E+01 0. -1.
        -11    1    1    2    0    0 -0.36952631055E+02 -0.15737030297E+02 -0.17515622230E+03  0.17970212373E+03  0.00000000000E+00 0.  1.
         11    1    1    2    0    0  0.12073589680E+01 -0.18945720893E+02  0.51617714479E+01  0.19673381517E+02  0.00000000000E+00 0. -1.
<mgrwt>
<rscale>  0 0.12621550E+03</rscale>
<asrwt>0</asrwt>
<pdfrwt beam="2">  1        2 0.69862654E-01 0.13455364E+03</pdfrwt>
<pdfrwt beam="1">  1       -2 0.48446257E-02 0.13455364E+03</pdfrwt>
<totfact> 0.13472970E+04</totfact>
</mgrwt>
</event>
<event>
 6    1  0.7270761E-006  0.2703758E+03  0.7546771E-02  0.1101065E+00
         -2   -1    0    0    0  501 -0.00000000000E+00  0.00000000000E+00  0.11017804704E+03  0.11017804704E+03  0.00000000000E+00 0.  1.
          2   -1    0    0  501    0  0.00000000000E+00 -0.00000000000E+00 -0.16587492054E+03  0.16587492054E+03  0.00000000000E+00 0. -1.
          5    1    1    2  502    0  0.23377645223E+02 -0.41280864960E+02  0.81360865023E+01  0.48362278809E+02  0.47000000000E+01 0. -1.
         -5    1    1    2    0  502 -0.16590502590E+02  0.82079309974E+02  0.22056070680E+02  0.86722650766E+02  0.47000000000E+01 0. -1.
        -11    1    1    2    0    0  0.40509396501E+02 -0.37767526171E+02 -0.73410520813E+02  0.91959239905E+02  0.00000000000E+00 0. -1.
         11    1    1    2    0    0 -0.47296539135E+02 -0.30309188432E+01 -0.12478509873E+02  0.49008798106E+02  0.00000000000E+00 0.  1.
<mgrwt>
<rscale>  0 0.27037585E+03</rscale>
<asrwt>0</asrwt>
<pdfrwt beam="2">  1        2 0.25519218E-01 0.27037585E+03</pdfrwt>
<pdfrwt beam="1">  1       -2 0.16950469E-01 0.27037585E+03</pdfrwt>
<totfact> 0.58113549E+03</totfact>
</mgrwt>
</event>
<event>
 6    1  0.7270761E-006  0.1347856E+03  0.7546771E-02  0.1233881E+00
         -2   -1    0    0    0  501 -0.00000000000E+00  0.00000000000E+00  0.29284409069E+02  0.29284409069E+02  0.00000000000E+00 0.  1.
          2   -1    0    0  501    0  0.00000000000E+00 -0.00000000000E+00 -0.50882875649E+03  0.50882875649E+03  0.00000000000E+00 0. -1.
          5    1    1    2  502    0 -0.36885940553E+02 -0.25627057743E+02 -0.15672659941E+02  0.47802102137E+02  0.47000000000E+01 0.  1.
         -5    1    1    2    0  502 -0.38525063526E+01  0.55319840423E+02 -0.19096244802E+03  0.19890669447E+03  0.47000000000E+01 0.  1.
        -11    1    1    2    0    0  0.51381868395E+02  0.82259649398E+01 -0.21611049110E+03  0.22228699301E+03  0.00000000000E+00 0.  1.
         11    1    1    2    0    0 -0.10643421489E+02 -0.37918747620E+02 -0.56798748357E+02  0.69117375941E+02  0.00000000000E+00 0. -1.
<mgrwt>
<rscale>  0 0.12576358E+03</rscale>
<asrwt>0</asrwt>
<pdfrwt beam="2">  1        2 0.78281339E-01 0.13478562E+03</pdfrwt>
<pdfrwt beam="1">  1       -2 0.45052942E-02 0.13478562E+03</pdfrwt>
<totfact> 0.13267257E+04</totfact>
</mgrwt>
</event>
<event>
 6    1  0.7270761E-006  0.2464945E+03  0.7546771E-02  0.1115540E+00
          1   -1    0    0  501    0  0.00000000000E+00  0.00000000000E+00  0.12260300928E+03  0.12260300928E+03  0.00000000000E+00 0. -1.
         -1   -1    0    0    0  501 -0.00000000000E+00 -0.00000000000E+00 -0.12389490555E+03  0.12389490555E+03  0.00000000000E+00 0.  1.
          5    1    1    2  502    0 -0.58220359592E+02 -0.12066321362E+02  0.29523839322E+02  0.66550382948E+02  0.47000000000E+01 0. -1.
         -5    1    1    2    0  502  0.16596499226E+02  0.14720619876E+02 -0.66581037656E+02  0.70336796994E+02  0.47000000000E+01 0. -1.
        -11    1    1    2    0    0  0.29493847679E+02 -0.42227201575E+02 -0.47062421163E+01  0.51722068004E+02  0.00000000000E+00 0. -1.
         11    1    1    2    0    0  0.12130012686E+02  0.39572903060E+02  0.40471544181E+02  0.57888666877E+02  0.00000000000E+00 0.  1.
<mgrwt>
<rscale>  0 0.24649453E+03</rscale>
<asrwt>0</asrwt>
<pdfrwt beam="1">  1        1 0.18862001E-01 0.24649453E+03</pdfrwt>
<pdfrwt beam="2">  1       -1 0.19060755E-01 0.24649453E+03</pdfrwt>
<totfact> 0.59319998E+03</totfact>
</mgrwt>
</event>
<event>
 6    1  0.7270761E-006  0.2702206E+03  0.7546771E-02  0.1101153E+00
          2   -1    0    0  501    0  0.00000000000E+00  0.00000000000E+00  0.47180709806E+03  0.47180709806E+03  0.00000000000E+00 0. -1.
         -2   -1    0    0    0  501 -0.00000000000E+00 -0.00000000000E+00 -0.38691227679E+02  0.38691227679E+02  0.00000000000E+00 0.  1.
          5    1    1    2  502    0 -0.70046338621E+01 -0.70310192508E+00  0.16007062538E+03  0.16029427425E+03  0.47000000000E+01 0.  1.
         -5    1    1    2    0  502 -0.58711498501E+02 -0.33198847083E+02  0.18919893843E+02  0.70208659629E+02  0.47000000000E+01 0.  1.
        -11    1    1    2    0    0  0.65000729989E+02  0.57670591753E+01  0.23959344889E+03  0.24832111192E+03  0.00000000000E+00 0. -1.
         11    1    1    2    0    0  0.71540237348E+00  0.28134889832E+02  0.14531902264E+02  0.31674279942E+02  0.00000000000E+00 0.  1.
<mgrwt>
<rscale>  0 0.27022062E+03</rscale>
<asrwt>0</asrwt>
<pdfrwt beam="1">  1        2 0.72585704E-01 0.27022062E+03</pdfrwt>
<pdfrwt beam="2">  1       -2 0.59524969E-02 0.27022062E+03</pdfrwt>
<totfact> 0.98877361E+03</totfact>
</mgrwt>
</event>
<event>
 6    1  0.7270761E-006  0.1257375E+03  0.7546771E-02  0.1249089E+00
          4   -1    0    0  501    0  0.00000000000E+00  0.00000000000E+00  0.23002917903E+02  0.23002917903E+02  0.00000000000E+00 0. -1.
         -4   -1    0    0    0  501 -0.00000000000E+00 -0.00000000000E+00 -0.55074686083E+03  0.55074686083E+03  0.00000000000E+00 0.  1.
          5    1    1    2  502    0 -0.25574154732E+02 -0.27886013106E+02 -0.35259042792E+03  0.35464597414E+03  0.47000000000E+01 0.  1.
         -5    1    1    2    0  502  0.28532390129E+02  0.14593420251E+02 -0.18798454146E+02  0.37450461671E+02  0.47000000000E+01 0.  1.
        -11    1    1    2    0    0 -0.27127621043E+02 -0.28276462231E+01 -0.14928137239E+03  0.15175253391E+03  0.00000000000E+00 0.  1.
         11    1    1    2    0    0  0.24169385646E+02  0.16120239077E+02 -0.70736884718E+01  0.29900809003E+02  0.00000000000E+00 0. -1.
<mgrwt>
<rscale>  0 0.11643965E+03</rscale>
<asrwt>0</asrwt>
<pdfrwt beam="1">  1        4 0.35389108E-02 0.12573748E+03</pdfrwt>
<pdfrwt beam="2">  1       -4 0.84730277E-01 0.12573748E+03</pdfrwt>
<totfact> 0.84622725E+02</totfact>
</mgrwt>
</event>
<event>
 6    1  0.7270761E-006  0.1550377E+03  0.7546771E-02  0.1212759E+00
          1   -1    0    0  501    0  0.00000000000E+00  0.00000000000E+00  0.12917014777E+03  0.12917014777E+03  0.00000000000E+00 0. -1.
         -1   -1    0    0    0  501 -0.00000000000E+00 -0.00000000000E+00 -0.13283545289E+03  0.13283545289E+03  0.00000000000E+00 0.  1.
          5    1    1    2  502    0  0.26455425476E+02 -0.56742926965E+01  0.50280900763E+02  0.57291763075E+02  0.47000000000E+01 0. -1.
         -5    1    1    2    0  502 -0.62819678682E+02  0.29501732698E+02 -0.70531629537E+02  0.99062934678E+02  0.47000000000E+01 0.  1.
        -11    1    1    2    0    0  0.33785823987E+02  0.17665407710E+02  0.42159549473E+02  0.56841676117E+02  0.00000000000E+00 0. -1.
         11    1    1    2    0    0  0.25784292194E+01 -0.41492847712E+02 -0.25574125819E+02  0.48809226790E+02  0.00000000000E+00 0.  1.
<mgrwt>
<rscale>  0 0.14042414E+03</rscale>
<asrwt>0</asrwt>
<pdfrwt beam="1">  1        1 0.19872330E-01 0.15503774E+03</pdfrwt>
<pdfrwt beam="2">  1       -1 0.20436223E-01 0.15503774E+03</pdfrwt>
<totfact> 0.48284141E+03</totfact>
</mgrwt>
</event>
<event>
 6    1  0.7270761E-006  0.1348088E+03  0.7546771E-02  0.1232143E+00
         -2   -1    0    0    0  501 -0.00000000000E+00  0.00000000000E+00  0.26746056324E+02  0.26746056324E+02  0.00000000000E+00 0.  1.
          2   -1    0    0  501    0  0.00000000000E+00 -0.00000000000E+00 -0.59179892463E+03  0.59179892463E+03  0.00000000000E+00 0. -1.
          5    1    1    2  502    0 -0.79434608319E+02 -0.31594499473E+02 -0.18669087633E+03  0.20538656894E+03  0.47000000000E+01 0. -1.
         -5    1    1    2    0  502  0.41489647564E+02 -0.17090907566E+01 -0.37155172066E+02  0.55918768383E+02  0.47000000000E+01 0. -1.
        -11    1    1    2    0    0  0.44202225488E+02  0.61693020051E+02 -0.26581688733E+03  0.27643893187E+03  0.00000000000E+00 0.  1.
         11    1    1    2    0    0 -0.62572647325E+01 -0.28389429821E+02 -0.75389932575E+02  0.80800711761E+02  0.00000000000E+00 0. -1.
<mgrwt>
<rscale>  0 0.12689126E+03</rscale>
<asrwt>0</asrwt>
<pdfrwt beam="2">  1        2 0.91045975E-01 0.13480885E+03</pdfrwt>
<pdfrwt beam="1">  1       -2 0.41147785E-02 0.13480885E+03</pdfrwt>
<totfact> 0.12830765E+04</totfact>
</mgrwt>
</event>
<event>
 6    1  0.7270761E-006  0.1472350E+03  0.7546771E-02  0.1216743E+00
          1   -1    0    0  501    0  0.00000000000E+00  0.00000000000E+00  0.25325126450E+03  0.25325126450E+03  0.00000000000E+00 0. -1.
         -1   -1    0    0    0  501 -0.00000000000E+00 -0.00000000000E+00 -0.66340285174E+02  0.66340285174E+02  0.00000000000E+00 0.  1.
          5    1    1    2  502    0 -0.36102036689E+02  0.99558995254E+01  0.27334295013E+02  0.46601831212E+02  0.47000000000E+01 0.  1.
         -5    1    1    2    0  502  0.81038513659E+02 -0.73467561322E+02  0.76245861382E+02  0.13341755747E+03  0.47000000000E+01 0.  1.
        -11    1    1    2    0    0 -0.66914280020E+02  0.34534547391E+02  0.51355348035E+02  0.91145639533E+02  0.00000000000E+00 0.  1.
         11    1    1    2    0    0  0.21977803051E+02  0.28977114405E+02  0.31975474897E+02  0.48426521464E+02  0.00000000000E+00 0. -1.
<mgrwt>
<rscale>  0 0.13749270E+03</rscale>
<asrwt>0</asrwt>
<pdfrwt beam="1">  1        1 0.38961732E-01 0.14723495E+03</pdfrwt>
<pdfrwt beam="2">  1       -1 0.10206198E-01 0.14723495E+03</pdfrwt>
<totfact> 0.61487176E+03</totfact>
</mgrwt>
</event>
<event>
 6    1  0.7270761E-006  0.1382887E+03  0.7546771E-02  0.1227327E+00
          2   -1    0    0  501    0  0.00000000000E+00  0.00000000000E+00  0.10189043995E+03  0.10189043995E+03  0.00000000000E+00 0. -1.
         -2   -1    0    0    0  501 -0.00000000000E+00 -0.00000000000E+00 -0.16313342548E+03  0.16313342548E+03  0.00000000000E+00 0.  1.
          5    1    1    2  502    0  0.12646849226E+02 -0.56047060769E+02  0.21165700334E+02  0.61410851540E+02  0.47000000000E+01 0. -1.
         -5    1    1    2    0  502  0.12981523892E+02  0.27368681223E+01 -0.93690209146E+02  0.94741520462E+02  0.47000000000E+01 0. -1.
        -11    1    1    2    0    0 -0.56327066176E+02  0.52755301796E+02  0.37909188907E+01  0.77267271969E+02  0.00000000000E+00 0.  1.
         11    1    1    2    0    0  0.30698693058E+02  0.55489085064E+00  0.74906043914E+01  0.31604221450E+02  0.00000000000E+00 0. -1.
<mgrwt>
<rscale>  0 0.13008657E+03</rscale>
<asrwt>0</asrwt>
<pdfrwt beam="1">  1        2 0.15675452E-01 0.13828868E+03</pdfrwt>
<pdfrwt beam="2">  1       -2 0.25097450E-01 0.13828868E+03</pdfrwt>
<totfact> 0.49797972E+03</totfact>
</mgrwt>
</event>
<event>
 6    1  0.7270761E-006  0.1332828E+03  0.7546771E-02  0.1234990E+00
          2   -1    0    0  501    0  0.00000000000E+00  0.00000000000E+00  0.23757491813E+02  0.23757491813E+02  0.00000000000E+00 0. -1.
         -2   -1    0    0    0  501 -0.00000000000E+00 -0.00000000000E+00 -0.66043865839E+03  0.66043865839E+03  0.00000000000E+00 0.  1.
          5    1    1    2  502    0 -0.30637255175E+02 -0.63736089331E+02 -0.16507929134E+03  0.17965019598E+03  0.47000000000E+01 0. -1.
         -5    1    1    2    0  502  0.45520961541E+02  0.19933220467E+02 -0.30104144283E+03  0.30515165331E+03  0.47000000000E+01 0. -1.
        -11    1    1    2    0    0 -0.40817942906E+02  0.39764410683E+02 -0.16208891518E+03  0.17181422887E+03  0.00000000000E+00 0.  1.
         11    1    1    2    0    0  0.25934236540E+02  0.40384581810E+01 -0.84715172371E+01  0.27580072040E+02  0.00000000000E+00 0. -1.
<mgrwt>
<rscale>  0 0.12505093E+03</rscale>
<asrwt>0</asrwt>
<pdfrwt beam="1">  1        2 0.36549987E-02 0.13328276E+03</pdfrwt>
<pdfrwt beam="2">  1       -2 0.10160595E+00 0.13328276E+03</pdfrwt>
<totfact> 0.18973432E+03</totfact>
</mgrwt>
</event>
<event>
 6    1  0.7270761E-006  0.1603348E+03  0.7546771E-02  0.1201452E+00
          2   -1    0    0  501    0  0.00000000000E+00  0.00000000000E+00  0.31927639236E+02  0.31927639236E+02  0.00000000000E+00 0. -1.
         -2   -1    0    0    0  501 -0.00000000000E+00 -0.00000000000E+00 -0.62071681154E+03  0.62071681154E+03  0.00000000000E+00 0.  1.
          5    1    1    2  502    0 -0.36898556838E+01  0.42091052802E+02 -0.46425465881E+02  0.62949866110E+02  0.47000000000E+01 0. -1.
         -5    1    1    2    0  502 -0.57266569990E+02 -0.89200863583E+02 -0.31657506123E+03  0.33388338308E+03  0.47000000000E+01 0.  1.
        -11    1    1    2    0    0 -0.10730639831E+02  0.75844661971E+01  0.24226265878E+01  0.13361881539E+02  0.00000000000E+00 0.  1.
         11    1    1    2    0    0  0.71687065506E+02  0.39525344584E+02 -0.22821127178E+03  0.24244932005E+03  0.00000000000E+00 0. -1.
<mgrwt>
<rscale>  0 0.14920644E+03</rscale>
<asrwt>0</asrwt>
<pdfrwt beam="1">  1        2 0.49119445E-02 0.16033479E+03</pdfrwt>
<pdfrwt beam="2">  1       -2 0.95494895E-01 0.16033479E+03</pdfrwt>
<totfact> 0.14963794E+03</totfact>
</mgrwt>
</event>
<event>
 6    1  0.7270761E-006  0.2099070E+03  0.7546771E-02  0.1145638E+00
          2   -1    0    0  501    0  0.00000000000E+00  0.00000000000E+00  0.55069814486E+02  0.55069814486E+02  0.00000000000E+00 0. -1.
         -2   -1    0    0    0  501 -0.00000000000E+00 -0.00000000000E+00 -0.73827099479E+03  0.73827099479E+03  0.00000000000E+00 0.  1.
          5    1    1    2  502    0  0.51659381448E+02  0.14366691539E+03 -0.20620038544E+03  0.25661169737E+03  0.47000000000E+01 0.  1.
         -5    1    1    2    0  502 -0.50971982261E+01  0.18412077079E+02 -0.19677522722E+03  0.19775633002E+03  0.47000000000E+01 0.  1.
        -11    1    1    2    0    0 -0.59912464518E+02 -0.54747015842E+02 -0.10007749667E+03  0.12884969728E+03  0.00000000000E+00 0. -1.
         11    1    1    2    0    0  0.13350281296E+02 -0.10733197662E+03 -0.18014807097E+03  0.21012308462E+03  0.00000000000E+00 0.  1.
<mgrwt>
<rscale>  0 0.20493794E+03</rscale>
<asrwt>0</asrwt>
<pdfrwt beam="1">  1        2 0.84722792E-02 0.20990703E+03</pdfrwt>
<pdfrwt beam="2">  1       -2 0.11358015E+00 0.20990703E+03</pdfrwt>
<totfact> 0.49868613E+02</totfact>
</mgrwt>
</event>
<event>
 6    1  0.7270761E-006  0.2849710E+03  0.7546771E-02  0.1093004E+00
          3   -1    0    0  501    0  0.00000000000E+00  0.00000000000E+00  0.24494384514E+02  0.24494384514E+02  0.00000000000E+00 0. -1.
         -3   -1    0    0    0  501 -0.00000000000E+00 -0.00000000000E+00 -0.82884801027E+03  0.82884801027E+03  0.00000000000E+00 0.  1.
          5    1    1    2  502    0  0.18606099386E+02  0.29230908708E+02 -0.15503354930E+03  0.15892804777E+03  0.47000000000E+01 0.  1.
         -5    1    1    2    0  502  0.16475511341E+01 -0.11688910451E+03 -0.34597996647E+03  0.36522596345E+03  0.47000000000E+01 0.  1.
        -11    1    1    2    0    0  0.31009211199E+02  0.31813524238E+02 -0.62362070352E+02  0.76568265765E+02  0.00000000000E+00 0. -1.
         11    1    1    2    0    0 -0.51262861719E+02  0.55844671564E+02 -0.24097803964E+03  0.25262011781E+03  0.00000000000E+00 0.  1.
<mgrwt>
<rscale>  0 0.28497103E+03</rscale>
<asrwt>0</asrwt>
<pdfrwt beam="1">  1        3 0.37683671E-02 0.28497103E+03</pdfrwt>
<pdfrwt beam="2">  1       -3 0.12751507E+00 0.28497103E+03</pdfrwt>
<totfact> 0.46329595E+02</totfact>
</mgrwt>
</event>
<event>
 6    1  0.7270761E-006  0.1369245E+03  0.7546771E-02  0.1228580E+00
          1   -1    0    0  501    0  0.00000000000E+00  0.00000000000E+00  0.10181270219E+03  0.10181270219E+03  0.00000000000E+00 0. -1.
         -1   -1    0    0    0  501 -0.00000000000E+00 -0.00000000000E+00 -0.15445614923E+03  0.15445614923E+03  0.00000000000E+00 0.  1.
          5    1    1    2  502    0 -0.27663669135E+02  0.55864518117E+02 -0.60453939912E+02  0.86964888463E+02  0.47000000000E+01 0. -1.
         -5    1    1    2    0  502  0.59347509437E+02 -0.98005205871E+01  0.54805009790E+01  0.60583025437E+02  0.47000000000E+01 0. -1.
        -11    1    1    2    0    0 -0.38455220697E+01 -0.22143256131E+02 -0.44123155235E+02  0.49517316769E+02  0.00000000000E+00 0.  1.
         11    1    1    2    0    0 -0.27838318232E+02 -0.23920741399E+02  0.46453147134E+02  0.59203620748E+02  0.00000000000E+00 0. -1.
<mgrwt>
<rscale>  0 0.12924512E+03</rscale>
<asrwt>0</asrwt>
<pdfrwt beam="1">  1        1 0.15663493E-01 0.13692446E+03</pdfrwt>
<pdfrwt beam="2">  1       -1 0.23762484E-01 0.13692446E+03</pdfrwt>
<totfact> 0.50916350E+03</totfact>
</mgrwt>
</event>
<event>
 6    1  0.7270761E-006  0.1337297E+03  0.7546771E-02  0.1235013E+00
          1   -1    0    0  501    0  0.00000000000E+00  0.00000000000E+00  0.90347047319E+02  0.90347047319E+02  0.00000000000E+00 0. -1.
         -1   -1    0    0    0  501 -0.00000000000E+00 -0.00000000000E+00 -0.17511788462E+03  0.17511788462E+03  0.00000000000E+00 0.  1.
          5    1    1    2  502    0  0.28957405407E+02  0.63259743124E+01  0.26713639183E+02  0.40177827185E+02  0.47000000000E+01 0. -1.
         -5    1    1    2    0  502  0.60276017111E+01  0.25714737492E+02 -0.11978264479E+03  0.12274995600E+03  0.47000000000E+01 0. -1.
        -11    1    1    2    0    0  0.15278141149E+02  0.20572366358E+02 -0.10001713272E+02  0.27507782952E+02  0.00000000000E+00 0.  1.
         11    1    1    2    0    0 -0.50263148267E+02 -0.52613078163E+02  0.18299881571E+02  0.75029365804E+02  0.00000000000E+00 0. -1.
<mgrwt>
<rscale>  0 0.12503581E+03</rscale>
<asrwt>0</asrwt>
<pdfrwt beam="1">  1        1 0.13899546E-01 0.13372966E+03</pdfrwt>
<pdfrwt beam="2">  1       -1 0.26941213E-01 0.13372966E+03</pdfrwt>
<totfact> 0.48278650E+03</totfact>
</mgrwt>
</event>
<event>
 6    1  0.7270761E-006  0.2616069E+03  0.7546771E-02  0.1106182E+00
          1   -1    0    0  501    0  0.00000000000E+00  0.00000000000E+00  0.80292213010E+02  0.80292213010E+02  0.00000000000E+00 0. -1.
         -1   -1    0    0    0  501 -0.00000000000E+00 -0.00000000000E+00 -0.21309089284E+03  0.21309089284E+03  0.00000000000E+00 0.  1.
          5    1    1    2  502    0  0.34887115739E+01  0.18734467719E+02  0.17776044749E+02  0.26480731789E+02  0.47000000000E+01 0.  1.
         -5    1    1    2    0  502 -0.47740014125E+02 -0.64147742238E+02 -0.13165183103E+03  0.15410495253E+03  0.47000000000E+01 0.  1.
        -11    1    1    2    0    0  0.71151750699E+02  0.19824971090E+02 -0.93108079328E+01  0.74446573129E+02  0.00000000000E+00 0.  1.
         11    1    1    2    0    0 -0.26900448148E+02  0.25588303429E+02 -0.96120856191E+01  0.38350848398E+02  0.00000000000E+00 0. -1.
<mgrwt>
<rscale>  0 0.26160688E+03</rscale>
<asrwt>0</asrwt>
<pdfrwt beam="1">  1        1 0.12352648E-01 0.26160688E+03</pdfrwt>
<pdfrwt beam="2">  1       -1 0.32783215E-01 0.26160688E+03</pdfrwt>
<totfact> 0.41973847E+03</totfact>
</mgrwt>
</event>
<event>
 6    1  0.7270761E-006  0.1679415E+03  0.7546771E-02  0.1205111E+00
         -1   -1    0    0    0  501 -0.00000000000E+00  0.00000000000E+00  0.12430905746E+03  0.12430905746E+03  0.00000000000E+00 0.  1.
          1   -1    0    0  501    0  0.00000000000E+00 -0.00000000000E+00 -0.15338354758E+03  0.15338354758E+03  0.00000000000E+00 0. -1.
          5    1    1    2  502    0  0.69637230169E+02  0.11983285338E+01 -0.18680059179E+02  0.72262123051E+02  0.47000000000E+01 0. -1.
         -5    1    1    2    0  502 -0.82781540579E+02 -0.31601424850E+02  0.38925130106E+02  0.96895248939E+02  0.47000000000E+01 0.  1.
        -11    1    1    2    0    0 -0.25359568418E+02  0.49836481914E+01 -0.56227869389E+02  0.61883097495E+02  0.00000000000E+00 0.  1.
         11    1    1    2    0    0  0.38503878828E+02  0.25419448125E+02  0.69083083364E+01  0.46652135555E+02  0.00000000000E+00 0. -1.
<mgrwt>
<rscale>  0 0.14628687E+03</rscale>
<asrwt>0</asrwt>
<pdfrwt beam="2">  1        1 0.23597469E-01 0.16794152E+03</pdfrwt>
<pdfrwt beam="1">  1       -1 0.19124470E-01 0.16794152E+03</pdfrwt>
<totfact> 0.43378894E+03</totfact>
</mgrwt>
</event>
<event>
 6    1  0.7270761E-006  0.3127416E+03  0.7546771E-02  0.1080526E+00
         -2   -1    0    0    0  501 -0.00000000000E+00  0.00000000000E+00  0.52686876611E+03  0.52686876611E+03  0.00000000000E+00 0. -1.
          2   -1    0    0  501    0  0.00000000000E+00 -0.00000000000E+00 -0.21623435921E+03  0.21623435921E+03  0.00000000000E+00 0.  1.
          5    1    1    2  502    0  0.38295991349E+01  0.92751998114E+01 -0.36199921010E+01  0.11657165345E+02  0.47000000000E+01 0. -1.
         -5    1    1    2    0  502 -0.28668339421E+03 -0.55974003329E+02  0.31685803090E+03  0.43097744640E+03  0.47000000000E+01 0. -1.
        -11    1    1    2    0    0  0.18422897554E+03  0.13888365145E+02 -0.41735122082E+02  0.18940702873E+03  0.00000000000E+00 0. -1.
         11    1    1    2    0    0  0.98624819528E+02  0.32810438373E+02  0.39131490184E+02  0.11106148485E+03  0.00000000000E+00 0.  1.
<mgrwt>
<rscale>  0 0.30962423E+03</rscale>
<asrwt>0</asrwt>
<pdfrwt beam="2">  1        2 0.33266825E-01 0.31274164E+03</pdfrwt>
<pdfrwt beam="1">  1       -2 0.81056733E-01 0.31274164E+03</pdfrwt>
<totfact> 0.21730565E+02</totfact>
</mgrwt>
</event>
<event>
 6    1  0.7270761E-006  0.1573629E+03  0.7546771E-02  0.1199643E+00
         -1   -1    0    0    0  501 -0.00000000000E+00  0.00000000000E+00  0.40627448942E+03  0.40627448942E+03  0.00000000000E+00 0.  1.
          1   -1    0    0  501    0  0.00000000000E+00 -0.00000000000E+00 -0.52826762035E+02  0.52826762035E+02  0.00000000000E+00 0. -1.
          5    1    1    2  502    0 -0.15180411879E+02 -0.76566418542E+02  0.90323887044E+02  0.11947115101E+03  0.47000000000E+01 0. -1.
         -5    1    1    2    0  502 -0.69538210786E+02  0.32269695743E+02  0.13589392854E+03  0.15609659137E+03  0.47000000000E+01 0. -1.
        -11    1    1    2    0    0  0.51911729610E+02 -0.17611536426E+02  0.26641041939E+02  0.60948658738E+02  0.00000000000E+00 0. -1.
         11    1    1    2    0    0  0.32806893056E+02  0.61908259225E+02  0.10058886987E+03  0.12258485034E+03  0.00000000000E+00 0.  1.
<mgrwt>
<rscale>  0 0.15067719E+03</rscale>
<asrwt>0</asrwt>
<pdfrwt beam="2">  1        1 0.81271944E-02 0.15736289E+03</pdfrwt>
<pdfrwt beam="1">  1       -1 0.62503765E-01 0.15736289E+03</pdfrwt>
<totfact> 0.22298919E+03</totfact>
</mgrwt>
</event>
<event>
 6    1  0.7270761E-006  0.1355714E+03  0.7546771E-02  0.1231332E+00
         -1   -1    0    0    0  501 -0.00000000000E+00  0.00000000000E+00  0.54947037611E+02  0.54947037611E+02  0.00000000000E+00 0.  1.
          1   -1    0    0  501    0  0.00000000000E+00 -0.00000000000E+00 -0.26506833825E+03  0.26506833825E+03  0.00000000000E+00 0. -1.
          5    1    1    2  502    0  0.58080947588E+02 -0.63903578267E+02 -0.56470245520E+02  0.10328621601E+03  0.47000000000E+01 0. -1.
         -5    1    1    2    0  502 -0.43103505557E+02  0.13615080931E+02 -0.61205408602E+02  0.76233028683E+02  0.47000000000E+01 0. -1.
        -11    1    1    2    0    0  0.17521283702E+02  0.14027798101E+02 -0.88882860824E+02  0.91672991935E+02  0.00000000000E+00 0. -1.
         11    1    1    2    0    0 -0.32498725732E+02  0.36260699235E+02 -0.35627856962E+01  0.48823139239E+02  0.00000000000E+00 0.  1.
<mgrwt>
<rscale>  0 0.12742193E+03</rscale>
<asrwt>0</asrwt>
<pdfrwt beam="2">  1        1 0.40779743E-01 0.13557138E+03</pdfrwt>
<pdfrwt beam="1">  1       -1 0.84533907E-02 0.13557138E+03</pdfrwt>
<totfact> 0.76996154E+03</totfact>
</mgrwt>
</event>
<event>
 6    1  0.7270761E-006  0.1263269E+03  0.7546771E-02  0.1248952E+00
          2   -1    0    0  501    0  0.00000000000E+00  0.00000000000E+00  0.91994412683E+02  0.91994412683E+02  0.00000000000E+00 0. -1.
         -2   -1    0    0    0  501 -0.00000000000E+00 -0.00000000000E+00 -0.14256177054E+03  0.14256177054E+03  0.00000000000E+00 0.  1.
          5    1    1    2  502    0  0.50296785002E+02 -0.18170193116E+02 -0.65489913327E+02  0.84681410280E+02  0.47000000000E+01 0. -1.
         -5    1    1    2    0  502 -0.44714914426E+02  0.35562327078E+02  0.61786162561E+00  0.57328652804E+02  0.47000000000E+01 0. -1.
        -11    1    1    2    0    0 -0.40044324256E+00 -0.36878218119E+02  0.43522018186E+02  0.57046729910E+02  0.00000000000E+00 0. -1.
         11    1    1    2    0    0 -0.51814273329E+01  0.19486084158E+02 -0.29217324342E+02  0.35499390230E+02  0.00000000000E+00 0.  1.
<mgrwt>
<rscale>  0 0.11651950E+03</rscale>
<asrwt>0</asrwt>
<pdfrwt beam="1">  1        2 0.14152987E-01 0.12632686E+03</pdfrwt>
<pdfrwt beam="2">  1       -2 0.21932580E-01 0.12632686E+03</pdfrwt>
<totfact> 0.70401116E+03</totfact>
</mgrwt>
</event>
<event>
 6    1  0.7270761E-006  0.3532555E+03  0.7546771E-02  0.1062251E+00
          2   -1    0    0  501    0  0.00000000000E+00  0.00000000000E+00  0.68694247914E+03  0.68694247914E+03  0.00000000000E+00 0. -1.
         -2   -1    0    0    0  501 -0.00000000000E+00 -0.00000000000E+00 -0.22535899249E+03  0.22535899249E+03  0.00000000000E+00 0.  1.
          5    1    1    2  502    0  0.15011851332E+03 -0.17246181240E+03  0.40275100799E+02  0.23221287329E+03  0.47000000000E+01 0. -1.
         -5    1    1    2    0  502  0.33495725988E+01 -0.12013487859E+03 -0.18617901398E+02  0.12170589527E+03  0.47000000000E+01 0. -1.
        -11    1    1    2    0    0 -0.69261034944E+02  0.20652164591E+03  0.23294305504E+03  0.31892122551E+03  0.00000000000E+00 0.  1.
         11    1    1    2    0    0 -0.84207050970E+02  0.86075045086E+02  0.20698323220E+03  0.23946147755E+03  0.00000000000E+00 0. -1.
<mgrwt>
<rscale>  0 0.35088893E+03</rscale>
<asrwt>0</asrwt>
<pdfrwt beam="1">  1        2 0.10568346E+00 0.35325552E+03</pdfrwt>
<pdfrwt beam="2">  1       -2 0.34670614E-01 0.35325552E+03</pdfrwt>
<totfact> 0.33607431E+02</totfact>
</mgrwt>
</event>
<event>
 6    1  0.7270761E-006  0.1278683E+03  0.7546771E-02  0.1247509E+00
         -1   -1    0    0    0  501 -0.00000000000E+00  0.00000000000E+00  0.67210663019E+03  0.67210663019E+03  0.00000000000E+00 0.  1.
          1   -1    0    0  501    0  0.00000000000E+00 -0.00000000000E+00 -0.22100149325E+02  0.22100149325E+02  0.00000000000E+00 0. -1.
          5    1    1    2  502    0  0.32897738145E+02  0.32290747595E+02  0.32899232613E+03  0.33223936282E+03  0.47000000000E+01 0.  1.
         -5    1    1    2    0  502 -0.36698525496E+02 -0.58925590261E+02  0.19210470273E+03  0.20431669969E+03  0.47000000000E+01 0.  1.
        -11    1    1    2    0    0  0.33444426883E+02  0.27670359673E+02  0.11852552037E+03  0.12622391800E+03  0.00000000000E+00 0.  1.
         11    1    1    2    0    0 -0.29643639533E+02 -0.10355170069E+01  0.10383931640E+02  0.31426799018E+02  0.00000000000E+00 0. -1.
<mgrwt>
<rscale>  0 0.11736465E+03</rscale>
<asrwt>0</asrwt>
<pdfrwt beam="2">  1        1 0.34000235E-02 0.12786827E+03</pdfrwt>
<pdfrwt beam="1">  1       -1 0.10340100E+00 0.12786827E+03</pdfrwt>
<totfact> 0.25716607E+03</totfact>
</mgrwt>
</event>
<event>
 6    1  0.7270761E-006  0.1398019E+03  0.7546771E-02  0.1224418E+00
         -1   -1    0    0    0  501 -0.00000000000E+00  0.00000000000E+00  0.57690500179E+03  0.57690500179E+03  0.00000000000E+00 0.  1.
          1   -1    0    0  501    0  0.00000000000E+00 -0.00000000000E+00 -0.43293451923E+02  0.43293451923E+02  0.00000000000E+00 0. -1.
          5    1    1    2  502    0  0.10838400599E+02 -0.38052014795E+02  0.82023037058E+02  0.91188241378E+02  0.47000000000E+01 0. -1.
         -5    1    1    2    0  502 -0.67583111764E+02  0.64642856705E+02  0.39138967867E+03  0.40243526994E+03  0.47000000000E+01 0. -1.
        -11    1    1    2    0    0  0.47297219940E+02 -0.59907190403E+02  0.46212684773E+02  0.89227298008E+02  0.00000000000E+00 0. -1.
         11    1    1    2    0    0  0.94474912256E+01  0.33316348492E+02  0.13986149362E+02  0.37347644388E+02  0.00000000000E+00 0.  1.
<mgrwt>
<rscale>  0 0.13206896E+03</rscale>
<asrwt>0</asrwt>
<pdfrwt beam="2">  1        1 0.66605315E-02 0.13980190E+03</pdfrwt>
<pdfrwt beam="1">  1       -1 0.88754610E-01 0.13980190E+03</pdfrwt>
<totfact> 0.14331338E+03</totfact>
</mgrwt>
</event>
<event>
 6    1  0.7270761E-006  0.1920527E+03  0.7546771E-02  0.1161467E+00
          2   -1    0    0  501    0  0.00000000000E+00  0.00000000000E+00  0.12297135989E+04  0.12297135989E+04  0.00000000000E+00 0. -1.
         -2   -1    0    0    0  501 -0.00000000000E+00 -0.00000000000E+00 -0.28124488276E+02  0.28124488276E+02  0.00000000000E+00 0.  1.
          5    1    1    2  502    0 -0.10575536884E+02  0.62300419252E+02  0.26320315434E+03  0.27072342838E+03  0.47000000000E+01 0.  1.
         -5    1    1    2    0  502  0.11017754210E+03  0.44185488584E+02  0.23767388943E+03  0.26571115125E+03  0.47000000000E+01 0.  1.
        -11    1    1    2    0    0 -0.30689197014E+02 -0.93284006284E+02  0.33845997015E+03  0.35241862044E+03  0.00000000000E+00 0.  1.
         11    1    1    2    0    0 -0.68912808204E+02 -0.13201901552E+02  0.36225209673E+03  0.36898488712E+03  0.00000000000E+00 0. -1.
<mgrwt>
<rscale>  0 0.18670504E+03</rscale>
<asrwt>0</asrwt>
<pdfrwt beam="1">  1        2 0.18918667E+00 0.19205271E+03</pdfrwt>
<pdfrwt beam="2">  1       -2 0.43268453E-02 0.19205271E+03</pdfrwt>
<totfact> 0.46501491E+03</totfact>
</mgrwt>
</event>
<event>
 6    1  0.7270761E-006  0.2698893E+03  0.7546771E-02  0.1101343E+00
         -3   -1    0    0    0  501 -0.00000000000E+00  0.00000000000E+00  0.14818502195E+03  0.14818502195E+03  0.00000000000E+00 0.  1.
          3   -1    0    0  501    0  0.00000000000E+00 -0.00000000000E+00 -0.12288729340E+03  0.12288729340E+03  0.00000000000E+00 0. -1.
          5    1    1    2  502    0 -0.52531187340E+02  0.46878905447E+02 -0.92532319441E+01  0.71167898105E+02  0.47000000000E+01 0.  1.
         -5    1    1    2    0  502  0.16922481711E+02 -0.43204950099E+01  0.81544564402E+02  0.83526301534E+02  0.47000000000E+01 0.  1.
        -11    1    1    2    0    0 -0.20569363539E+02 -0.31383027571E+02 -0.45638108123E+02  0.59083246770E+02  0.00000000000E+00 0.  1.
         11    1    1    2    0    0  0.56178069168E+02 -0.11175382866E+02 -0.13554957877E+01  0.57294868936E+02  0.00000000000E+00 0. -1.
<mgrwt>
<rscale>  0 0.26988928E+03</rscale>
<asrwt>0</asrwt>
<pdfrwt beam="2">  1        3 0.18905737E-01 0.26988928E+03</pdfrwt>
<pdfrwt beam="1">  1       -3 0.22797696E-01 0.26988928E+03</pdfrwt>
<totfact> 0.11174251E+03</totfact>
</mgrwt>
</event>
<event>
 6    1  0.7270761E-006  0.1321997E+03  0.7546771E-02  0.1237515E+00
         -1   -1    0    0    0  501 -0.00000000000E+00  0.00000000000E+00  0.47298002125E+02  0.47298002125E+02  0.00000000000E+00 0.  1.
          1   -1    0    0  501    0  0.00000000000E+00 -0.00000000000E+00 -0.40230292776E+03  0.40230292776E+03  0.00000000000E+00 0. -1.
          5    1    1    2  502    0  0.65583491193E+02  0.70968356771E+01 -0.49600216682E+02  0.82666987901E+02  0.47000000000E+01 0. -1.
         -5    1    1    2    0  502 -0.45697506350E+02 -0.45235878133E+02 -0.25159504386E+02  0.69207206402E+02  0.47000000000E+01 0. -1.
        -11    1    1    2    0    0 -0.11880807545E+02 -0.26299448549E+02 -0.43227866914E+02  0.51975600620E+02  0.00000000000E+00 0.  1.
         11    1    1    2    0    0 -0.80051772983E+01  0.64438491005E+02 -0.23701733766E+03  0.24575113496E+03  0.00000000000E+00 0. -1.
<mgrwt>
<rscale>  0 0.12344786E+03</rscale>
<asrwt>0</asrwt>
<pdfrwt beam="2">  1        1 0.61892756E-01 0.13219968E+03</pdfrwt>
<pdfrwt beam="1">  1       -1 0.72766160E-02 0.13219968E+03</pdfrwt>
<totfact> 0.57348476E+03</totfact>
</mgrwt>
</event>
<event>
 6    1  0.7270761E-006  0.1398280E+03  0.7546771E-02  0.1224364E+00
         -2   -1    0    0    0  501 -0.00000000000E+00  0.00000000000E+00  0.61287798594E+02  0.61287798594E+02  0.00000000000E+00 0.  1.
          2   -1    0    0  501    0  0.00000000000E+00 -0.00000000000E+00 -0.25750893092E+03  0.25750893092E+03  0.00000000000E+00 0. -1.
          5    1    1    2  502    0  0.22820275464E+02  0.37601896834E+02 -0.13225889760E+02  0.46170139460E+02  0.47000000000E+01 0. -1.
         -5    1    1    2    0  502  0.14605053225E+02 -0.87834904774E+02 -0.98062104487E+02  0.13253884115E+03  0.47000000000E+01 0. -1.
        -11    1    1    2    0    0 -0.53065014831E+02  0.41256951108E+02 -0.16353630859E+02  0.69177113672E+02  0.00000000000E+00 0.  1.
         11    1    1    2    0    0  0.15639686142E+02  0.89760568322E+01 -0.68579507217E+02  0.70910635232E+02  0.00000000000E+00 0. -1.
<mgrwt>
<rscale>  0 0.13210562E+03</rscale>
<asrwt>0</asrwt>
<pdfrwt beam="2">  1        2 0.39616758E-01 0.13982804E+03</pdfrwt>
<pdfrwt beam="1">  1       -2 0.94288921E-02 0.13982804E+03</pdfrwt>
<totfact> 0.89325178E+03</totfact>
</mgrwt>
</event>
<event>
 6    1  0.7270761E-006  0.1489774E+03  0.7546771E-02  0.1211078E+00
         -3   -1    0    0    0  501 -0.00000000000E+00  0.00000000000E+00  0.82973086790E+02  0.82973086790E+02  0.00000000000E+00 0.  1.
          3   -1    0    0  501    0  0.00000000000E+00 -0.00000000000E+00 -0.34594871285E+03  0.34594871285E+03  0.00000000000E+00 0. -1.
          5    1    1    2  502    0 -0.56873271308E+02  0.62113233522E+02  0.18473643458E+02  0.86348064660E+02  0.47000000000E+01 0.  1.
         -5    1    1    2    0  502 -0.23397794389E+02 -0.50129350779E+02 -0.29918422500E+02  0.63068301045E+02  0.47000000000E+01 0.  1.
        -11    1    1    2    0    0  0.10460541923E+02 -0.38781491418E+02 -0.47519429341E+02  0.62221565224E+02  0.00000000000E+00 0.  1.
         11    1    1    2    0    0  0.69810523774E+02  0.26797608675E+02 -0.20401141768E+03  0.21728386871E+03  0.00000000000E+00 0. -1.
<mgrwt>
<rscale>  0 0.14168579E+03</rscale>
<asrwt>0</asrwt>
<pdfrwt beam="2">  1        3 0.53222878E-01 0.14897741E+03</pdfrwt>
<pdfrwt beam="1">  1       -3 0.12765091E-01 0.14897741E+03</pdfrwt>
<totfact> 0.40562212E+02</totfact>
</mgrwt>
</event>
<event>
 6    1  0.7270761E-006  0.1277716E+03  0.7546771E-02  0.1242840E+00
          2   -1    0    0  501    0  0.00000000000E+00  0.00000000000E+00  0.32409702054E+03  0.32409702054E+03  0.00000000000E+00 0. -1.
         -2   -1    0    0    0  501 -0.00000000000E+00 -0.00000000000E+00 -0.40053016486E+02  0.40053016486E+02  0.00000000000E+00 0.  1.
          5    1    1    2  502    0  0.47624754893E+02  0.37784635932E+00  0.10292760684E+02  0.48951925079E+02  0.47000000000E+01 0. -1.
         -5    1    1    2    0  502 -0.40333772890E+02  0.25208051317E+02  0.14207370145E+03  0.14989758413E+03  0.47000000000E+01 0. -1.
        -11    1    1    2    0    0  0.54771739336E+01 -0.60943992208E+02  0.93325781691E+02  0.11159691371E+03  0.00000000000E+00 0. -1.
         11    1    1    2    0    0 -0.12768155936E+02  0.35358094531E+02  0.38351760232E+02  0.53703614104E+02  0.00000000000E+00 0.  1.
<mgrwt>
<rscale>  0 0.12015612E+03</rscale>
<asrwt>0</asrwt>
<pdfrwt beam="1">  1        2 0.49861078E-01 0.12777163E+03</pdfrwt>
<pdfrwt beam="2">  1       -2 0.61620027E-02 0.12777163E+03</pdfrwt>
<totfact> 0.13380165E+04</totfact>
</mgrwt>
</event>
<event>
 6    1  0.7270761E-006  0.1367971E+03  0.7546771E-02  0.1229587E+00
          1   -1    0    0  501    0  0.00000000000E+00  0.00000000000E+00  0.20325325868E+03  0.20325325868E+03  0.00000000000E+00 0. -1.
         -1   -1    0    0    0  501 -0.00000000000E+00 -0.00000000000E+00 -0.76405705739E+02  0.76405705739E+02  0.00000000000E+00 0.  1.
          5    1    1    2  502    0 -0.22880869574E+02 -0.90322442569E+02  0.45382703980E+02  0.10374660305E+03  0.47000000000E+01 0. -1.
         -5    1    1    2    0  502  0.25126873600E+01  0.38615087523E+02 -0.39667843580E+01  0.39182444542E+02  0.47000000000E+01 0. -1.
        -11    1    1    2    0    0  0.13559678551E+02 -0.24088813123E+02  0.95093907294E+01  0.29232931980E+02  0.00000000000E+00 0.  1.
         11    1    1    2    0    0  0.68085036638E+01  0.75796168170E+02  0.75922242589E+02  0.10749698485E+03  0.00000000000E+00 0. -1.
<mgrwt>
<rscale>  0 0.12857426E+03</rscale>
<asrwt>0</asrwt>
<pdfrwt beam="1">  1        1 0.31269732E-01 0.13679705E+03</pdfrwt>
<pdfrwt beam="2">  1       -1 0.11754724E-01 0.13679705E+03</pdfrwt>
<totfact> 0.64713157E+03</totfact>
</mgrwt>
</event>
<event>
 6    1  0.7270761E-006  0.1371411E+03  0.7546771E-02  0.1229409E+00
          1   -1    0    0  501    0  0.00000000000E+00  0.00000000000E+00  0.12388180726E+03  0.12388180726E+03  0.00000000000E+00 0. -1.
         -1   -1    0    0    0  501 -0.00000000000E+00 -0.00000000000E+00 -0.11996095883E+03  0.11996095883E+03  0.00000000000E+00 0.  1.
          5    1    1    2  502    0 -0.71229149354E+02 -0.54264354728E+02 -0.24293543428E+02  0.92900366867E+02  0.47000000000E+01 0.  1.
         -5    1    1    2    0  502  0.38190427411E+02  0.84880468489E+01  0.20245569749E+02  0.44300437691E+02  0.47000000000E+01 0.  1.
        -11    1    1    2    0    0  0.42718120636E+02  0.35397036060E+02  0.42122465427E+02  0.69656945714E+02  0.00000000000E+00 0. -1.
         11    1    1    2    0    0 -0.96793986929E+01  0.10379271819E+02 -0.34153643326E+02  0.36985015818E+02  0.00000000000E+00 0.  1.
<mgrwt>
<rscale>  0 0.12869264E+03</rscale>
<asrwt>0</asrwt>
<pdfrwt beam="1">  1        1 0.19058740E-01 0.13714108E+03</pdfrwt>
<pdfrwt beam="2">  1       -1 0.18455532E-01 0.13714108E+03</pdfrwt>
<totfact> 0.59517937E+03</totfact>
</mgrwt>
</event>
<event>
 6    1  0.7270761E-006  0.2937990E+03  0.7546771E-02  0.1088382E+00
          1   -1    0    0  501    0  0.00000000000E+00  0.00000000000E+00  0.15300734164E+03  0.15300734164E+03  0.00000000000E+00 0. -1.
         -1   -1    0    0    0  501 -0.00000000000E+00 -0.00000000000E+00 -0.14103552174E+03  0.14103552174E+03  0.00000000000E+00 0.  1.
          5    1    1    2  502    0  0.10176677410E+02  0.12345291815E+02  0.31015180793E+02  0.35213668266E+02  0.47000000000E+01 0.  1.
         -5    1    1    2    0  502 -0.90891693262E+02 -0.59336796109E+01 -0.80792826341E+02  0.12184448796E+03  0.47000000000E+01 0.  1.
        -11    1    1    2    0    0  0.64319798043E+02  0.32969132513E+02  0.15223086502E+02  0.73862998054E+02  0.00000000000E+00 0. -1.
         11    1    1    2    0    0  0.16395217809E+02 -0.39380744717E+02  0.46526378953E+02  0.63121709102E+02  0.00000000000E+00 0.  1.
<mgrwt>
<rscale>  0 0.29379905E+03</rscale>
<asrwt>0</asrwt>
<pdfrwt beam="1">  1        1 0.23539591E-01 0.29379905E+03</pdfrwt>
<pdfrwt beam="2">  1       -1 0.21697773E-01 0.29379905E+03</pdfrwt>
<totfact> 0.36347786E+03</totfact>
</mgrwt>
</event>
<event>
 6    1  0.7270761E-006  0.2133497E+03  0.7546771E-02  0.1142523E+00
          2   -1    0    0  501    0  0.00000000000E+00  0.00000000000E+00  0.15979654587E+03  0.15979654587E+03  0.00000000000E+00 0. -1.
         -2   -1    0    0    0  501 -0.00000000000E+00 -0.00000000000E+00 -0.38952302804E+03  0.38952302804E+03  0.00000000000E+00 0.  1.
          5    1    1    2  502    0 -0.10891457576E+02  0.38331676929E+02 -0.15127891191E+02  0.42882215384E+02  0.47000000000E+01 0. -1.
         -5    1    1    2    0  502  0.14077860266E+03  0.75780548560E+02 -0.26025151784E+03  0.30547381073E+03  0.47000000000E+01 0. -1.
        -11    1    1    2    0    0 -0.11769658100E+03 -0.12326322111E+03  0.59352535600E+02  0.18046891793E+03  0.00000000000E+00 0. -1.
         11    1    1    2    0    0 -0.12190564085E+02  0.91509956180E+01 -0.13699608745E+02  0.20494629864E+02  0.00000000000E+00 0.  1.
<mgrwt>
<rscale>  0 0.20879590E+03</rscale>
<asrwt>0</asrwt>
<pdfrwt beam="1">  1        2 0.24584084E-01 0.21334972E+03</pdfrwt>
<pdfrwt beam="2">  1       -2 0.59926619E-01 0.21334972E+03</pdfrwt>
<totfact> 0.58121924E+02</totfact>
</mgrwt>
</event>
<event>
 6    1  0.7270761E-006  0.1279670E+03  0.7546771E-02  0.1244324E+00
         -1   -1    0    0    0  501 -0.00000000000E+00  0.00000000000E+00  0.23296719634E+02  0.23296719634E+02  0.00000000000E+00 0.  1.
          1   -1    0    0  501    0  0.00000000000E+00 -0.00000000000E+00 -0.56177413713E+03  0.56177413713E+03  0.00000000000E+00 0. -1.
          5    1    1    2  502    0 -0.38811971944E+02  0.32411646965E+02 -0.19289079268E+03  0.19946386120E+03  0.47000000000E+01 0. -1.
         -5    1    1    2    0  502  0.56527243048E+02 -0.11515253044E+02 -0.56722413468E+02  0.81039820144E+02  0.47000000000E+01 0. -1.
        -11    1    1    2    0    0 -0.51418685754E+02  0.79665008399E+01 -0.14807272325E+03  0.15694864686E+03  0.00000000000E+00 0.  1.
         11    1    1    2    0    0  0.33703414649E+02 -0.28862894761E+02 -0.14079148810E+03  0.14761852856E+03  0.00000000000E+00 0. -1.
<mgrwt>
<rscale>  0 0.11925940E+03</rscale>
<asrwt>0</asrwt>
<pdfrwt beam="2">  1        1 0.86426788E-01 0.12796704E+03</pdfrwt>
<pdfrwt beam="1">  1       -1 0.35841108E-02 0.12796704E+03</pdfrwt>
<totfact> 0.10596714E+04</totfact>
</mgrwt>
</event>
<event>
 6    1  0.7270761E-006  0.1625349E+03  0.7546771E-02  0.1191443E+00
         -1   -1    0    0    0  501 -0.00000000000E+00  0.00000000000E+00  0.43961875571E+03  0.43961875571E+03  0.00000000000E+00 0.  1.
          1   -1    0    0  501    0  0.00000000000E+00 -0.00000000000E+00 -0.54271566816E+02  0.54271566816E+02  0.00000000000E+00 0. -1.
          5    1    1    2  502    0  0.36783401122E+02  0.35020741230E+01  0.56430738471E+02  0.67615097172E+02  0.47000000000E+01 0. -1.
         -5    1    1    2    0  502 -0.92840383615E+02  0.83961839531E+02  0.18070474042E+03  0.21987546598E+03  0.47000000000E+01 0. -1.
        -11    1    1    2    0    0  0.51574051754E+02 -0.98163503195E+02  0.15674221032E+03  0.19200019966E+03  0.00000000000E+00 0.  1.
         11    1    1    2    0    0  0.44829307398E+01  0.10699589541E+02 -0.85305003190E+01  0.14399559717E+02  0.00000000000E+00 0. -1.
<mgrwt>
<rscale>  0 0.15759167E+03</rscale>
<asrwt>0</asrwt>
<pdfrwt beam="2">  1        1 0.83494721E-02 0.16253488E+03</pdfrwt>
<pdfrwt beam="1">  1       -1 0.67633652E-01 0.16253488E+03</pdfrwt>
<totfact> 0.18470718E+03</totfact>
</mgrwt>
</event>
<event>
 6    1  0.7270761E-006  0.2016742E+03  0.7546771E-02  0.1157731E+00
          1   -1    0    0  501    0  0.00000000000E+00  0.00000000000E+00  0.18488058988E+02  0.18488058988E+02  0.00000000000E+00 0. -1.
         -1   -1    0    0    0  501 -0.00000000000E+00 -0.00000000000E+00 -0.20171877399E+04  0.20171877399E+04  0.00000000000E+00 0.  1.
          5    1    1    2  502    0 -0.14026471627E+03 -0.48700124610E+02 -0.88983317631E+03  0.90214802800E+03  0.47000000000E+01 0. -1.
         -5    1    1    2    0  502  0.52993638367E+01  0.43150520252E+02 -0.55076689873E+03  0.55250006099E+03  0.47000000000E+01 0.  1.
        -11    1    1    2    0    0  0.84833034457E+02  0.35187097499E+02 -0.43834921893E+03  0.44786695938E+03  0.00000000000E+00 0.  1.
         11    1    1    2    0    0  0.50132317975E+02 -0.29637493141E+02 -0.11975038690E+03  0.13316075048E+03  0.00000000000E+00 0. -1.
<mgrwt>
<rscale>  0 0.19081184E+03</rscale>
<asrwt>0</asrwt>
<pdfrwt beam="1">  1        1 0.28443166E-02 0.20167421E+03</pdfrwt>
<pdfrwt beam="2">  1       -1 0.31033659E+00 0.20167421E+03</pdfrwt>
<totfact> 0.12321315E+02</totfact>
</mgrwt>
</event>
<event>
 6    1  0.7270761E-006  0.1388992E+03  0.7546771E-02  0.1226264E+00
         -1   -1    0    0    0  501 -0.00000000000E+00  0.00000000000E+00  0.44154908221E+02  0.44154908221E+02  0.00000000000E+00 0.  1.
          1   -1    0    0  501    0  0.00000000000E+00 -0.00000000000E+00 -0.35821059057E+03  0.35821059057E+03  0.00000000000E+00 0. -1.
          5    1    1    2  502    0  0.69532287230E+02 -0.89762770793E+01 -0.92777850305E+02  0.11638355565E+03  0.47000000000E+01 0. -1.
         -5    1    1    2    0  502 -0.46185720764E+02 -0.46903375533E+02 -0.49864874119E+02  0.82714225559E+02  0.47000000000E+01 0. -1.
        -11    1    1    2    0    0  0.68690793234E+01  0.38892412833E+02 -0.16283859491E+03  0.16755957752E+03  0.00000000000E+00 0. -1.
         11    1    1    2    0    0 -0.30215645789E+02  0.16987239779E+02 -0.85743630143E+01  0.35708140064E+02  0.00000000000E+00 0.  1.
<mgrwt>
<rscale>  0 0.13080646E+03</rscale>
<asrwt>0</asrwt>
<pdfrwt beam="2">  1        1 0.55109320E-01 0.13889917E+03</pdfrwt>
<pdfrwt beam="1">  1       -1 0.67930630E-02 0.13889917E+03</pdfrwt>
<totfact> 0.73768353E+03</totfact>
</mgrwt>
</event>
<event>
 6    1  0.7270761E-006  0.1331504E+03  0.7546771E-02  0.1235304E+00
          2   -1    0    0  501    0  0.00000000000E+00  0.00000000000E+00  0.22037660411E+03  0.22037660411E+03  0.00000000000E+00 0. -1.
         -2   -1    0    0    0  501 -0.00000000000E+00 -0.00000000000E+00 -0.69739959678E+02  0.69739959678E+02  0.00000000000E+00 0.  1.
          5    1    1    2  502    0  0.14289957014E+02  0.73218537748E+02  0.46258147675E+02  0.87903716462E+02  0.47000000000E+01 0. -1.
         -5    1    1    2    0  502 -0.37636707000E+02 -0.33737037200E+02 -0.62061139415E+01  0.51140152944E+02  0.47000000000E+01 0. -1.
        -11    1    1    2    0    0 -0.32521082992E+02 -0.25554709167E+02  0.26351771945E+02  0.49041613801E+02  0.00000000000E+00 0.  1.
         11    1    1    2    0    0  0.55867832979E+02 -0.13926791381E+02  0.84232838752E+02  0.10203108058E+03  0.00000000000E+00 0. -1.
<mgrwt>
<rscale>  0 0.12485024E+03</rscale>
<asrwt>0</asrwt>
<pdfrwt beam="1">  1        2 0.33904093E-01 0.13315041E+03</pdfrwt>
<pdfrwt beam="2">  1       -2 0.10729225E-01 0.13315041E+03</pdfrwt>
<totfact> 0.85803252E+03</totfact>
</mgrwt>
</event>
<event>
 6    1  0.7270761E-006  0.1506667E+03  0.7546771E-02  0.1208920E+00
         -2   -1    0    0    0  501 -0.00000000000E+00  0.00000000000E+00  0.79456863024E+02  0.79456863024E+02  0.00000000000E+00 0.  1.
          2   -1    0    0  501    0  0.00000000000E+00 -0.00000000000E+00 -0.23654155759E+03  0.23654155759E+03  0.00000000000E+00 0. -1.
          5    1    1    2  502    0  0.38019768306E+02 -0.16552682461E+02  0.42454970263E+00  0.41734450052E+02  0.47000000000E+01 0.  1.
         -5    1    1    2    0  502 -0.13969178158E+02  0.97180179410E+02 -0.91691015675E+02  0.13441896281E+03  0.47000000000E+01 0.  1.
        -11    1    1    2    0    0 -0.53601075405E+02 -0.73034679012E+02 -0.36940010305E+02  0.97835085651E+02  0.00000000000E+00 0.  1.
         11    1    1    2    0    0  0.29550485258E+02 -0.75928179371E+01 -0.28878218292E+02  0.42009922101E+02  0.00000000000E+00 0. -1.
<mgrwt>
<rscale>  0 0.14332804E+03</rscale>
<asrwt>0</asrwt>
<pdfrwt beam="2">  1        2 0.36391008E-01 0.15066671E+03</pdfrwt>
<pdfrwt beam="1">  1       -2 0.12224133E-01 0.15066671E+03</pdfrwt>
<totfact> 0.65167600E+03</totfact>
</mgrwt>
</event>
<event>
 6    1  0.7270761E-006  0.3474185E+03  0.7546771E-02  0.1063680E+00
          2   -1    0    0  501    0  0.00000000000E+00  0.00000000000E+00  0.66299293502E+03  0.66299293502E+03  0.00000000000E+00 0.  1.
         -2   -1    0    0    0  501 -0.00000000000E+00 -0.00000000000E+00 -0.45513166303E+02  0.45513166303E+02  0.00000000000E+00 0. -1.
          5    1    1    2  502    0  0.40491989916E+02 -0.29537262194E+01  0.76476348737E+01  0.41580068122E+02  0.47000000000E+01 0.  1.
         -5    1    1    2    0  502 -0.29606627503E+02  0.10400445408E+03  0.13987051567E+03  0.17685963365E+03  0.47000000000E+01 0.  1.
        -11    1    1    2    0    0 -0.34876596984E+02 -0.60865421817E+02  0.39860421446E+03  0.40472990546E+03  0.00000000000E+00 0.  1.
         11    1    1    2    0    0  0.23991234572E+02 -0.40185306048E+02  0.71357403708E+02  0.85336494083E+02  0.00000000000E+00 0. -1.
<mgrwt>
<rscale>  0 0.34741852E+03</rscale>
<asrwt>0</asrwt>
<pdfrwt beam="1">  1        2 0.10199891E+00 0.34741852E+03</pdfrwt>
<pdfrwt beam="2">  1       -2 0.70020260E-02 0.34741852E+03</pdfrwt>
<totfact> 0.52397338E+03</totfact>
</mgrwt>
</event>
<event>
 6    1  0.7270761E-006  0.1809791E+03  0.7546771E-02  0.1172646E+00
         -2   -1    0    0    0  501 -0.00000000000E+00  0.00000000000E+00  0.88494924929E+02  0.88494924929E+02  0.00000000000E+00 0.  1.
          2   -1    0    0  501    0  0.00000000000E+00 -0.00000000000E+00 -0.33211589939E+03  0.33211589939E+03  0.00000000000E+00 0. -1.
          5    1    1    2  502    0  0.97167897621E+02  0.30537647865E+02 -0.58449520584E+02  0.11752695317E+03  0.47000000000E+01 0.  1.
         -5    1    1    2    0  502  0.29112144692E+02 -0.65118328399E+02 -0.10058534260E+03  0.12339941170E+03  0.47000000000E+01 0.  1.
        -11    1    1    2    0    0 -0.60858612168E+02  0.66399322365E+01 -0.89434984612E+02  0.10838116002E+03  0.00000000000E+00 0. -1.
         11    1    1    2    0    0 -0.65421430145E+02  0.27940748298E+02  0.48488733263E+01  0.71303299434E+02  0.00000000000E+00 0.  1.
<mgrwt>
<rscale>  0 0.17508502E+03</rscale>
<asrwt>0</asrwt>
<pdfrwt beam="2">  1        2 0.51094753E-01 0.18097907E+03</pdfrwt>
<pdfrwt beam="1">  1       -2 0.13614604E-01 0.18097907E+03</pdfrwt>
<totfact> 0.38482326E+03</totfact>
</mgrwt>
</event>
<event>
 6    1  0.7270761E-006  0.1277886E+03  0.7546771E-02  0.1246045E+00
         -3   -1    0    0    0  501 -0.00000000000E+00  0.00000000000E+00  0.21698954407E+02  0.21698954407E+02  0.00000000000E+00 0.  1.
          3   -1    0    0  501    0  0.00000000000E+00 -0.00000000000E+00 -0.58368359883E+03  0.58368359883E+03  0.00000000000E+00 0. -1.
          5    1    1    2  502    0 -0.46841814970E+02  0.28756328291E+02 -0.43423337518E+02  0.70205115823E+02  0.47000000000E+01 0.  1.
         -5    1    1    2    0  502  0.28058247087E+02 -0.10036422136E+02 -0.22580602594E+03  0.22781230509E+03  0.47000000000E+01 0.  1.
        -11    1    1    2    0    0 -0.21217544128E+02 -0.41638057736E+02 -0.12728260369E+03  0.13559046144E+03  0.00000000000E+00 0.  1.
         11    1    1    2    0    0  0.40001112010E+02  0.22918151581E+02 -0.16547267727E+03  0.17177467088E+03  0.00000000000E+00 0. -1.
<mgrwt>
<rscale>  0 0.11823054E+03</rscale>
<asrwt>0</asrwt>
<pdfrwt beam="2">  1        3 0.89797482E-01 0.12778863E+03</pdfrwt>
<pdfrwt beam="1">  1       -3 0.33383005E-02 0.12778863E+03</pdfrwt>
<totfact> 0.11387361E+03</totfact>
</mgrwt>
</event>
<event>
 6    1  0.7270761E-006  0.1366231E+03  0.7546771E-02  0.1229859E+00
          1   -1    0    0  501    0  0.00000000000E+00  0.00000000000E+00  0.45708532807E+03  0.45708532807E+03  0.00000000000E+00 0. -1.
         -1   -1    0    0    0  501 -0.00000000000E+00 -0.00000000000E+00 -0.44228565586E+02  0.44228565586E+02  0.00000000000E+00 0.  1.
          5    1    1    2  502    0  0.10192261033E+02 -0.75885377733E+02  0.95092239523E+02  0.12217649838E+03  0.47000000000E+01 0. -1.
         -5    1    1    2    0  502 -0.35456257393E+02  0.26868285597E+02  0.80190341529E+00  0.44741300924E+02  0.47000000000E+01 0. -1.
        -11    1    1    2    0    0  0.52434150893E+02  0.42511289510E+01  0.13006129889E+03  0.14029737612E+03  0.00000000000E+00 0.  1.
         11    1    1    2    0    0 -0.27170154533E+02  0.44765963185E+02  0.18690132065E+03  0.19409871823E+03  0.00000000000E+00 0. -1.
<mgrwt>
<rscale>  0 0.12839366E+03</rscale>
<asrwt>0</asrwt>
<pdfrwt beam="1">  1        1 0.70320816E-01 0.13662308E+03</pdfrwt>
<pdfrwt beam="2">  1       -1 0.68043951E-02 0.13662308E+03</pdfrwt>
<totfact> 0.54015424E+03</totfact>
</mgrwt>
</event>
<event>
 6    1  0.7270761E-006  0.1280192E+03  0.7546771E-02  0.1244436E+00
          2   -1    0    0  501    0  0.00000000000E+00  0.00000000000E+00  0.15247908670E+03  0.15247908670E+03  0.00000000000E+00 0. -1.
         -2   -1    0    0    0  501 -0.00000000000E+00 -0.00000000000E+00 -0.13258840750E+03  0.13258840750E+03  0.00000000000E+00 0.  1.
          5    1    1    2  502    0  0.50279801217E+02 -0.37761124165E+02 -0.39794772129E+01  0.63181382919E+02  0.47000000000E+01 0. -1.
         -5    1    1    2    0  502 -0.44767878307E+02  0.10677908585E+02 -0.72317598171E+02  0.85849319537E+02  0.47000000000E+01 0. -1.
        -11    1    1    2    0    0  0.23453159277E+02 -0.21433456419E+02  0.62865155166E+02  0.70437713394E+02  0.00000000000E+00 0. -1.
         11    1    1    2    0    0 -0.28965082187E+02  0.48516671998E+02  0.33322599424E+02  0.65599078349E+02  0.00000000000E+00 0.  1.
<mgrwt>
<rscale>  0 0.11919197E+03</rscale>
<asrwt>0</asrwt>
<pdfrwt beam="1">  1        2 0.23458321E-01 0.12801916E+03</pdfrwt>
<pdfrwt beam="2">  1       -2 0.20398216E-01 0.12801916E+03</pdfrwt>
<totfact> 0.44780067E+03</totfact>
</mgrwt>
</event>
<event>
 6    1  0.7270761E-006  0.1774720E+03  0.7546771E-02  0.1176190E+00
         -2   -1    0    0    0  501 -0.00000000000E+00  0.00000000000E+00  0.83112142949E+02  0.83112142949E+02  0.00000000000E+00 0.  1.
          2   -1    0    0  501    0  0.00000000000E+00 -0.00000000000E+00 -0.33908533277E+03  0.33908533277E+03  0.00000000000E+00 0. -1.
          5    1    1    2  502    0  0.62066989677E+01  0.86523527115E+02 -0.35497254384E+02  0.93845558900E+02  0.47000000000E+01 0. -1.
         -5    1    1    2    0  502  0.87744334356E+02 -0.25680466050E+01 -0.72122711728E+02  0.11370768937E+03  0.47000000000E+01 0. -1.
        -11    1    1    2    0    0 -0.77095125072E+02 -0.79528876309E+02 -0.15933011950E+03  0.19404789990E+03  0.00000000000E+00 0. -1.
         11    1    1    2    0    0 -0.16855908252E+02 -0.44266042009E+01  0.10976895782E+02  0.20596327555E+02  0.00000000000E+00 0.  1.
<mgrwt>
<rscale>  0 0.17159991E+03</rscale>
<asrwt>0</asrwt>
<pdfrwt beam="2">  1        2 0.52166973E-01 0.17747195E+03</pdfrwt>
<pdfrwt beam="1">  1       -2 0.12786484E-01 0.17747195E+03</pdfrwt>
<totfact> 0.41632614E+03</totfact>
</mgrwt>
</event>
<event>
 6    1  0.7270761E-006  0.5738046E+03  0.7546771E-02  0.9961295E-01
         -1   -1    0    0    0  501 -0.00000000000E+00  0.00000000000E+00  0.10011626091E+03  0.10011626091E+03  0.00000000000E+00 0.  1.
          1   -1    0    0  501    0  0.00000000000E+00 -0.00000000000E+00 -0.82217351854E+03  0.82217351854E+03  0.00000000000E+00 0. -1.
          5    1    1    2  502    0 -0.15873786227E+01 -0.11521483324E+02 -0.33105348421E+02  0.35402237824E+02  0.47000000000E+01 0. -1.
         -5    1    1    2    0  502  0.15405067439E+03  0.18601130927E+03 -0.13039495997E+03  0.27451184500E+03  0.47000000000E+01 0. -1.
        -11    1    1    2    0    0  0.10548423093E+01 -0.26834382830E+02 -0.20792435256E+02  0.33963541600E+02  0.00000000000E+00 0.  1.
         11    1    1    2    0    0 -0.15351813808E+03 -0.14765544311E+03 -0.53776451398E+03  0.57841215504E+03  0.00000000000E+00 0. -1.
<mgrwt>
<rscale>  0 0.57380463E+03</rscale>
<asrwt>0</asrwt>
<pdfrwt beam="2">  1        1 0.12648823E+00 0.57380463E+03</pdfrwt>
<pdfrwt beam="1">  1       -1 0.15402502E-01 0.57380463E+03</pdfrwt>
<totfact> 0.67391212E+02</totfact>
</mgrwt>
</event>
<event>
 6    1  0.7270761E-006  0.1747801E+03  0.7546771E-02  0.1178684E+00
          2   -1    0    0  501    0  0.00000000000E+00  0.00000000000E+00  0.24673306363E+03  0.24673306363E+03  0.00000000000E+00 0.  1.
         -2   -1    0    0    0  501 -0.00000000000E+00 -0.00000000000E+00 -0.11445755409E+03  0.11445755409E+03  0.00000000000E+00 0. -1.
          5    1    1    2  502    0  0.30205861579E+02 -0.94522243065E+02  0.34117433689E+02  0.10503779220E+03  0.47000000000E+01 0. -1.
         -5    1    1    2    0  502  0.68687000647E+02  0.22825236734E+02 -0.25157423972E+01  0.72576266435E+02  0.47000000000E+01 0. -1.
        -11    1    1    2    0    0 -0.46723545898E+02  0.38808029948E+02 -0.52948246515E+01  0.60968746894E+02  0.00000000000E+00 0. -1.
         11    1    1    2    0    0 -0.52169316328E+02  0.32888976383E+02  0.10596864290E+03  0.12260781220E+03  0.00000000000E+00 0.  1.
<mgrwt>
<rscale>  0 0.16920093E+03</rscale>
<asrwt>0</asrwt>
<pdfrwt beam="1">  1        2 0.37958933E-01 0.17478011E+03</pdfrwt>
<pdfrwt beam="2">  1       -2 0.17608854E-01 0.17478011E+03</pdfrwt>
<totfact> 0.34539863E+03</totfact>
</mgrwt>
</event>
<event>
 6    1  0.7270761E-006  0.1339444E+03  0.7546771E-02  0.1233923E+00
          2   -1    0    0  501    0  0.00000000000E+00  0.00000000000E+00  0.67035282196E+02  0.67035282196E+02  0.00000000000E+00 0. -1.
         -2   -1    0    0    0  501 -0.00000000000E+00 -0.00000000000E+00 -0.22581409663E+03  0.22581409663E+03  0.00000000000E+00 0.  1.
          5    1    1    2  502    0 -0.13146758305E+02  0.28409373333E+02  0.23451886300E+02  0.39395567239E+02  0.47000000000E+01 0. -1.
         -5    1    1    2    0  502 -0.82794588661E+01 -0.71514036502E+02 -0.75162527880E+02  0.10418398367E+03  0.47000000000E+01 0. -1.
        -11    1    1    2    0    0  0.32022922972E+02  0.41029456779E+02 -0.12095575069E+03  0.13167831083E+03  0.00000000000E+00 0.  1.
         11    1    1    2    0    0 -0.10596705801E+02  0.20752063901E+01  0.13887577832E+02  0.17591517088E+02  0.00000000000E+00 0. -1.
<mgrwt>
<rscale>  0 0.12573645E+03</rscale>
<asrwt>0</asrwt>
<pdfrwt beam="1">  1        2 0.10313120E-01 0.13394438E+03</pdfrwt>
<pdfrwt beam="2">  1       -2 0.34740630E-01 0.13394438E+03</pdfrwt>
<totfact> 0.45712717E+03</totfact>
</mgrwt>
</event>
<event>
 6    1  0.7270761E-006  0.1320845E+03  0.7546771E-02  0.1256036E+00
         -1   -1    0    0    0  501 -0.00000000000E+00  0.00000000000E+00  0.10432935987E+03  0.10432935987E+03  0.00000000000E+00 0.  1.
          1   -1    0    0  501    0  0.00000000000E+00 -0.00000000000E+00 -0.99146264669E+02  0.99146264669E+02  0.00000000000E+00 0. -1.
          5    1    1    2  502    0  0.78563862450E+02 -0.31966045914E+02 -0.35906303251E+01  0.85024062480E+02  0.47000000000E+01 0.  1.
         -5    1    1    2    0  502 -0.36829525675E+02  0.23081692118E+02  0.20000748027E+02  0.48075964828E+02  0.47000000000E+01 0.  1.
        -11    1    1    2    0    0 -0.13782033725E+02 -0.13571713786E+02 -0.25309002997E+02  0.31854065696E+02  0.00000000000E+00 0. -1.
         11    1    1    2    0    0 -0.27952303050E+02  0.22456067581E+02  0.14081980495E+02  0.38521531534E+02  0.00000000000E+00 0.  1.
<mgrwt>
<rscale>  0 0.11248511E+03</rscale>
<asrwt>0</asrwt>
<pdfrwt beam="2">  1        1 0.15253271E-01 0.13208454E+03</pdfrwt>
<pdfrwt beam="1">  1       -1 0.16050671E-01 0.13208454E+03</pdfrwt>
<totfact> 0.98552562E+03</totfact>
</mgrwt>
</event>
<event>
 6    1  0.7270761E-006  0.1362525E+03  0.7546771E-02  0.1233846E+00
          2   -1    0    0  501    0  0.00000000000E+00  0.00000000000E+00  0.12158723733E+03  0.12158723733E+03  0.00000000000E+00 0. -1.
         -2   -1    0    0    0  501 -0.00000000000E+00 -0.00000000000E+00 -0.17126691259E+03  0.17126691259E+03  0.00000000000E+00 0.  1.
          5    1    1    2  502    0  0.35359201274E+02 -0.13079386616E+02 -0.60286585719E+02  0.71259426651E+02  0.47000000000E+01 0.  1.
         -5    1    1    2    0  502 -0.80199400581E+02  0.43691755825E+02 -0.51303565133E+02  0.10485732772E+03  0.47000000000E+01 0.  1.
        -11    1    1    2    0    0  0.59000226820E+01 -0.13593369207E+02  0.71627057759E+02  0.73143867530E+02  0.00000000000E+00 0. -1.
         11    1    1    2    0    0  0.38940176625E+02 -0.17019000002E+02 -0.97165821612E+01  0.43593528024E+02  0.00000000000E+00 0.  1.
<mgrwt>
<rscale>  0 0.12578602E+03</rscale>
<asrwt>0</asrwt>
<pdfrwt beam="1">  1        2 0.18705729E-01 0.13625252E+03</pdfrwt>
<pdfrwt beam="2">  1       -2 0.26348756E-01 0.13625252E+03</pdfrwt>
<totfact> 0.37263417E+03</totfact>
</mgrwt>
</event>
<event>
 6    1  0.7270761E-006  0.3728984E+03  0.7546771E-02  0.1053590E+00
          1   -1    0    0  501    0  0.00000000000E+00  0.00000000000E+00  0.24651580829E+03  0.24651580829E+03  0.00000000000E+00 0. -1.
         -1   -1    0    0    0  501 -0.00000000000E+00 -0.00000000000E+00 -0.14101854688E+03  0.14101854688E+03  0.00000000000E+00 0.  1.
          5    1    1    2  502    0  0.10450597458E+02 -0.53285616459E+02  0.47982949301E+02  0.72615599786E+02  0.47000000000E+01 0. -1.
         -5    1    1    2    0  502 -0.13040196380E+03 -0.31652162689E+02  0.45378659879E+02  0.14173159259E+03  0.47000000000E+01 0. -1.
        -11    1    1    2    0    0  0.32761697386E+02  0.62488254651E+02  0.37156634678E+02  0.79741622040E+02  0.00000000000E+00 0.  1.
         11    1    1    2    0    0  0.87189668960E+02  0.22449524497E+02 -0.25020982451E+02  0.93445540752E+02  0.00000000000E+00 0. -1.
<mgrwt>
<rscale>  0 0.37289838E+03</rscale>
<asrwt>0</asrwt>
<pdfrwt beam="1">  1        1 0.37925509E-01 0.37289838E+03</pdfrwt>
<pdfrwt beam="2">  1       -1 0.21695161E-01 0.37289838E+03</pdfrwt>
<totfact> 0.19911452E+03</totfact>
</mgrwt>
</event>
<event>
 6    1  0.7270761E-006  0.1375859E+03  0.7546771E-02  0.1229260E+00
         -1   -1    0    0    0  501 -0.00000000000E+00  0.00000000000E+00  0.30156151190E+03  0.30156151190E+03  0.00000000000E+00 0.  1.
          1   -1    0    0  501    0  0.00000000000E+00 -0.00000000000E+00 -0.56913917792E+02  0.56913917792E+02  0.00000000000E+00 0. -1.
          5    1    1    2  502    0  0.17990968550E+02 -0.60043843993E+02  0.21749801677E+03  0.22639879737E+03  0.47000000000E+01 0.  1.
         -5    1    1    2    0  502  0.50600265118E+01  0.74806184161E+01 -0.15174720329E+02  0.18273632842E+02  0.47000000000E+01 0.  1.
        -11    1    1    2    0    0 -0.17675855622E+02  0.67259059430E+02  0.92929911253E+00  0.69549123245E+02  0.00000000000E+00 0. -1.
         11    1    1    2    0    0 -0.53751394394E+01 -0.14695833853E+02  0.41394998551E+02  0.44253876233E+02  0.00000000000E+00 0.  1.
<mgrwt>
<rscale>  0 0.12879156E+03</rscale>
<asrwt>0</asrwt>
<pdfrwt beam="2">  1        1 0.87559875E-02 0.13758591E+03</pdfrwt>
<pdfrwt beam="1">  1       -1 0.46394078E-01 0.13758591E+03</pdfrwt>
<totfact> 0.34881402E+03</totfact>
</mgrwt>
</event>
<event>
 6    1  0.7270761E-006  0.1264779E+03  0.7546771E-02  0.1247064E+00
          1   -1    0    0  501    0  0.00000000000E+00  0.00000000000E+00  0.42984392937E+03  0.42984392937E+03  0.00000000000E+00 0. -1.
         -1   -1    0    0    0  501 -0.00000000000E+00 -0.00000000000E+00 -0.28522106903E+02  0.28522106903E+02  0.00000000000E+00 0.  1.
          5    1    1    2  502    0 -0.94439362496E+01 -0.70593970401E+02  0.13244557216E+03  0.15045469808E+03  0.47000000000E+01 0. -1.
         -5    1    1    2    0  502  0.15426741238E+02  0.52270636293E+02  0.84244538360E+02  0.10044618463E+03  0.47000000000E+01 0. -1.
        -11    1    1    2    0    0 -0.39601071456E+02  0.12144984672E+02  0.35767620950E+02  0.54727216461E+02  0.00000000000E+00 0.  1.
         11    1    1    2    0    0  0.33618266467E+02  0.61783494355E+01  0.14886409100E+03  0.15273793710E+03  0.00000000000E+00 0. -1.
<mgrwt>
<rscale>  0 0.11762685E+03</rscale>
<asrwt>0</asrwt>
<pdfrwt beam="1">  1        1 0.66129831E-01 0.12647786E+03</pdfrwt>
<pdfrwt beam="2">  1       -1 0.43880167E-02 0.12647786E+03</pdfrwt>
<totfact> 0.11141566E+04</totfact>
</mgrwt>
</event>
<event>
 6    1  0.7270761E-006  0.1286571E+03  0.7546771E-02  0.1243121E+00
         -1   -1    0    0    0  501 -0.00000000000E+00  0.00000000000E+00  0.10483854036E+03  0.10483854036E+03  0.00000000000E+00 0.  1.
          1   -1    0    0  501    0  0.00000000000E+00 -0.00000000000E+00 -0.12904305644E+03  0.12904305644E+03  0.00000000000E+00 0. -1.
          5    1    1    2  502    0 -0.24949357527E+02 -0.41181063791E+02  0.19481849241E+02  0.52153455358E+02  0.47000000000E+01 0.  1.
         -5    1    1    2    0  502  0.28300031123E+02  0.71493694936E+02 -0.56694799423E+01  0.77242949064E+02  0.47000000000E+01 0.  1.
        -11    1    1    2    0    0 -0.29869990244E+02 -0.54004032194E+02 -0.22522929587E+02  0.65695769784E+02  0.00000000000E+00 0.  1.
         11    1    1    2    0    0  0.26519316648E+02  0.23691401049E+02 -0.15493955793E+02  0.38789422595E+02  0.00000000000E+00 0. -1.
<mgrwt>
<rscale>  0 0.11998578E+03</rscale>
<asrwt>0</asrwt>
<pdfrwt beam="2">  1        1 0.19852778E-01 0.12865709E+03</pdfrwt>
<pdfrwt beam="1">  1       -1 0.16129006E-01 0.12865709E+03</pdfrwt>
<totfact> 0.69636004E+03</totfact>
</mgrwt>
</event>
<event>
 6    1  0.7270761E-006  0.1891687E+03  0.7546771E-02  0.1164788E+00
          1   -1    0    0  501    0  0.00000000000E+00  0.00000000000E+00  0.84549742644E+03  0.84549742644E+03  0.00000000000E+00 0. -1.
         -1   -1    0    0    0  501 -0.00000000000E+00 -0.00000000000E+00 -0.45472814189E+02  0.45472814189E+02  0.00000000000E+00 0.  1.
          5    1    1    2  502    0 -0.35976427641E+02 -0.23025610090E+02  0.17825225120E+02  0.46522152964E+02  0.47000000000E+01 0. -1.
         -5    1    1    2    0  502  0.68778837282E+02 -0.11512117714E+03  0.21538492330E+03  0.25376400270E+03  0.47000000000E+01 0. -1.
        -11    1    1    2    0    0 -0.19636632203E+02  0.90861437154E+01  0.22869795264E+02  0.31483056829E+02  0.00000000000E+00 0.  1.
         11    1    1    2    0    0 -0.13165777438E+02  0.12906064351E+03  0.54394466857E+03  0.55920102814E+03  0.00000000000E+00 0. -1.
<mgrwt>
<rscale>  0 0.18315034E+03</rscale>
<asrwt>0</asrwt>
<pdfrwt beam="1">  1        1 0.13007652E+00 0.18916871E+03</pdfrwt>
<pdfrwt beam="2">  1       -1 0.69958182E-02 0.18916871E+03</pdfrwt>
<totfact> 0.22200666E+03</totfact>
</mgrwt>
</event>
<event>
 6    1  0.7270761E-006  0.1334512E+03  0.7546771E-02  0.1235016E+00
         -2   -1    0    0    0  501 -0.00000000000E+00  0.00000000000E+00  0.57378174297E+02  0.57378174297E+02  0.00000000000E+00 0.  1.
          2   -1    0    0  501    0  0.00000000000E+00 -0.00000000000E+00 -0.37442445546E+03  0.37442445546E+03  0.00000000000E+00 0. -1.
          5    1    1    2  502    0 -0.61394732604E+01  0.40655399396E+02  0.18382882253E+02  0.45283274968E+02  0.47000000000E+01 0. -1.
         -5    1    1    2    0  502 -0.35386847639E+02 -0.62068694007E+02 -0.63165155197E+02  0.95481299701E+02  0.47000000000E+01 0. -1.
        -11    1    1    2    0    0 -0.11636753274E+02 -0.67606452098E+01 -0.13527568966E+01  0.13525912229E+02  0.00000000000E+00 0.  1.
         11    1    1    2    0    0  0.53163074173E+02  0.28173939821E+02 -0.27091125132E+03  0.27751214286E+03  0.00000000000E+00 0. -1.
<mgrwt>
<rscale>  0 0.12503430E+03</rscale>
<asrwt>0</asrwt>
<pdfrwt beam="2">  1        2 0.57603764E-01 0.13345117E+03</pdfrwt>
<pdfrwt beam="1">  1       -2 0.88274112E-02 0.13345117E+03</pdfrwt>
<totfact> 0.66337201E+03</totfact>
</mgrwt>
</event>
<event>
 6    1  0.7270761E-006  0.1787196E+03  0.7546771E-02  0.1175056E+00
         -2   -1    0    0    0  501 -0.00000000000E+00  0.00000000000E+00  0.14874949799E+03  0.14874949799E+03  0.00000000000E+00 0.  1.
          2   -1    0    0  501    0  0.00000000000E+00 -0.00000000000E+00 -0.18921797585E+03  0.18921797585E+03  0.00000000000E+00 0. -1.
          5    1    1    2  502    0 -0.88370360843E+01  0.79308107489E+02 -0.64210328231E+02  0.10253255762E+03  0.47000000000E+01 0.  1.
         -5    1    1    2    0  502  0.21473407237E+02  0.47803709521E+02  0.55400269231E+02  0.76404068564E+02  0.47000000000E+01 0.  1.
        -11    1    1    2    0    0 -0.20181602991E+02 -0.79954471017E+01 -0.33198676415E+02  0.39665808820E+02  0.00000000000E+00 0. -1.
         11    1    1    2    0    0  0.75452318383E+01 -0.11911636991E+03  0.15402575589E+01  0.11936503884E+03  0.00000000000E+00 0.  1.
<mgrwt>
<rscale>  0 0.17270478E+03</rscale>
<asrwt>0</asrwt>
<pdfrwt beam="2">  1        2 0.29110458E-01 0.17871961E+03</pdfrwt>
<pdfrwt beam="1">  1       -2 0.22884538E-01 0.17871961E+03</pdfrwt>
<totfact> 0.29499543E+03</totfact>
</mgrwt>
</event>
<event>
 6    1  0.7270761E-006  0.3589884E+03  0.7546771E-02  0.1058985E+00
         -1   -1    0    0    0  501 -0.00000000000E+00  0.00000000000E+00  0.13632361923E+03  0.13632361923E+03  0.00000000000E+00 0.  1.
          1   -1    0    0  501    0  0.00000000000E+00 -0.00000000000E+00 -0.23633589526E+03  0.23633589526E+03  0.00000000000E+00 0. -1.
          5    1    1    2  502    0 -0.11283564996E+03  0.42160738414E+02  0.24161957968E+01  0.12057089105E+03  0.47000000000E+01 0. -1.
         -5    1    1    2    0  502  0.13544231705E+02 -0.21399337602E+02  0.37139295958E+02  0.45197291584E+02  0.47000000000E+01 0. -1.
        -11    1    1    2    0    0  0.53864997691E+02  0.46727316023E+02 -0.62217758994E+02  0.94635773222E+02  0.00000000000E+00 0. -1.
         11    1    1    2    0    0  0.45426420565E+02 -0.67488716835E+02 -0.77350008793E+02  0.11225555864E+03  0.00000000000E+00 0.  1.
<mgrwt>
<rscale>  0 0.35898838E+03</rscale>
<asrwt>0</asrwt>
<pdfrwt beam="2">  1        1 0.36359368E-01 0.35898838E+03</pdfrwt>
<pdfrwt beam="1">  1       -1 0.20972864E-01 0.35898838E+03</pdfrwt>
<totfact> 0.22201083E+03</totfact>
</mgrwt>
</event>
<event>
 6    1  0.7270761E-006  0.1272410E+03  0.7546771E-02  0.1245851E+00
         -2   -1    0    0    0  501 -0.00000000000E+00  0.00000000000E+00  0.20172770952E+03  0.20172770952E+03  0.00000000000E+00 0.  1.
          2   -1    0    0  501    0  0.00000000000E+00 -0.00000000000E+00 -0.61562642497E+02  0.61562642497E+02  0.00000000000E+00 0. -1.
          5    1    1    2  502    0 -0.56587552408E+01  0.59296219942E+02  0.73434092430E+00  0.59755271456E+02  0.47000000000E+01 0.  1.
         -5    1    1    2    0  502  0.92829337511E+01 -0.35846175602E+02  0.87375957577E+02  0.95014573234E+02  0.47000000000E+01 0.  1.
        -11    1    1    2    0    0  0.73865310579E+01 -0.33134819341E+02  0.74408116909E+02  0.81786581759E+02  0.00000000000E+00 0.  1.
         11    1    1    2    0    0 -0.11010709568E+02  0.96847750018E+01 -0.22353348388E+02  0.26733925567E+02  0.00000000000E+00 0. -1.
<mgrwt>
<rscale>  0 0.11834594E+03</rscale>
<asrwt>0</asrwt>
<pdfrwt beam="2">  1        2 0.94711759E-02 0.12724103E+03</pdfrwt>
<pdfrwt beam="1">  1       -2 0.31035032E-01 0.12724103E+03</pdfrwt>
<totfact> 0.62107546E+03</totfact>
</mgrwt>
</event>
<event>
 6    1  0.7270761E-006  0.3238715E+03  0.7546771E-02  0.1073881E+00
         -1   -1    0    0    0  501 -0.00000000000E+00  0.00000000000E+00  0.57325549041E+03  0.57325549041E+03  0.00000000000E+00 0.  1.
          1   -1    0    0  501    0  0.00000000000E+00 -0.00000000000E+00 -0.45744330837E+02  0.45744330837E+02  0.00000000000E+00 0. -1.
          5    1    1    2  502    0  0.50141173722E+02  0.13024724206E+03  0.22709003427E+03  0.26659042561E+03  0.47000000000E+01 0. -1.
         -5    1    1    2    0  502 -0.87987271402E+01 -0.19819597058E+02  0.10505977459E+03  0.10737728002E+03  0.47000000000E+01 0. -1.
        -11    1    1    2    0    0 -0.67191424935E+02 -0.75900328269E+02  0.15927182917E+03  0.18879370483E+03  0.00000000000E+00 0.  1.
         11    1    1    2    0    0  0.25848978353E+02 -0.34527316728E+02  0.36089521541E+02  0.56238410783E+02  0.00000000000E+00 0. -1.
<mgrwt>
<rscale>  0 0.32387151E+03</rscale>
<asrwt>0</asrwt>
<pdfrwt beam="2">  1        1 0.70375898E-02 0.32387151E+03</pdfrwt>
<pdfrwt beam="1">  1       -1 0.88193147E-01 0.32387151E+03</pdfrwt>
<totfact> 0.13793619E+03</totfact>
</mgrwt>
</event>
<event>
 6    1  0.7270761E-006  0.1872850E+03  0.7546771E-02  0.1166010E+00
          2   -1    0    0  501    0  0.00000000000E+00  0.00000000000E+00  0.71058166586E+03  0.71058166586E+03  0.00000000000E+00 0. -1.
         -2   -1    0    0    0  501 -0.00000000000E+00 -0.00000000000E+00 -0.47957433618E+02  0.47957433618E+02  0.00000000000E+00 0.  1.
          5    1    1    2  502    0 -0.40853342671E+02 -0.24919834336E+01  0.82388804714E+02  0.92115203582E+02  0.47000000000E+01 0. -1.
         -5    1    1    2    0  502  0.21480041640E+02  0.14060735770E+03  0.15858852843E+03  0.21308268953E+03  0.47000000000E+01 0. -1.
        -11    1    1    2    0    0  0.25416312673E+01 -0.47034463838E+02  0.43845594930E+02  0.64351665656E+02  0.00000000000E+00 0.  1.
         11    1    1    2    0    0  0.16831669764E+02 -0.91080910426E+02  0.37780130417E+03  0.38898954071E+03  0.00000000000E+00 0. -1.
<mgrwt>
<rscale>  0 0.18186545E+03</rscale>
<asrwt>0</asrwt>
<pdfrwt beam="1">  1        2 0.10932025E+00 0.18728502E+03</pdfrwt>
<pdfrwt beam="2">  1       -2 0.73780672E-02 0.18728502E+03</pdfrwt>
<totfact> 0.43515849E+03</totfact>
</mgrwt>
</event>
<event>
 6    1  0.7270761E-006  0.1302787E+03  0.7546771E-02  0.1239403E+00
          1   -1    0    0  501    0  0.00000000000E+00  0.00000000000E+00  0.47813793340E+02  0.47813793340E+02  0.00000000000E+00 0. -1.
         -1   -1    0    0    0  501 -0.00000000000E+00 -0.00000000000E+00 -0.29045744927E+03  0.29045744927E+03  0.00000000000E+00 0.  1.
          5    1    1    2  502    0 -0.18160681484E+02  0.76863504220E+02 -0.12142563828E+03  0.14492785883E+03  0.47000000000E+01 0.  1.
         -5    1    1    2    0  502 -0.52692759397E+01 -0.48600113115E+02 -0.46733432068E+02  0.67792624500E+02  0.47000000000E+01 0.  1.
        -11    1    1    2    0    0  0.31963425930E+01  0.33821009548E+02 -0.37116644903E+02  0.50316226227E+02  0.00000000000E+00 0.  1.
         11    1    1    2    0    0  0.20233614830E+02 -0.62084400653E+02 -0.37367940679E+02  0.75234533056E+02  0.00000000000E+00 0. -1.
<mgrwt>
<rscale>  0 0.12226721E+03</rscale>
<asrwt>0</asrwt>
<pdfrwt beam="1">  1        1 0.73559680E-02 0.13027867E+03</pdfrwt>
<pdfrwt beam="2">  1       -1 0.44685763E-01 0.13027867E+03</pdfrwt>
<totfact> 0.46962808E+03</totfact>
</mgrwt>
</event>
<event>
 6    1  0.7270761E-006  0.1388969E+03  0.7546771E-02  0.1233283E+00
         -1   -1    0    0    0  501 -0.00000000000E+00  0.00000000000E+00  0.12717078313E+03  0.12717078313E+03  0.00000000000E+00 0.  1.
          1   -1    0    0  501    0  0.00000000000E+00 -0.00000000000E+00 -0.13477862750E+03  0.13477862750E+03  0.00000000000E+00 0. -1.
          5    1    1    2  502    0 -0.46328397289E+02 -0.43188930630E+02  0.46130479915E+02  0.78496594203E+02  0.47000000000E+01 0. -1.
         -5    1    1    2    0  502  0.64238148425E+02  0.27710594301E+02  0.79890562596E+01  0.70571465689E+02  0.47000000000E+01 0.  1.
        -11    1    1    2    0    0 -0.25048776244E+02  0.49640293827E+02 -0.21472794277E+02  0.59604369442E+02  0.00000000000E+00 0.  1.
         11    1    1    2    0    0  0.71390251074E+01 -0.34161957498E+02 -0.40254586274E+02  0.53276981292E+02  0.00000000000E+00 0. -1.
<mgrwt>
<rscale>  0 0.12615013E+03</rscale>
<asrwt>0</asrwt>
<pdfrwt beam="2">  1        1 0.20735173E-01 0.13889695E+03</pdfrwt>
<pdfrwt beam="1">  1       -1 0.19564736E-01 0.13889695E+03</pdfrwt>
<totfact> 0.48741300E+03</totfact>
</mgrwt>
</event>
<event>
 6    1  0.7270761E-006  0.1416661E+03  0.7546771E-02  0.1221800E+00
         -1   -1    0    0    0  501 -0.00000000000E+00  0.00000000000E+00  0.26237217443E+02  0.26237217443E+02  0.00000000000E+00 0.  1.
          1   -1    0    0  501    0  0.00000000000E+00 -0.00000000000E+00 -0.67017118216E+03  0.67017118216E+03  0.00000000000E+00 0. -1.
          5    1    1    2  502    0  0.42497129906E+02 -0.26625778989E+02 -0.26720788056E+03  0.27191373557E+03  0.47000000000E+01 0.  1.
         -5    1    1    2    0  502  0.46052375235E+01 -0.20564823270E+02  0.83690933663E+01  0.23157113217E+02  0.47000000000E+01 0.  1.
        -11    1    1    2    0    0  0.24603438770E+02  0.26511978314E+02 -0.91076026014E+02  0.97995187167E+02  0.00000000000E+00 0.  1.
         11    1    1    2    0    0 -0.71705806200E+02  0.20678623945E+02 -0.29401915151E+03  0.30334236365E+03  0.00000000000E+00 0. -1.
<mgrwt>
<rscale>  0 0.13388699E+03</rscale>
<asrwt>0</asrwt>
<pdfrwt beam="2">  1        1 0.10310325E+00 0.14166611E+03</pdfrwt>
<pdfrwt beam="1">  1       -1 0.40364953E-02 0.14166611E+03</pdfrwt>
<totfact> 0.70354282E+03</totfact>
</mgrwt>
</event>
<event>
 6    1  0.7270761E-006  0.1791865E+03  0.7546771E-02  0.1174284E+00
          2   -1    0    0  501    0  0.00000000000E+00  0.00000000000E+00  0.97373415617E+03  0.97373415617E+03  0.00000000000E+00 0. -1.
         -2   -1    0    0    0  501 -0.00000000000E+00 -0.00000000000E+00 -0.61104195149E+02  0.61104195149E+02  0.00000000000E+00 0.  1.
          5    1    1    2  502    0 -0.94768404296E+02 -0.48681307982E+02  0.83862603075E+01  0.10697354608E+03  0.47000000000E+01 0.  1.
         -5    1    1    2    0  502  0.14413930952E+01 -0.39482521706E+02  0.87806089168E+02  0.96399929613E+02  0.47000000000E+01 0.  1.
        -11    1    1    2    0    0  0.32522908491E+01  0.63512886254E+02  0.30273421920E+03  0.30934199778E+03  0.00000000000E+00 0. -1.
         11    1    1    2    0    0  0.90074720352E+02  0.24650943434E+02  0.51370339235E+03  0.52212287785E+03  0.00000000000E+00 0.  1.
<mgrwt>
<rscale>  0 0.17346242E+03</rscale>
<asrwt>0</asrwt>
<pdfrwt beam="1">  1        2 0.14980524E+00 0.17918650E+03</pdfrwt>
<pdfrwt beam="2">  1       -2 0.94006461E-02 0.17918650E+03</pdfrwt>
<totfact> 0.19882814E+03</totfact>
</mgrwt>
</event>
<event>
 6    1  0.7270761E-006  0.4405224E+03  0.7546771E-02  0.1067790E+00
          2   -1    0    0  501    0  0.00000000000E+00  0.00000000000E+00  0.50736733149E+03  0.50736733149E+03  0.00000000000E+00 0. -1.
         -2   -1    0    0    0  501 -0.00000000000E+00 -0.00000000000E+00 -0.17811040259E+03  0.17811040259E+03  0.00000000000E+00 0.  1.
          5    1    1    2  502    0  0.11598119705E+02  0.27027938890E+02  0.36275080005E+03  0.36397150823E+03  0.47000000000E+01 0. -1.
         -5    1    1    2    0  502 -0.92389169437E+02 -0.11787317703E+03 -0.69559963705E+02  0.16519843535E+03  0.47000000000E+01 0.  1.
        -11    1    1    2    0    0  0.99700844609E+02  0.83339544596E+02  0.22562675312E+02  0.13188939467E+03  0.00000000000E+00 0. -1.
         11    1    1    2    0    0 -0.18909794877E+02  0.75056935408E+01  0.13503417237E+02  0.24418395830E+02  0.00000000000E+00 0.  1.
<mgrwt>
<rscale>  0 0.33767673E+03</rscale>
<asrwt>0</asrwt>
<pdfrwt beam="1">  1        2 0.78056512E-01 0.44052237E+03</pdfrwt>
<pdfrwt beam="2">  1       -2 0.27401601E-01 0.44052237E+03</pdfrwt>
<totfact> 0.73941926E+02</totfact>
</mgrwt>
</event>
<event>
 6    1  0.7270761E-006  0.1287614E+03  0.7546771E-02  0.1243820E+00
          2   -1    0    0  501    0  0.00000000000E+00  0.00000000000E+00  0.25892799064E+03  0.25892799064E+03  0.00000000000E+00 0. -1.
         -2   -1    0    0    0  501 -0.00000000000E+00 -0.00000000000E+00 -0.67279325142E+02  0.67279325142E+02  0.00000000000E+00 0.  1.
          5    1    1    2  502    0  0.58080636028E+02 -0.48317842199E+02  0.12294089806E+02  0.76689039636E+02  0.47000000000E+01 0. -1.
         -5    1    1    2    0  502 -0.49450630855E+02  0.18664208894E+02  0.85920505522E+01  0.53755287352E+02  0.47000000000E+01 0. -1.
        -11    1    1    2    0    0 -0.37372825149E+02 -0.66220571153E+01  0.32528870981E+02  0.49987069802E+02  0.00000000000E+00 0.  1.
         11    1    1    2    0    0  0.28742819977E+02  0.36275690420E+02  0.13823365416E+03  0.14577591900E+03  0.00000000000E+00 0. -1.
<mgrwt>
<rscale>  0 0.11956271E+03</rscale>
<asrwt>0</asrwt>
<pdfrwt beam="1">  1        2 0.39835075E-01 0.12876137E+03</pdfrwt>
<pdfrwt beam="2">  1       -2 0.10350666E-01 0.12876137E+03</pdfrwt>
<totfact> 0.76265146E+03</totfact>
</mgrwt>
</event>
<event>
 6    1  0.7270761E-006  0.1439134E+03  0.7546771E-02  0.1218284E+00
         -2   -1    0    0    0  501 -0.00000000000E+00  0.00000000000E+00  0.19494149510E+02  0.19494149510E+02  0.00000000000E+00 0.  1.
          2   -1    0    0  501    0  0.00000000000E+00 -0.00000000000E+00 -0.86691716204E+03  0.86691716204E+03  0.00000000000E+00 0. -1.
          5    1    1    2  502    0  0.42901584828E+02  0.32070902201E+02 -0.62897044961E+02  0.82747912443E+02  0.47000000000E+01 0.  1.
         -5    1    1    2    0  502 -0.18195814250E+02  0.35003972336E+02 -0.40090035379E+03  0.40286418233E+03  0.47000000000E+01 0.  1.
        -11    1    1    2    0    0 -0.50444934728E+01  0.10624033441E+02 -0.34346295193E+01  0.12252088838E+02  0.00000000000E+00 0.  1.
         11    1    1    2    0    0 -0.19661277105E+02 -0.77698907978E+02 -0.38019098426E+03  0.38854712794E+03  0.00000000000E+00 0. -1.
<mgrwt>
<rscale>  0 0.13638061E+03</rscale>
<asrwt>0</asrwt>
<pdfrwt beam="2">  1        2 0.13337188E+00 0.14391344E+03</pdfrwt>
<pdfrwt beam="1">  1       -2 0.29990998E-02 0.14391344E+03</pdfrwt>
<totfact> 0.13005209E+04</totfact>
</mgrwt>
</event>
<event>
 6    1  0.7270761E-006  0.1390179E+03  0.7546771E-02  0.1231182E+00
         -2   -1    0    0    0  501 -0.00000000000E+00  0.00000000000E+00  0.16789623563E+03  0.16789623563E+03  0.00000000000E+00 0.  1.
          2   -1    0    0  501    0  0.00000000000E+00 -0.00000000000E+00 -0.85524283392E+02  0.85524283392E+02  0.00000000000E+00 0. -1.
          5    1    1    2  502    0 -0.16130894696E+02 -0.77880444896E+00  0.93903275217E+02  0.95397732659E+02  0.47000000000E+01 0. -1.
         -5    1    1    2    0  502 -0.30494926203E+02  0.39856894024E+02 -0.28862205087E+02  0.58082952816E+02  0.47000000000E+01 0. -1.
        -11    1    1    2    0    0  0.15337186172E+02  0.22562581163E+01  0.40344277741E+02  0.43220142605E+02  0.00000000000E+00 0.  1.
         11    1    1    2    0    0  0.31288634727E+02 -0.41334347691E+02 -0.23013395631E+02  0.56719690943E+02  0.00000000000E+00 0. -1.
<mgrwt>
<rscale>  0 0.12752054E+03</rscale>
<asrwt>0</asrwt>
<pdfrwt beam="2">  1        2 0.13157582E-01 0.13901791E+03</pdfrwt>
<pdfrwt beam="1">  1       -2 0.25830190E-01 0.13901791E+03</pdfrwt>
<totfact> 0.58211247E+03</totfact>
</mgrwt>
</event>
<event>
 6    1  0.7270761E-006  0.2865682E+03  0.7546771E-02  0.1093970E+00
         -2   -1    0    0    0  501 -0.00000000000E+00  0.00000000000E+00  0.16403511805E+03  0.16403511805E+03  0.00000000000E+00 0.  1.
          2   -1    0    0  501    0  0.00000000000E+00 -0.00000000000E+00 -0.63258236872E+03  0.63258236872E+03  0.00000000000E+00 0. -1.
          5    1    1    2  502    0  0.60861528001E+02  0.82824113111E+02 -0.20882027367E+02  0.10498622943E+03  0.47000000000E+01 0. -1.
         -5    1    1    2    0  502 -0.54842399104E+02  0.17495763106E+03 -0.20487085340E+02  0.18455262683E+03  0.47000000000E+01 0. -1.
        -11    1    1    2    0    0  0.17494726956E+02 -0.91372109449E+02 -0.85722559275E+02  0.12650409094E+03  0.00000000000E+00 0. -1.
         11    1    1    2    0    0 -0.23513855853E+02 -0.16640963472E+03 -0.34145557869E+03  0.38057453956E+03  0.00000000000E+00 0.  1.
<mgrwt>
<rscale>  0 0.28317049E+03</rscale>
<asrwt>0</asrwt>
<pdfrwt beam="2">  1        2 0.97320365E-01 0.28656822E+03</pdfrwt>
<pdfrwt beam="1">  1       -2 0.25236172E-01 0.28656822E+03</pdfrwt>
<totfact> 0.66499138E+02</totfact>
</mgrwt>
</event>
<event>
 6    1  0.7270761E-006  0.1261303E+03  0.7546771E-02  0.1248351E+00
          3   -1    0    0  501    0  0.00000000000E+00  0.00000000000E+00  0.50423528916E+02  0.50423528916E+02  0.00000000000E+00 0. -1.
         -3   -1    0    0    0  501 -0.00000000000E+00 -0.00000000000E+00 -0.24125875009E+03  0.24125875009E+03  0.00000000000E+00 0.  1.
          5    1    1    2  502    0 -0.78686792659E+01  0.61418846944E+02 -0.35249262278E+02  0.71405821643E+02  0.47000000000E+01 0. -1.
         -5    1    1    2    0  502 -0.78998639117E+01 -0.55597295041E+02 -0.91127262914E+02  0.10714352576E+03  0.47000000000E+01 0. -1.
        -11    1    1    2    0    0 -0.18202296603E+02 -0.19899593251E+02 -0.70850005516E+02  0.75809238848E+02  0.00000000000E+00 0.  1.
         11    1    1    2    0    0  0.33970839781E+02  0.14078041348E+02  0.63913095311E+01  0.37323692758E+02  0.00000000000E+00 0. -1.
<mgrwt>
<rscale>  0 0.11687044E+03</rscale>
<asrwt>0</asrwt>
<pdfrwt beam="1">  1        3 0.77574660E-02 0.12613026E+03</pdfrwt>
<pdfrwt beam="2">  1       -3 0.37116731E-01 0.12613026E+03</pdfrwt>
<totfact> 0.18237859E+03</totfact>
</mgrwt>
</event>
<event>
 6    1  0.7270761E-006  0.1430017E+03  0.7546771E-02  0.1234179E+00
          1   -1    0    0  501    0  0.00000000000E+00  0.00000000000E+00  0.71363394427E+02  0.71363394427E+02  0.00000000000E+00 0. -1.
         -1   -1    0    0    0  501 -0.00000000000E+00 -0.00000000000E+00 -0.18736118019E+03  0.18736118019E+03  0.00000000000E+00 0.  1.
          5    1    1    2  502    0  0.11820370770E+02 -0.97485948941E+02 -0.54740885370E+02  0.11252504582E+03  0.47000000000E+01 0. -1.
         -5    1    1    2    0  502  0.17864656944E+02  0.34703567870E+02  0.32891585624E+01  0.39451136292E+02  0.47000000000E+01 0. -1.
        -11    1    1    2    0    0 -0.16342156939E+02  0.34493669923E+02 -0.65101675319E+02  0.75465935941E+02  0.00000000000E+00 0.  1.
         11    1    1    2    0    0 -0.13342870775E+02  0.28288711147E+02  0.55561636692E+00  0.31282456560E+02  0.00000000000E+00 0. -1.
<mgrwt>
<rscale>  0 0.12557142E+03</rscale>
<asrwt>0</asrwt>
<pdfrwt beam="1">  1        1 0.10978984E-01 0.14300168E+03</pdfrwt>
<pdfrwt beam="2">  1       -1 0.28824797E-01 0.14300168E+03</pdfrwt>
<totfact> 0.59023310E+03</totfact>
</mgrwt>
</event>
<event>
 6    1  0.7270761E-006  0.1599565E+03  0.7546771E-02  0.1197184E+00
         -3   -1    0    0    0  501 -0.00000000000E+00  0.00000000000E+00  0.49436150379E+03  0.49436150379E+03  0.00000000000E+00 0.  1.
          3   -1    0    0  501    0  0.00000000000E+00 -0.00000000000E+00 -0.48348535830E+02  0.48348535830E+02  0.00000000000E+00 0. -1.
          5    1    1    2  502    0  0.18995305213E+02 -0.26768718941E+02  0.22505536666E+02  0.40074619331E+02  0.47000000000E+01 0. -1.
         -5    1    1    2    0  502  0.51188127141E+02  0.97726080077E+02  0.30579222262E+03  0.32511780096E+03  0.47000000000E+01 0. -1.
        -11    1    1    2    0    0 -0.25532490992E+02  0.15399687296E+02  0.52742272481E+02  0.60587174976E+02  0.00000000000E+00 0.  1.
         11    1    1    2    0    0 -0.44650941362E+02 -0.86357048433E+02  0.64972936189E+02  0.11693044435E+03  0.00000000000E+00 0. -1.
<mgrwt>
<rscale>  0 0.15270802E+03</rscale>
<asrwt>0</asrwt>
<pdfrwt beam="2">  1        3 0.74382366E-02 0.15995651E+03</pdfrwt>
<pdfrwt beam="1">  1       -3 0.76055613E-01 0.15995651E+03</pdfrwt>
<totfact> 0.47487575E+02</totfact>
</mgrwt>
</event>
<event>
 6    1  0.7270761E-006  0.1494979E+03  0.7546771E-02  0.1211758E+00
          1   -1    0    0  501    0  0.00000000000E+00  0.00000000000E+00  0.52179288469E+03  0.52179288469E+03  0.00000000000E+00 0. -1.
         -1   -1    0    0    0  501 -0.00000000000E+00 -0.00000000000E+00 -0.41043297356E+02  0.41043297356E+02  0.00000000000E+00 0.  1.
          5    1    1    2  502    0  0.70177363387E+02 -0.31115905626E+02  0.22401560272E+02  0.80106066047E+02  0.47000000000E+01 0.  1.
         -5    1    1    2    0  502  0.11752053559E+02  0.27821551832E+02  0.12936229474E+03  0.13292419949E+03  0.47000000000E+01 0.  1.
        -11    1    1    2    0    0 -0.26188668697E+02  0.43065140380E+02  0.13823011623E+03  0.14713265347E+03  0.00000000000E+00 0.  1.
         11    1    1    2    0    0 -0.55740748250E+02 -0.39770786587E+02  0.19075561609E+03  0.20267326304E+03  0.00000000000E+00 0. -1.
<mgrwt>
<rscale>  0 0.14117376E+03</rscale>
<asrwt>0</asrwt>
<pdfrwt beam="1">  1        1 0.80275824E-01 0.14949791E+03</pdfrwt>
<pdfrwt beam="2">  1       -1 0.63143538E-02 0.14949791E+03</pdfrwt>
<totfact> 0.51091006E+03</totfact>
</mgrwt>
</event>
<event>
 6    1  0.7270761E-006  0.3270603E+03  0.7546771E-02  0.1073657E+00
         -2   -1    0    0    0  501 -0.00000000000E+00  0.00000000000E+00  0.66601188664E+03  0.66601188664E+03  0.00000000000E+00 0. -1.
          2   -1    0    0  501    0  0.00000000000E+00 -0.00000000000E+00 -0.15951171343E+03  0.15951171343E+03  0.00000000000E+00 0.  1.
          5    1    1    2  502    0  0.29651707794E+03 -0.83392021195E+00  0.20402267249E+03  0.35995890574E+03  0.47000000000E+01 0. -1.
         -5    1    1    2    0  502  0.55080420746E+01  0.12006602632E+02 -0.12728454109E+02  0.18936752052E+02  0.47000000000E+01 0. -1.
        -11    1    1    2    0    0 -0.12778131143E+03 -0.93783829994E+01  0.20073163221E+03  0.23813694755E+03  0.00000000000E+00 0. -1.
         11    1    1    2    0    0 -0.17424380858E+03 -0.17942994204E+01  0.11447432262E+03  0.20849099472E+03  0.00000000000E+00 0.  1.
<mgrwt>
<rscale>  0 0.32436719E+03</rscale>
<asrwt>0</asrwt>
<pdfrwt beam="2">  1        2 0.24540264E-01 0.32706030E+03</pdfrwt>
<pdfrwt beam="1">  1       -2 0.10246337E+00 0.32706030E+03</pdfrwt>
<totfact> 0.17844549E+02</totfact>
</mgrwt>
</event>
<event>
 6    1  0.9671311E-006  0.1945117E+03  0.7546771E-02  0.1158999E+00
          1   -1    0    0  501    0  0.00000000000E+00  0.00000000000E+00  0.38908603828E+03  0.38908603828E+03  0.00000000000E+00 0. -1.
         -1   -1    0    0    0  501 -0.00000000000E+00 -0.00000000000E+00 -0.89732925672E+02  0.89732925672E+02  0.00000000000E+00 0.  1.
          5    1    1    2  502    0 -0.95570259936E+02 -0.84678112309E+02  0.38184438427E+02  0.13335740934E+03  0.47000000000E+01 0.  1.
         -5    1    1    2    0  502  0.19475229402E+02 -0.43460554081E+02  0.83023437831E+02  0.95828417240E+02  0.47000000000E+01 0.  1.
        -11    1    1    2    0    0  0.61441589484E+02  0.27832198771E+02  0.40460352404E+02  0.78655834643E+02  0.00000000000E+00 0. -1.
         11    1    1    2    0    0  0.14653441050E+02  0.10030646762E+03  0.13768488395E+03  0.17097730273E+03  0.00000000000E+00 0.  1.
<mgrwt>
<rscale>  0 0.18940467E+03</rscale>
<asrwt>0</asrwt>
<pdfrwt beam="1">  1        1 0.59859390E-01 0.19451168E+03</pdfrwt>
<pdfrwt beam="2">  1       -1 0.13805066E-01 0.19451168E+03</pdfrwt>
<totfact> 0.22781007E+03</totfact>
</mgrwt>
</event>
<event>
 6    1  0.7270761E-006  0.1385148E+03  0.7546771E-02  0.1226324E+00
         -2   -1    0    0    0  501 -0.00000000000E+00  0.00000000000E+00  0.11804350275E+03  0.11804350275E+03  0.00000000000E+00 0.  1.
          2   -1    0    0  501    0  0.00000000000E+00 -0.00000000000E+00 -0.13763562439E+03  0.13763562439E+03  0.00000000000E+00 0. -1.
          5    1    1    2  502    0 -0.44475610961E+02  0.19287758398E+02  0.22988679210E+02  0.53857840341E+02  0.47000000000E+01 0. -1.
         -5    1    1    2    0  502  0.34558841706E+02 -0.78132330050E+02 -0.55889689210E+01  0.85745560309E+02  0.47000000000E+01 0. -1.
        -11    1    1    2    0    0 -0.26464749743E+02  0.40788741033E+02  0.14270957798E+02  0.50673115263E+02  0.00000000000E+00 0.  1.
         11    1    1    2    0    0  0.36381518998E+02  0.18055830618E+02 -0.51262789727E+02  0.65402611221E+02  0.00000000000E+00 0. -1.
<mgrwt>
<rscale>  0 0.13076563E+03</rscale>
<asrwt>0</asrwt>
<pdfrwt beam="2">  1        2 0.21174711E-01 0.13851484E+03</pdfrwt>
<pdfrwt beam="1">  1       -2 0.18160539E-01 0.13851484E+03</pdfrwt>
<totfact> 0.61358853E+03</totfact>
</mgrwt>
</event>
<event>
 6    1  0.7270761E-006  0.1783195E+03  0.7546771E-02  0.1199381E+00
          3   -1    0    0  501    0  0.00000000000E+00  0.00000000000E+00  0.52890727776E+03  0.52890727776E+03  0.00000000000E+00 0. -1.
         -3   -1    0    0    0  501 -0.00000000000E+00 -0.00000000000E+00 -0.40644936306E+02  0.40644936306E+02  0.00000000000E+00 0.  1.
          5    1    1    2  502    0 -0.75386386192E+02  0.23381418730E+02  0.58063757503E+02  0.98098358296E+02  0.47000000000E+01 0. -1.
         -5    1    1    2    0  502  0.92443878413E+02 -0.34850914081E+01  0.14594139130E+03  0.17285541997E+03  0.47000000000E+01 0.  1.
        -11    1    1    2    0    0  0.17904577245E+02 -0.42293116329E+02  0.19219722031E+03  0.19760833249E+03  0.00000000000E+00 0.  1.
         11    1    1    2    0    0 -0.34962069466E+02  0.22396789008E+02  0.92059972340E+02  0.10099010331E+03  0.00000000000E+00 0. -1.
<mgrwt>
<rscale>  0 0.15089249E+03</rscale>
<asrwt>0</asrwt>
<pdfrwt beam="1">  1        3 0.81370345E-01 0.17831951E+03</pdfrwt>
<pdfrwt beam="2">  1       -3 0.62530675E-02 0.17831951E+03</pdfrwt>
<totfact> 0.55145161E+02</totfact>
</mgrwt>
</event>
<event>
 6    1  0.7270761E-006  0.1661444E+03  0.7546771E-02  0.1188896E+00
          2   -1    0    0  501    0  0.00000000000E+00  0.00000000000E+00  0.13910458828E+03  0.13910458828E+03  0.00000000000E+00 0.  1.
         -2   -1    0    0    0  501 -0.00000000000E+00 -0.00000000000E+00 -0.20200841561E+03  0.20200841561E+03  0.00000000000E+00 0. -1.
          5    1    1    2  502    0 -0.33896699540E+02 -0.26450864564E+02 -0.97673367967E+02  0.10682139901E+03  0.47000000000E+01 0. -1.
         -5    1    1    2    0  502 -0.73746090888E+02  0.46244328593E+02 -0.25477904374E+01  0.87210120310E+02  0.47000000000E+01 0. -1.
        -11    1    1    2    0    0 -0.14407953755E+02  0.35066274718E+01  0.14517812022E+02  0.20752166960E+02  0.00000000000E+00 0.  1.
         11    1    1    2    0    0  0.12205074418E+03 -0.23300091501E+02  0.22799519059E+02  0.12632931761E+03  0.00000000000E+00 0. -1.
<mgrwt>
<rscale>  0 0.15982383E+03</rscale>
<asrwt>0</asrwt>
<pdfrwt beam="1">  1        2 0.21400706E-01 0.16614436E+03</pdfrwt>
<pdfrwt beam="2">  1       -2 0.31078218E-01 0.16614436E+03</pdfrwt>
<totfact> 0.24052284E+03</totfact>
</mgrwt>
</event>
<event>
 6    1  0.7270761E-006  0.2767354E+03  0.7546771E-02  0.1097485E+00
          2   -1    0    0  501    0  0.00000000000E+00  0.00000000000E+00  0.12113341110E+03  0.12113341110E+03  0.00000000000E+00 0. -1.
         -2   -1    0    0    0  501 -0.00000000000E+00 -0.00000000000E+00 -0.15805398071E+03  0.15805398071E+03  0.00000000000E+00 0.  1.
          5    1    1    2  502    0 -0.17961810746E+02 -0.75116289259E+02 -0.84424915149E+02  0.11451960468E+03  0.47000000000E+01 0.  1.
         -5    1    1    2    0  502  0.26677086342E+02  0.68458386266E+01  0.27414754137E+02  0.39143213800E+02  0.47000000000E+01 0.  1.
        -11    1    1    2    0    0 -0.55430581173E+02  0.44738585406E+02  0.68077868550E+01  0.71557224060E+02  0.00000000000E+00 0.  1.
         11    1    1    2    0    0  0.46715305578E+02  0.23531865226E+02  0.13281804542E+02  0.53967349279E+02  0.00000000000E+00 0. -1.
<mgrwt>
<rscale>  0 0.27673538E+03</rscale>
<asrwt>0</asrwt>
<pdfrwt beam="1">  1        2 0.18635910E-01 0.27673538E+03</pdfrwt>
<pdfrwt beam="2">  1       -2 0.24315997E-01 0.27673538E+03</pdfrwt>
<totfact> 0.44749489E+03</totfact>
</mgrwt>
</event>
<event>
 6    1  0.7270761E-006  0.1366843E+03  0.7546771E-02  0.1229637E+00
         -1   -1    0    0    0  501 -0.00000000000E+00  0.00000000000E+00  0.28275863227E+03  0.28275863227E+03  0.00000000000E+00 0.  1.
          1   -1    0    0  501    0  0.00000000000E+00 -0.00000000000E+00 -0.58297919455E+02  0.58297919455E+02  0.00000000000E+00 0. -1.
          5    1    1    2  502    0 -0.45082590276E+02  0.31480436527E+02  0.10034997947E+02  0.56091434406E+02  0.47000000000E+01 0. -1.
         -5    1    1    2    0  502 -0.50259517856E+01 -0.80935112113E+01  0.16812614401E+03  0.16846143599E+03  0.47000000000E+01 0. -1.
        -11    1    1    2    0    0  0.61718298114E+01  0.10031649227E+02  0.58746877992E+02  0.59915950657E+02  0.00000000000E+00 0.  1.
         11    1    1    2    0    0  0.43936712250E+02 -0.33418574543E+02 -0.12447307135E+02  0.56587730673E+02  0.00000000000E+00 0. -1.
<mgrwt>
<rscale>  0 0.12854115E+03</rscale>
<asrwt>0</asrwt>
<pdfrwt beam="2">  1        1 0.89689109E-02 0.13668430E+03</pdfrwt>
<pdfrwt beam="1">  1       -1 0.43501327E-01 0.13668430E+03</pdfrwt>
<totfact> 0.37890794E+03</totfact>
</mgrwt>
</event>
<event>
 6    1  0.7270761E-006  0.1468313E+03  0.7546771E-02  0.1215318E+00
         -1   -1    0    0    0  501 -0.00000000000E+00  0.00000000000E+00  0.10147431337E+03  0.10147431337E+03  0.00000000000E+00 0.  1.
          1   -1    0    0  501    0  0.00000000000E+00 -0.00000000000E+00 -0.19703035974E+03  0.19703035974E+03  0.00000000000E+00 0. -1.
          5    1    1    2  502    0  0.79908466948E+02  0.14609436161E+01 -0.26100647586E+02  0.84207073637E+02  0.47000000000E+01 0. -1.
         -5    1    1    2    0  502 -0.21452494777E+02 -0.51632500736E+02  0.27836298784E+02  0.62634448943E+02  0.47000000000E+01 0. -1.
        -11    1    1    2    0    0 -0.33329256321E+02  0.29662184537E+02  0.44862815513E+01  0.44842069985E+02  0.00000000000E+00 0.  1.
         11    1    1    2    0    0 -0.25126715850E+02  0.20509372583E+02 -0.10177797912E+03  0.10682108054E+03  0.00000000000E+00 0. -1.
<mgrwt>
<rscale>  0 0.13853208E+03</rscale>
<asrwt>0</asrwt>
<pdfrwt beam="2">  1        1 0.30312363E-01 0.14683126E+03</pdfrwt>
<pdfrwt beam="1">  1       -1 0.15611433E-01 0.14683126E+03</pdfrwt>
<totfact> 0.43422658E+03</totfact>
</mgrwt>
</event>
<event>
 6    1  0.7270761E-006  0.3387815E+03  0.7546771E-02  0.1067316E+00
          2   -1    0    0  501    0  0.00000000000E+00  0.00000000000E+00  0.20226641031E+02  0.20226641031E+02  0.00000000000E+00 0. -1.
         -2   -1    0    0    0  501 -0.00000000000E+00 -0.00000000000E+00 -0.14185861021E+04  0.14185861021E+04  0.00000000000E+00 0.  1.
          5    1    1    2  502    0  0.91380661764E+02  0.59095709885E+02 -0.10487213868E+04  0.10543630140E+04  0.47000000000E+01 0. -1.
         -5    1    1    2    0  502 -0.79643605181E+01  0.83966370212E+01 -0.73763089401E+01  0.14506360167E+02  0.47000000000E+01 0. -1.
        -11    1    1    2    0    0 -0.86503643510E+01 -0.53166813377E+02 -0.76976913968E+02  0.93952031017E+02  0.00000000000E+00 0. -1.
         11    1    1    2    0    0 -0.74765936895E+02 -0.14325533529E+02 -0.26528485137E+03  0.27599133790E+03  0.00000000000E+00 0.  1.
<mgrwt>
<rscale>  0 0.33878153E+03</rscale>
<asrwt>0</asrwt>
<pdfrwt beam="1">  1        2 0.31117904E-02 0.33878153E+03</pdfrwt>
<pdfrwt beam="2">  1       -2 0.21824405E+00 0.33878153E+03</pdfrwt>
<totfact> 0.33123957E+02</totfact>
</mgrwt>
</event>
<event>
 6    1  0.7270761E-006  0.2721645E+03  0.7546771E-02  0.1100047E+00
          1   -1    0    0  501    0  0.00000000000E+00  0.00000000000E+00  0.16108690077E+03  0.16108690077E+03  0.00000000000E+00 0. -1.
         -1   -1    0    0    0  501 -0.00000000000E+00 -0.00000000000E+00 -0.11495891161E+03  0.11495891161E+03  0.00000000000E+00 0.  1.
          5    1    1    2  502    0  0.17600754608E+02 -0.22152665382E+02 -0.42949956744E+02  0.51646064038E+02  0.47000000000E+01 0.  1.
         -5    1    1    2    0  502  0.52238559305E+02  0.56024516428E+02  0.58126519088E+02  0.96272507709E+02  0.47000000000E+01 0.  1.
        -11    1    1    2    0    0 -0.45049927304E+02 -0.14468284729E+02 -0.32426797334E+02  0.57361349343E+02  0.00000000000E+00 0.  1.
         11    1    1    2    0    0 -0.24789386609E+02 -0.19403566317E+02  0.63378224149E+02  0.70765891294E+02  0.00000000000E+00 0. -1.
<mgrwt>
<rscale>  0 0.27216447E+03</rscale>
<asrwt>0</asrwt>
<pdfrwt beam="1">  1        1 0.24782600E-01 0.27216447E+03</pdfrwt>
<pdfrwt beam="2">  1       -1 0.17685986E-01 0.27216447E+03</pdfrwt>
<totfact> 0.47339078E+03</totfact>
</mgrwt>
</event>
<event>
 6    1  0.7270761E-006  0.1332137E+03  0.7546771E-02  0.1235441E+00
         -1   -1    0    0    0  501 -0.00000000000E+00  0.00000000000E+00  0.19229593706E+03  0.19229593706E+03  0.00000000000E+00 0.  1.
          1   -1    0    0  501    0  0.00000000000E+00 -0.00000000000E+00 -0.72880033132E+02  0.72880033132E+02  0.00000000000E+00 0. -1.
          5    1    1    2  502    0  0.69768141696E+01 -0.52652506897E+02  0.91859089548E+01  0.54105760709E+02  0.47000000000E+01 0. -1.
         -5    1    1    2    0  502 -0.52900063656E+02  0.56423855620E+02  0.45799956902E+02  0.90009967615E+02  0.47000000000E+01 0. -1.
        -11    1    1    2    0    0 -0.74673181664E+01  0.13448132172E+02  0.63097822601E+02  0.64945733628E+02  0.00000000000E+00 0.  1.
         11    1    1    2    0    0  0.53390567652E+02 -0.17219480895E+02  0.13322154664E+01  0.56114508236E+02  0.00000000000E+00 0. -1.
<mgrwt>
<rscale>  0 0.12476216E+03</rscale>
<asrwt>0</asrwt>
<pdfrwt beam="2">  1        1 0.11212313E-01 0.13321373E+03</pdfrwt>
<pdfrwt beam="1">  1       -1 0.29583990E-01 0.13321373E+03</pdfrwt>
<totfact> 0.54702649E+03</totfact>
</mgrwt>
</event>
<event>
 6    1  0.7270761E-006  0.3556237E+03  0.7546771E-02  0.1060330E+00
         -2   -1    0    0    0  501 -0.00000000000E+00  0.00000000000E+00  0.97443098849E+02  0.97443098849E+02  0.00000000000E+00 0.  1.
          2   -1    0    0  501    0  0.00000000000E+00 -0.00000000000E+00 -0.32446677469E+03  0.32446677469E+03  0.00000000000E+00 0. -1.
          5    1    1    2  502    0 -0.22117962568E+02 -0.37738852121E+02 -0.14556683657E+02  0.46340179830E+02  0.47000000000E+01 0.  1.
         -5    1    1    2    0  502 -0.98830611568E+02  0.99052786712E+02 -0.70530451997E+02  0.15676600077E+03  0.47000000000E+01 0.  1.
        -11    1    1    2    0    0  0.63697700856E+02 -0.64007871005E+02 -0.33805355390E+02  0.96422023926E+02  0.00000000000E+00 0.  1.
         11    1    1    2    0    0  0.57250873280E+02  0.26939364144E+01 -0.10813118480E+03  0.12238166901E+03  0.00000000000E+00 0. -1.
<mgrwt>
<rscale>  0 0.35562367E+03</rscale>
<asrwt>0</asrwt>
<pdfrwt beam="2">  1        2 0.49917965E-01 0.35562367E+03</pdfrwt>
<pdfrwt beam="1">  1       -2 0.14991246E-01 0.35562367E+03</pdfrwt>
<totfact> 0.34532584E+03</totfact>
</mgrwt>
</event>
<event>
 6    1  0.7270761E-006  0.1467557E+03  0.7546771E-02  0.1213514E+00
          2   -1    0    0  501    0  0.00000000000E+00  0.00000000000E+00  0.51736363519E+03  0.51736363519E+03  0.00000000000E+00 0.  1.
         -2   -1    0    0    0  501 -0.00000000000E+00 -0.00000000000E+00 -0.37424585352E+02  0.37424585352E+02  0.00000000000E+00 0. -1.
          5    1    1    2  502    0  0.15888918748E+00 -0.25399615281E+02  0.11043727629E+03  0.11341802192E+03  0.47000000000E+01 0.  1.
         -5    1    1    2    0  502 -0.50979833119E+02  0.83261811915E+02  0.75783095031E+02  0.12367958684E+03  0.47000000000E+01 0.  1.
        -11    1    1    2    0    0  0.77643748677E+02 -0.48860669979E+02  0.20552663473E+03  0.22507135393E+03  0.00000000000E+00 0. -1.
         11    1    1    2    0    0 -0.26822804745E+02 -0.90015266554E+01  0.88192043791E+02  0.92619257850E+02  0.00000000000E+00 0.  1.
<mgrwt>
<rscale>  0 0.13986232E+03</rscale>
<asrwt>0</asrwt>
<pdfrwt beam="1">  1        2 0.79594400E-01 0.14675575E+03</pdfrwt>
<pdfrwt beam="2">  1       -2 0.57576289E-02 0.14675575E+03</pdfrwt>
<totfact> 0.90598485E+03</totfact>
</mgrwt>
</event>
<event>
 6    1  0.7270761E-006  0.1318874E+03  0.7546771E-02  0.1243239E+00
          1   -1    0    0  501    0  0.00000000000E+00  0.00000000000E+00  0.11464853950E+03  0.11464853950E+03  0.00000000000E+00 0. -1.
         -1   -1    0    0    0  501 -0.00000000000E+00 -0.00000000000E+00 -0.12345553410E+03  0.12345553410E+03  0.00000000000E+00 0.  1.
          5    1    1    2  502    0 -0.26615458966E+02 -0.34238378165E+02 -0.30859728430E+02  0.53432780520E+02  0.47000000000E+01 0.  1.
         -5    1    1    2    0  502  0.58711325113E+02  0.61429174439E+02 -0.16421408158E+02  0.86673616601E+02  0.47000000000E+01 0.  1.
        -11    1    1    2    0    0 -0.52608660982E+02 -0.60507236219E+01  0.42975281119E+02  0.68199393355E+02  0.00000000000E+00 0. -1.
         11    1    1    2    0    0  0.20512794836E+02 -0.21140072652E+02 -0.45011391332E+01  0.29798283125E+02  0.00000000000E+00 0.  1.
<mgrwt>
<rscale>  0 0.11991376E+03</rscale>
<asrwt>0</asrwt>
<pdfrwt beam="1">  1        1 0.17638237E-01 0.13188744E+03</pdfrwt>
<pdfrwt beam="2">  1       -1 0.18993159E-01 0.13188744E+03</pdfrwt>
<totfact> 0.62603672E+03</totfact>
</mgrwt>
</event>
<event>
 6    1  0.7270761E-006  0.1363023E+03  0.7546771E-02  0.1231114E+00
         -1   -1    0    0    0  501 -0.00000000000E+00  0.00000000000E+00  0.60029709112E+02  0.60029709112E+02  0.00000000000E+00 0.  1.
          1   -1    0    0  501    0  0.00000000000E+00 -0.00000000000E+00 -0.25174200643E+03  0.25174200643E+03  0.00000000000E+00 0. -1.
          5    1    1    2  502    0  0.78127322212E+02  0.29387167499E+02 -0.39888049870E+02  0.92631693346E+02  0.47000000000E+01 0. -1.
         -5    1    1    2    0  502 -0.49107959588E+02  0.16561951244E+02 -0.37114842900E+02  0.63917849521E+02  0.47000000000E+01 0. -1.
        -11    1    1    2    0    0  0.68716246364E+01 -0.96792053481E+01  0.13055258075E+02  0.17644999425E+02  0.00000000000E+00 0.  1.
         11    1    1    2    0    0 -0.35890987260E+02 -0.36269913396E+02 -0.12776466262E+03  0.13757717325E+03  0.00000000000E+00 0. -1.
<mgrwt>
<rscale>  0 0.12756545E+03</rscale>
<asrwt>0</asrwt>
<pdfrwt beam="2">  1        1 0.38729539E-01 0.13630229E+03</pdfrwt>
<pdfrwt beam="1">  1       -1 0.92353399E-02 0.13630229E+03</pdfrwt>
<totfact> 0.71789251E+03</totfact>
</mgrwt>
</event>
<event>
 6    1  0.7270761E-006  0.4323766E+03  0.7546771E-02  0.1033112E+00
          1   -1    0    0  501    0  0.00000000000E+00  0.00000000000E+00  0.43986884814E+03  0.43986884814E+03  0.00000000000E+00 0. -1.
         -1   -1    0    0    0  501 -0.00000000000E+00 -0.00000000000E+00 -0.10625301419E+03  0.10625301419E+03  0.00000000000E+00 0.  1.
          5    1    1    2  502    0  0.51397160668E+00  0.20500907248E+02  0.24622416468E+02  0.32386799125E+02  0.47000000000E+01 0. -1.
         -5    1    1    2    0  502 -0.11029418124E+03 -0.12793339644E+03  0.15631525840E+02  0.16970030920E+03  0.47000000000E+01 0. -1.
        -11    1    1    2    0    0  0.67176957241E+02  0.86974001244E+01  0.77920818824E+02  0.10324748113E+03  0.00000000000E+00 0.  1.
         11    1    1    2    0    0  0.42603252391E+02  0.98735089072E+02  0.21544107281E+03  0.24078727288E+03  0.00000000000E+00 0. -1.
<mgrwt>
<rscale>  0 0.43237665E+03</rscale>
<asrwt>0</asrwt>
<pdfrwt beam="1">  1        1 0.67672130E-01 0.43237665E+03</pdfrwt>
<pdfrwt beam="2">  1       -1 0.16346618E-01 0.43237665E+03</pdfrwt>
<totfact> 0.15045555E+03</totfact>
</mgrwt>
</event>
<event>
 6    1  0.7270761E-006  0.1329832E+03  0.7546771E-02  0.1236053E+00
          2   -1    0    0  501    0  0.00000000000E+00  0.00000000000E+00  0.37609330674E+03  0.37609330674E+03  0.00000000000E+00 0. -1.
         -2   -1    0    0    0  501 -0.00000000000E+00 -0.00000000000E+00 -0.39418807554E+02  0.39418807554E+02  0.00000000000E+00 0.  1.
          5    1    1    2  502    0  0.27718691745E+02 -0.44694620850E+02 -0.86509927821E+00  0.52808838292E+02  0.47000000000E+01 0.  1.
         -5    1    1    2    0  502 -0.16002454851E+02  0.83339351574E+00  0.13515975218E+03  0.13618745065E+03  0.47000000000E+01 0.  1.
        -11    1    1    2    0    0 -0.54326606080E+00  0.62572521706E+02  0.76828190100E+02  0.99086762006E+02  0.00000000000E+00 0.  1.
         11    1    1    2    0    0 -0.11172970833E+02 -0.18711294373E+02  0.12555165619E+03  0.12742906335E+03  0.00000000000E+00 0. -1.
<mgrwt>
<rscale>  0 0.12437262E+03</rscale>
<asrwt>0</asrwt>
<pdfrwt beam="1">  1        2 0.57860506E-01 0.13298324E+03</pdfrwt>
<pdfrwt beam="2">  1       -2 0.60644322E-02 0.13298324E+03</pdfrwt>
<totfact> 0.11744050E+04</totfact>
</mgrwt>
</event>
<event>
 6    1  0.7270761E-006  0.1668806E+03  0.7546771E-02  0.1187907E+00
         -1   -1    0    0    0  501 -0.00000000000E+00  0.00000000000E+00  0.51694433068E+02  0.51694433068E+02  0.00000000000E+00 0.  1.
          1   -1    0    0  501    0  0.00000000000E+00 -0.00000000000E+00 -0.49444134724E+03  0.49444134724E+03  0.00000000000E+00 0. -1.
          5    1    1    2  502    0 -0.14593596345E+02 -0.46423176291E+02 -0.16149507131E+03  0.16873302110E+03  0.47000000000E+01 0. -1.
         -5    1    1    2    0  502 -0.60547668347E+02 -0.34688383452E+02 -0.10161684632E+02  0.70672865538E+02  0.47000000000E+01 0. -1.
        -11    1    1    2    0    0  0.47982133196E+02  0.11670026648E+02 -0.19109773046E+03  0.19737481404E+03  0.00000000000E+00 0. -1.
         11    1    1    2    0    0  0.27159131496E+02  0.69441533095E+02 -0.79992427769E+02  0.10935507964E+03  0.00000000000E+00 0.  1.
<mgrwt>
<rscale>  0 0.16070163E+03</rscale>
<asrwt>0</asrwt>
<pdfrwt beam="2">  1        1 0.76067899E-01 0.16688061E+03</pdfrwt>
<pdfrwt beam="1">  1       -1 0.79529898E-02 0.16688061E+03</pdfrwt>
<totfact> 0.38938967E+03</totfact>
</mgrwt>
</event>
<event>
 6    1  0.7270761E-006  0.1498279E+03  0.7546771E-02  0.1222197E+00
          1   -1    0    0  501    0  0.00000000000E+00  0.00000000000E+00  0.12216303700E+03  0.12216303700E+03  0.00000000000E+00 0. -1.
         -1   -1    0    0    0  501 -0.00000000000E+00 -0.00000000000E+00 -0.16115604552E+03  0.16115604552E+03  0.00000000000E+00 0.  1.
          5    1    1    2  502    0  0.57866286958E+02 -0.21442264119E+02 -0.51286980553E+02  0.80378617997E+02  0.47000000000E+01 0. -1.
         -5    1    1    2    0  502 -0.81001404779E+02  0.29122044546E+02 -0.39652657735E+02  0.94888062053E+02  0.47000000000E+01 0.  1.
        -11    1    1    2    0    0  0.48659984070E+02  0.22703389191E+02  0.20710482963E+02  0.57551386039E+02  0.00000000000E+00 0. -1.
         11    1    1    2    0    0 -0.25524866250E+02 -0.30383169618E+02  0.31236146802E+02  0.50501016427E+02  0.00000000000E+00 0.  1.
<mgrwt>
<rscale>  0 0.13360880E+03</rscale>
<asrwt>0</asrwt>
<pdfrwt beam="1">  1        1 0.18794313E-01 0.14982787E+03</pdfrwt>
<pdfrwt beam="2">  1       -1 0.24793238E-01 0.14982787E+03</pdfrwt>
<totfact> 0.37771366E+03</totfact>
</mgrwt>
</event>
<event>
 6    1  0.7270761E-006  0.1341128E+03  0.7546771E-02  0.1232743E+00
         -1   -1    0    0    0  501 -0.00000000000E+00  0.00000000000E+00  0.50184069272E+02  0.50184069272E+02  0.00000000000E+00 0.  1.
          1   -1    0    0  501    0  0.00000000000E+00 -0.00000000000E+00 -0.31248088721E+03  0.31248088721E+03  0.00000000000E+00 0. -1.
          5    1    1    2  502    0  0.58067050924E+02 -0.20137379966E+02  0.75626721581E+00  0.61643802730E+02  0.47000000000E+01 0.  1.
         -5    1    1    2    0  502 -0.11979115272E+02  0.35527320672E+02 -0.95091302831E+02  0.10232368050E+03  0.47000000000E+01 0.  1.
        -11    1    1    2    0    0  0.43134576809E+00 -0.19296169667E+02  0.46759383664E+01  0.19859320799E+02  0.00000000000E+00 0.  1.
         11    1    1    2    0    0 -0.46519281420E+02  0.39062289604E+01 -0.17263772069E+03  0.17883815246E+03  0.00000000000E+00 0. -1.
<mgrwt>
<rscale>  0 0.12650009E+03</rscale>
<asrwt>0</asrwt>
<pdfrwt beam="2">  1        1 0.48073983E-01 0.13411278E+03</pdfrwt>
<pdfrwt beam="1">  1       -1 0.77206261E-02 0.13411278E+03</pdfrwt>
<totfact> 0.71979222E+03</totfact>
</mgrwt>
</event>
<event>
 6    1  0.7270761E-006  0.4938005E+03  0.7546771E-02  0.1015410E+00
         -1   -1    0    0    0  501 -0.00000000000E+00  0.00000000000E+00  0.14482201165E+03  0.14482201165E+03  0.00000000000E+00 0.  1.
          1   -1    0    0  501    0  0.00000000000E+00 -0.00000000000E+00 -0.42092865884E+03  0.42092865884E+03  0.00000000000E+00 0. -1.
          5    1    1    2  502    0  0.97897328957E+01  0.25850297551E+01  0.18675603238E+02  0.21757513767E+02  0.47000000000E+01 0.  1.
         -5    1    1    2    0  502 -0.19171060207E+03 -0.82460203606E+02 -0.54081523295E+02  0.21563752291E+03  0.47000000000E+01 0.  1.
        -11    1    1    2    0    0  0.11917484897E+03  0.78764737896E+02 -0.10023787704E+03  0.17451120468E+03  0.00000000000E+00 0.  1.
         11    1    1    2    0    0  0.62746020200E+02  0.11104359552E+01 -0.14046285009E+03  0.15384442913E+03  0.00000000000E+00 0. -1.
<mgrwt>
<rscale>  0 0.49380051E+03</rscale>
<asrwt>0</asrwt>
<pdfrwt beam="2">  1        1 0.64758253E-01 0.49380051E+03</pdfrwt>
<pdfrwt beam="1">  1       -1 0.22280310E-01 0.49380051E+03</pdfrwt>
<totfact> 0.95866752E+02</totfact>
</mgrwt>
</event>
<event>
 6    1  0.7270761E-006  0.1283548E+03  0.7546771E-02  0.1246609E+00
          1   -1    0    0  501    0  0.00000000000E+00  0.00000000000E+00  0.13784589258E+03  0.13784589258E+03  0.00000000000E+00 0. -1.
         -1   -1    0    0    0  501 -0.00000000000E+00 -0.00000000000E+00 -0.10196726233E+03  0.10196726233E+03  0.00000000000E+00 0.  1.
          5    1    1    2  502    0  0.20293641380E+02  0.55989454022E+02  0.28089954328E+02  0.66013531766E+02  0.47000000000E+01 0.  1.
         -5    1    1    2    0  502  0.25975171486E+01 -0.37771068676E+02 -0.52088561719E+02  0.64565540238E+02  0.47000000000E+01 0.  1.
        -11    1    1    2    0    0  0.16672495526E+02 -0.31793053754E+02 -0.35692283555E+00  0.35901222375E+02  0.00000000000E+00 0.  1.
         11    1    1    2    0    0 -0.39563654054E+02  0.13574668409E+02  0.60234160483E+02  0.73332860531E+02  0.00000000000E+00 0. -1.
<mgrwt>
<rscale>  0 0.11789602E+03</rscale>
<asrwt>0</asrwt>
<pdfrwt beam="1">  1        1 0.21207060E-01 0.12835482E+03</pdfrwt>
<pdfrwt beam="2">  1       -1 0.15687271E-01 0.12835482E+03</pdfrwt>
<totfact> 0.66896739E+03</totfact>
</mgrwt>
</event>
<event>
 6    1  0.7270761E-006  0.1932033E+03  0.7546771E-02  0.1160440E+00
          2   -1    0    0  501    0  0.00000000000E+00  0.00000000000E+00  0.16384797708E+03  0.16384797708E+03  0.00000000000E+00 0. -1.
         -2   -1    0    0    0  501 -0.00000000000E+00 -0.00000000000E+00 -0.21071245836E+03  0.21071245836E+03  0.00000000000E+00 0.  1.
          5    1    1    2  502    0  0.66763454518E+02  0.54693219271E+02  0.20640408366E+02  0.88864073455E+02  0.47000000000E+01 0. -1.
         -5    1    1    2    0  502 -0.82853332159E+01  0.80522281030E+02 -0.78400863404E+02  0.11278860701E+03  0.47000000000E+01 0. -1.
        -11    1    1    2    0    0  0.16281494302E+02 -0.13808711450E+02 -0.17408791264E+02  0.27546934165E+02  0.00000000000E+00 0. -1.
         11    1    1    2    0    0 -0.74759615604E+02 -0.12140678885E+03  0.28304765016E+02  0.14536082081E+03  0.00000000000E+00 0.  1.
<mgrwt>
<rscale>  0 0.18782292E+03</rscale>
<asrwt>0</asrwt>
<pdfrwt beam="1">  1        2 0.25207381E-01 0.19320335E+03</pdfrwt>
<pdfrwt beam="2">  1       -2 0.32417301E-01 0.19320335E+03</pdfrwt>
<totfact> 0.18646033E+03</totfact>
</mgrwt>
</event>
<event>
 6    1  0.7270761E-006  0.1392738E+03  0.7546771E-02  0.1224632E+00
         -1   -1    0    0    0  501 -0.00000000000E+00  0.00000000000E+00  0.55399812211E+02  0.55399812211E+02  0.00000000000E+00 0.  1.
          1   -1    0    0  501    0  0.00000000000E+00 -0.00000000000E+00 -0.53012810206E+03  0.53012810206E+03  0.00000000000E+00 0. -1.
          5    1    1    2  502    0  0.30591558265E+02  0.85457759434E+02 -0.67230348314E+02  0.11305256220E+03  0.47000000000E+01 0.  1.
         -5    1    1    2    0  502  0.52600743321E+00 -0.32506498776E+02  0.14450444211E+02  0.35886689516E+02  0.47000000000E+01 0.  1.
        -11    1    1    2    0    0 -0.43362547962E+02 -0.57725369370E+02 -0.41590158391E+03  0.42212161320E+03  0.00000000000E+00 0. -1.
         11    1    1    2    0    0  0.12244982264E+02  0.47741087128E+01 -0.60468018377E+01  0.14467049358E+02  0.00000000000E+00 0.  1.
<mgrwt>
<rscale>  0 0.13192149E+03</rscale>
<asrwt>0</asrwt>
<pdfrwt beam="2">  1        1 0.81558166E-01 0.13927377E+03</pdfrwt>
<pdfrwt beam="1">  1       -1 0.85230484E-02 0.13927377E+03</pdfrwt>
<totfact> 0.31757353E+03</totfact>
</mgrwt>
</event>
<event>
 6    1  0.7270761E-006  0.2880007E+03  0.7546771E-02  0.1091398E+00
          4   -1    0    0  501    0  0.00000000000E+00  0.00000000000E+00  0.35424599562E+03  0.35424599562E+03  0.00000000000E+00 0. -1.
         -4   -1    0    0    0  501 -0.00000000000E+00 -0.00000000000E+00 -0.58535889345E+02  0.58535889345E+02  0.00000000000E+00 0.  1.
          5    1    1    2  502    0  0.13288526136E+01 -0.18063490981E+02 -0.25418729725E+02  0.31563545056E+02  0.47000000000E+01 0. -1.
         -5    1    1    2    0  502 -0.34344897844E+02  0.76894670095E+02  0.93584316922E+02  0.12598601776E+03  0.47000000000E+01 0. -1.
        -11    1    1    2    0    0  0.53139784124E+01 -0.74280268823E+02  0.10551584119E+03  0.12914871058E+03  0.00000000000E+00 0.  1.
         11    1    1    2    0    0  0.27702066818E+02  0.15449089709E+02  0.12202867789E+03  0.12608361157E+03  0.00000000000E+00 0. -1.
<mgrwt>
<rscale>  0 0.28800073E+03</rscale>
<asrwt>0</asrwt>
<pdfrwt beam="1">  1        4 0.54499383E-01 0.28800073E+03</pdfrwt>
<pdfrwt beam="2">  1       -4 0.90055216E-02 0.28800073E+03</pdfrwt>
<totfact> 0.55410773E+02</totfact>
</mgrwt>
</event>
<event>
 6    1  0.7270761E-006  0.3722742E+03  0.7546771E-02  0.1053827E+00
          2   -1    0    0  501    0  0.00000000000E+00  0.00000000000E+00  0.19342109445E+03  0.19342109445E+03  0.00000000000E+00 0. -1.
         -2   -1    0    0    0  501 -0.00000000000E+00 -0.00000000000E+00 -0.17912737880E+03  0.17912737880E+03  0.00000000000E+00 0.  1.
          5    1    1    2  502    0 -0.73163651383E+00  0.32070664605E+02 -0.25023886469E+02  0.40955435710E+02  0.47000000000E+01 0.  1.
         -5    1    1    2    0  502 -0.13071837858E+03 -0.75558830281E+02 -0.35818567273E+02  0.15524654938E+03  0.47000000000E+01 0.  1.
        -11    1    1    2    0    0  0.59601848356E+02  0.47850576793E+02  0.62070181820E+01  0.76684973115E+02  0.00000000000E+00 0.  1.
         11    1    1    2    0    0  0.71848166740E+02 -0.43624111170E+01  0.68929151208E+02  0.99661515044E+02  0.00000000000E+00 0. -1.
<mgrwt>
<rscale>  0 0.37227417E+03</rscale>
<asrwt>0</asrwt>
<pdfrwt beam="1">  1        2 0.29757092E-01 0.37227417E+03</pdfrwt>
<pdfrwt beam="2">  1       -2 0.27558058E-01 0.37227417E+03</pdfrwt>
<totfact> 0.21242269E+03</totfact>
</mgrwt>
</event>
<event>
 6    1  0.7270761E-006  0.2832614E+03  0.7546771E-02  0.1093921E+00
         -1   -1    0    0    0  501 -0.00000000000E+00  0.00000000000E+00  0.19637345222E+03  0.19637345222E+03  0.00000000000E+00 0.  1.
          1   -1    0    0  501    0  0.00000000000E+00 -0.00000000000E+00 -0.10214851092E+03  0.10214851092E+03  0.00000000000E+00 0. -1.
          5    1    1    2  502    0  0.33086140818E+02 -0.19883961477E+02  0.71415705198E+02  0.81316404170E+02  0.47000000000E+01 0. -1.
         -5    1    1    2    0  502 -0.41338666748E+02  0.80360963647E+02  0.50361309385E+02  0.10356216167E+03  0.47000000000E+01 0. -1.
        -11    1    1    2    0    0 -0.39715309486E+02 -0.33649389167E+02  0.24338046743E+00  0.52054264311E+02  0.00000000000E+00 0.  1.
         11    1    1    2    0    0  0.47967835417E+02 -0.26827613003E+02 -0.27795453749E+02  0.61589132996E+02  0.00000000000E+00 0. -1.
<mgrwt>
<rscale>  0 0.28326140E+03</rscale>
<asrwt>0</asrwt>
<pdfrwt beam="2">  1        1 0.15715156E-01 0.28326140E+03</pdfrwt>
<pdfrwt beam="1">  1       -1 0.30211300E-01 0.28326140E+03</pdfrwt>
<totfact> 0.35232529E+03</totfact>
</mgrwt>
</event>
<event>
 6    1  0.7270761E-006  0.1615789E+03  0.7546771E-02  0.1196073E+00
         -2   -1    0    0    0  501 -0.00000000000E+00  0.00000000000E+00  0.69814659690E+02  0.69814659690E+02  0.00000000000E+00 0.  1.
          2   -1    0    0  501    0  0.00000000000E+00 -0.00000000000E+00 -0.30963861129E+03  0.30963861129E+03  0.00000000000E+00 0. -1.
          5    1    1    2  502    0 -0.36336826842E+01 -0.35671575736E+02 -0.29665228398E+02  0.46773718489E+02  0.47000000000E+01 0.  1.
         -5    1    1    2    0  502  0.95498940239E+02  0.81067784791E+02 -0.92439270964E+02  0.15575346588E+03  0.47000000000E+01 0.  1.
        -11    1    1    2    0    0 -0.12145806861E+02  0.11939230306E+02  0.68063804256E+01  0.18341010307E+02  0.00000000000E+00 0.  1.
         11    1    1    2    0    0 -0.79719450694E+02 -0.57335439360E+02 -0.12452583266E+03  0.15858507630E+03  0.00000000000E+00 0. -1.
<mgrwt>
<rscale>  0 0.15363754E+03</rscale>
<asrwt>0</asrwt>
<pdfrwt beam="2">  1        2 0.47636709E-01 0.16157893E+03</pdfrwt>
<pdfrwt beam="1">  1       -2 0.10740717E-01 0.16157893E+03</pdfrwt>
<totfact> 0.60359444E+03</totfact>
</mgrwt>
</event>
<event>
 6    1  0.7270761E-006  0.4973455E+03  0.7546771E-02  0.1060539E+00
          1   -1    0    0  501    0  0.00000000000E+00  0.00000000000E+00  0.77427436048E+03  0.77427436048E+03  0.00000000000E+00 0. -1.
         -1   -1    0    0    0  501 -0.00000000000E+00 -0.00000000000E+00 -0.32410999564E+03  0.32410999564E+03  0.00000000000E+00 0.  1.
          5    1    1    2  502    0  0.10765847656E+03 -0.90262891576E+02  0.13474745178E+03  0.19472211721E+03  0.47000000000E+01 0. -1.
         -5    1    1    2    0  502 -0.59541518165E+02  0.17698115192E+03 -0.25650927228E+03  0.31731154609E+03  0.47000000000E+01 0.  1.
        -11    1    1    2    0    0 -0.23028411506E+01 -0.75537238417E+02  0.43538289405E+03  0.44189302087E+03  0.00000000000E+00 0. -1.
         11    1    1    2    0    0 -0.45814117241E+02 -0.11181021926E+02  0.13654329128E+03  0.14445767195E+03  0.00000000000E+00 0.  1.
<mgrwt>
<rscale>  0 0.35510583E+03</rscale>
<asrwt>0</asrwt>
<pdfrwt beam="1">  1        1 0.11911913E+00 0.49734548E+03</pdfrwt>
<pdfrwt beam="2">  1       -1 0.49863077E-01 0.49734548E+03</pdfrwt>
<totfact> 0.98007974E+01</totfact>
</mgrwt>
</event>
<event>
 6    1  0.7270761E-006  0.1855368E+03  0.7546771E-02  0.1167365E+00
         -2   -1    0    0    0  501 -0.00000000000E+00  0.00000000000E+00  0.13252796837E+03  0.13252796837E+03  0.00000000000E+00 0.  1.
          2   -1    0    0  501    0  0.00000000000E+00 -0.00000000000E+00 -0.42031011338E+03  0.42031011338E+03  0.00000000000E+00 0. -1.
          5    1    1    2  502    0 -0.15982362453E+02  0.62579897409E+02 -0.45503585984E+02  0.79147620348E+02  0.47000000000E+01 0. -1.
         -5    1    1    2    0  502 -0.34682469326E+02  0.64823000904E+02  0.81479538412E+02  0.10984489203E+03  0.47000000000E+01 0. -1.
        -11    1    1    2    0    0  0.77110690062E+02 -0.10169993754E+03 -0.22899752440E+03  0.26216178593E+03  0.00000000000E+00 0.  1.
         11    1    1    2    0    0 -0.26445858283E+02 -0.25702960768E+02 -0.94760573039E+02  0.10168378344E+03  0.00000000000E+00 0. -1.
<mgrwt>
<rscale>  0 0.18045374E+03</rscale>
<asrwt>0</asrwt>
<pdfrwt beam="2">  1        2 0.64663094E-01 0.18553679E+03</pdfrwt>
<pdfrwt beam="1">  1       -2 0.20388918E-01 0.18553679E+03</pdfrwt>
<totfact> 0.15252191E+03</totfact>
</mgrwt>
</event>
<event>
 6    1  0.7270761E-006  0.1990555E+03  0.7546771E-02  0.1156231E+00
         -2   -1    0    0    0  501 -0.00000000000E+00  0.00000000000E+00  0.57656558217E+02  0.57656558217E+02  0.00000000000E+00 0.  1.
          2   -1    0    0  501    0  0.00000000000E+00 -0.00000000000E+00 -0.63719749420E+03  0.63719749420E+03  0.00000000000E+00 0. -1.
          5    1    1    2  502    0  0.50122599310E+01  0.55638322287E+02 -0.16981779784E+03  0.17883210036E+03  0.47000000000E+01 0. -1.
         -5    1    1    2    0  502 -0.67557450227E+02  0.86078107886E+02 -0.58834983511E+02  0.12432656604E+03  0.47000000000E+01 0. -1.
        -11    1    1    2    0    0  0.19558553391E+02 -0.84891291744E+02 -0.27095407392E+03  0.28461408714E+03  0.00000000000E+00 0. -1.
         11    1    1    2    0    0  0.42986636905E+02 -0.56825138429E+02 -0.79934080721E+02  0.10708129888E+03  0.00000000000E+00 0.  1.
<mgrwt>
<rscale>  0 0.19249343E+03</rscale>
<asrwt>0</asrwt>
<pdfrwt beam="2">  1        2 0.98030384E-01 0.19905548E+03</pdfrwt>
<pdfrwt beam="1">  1       -2 0.88702397E-02 0.19905548E+03</pdfrwt>
<totfact> 0.37257484E+03</totfact>
</mgrwt>
</event>
<event>
 6    1  0.7270761E-006  0.1252845E+03  0.7546771E-02  0.1250713E+00
          2   -1    0    0  501    0  0.00000000000E+00  0.00000000000E+00  0.45243312921E+02  0.45243312921E+02  0.00000000000E+00 0. -1.
         -2   -1    0    0    0  501 -0.00000000000E+00 -0.00000000000E+00 -0.27190813335E+03  0.27190813335E+03  0.00000000000E+00 0.  1.
          5    1    1    2  502    0 -0.46647573623E+02 -0.13543618959E+02 -0.23232718515E+02  0.54048820052E+02  0.47000000000E+01 0. -1.
         -5    1    1    2    0  502  0.54608422189E+02  0.16358675801E+02 -0.14371884059E+03  0.15468316388E+03  0.47000000000E+01 0. -1.
        -11    1    1    2    0    0  0.16274998742E+02 -0.40328851526E+02 -0.41734647084E+02  0.60274975045E+02  0.00000000000E+00 0.  1.
         11    1    1    2    0    0 -0.24235847307E+02  0.37513794684E+02 -0.17978614235E+02  0.48144487287E+02  0.00000000000E+00 0. -1.
<mgrwt>
<rscale>  0 0.11549886E+03</rscale>
<asrwt>0</asrwt>
<pdfrwt beam="1">  1        2 0.69605095E-02 0.12528455E+03</pdfrwt>
<pdfrwt beam="2">  1       -2 0.41832022E-01 0.12528455E+03</pdfrwt>
<totfact> 0.52420518E+03</totfact>
</mgrwt>
</event>
<event>
 6    1  0.7270761E-006  0.1643947E+03  0.7546771E-02  0.1191119E+00
         -2   -1    0    0    0  501 -0.00000000000E+00  0.00000000000E+00  0.17686309572E+03  0.17686309572E+03  0.00000000000E+00 0.  1.
          2   -1    0    0  501    0  0.00000000000E+00 -0.00000000000E+00 -0.13324730099E+03  0.13324730099E+03  0.00000000000E+00 0. -1.
          5    1    1    2  502    0  0.54301924434E+02 -0.90963870437E+02 -0.52902538470E+01  0.10617533380E+03  0.47000000000E+01 0.  1.
         -5    1    1    2    0  502 -0.37528833411E+02 -0.14476633510E+02  0.49703089339E+02  0.64112973296E+02  0.47000000000E+01 0.  1.
        -11    1    1    2    0    0  0.93412397318E+01 -0.11223271942E+02  0.12906560192E+02  0.19488455270E+02  0.00000000000E+00 0.  1.
         11    1    1    2    0    0 -0.26114330754E+02  0.11666377589E+03 -0.13703600960E+02  0.12033363435E+03  0.00000000000E+00 0. -1.
<mgrwt>
<rscale>  0 0.15787304E+03</rscale>
<asrwt>0</asrwt>
<pdfrwt beam="2">  1        2 0.20499585E-01 0.16439467E+03</pdfrwt>
<pdfrwt beam="1">  1       -2 0.27209707E-01 0.16439467E+03</pdfrwt>
<totfact> 0.32047713E+03</totfact>
</mgrwt>
</event>
<event>
 6    1  0.7270761E-006  0.1313734E+03  0.7546771E-02  0.1256259E+00
          1   -1    0    0  501    0  0.00000000000E+00  0.00000000000E+00  0.60793593867E+02  0.60793593867E+02  0.00000000000E+00 0. -1.
         -1   -1    0    0    0  501 -0.00000000000E+00 -0.00000000000E+00 -0.25377958630E+03  0.25377958630E+03  0.00000000000E+00 0.  1.
          5    1    1    2  502    0 -0.52923364008E+01 -0.55698687651E+02 -0.36375578817E+02  0.66900114835E+02  0.47000000000E+01 0. -1.
         -5    1    1    2    0  502  0.19513566396E+02  0.48512022468E+02 -0.16839981110E+03  0.17639382636E+03  0.47000000000E+01 0.  1.
        -11    1    1    2    0    0  0.10168106752E+02  0.31993017882E+02  0.14108449478E+02  0.36414172169E+02  0.00000000000E+00 0.  1.
         11    1    1    2    0    0 -0.24389336747E+02 -0.24806352698E+02 -0.23190519908E+01  0.34865066804E+02  0.00000000000E+00 0. -1.
<mgrwt>
<rscale>  0 0.11236102E+03</rscale>
<asrwt>0</asrwt>
<pdfrwt beam="1">  1        1 0.93528605E-02 0.13137344E+03</pdfrwt>
<pdfrwt beam="2">  1       -1 0.39043014E-01 0.13137344E+03</pdfrwt>
<totfact> 0.43248389E+03</totfact>
</mgrwt>
</event>
<event>
 6    1  0.7270761E-006  0.1632151E+03  0.7546771E-02  0.1192810E+00
         -3   -1    0    0    0  501 -0.00000000000E+00  0.00000000000E+00  0.84421108425E+02  0.84421108425E+02  0.00000000000E+00 0.  1.
          3   -1    0    0  501    0  0.00000000000E+00 -0.00000000000E+00 -0.36887157002E+03  0.36887157002E+03  0.00000000000E+00 0. -1.
          5    1    1    2  502    0  0.16280835390E+02 -0.92212682409E+02 -0.57209119948E+02  0.10983268094E+03  0.47000000000E+01 0. -1.
         -5    1    1    2    0  502  0.49790298281E+02  0.10689023103E+02  0.24373895673E+02  0.56652500457E+02  0.47000000000E+01 0. -1.
        -11    1    1    2    0    0 -0.74608888615E+02  0.22584173319E+02 -0.13605776754E+03  0.15680640055E+03  0.00000000000E+00 0.  1.
         11    1    1    2    0    0  0.85377549446E+01  0.58939485987E+02 -0.11555746979E+03  0.13000109650E+03  0.00000000000E+00 0. -1.
<mgrwt>
<rscale>  0 0.15641073E+03</rscale>
<asrwt>0</asrwt>
<pdfrwt beam="2">  1        3 0.56749472E-01 0.16321508E+03</pdfrwt>
<pdfrwt beam="1">  1       -3 0.12987863E-01 0.16321508E+03</pdfrwt>
<totfact> 0.34989309E+02</totfact>
</mgrwt>
</event>
<event>
 6    1  0.7270761E-006  0.1394792E+03  0.7546771E-02  0.1233246E+00
         -3   -1    0    0    0  501 -0.00000000000E+00  0.00000000000E+00  0.96028262217E+03  0.96028262217E+03  0.00000000000E+00 0.  1.
          3   -1    0    0  501    0  0.00000000000E+00 -0.00000000000E+00 -0.89065602239E+02  0.89065602239E+02  0.00000000000E+00 0. -1.
          5    1    1    2  502    0 -0.33371779145E+02  0.19142478528E+01  0.57947293737E+02  0.67062052158E+02  0.47000000000E+01 0. -1.
         -5    1    1    2    0  502  0.12619960848E+02  0.45602717178E+02  0.87112244297E+03  0.87241920650E+03  0.47000000000E+01 0.  1.
        -11    1    1    2    0    0  0.40727454568E+01 -0.61598585549E+02 -0.17793050786E+02  0.64246133374E+02  0.00000000000E+00 0. -1.
         11    1    1    2    0    0  0.16679072840E+02  0.14081620518E+02 -0.40059665992E+02  0.45620832375E+02  0.00000000000E+00 0.  1.
<mgrwt>
<rscale>  0 0.12617418E+03</rscale>
<asrwt>0</asrwt>
<pdfrwt beam="2">  1        3 0.13702401E-01 0.13947924E+03</pdfrwt>
<pdfrwt beam="1">  1       -3 0.14773578E+00 0.13947924E+03</pdfrwt>
<totfact> 0.36703120E+01</totfact>
</mgrwt>
</event>
<event>
 6    1  0.7270761E-006  0.1329470E+03  0.7546771E-02  0.1235955E+00
          1   -1    0    0  501    0  0.00000000000E+00  0.00000000000E+00  0.31312473962E+02  0.31312473962E+02  0.00000000000E+00 0. -1.
         -1   -1    0    0    0  501 -0.00000000000E+00 -0.00000000000E+00 -0.48940519325E+03  0.48940519325E+03  0.00000000000E+00 0.  1.
          5    1    1    2  502    0  0.28856753299E+02  0.31024289110E+02 -0.29369876921E+03  0.29677647441E+03  0.47000000000E+01 0.  1.
         -5    1    1    2    0  502 -0.48105701244E+02  0.99444024877E+01 -0.43868000307E+02  0.66026820944E+02  0.47000000000E+01 0.  1.
        -11    1    1    2    0    0  0.33506279323E+02 -0.64032749353E+02 -0.10226443936E+03  0.12522331772E+03  0.00000000000E+00 0.  1.
         11    1    1    2    0    0 -0.14257331379E+02  0.23064057755E+02 -0.18261510410E+02  0.32691054137E+02  0.00000000000E+00 0. -1.
<mgrwt>
<rscale>  0 0.12443501E+03</rscale>
<asrwt>0</asrwt>
<pdfrwt beam="1">  1        1 0.48173034E-02 0.13294701E+03</pdfrwt>
<pdfrwt beam="2">  1       -1 0.75293111E-01 0.13294701E+03</pdfrwt>
<totfact> 0.31185584E+03</totfact>
</mgrwt>
</event>
<event>
 6    1  0.7270761E-006  0.1916697E+03  0.7546771E-02  0.1161742E+00
          2   -1    0    0  501    0  0.00000000000E+00  0.00000000000E+00  0.47709051096E+03  0.47709051096E+03  0.00000000000E+00 0. -1.
         -2   -1    0    0    0  501 -0.00000000000E+00 -0.00000000000E+00 -0.69560665202E+02  0.69560665202E+02  0.00000000000E+00 0.  1.
          5    1    1    2  502    0 -0.54542827270E+02 -0.80855253965E+02  0.82260571713E+02  0.12767687245E+03  0.47000000000E+01 0.  1.
         -5    1    1    2    0  502  0.66790679109E+02 -0.63923615894E+02  0.11060987946E+03  0.14423542880E+03  0.47000000000E+01 0.  1.
        -11    1    1    2    0    0 -0.39191478118E+02  0.11530687196E+03  0.19578282534E+03  0.23057007910E+03  0.00000000000E+00 0. -1.
         11    1    1    2    0    0  0.26943626279E+02  0.29471997900E+02  0.18876569240E+02  0.44168795813E+02  0.00000000000E+00 0.  1.
<mgrwt>
<rscale>  0 0.18640765E+03</rscale>
<asrwt>0</asrwt>
<pdfrwt beam="1">  1        2 0.73398538E-01 0.19166974E+03</pdfrwt>
<pdfrwt beam="2">  1       -2 0.10701641E-01 0.19166974E+03</pdfrwt>
<totfact> 0.38396539E+03</totfact>
</mgrwt>
</event>
<event>
 6    1  0.7270761E-006  0.1551391E+03  0.7546771E-02  0.1203618E+00
         -1   -1    0    0    0  501 -0.00000000000E+00  0.00000000000E+00  0.46635455645E+02  0.46635455645E+02  0.00000000000E+00 0.  1.
          1   -1    0    0  501    0  0.00000000000E+00 -0.00000000000E+00 -0.47529853368E+03  0.47529853368E+03  0.00000000000E+00 0. -1.
          5    1    1    2  502    0 -0.23656811574E+02  0.59798176215E+02 -0.45108485380E+02  0.78691372245E+02  0.47000000000E+01 0. -1.
         -5    1    1    2    0  502  0.87996242367E+02  0.58015118316E+01 -0.10470900173E+03  0.13697832403E+03  0.47000000000E+01 0. -1.
        -11    1    1    2    0    0 -0.75937621519E+02 -0.19299001575E+02 -0.15879620450E+03  0.17707401952E+03  0.00000000000E+00 0.  1.
         11    1    1    2    0    0  0.11598190725E+02 -0.46300686471E+02 -0.12004938642E+03  0.12919027354E+03  0.00000000000E+00 0. -1.
<mgrwt>
<rscale>  0 0.14746925E+03</rscale>
<asrwt>0</asrwt>
<pdfrwt beam="2">  1        1 0.73122851E-01 0.15513909E+03</pdfrwt>
<pdfrwt beam="1">  1       -1 0.71746855E-02 0.15513909E+03</pdfrwt>
<totfact> 0.47742760E+03</totfact>
</mgrwt>
</event>
<event>
 6    1  0.7270761E-006  0.1867563E+03  0.7546771E-02  0.1166774E+00
         -2   -1    0    0    0  501 -0.00000000000E+00  0.00000000000E+00  0.36094618672E+03  0.36094618672E+03  0.00000000000E+00 0.  1.
          2   -1    0    0  501    0  0.00000000000E+00 -0.00000000000E+00 -0.89769161390E+02  0.89769161390E+02  0.00000000000E+00 0. -1.
          5    1    1    2  502    0  0.60178486611E+02 -0.71030606794E+02  0.54333639795E+02  0.10789361318E+03  0.47000000000E+01 0.  1.
         -5    1    1    2    0  502 -0.46302649602E+02 -0.67033606177E+02  0.13708850276E+03  0.15953929706E+03  0.47000000000E+01 0.  1.
        -11    1    1    2    0    0  0.19989933914E+02  0.63800465366E+02  0.76496593208E+02  0.10159638582E+03  0.00000000000E+00 0.  1.
         11    1    1    2    0    0 -0.33865770923E+02  0.74263747604E+02  0.32582895658E+01  0.81686052049E+02  0.00000000000E+00 0. -1.
<mgrwt>
<rscale>  0 0.18106756E+03</rscale>
<asrwt>0</asrwt>
<pdfrwt beam="2">  1        2 0.13810640E-01 0.18675632E+03</pdfrwt>
<pdfrwt beam="1">  1       -2 0.55530182E-01 0.18675632E+03</pdfrwt>
<totfact> 0.13187242E+03</totfact>
</mgrwt>
</event>
<event>
 6    1  0.7270761E-006  0.1889107E+03  0.7546771E-02  0.1163503E+00
         -2   -1    0    0    0  501 -0.00000000000E+00  0.00000000000E+00  0.33542074518E+03  0.33542074518E+03  0.00000000000E+00 0.  1.
          2   -1    0    0  501    0  0.00000000000E+00 -0.00000000000E+00 -0.17401435895E+03  0.17401435895E+03  0.00000000000E+00 0. -1.
          5    1    1    2  502    0  0.47968223160E+02 -0.29269770808E+02  0.58581345424E+02  0.81311339603E+02  0.47000000000E+01 0. -1.
         -5    1    1    2    0  502  0.75915956582E+02  0.10671340544E+03  0.19353447289E+03  0.23372775950E+03  0.47000000000E+01 0.  1.
        -11    1    1    2    0    0 -0.32545138178E+02 -0.43103673978E+02 -0.79586985224E+02  0.96183163529E+02  0.00000000000E+00 0.  1.
         11    1    1    2    0    0 -0.91339041565E+02 -0.34339960652E+02 -0.11122446866E+02  0.98212841502E+02  0.00000000000E+00 0. -1.
<mgrwt>
<rscale>  0 0.18451573E+03</rscale>
<asrwt>0</asrwt>
<pdfrwt beam="2">  1        2 0.26771440E-01 0.18891069E+03</pdfrwt>
<pdfrwt beam="1">  1       -2 0.51603191E-01 0.18891069E+03</pdfrwt>
<totfact> 0.71560775E+02</totfact>
</mgrwt>
</event>
<event>
 6    1  0.7270761E-006  0.1644236E+03  0.7546771E-02  0.1190726E+00
          2   -1    0    0  501    0  0.00000000000E+00  0.00000000000E+00  0.24238644971E+03  0.24238644971E+03  0.00000000000E+00 0. -1.
         -2   -1    0    0    0  501 -0.00000000000E+00 -0.00000000000E+00 -0.10222078780E+03  0.10222078780E+03  0.00000000000E+00 0.  1.
          5    1    1    2  502    0  0.82685915212E+01 -0.32627024082E+02 -0.45812925059E+02  0.57042145898E+02  0.47000000000E+01 0. -1.
         -5    1    1    2    0  502  0.57553723112E+02 -0.51496609005E+02  0.79231485652E+02  0.11074317181E+03  0.47000000000E+01 0. -1.
        -11    1    1    2    0    0 -0.19730469216E+02  0.11358598433E+02 -0.15307968775E+02  0.27434341287E+02  0.00000000000E+00 0.  1.
         11    1    1    2    0    0 -0.46091845418E+02  0.72765034653E+02  0.12205507009E+03  0.14938757852E+03  0.00000000000E+00 0. -1.
<mgrwt>
<rscale>  0 0.15821610E+03</rscale>
<asrwt>0</asrwt>
<pdfrwt beam="1">  1        2 0.37290223E-01 0.16442358E+03</pdfrwt>
<pdfrwt beam="2">  1       -2 0.15726275E-01 0.16442358E+03</pdfrwt>
<totfact> 0.42358613E+03</totfact>
</mgrwt>
</event>
<event>
 6    1  0.7270761E-006  0.1273719E+03  0.7546771E-02  0.1246085E+00
          2   -1    0    0  501    0  0.00000000000E+00  0.00000000000E+00  0.15467919065E+03  0.15467919065E+03  0.00000000000E+00 0. -1.
         -2   -1    0    0    0  501 -0.00000000000E+00 -0.00000000000E+00 -0.80114369227E+02  0.80114369227E+02  0.00000000000E+00 0.  1.
          5    1    1    2  502    0  0.20751581429E+02 -0.61817920687E+02  0.20650911068E+02  0.68561166689E+02  0.47000000000E+01 0. -1.
         -5    1    1    2    0  502  0.36987248224E+01  0.61505965314E+02  0.12380983674E+02  0.63024146891E+02  0.47000000000E+01 0. -1.
        -11    1    1    2    0    0 -0.49760403261E+02 -0.88356624381E+01 -0.35932507144E+01  0.50666341037E+02  0.00000000000E+00 0.  1.
         11    1    1    2    0    0  0.25310097009E+02  0.91476178104E+01  0.45126177399E+02  0.52541905265E+02  0.00000000000E+00 0. -1.
<mgrwt>
<rscale>  0 0.11820696E+03</rscale>
<asrwt>0</asrwt>
<pdfrwt beam="1">  1        2 0.23796798E-01 0.12737185E+03</pdfrwt>
<pdfrwt beam="2">  1       -2 0.12325288E-01 0.12737185E+03</pdfrwt>
<totfact> 0.10082361E+04</totfact>
</mgrwt>
</event>
<event>
 6    1  0.7270761E-006  0.3194329E+03  0.7546771E-02  0.1075911E+00
         -1   -1    0    0    0  501 -0.00000000000E+00  0.00000000000E+00  0.11947650376E+03  0.11947650376E+03  0.00000000000E+00 0.  1.
          1   -1    0    0  501    0  0.00000000000E+00 -0.00000000000E+00 -0.21350926909E+03  0.21350926909E+03  0.00000000000E+00 0. -1.
          5    1    1    2  502    0  0.92879282349E+02 -0.48775584403E+02  0.37777793515E+02  0.11160139070E+03  0.47000000000E+01 0. -1.
         -5    1    1    2    0  502 -0.14667268217E+02  0.38003049525E+02  0.51615235595E-01  0.41005526387E+02  0.47000000000E+01 0. -1.
        -11    1    1    2    0    0 -0.22972324749E+02  0.35269472092E+02 -0.83989911473E+01  0.42920932170E+02  0.00000000000E+00 0.  1.
         11    1    1    2    0    0 -0.55239689383E+02 -0.24496937213E+02 -0.12346318294E+03  0.13745792359E+03  0.00000000000E+00 0. -1.
<mgrwt>
<rscale>  0 0.31943288E+03</rscale>
<asrwt>0</asrwt>
<pdfrwt beam="2">  1        1 0.32847579E-01 0.31943288E+03</pdfrwt>
<pdfrwt beam="1">  1       -1 0.18381001E-01 0.31943288E+03</pdfrwt>
<totfact> 0.31251583E+03</totfact>
</mgrwt>
</event>
<event>
 6    1  0.7270761E-006  0.1648102E+03  0.7546771E-02  0.1195110E+00
         -2   -1    0    0    0  501 -0.00000000000E+00  0.00000000000E+00  0.27974703292E+02  0.27974703292E+02  0.00000000000E+00 0.  1.
          2   -1    0    0  501    0  0.00000000000E+00 -0.00000000000E+00 -0.83552461078E+03  0.83552461078E+03  0.00000000000E+00 0. -1.
          5    1    1    2  502    0 -0.10639886709E+03  0.22433304540E+02 -0.17810507304E+03  0.20872824225E+03  0.47000000000E+01 0. -1.
         -5    1    1    2    0  502  0.23482744137E+02  0.45832759157E+02 -0.14573189617E+03  0.15463491406E+03  0.47000000000E+01 0. -1.
        -11    1    1    2    0    0  0.14738399979E+02  0.33662669792E+00 -0.13209389331E+02  0.19794487060E+02  0.00000000000E+00 0.  1.
         11    1    1    2    0    0  0.68177722977E+02 -0.68602690395E+02 -0.47050354895E+03  0.48034167071E+03  0.00000000000E+00 0. -1.
<mgrwt>
<rscale>  0 0.15444946E+03</rscale>
<asrwt>0</asrwt>
<pdfrwt beam="2">  1        2 0.12854227E+00 0.16481020E+03</pdfrwt>
<pdfrwt beam="1">  1       -2 0.43037999E-02 0.16481020E+03</pdfrwt>
<totfact> 0.80379955E+03</totfact>
</mgrwt>
</event>
<event>
 6    1  0.7270761E-006  0.1389543E+03  0.7546771E-02  0.1233716E+00
         -1   -1    0    0    0  501 -0.00000000000E+00  0.00000000000E+00  0.44983197577E+03  0.44983197577E+03  0.00000000000E+00 0.  1.
          1   -1    0    0  501    0  0.00000000000E+00 -0.00000000000E+00 -0.10564638966E+03  0.10564638966E+03  0.00000000000E+00 0. -1.
          5    1    1    2  502    0  0.54381005065E+02 -0.36102098017E+01  0.12795664820E+03  0.13915933725E+03  0.47000000000E+01 0. -1.
         -5    1    1    2    0  502 -0.79360780486E+02  0.19419354572E+02  0.28736426852E+03  0.29879015652E+03  0.47000000000E+01 0.  1.
        -11    1    1    2    0    0  0.45930229180E+02 -0.16636135716E+02 -0.80817750068E+02  0.94434398870E+02  0.00000000000E+00 0. -1.
         11    1    1    2    0    0 -0.20950453759E+02  0.82699094579E+00  0.96824194640E+01  0.23094472789E+02  0.00000000000E+00 0.  1.
<mgrwt>
<rscale>  0 0.12587003E+03</rscale>
<asrwt>0</asrwt>
<pdfrwt beam="2">  1        1 0.16253291E-01 0.13895429E+03</pdfrwt>
<pdfrwt beam="1">  1       -1 0.69204918E-01 0.13895429E+03</pdfrwt>
<totfact> 0.73089837E+02</totfact>
</mgrwt>
</event>
<event>
 6    1  0.7270761E-006  0.1411489E+03  0.7546771E-02  0.1230913E+00
          3   -1    0    0  501    0  0.00000000000E+00  0.00000000000E+00  0.14261949655E+03  0.14261949655E+03  0.00000000000E+00 0. -1.
         -3   -1    0    0    0  501 -0.00000000000E+00 -0.00000000000E+00 -0.10457310029E+03  0.10457310029E+03  0.00000000000E+00 0.  1.
          5    1    1    2  502    0  0.20663878524E+02 -0.12398018336E+02 -0.51699209068E+02  0.57232900962E+02  0.47000000000E+01 0. -1.
         -5    1    1    2    0  502  0.56993406351E+01  0.72382259099E+02  0.42418932436E+02  0.84220720402E+02  0.47000000000E+01 0. -1.
        -11    1    1    2    0    0 -0.83388035555E+01 -0.47598512625E+02 -0.54313712519E+01  0.48627706532E+02  0.00000000000E+00 0. -1.
         11    1    1    2    0    0 -0.18024415603E+02 -0.12385728138E+02  0.52758044138E+02  0.57111268946E+02  0.00000000000E+00 0.  1.
<mgrwt>
<rscale>  0 0.12769703E+03</rscale>
<asrwt>0</asrwt>
<pdfrwt beam="1">  1        3 0.21941461E-01 0.14114887E+03</pdfrwt>
<pdfrwt beam="2">  1       -3 0.16088169E-01 0.14114887E+03</pdfrwt>
<totfact> 0.14470631E+03</totfact>
</mgrwt>
</event>
<event>
 6    1  0.7270761E-006  0.1547404E+03  0.7546771E-02  0.1202822E+00
         -1   -1    0    0    0  501 -0.00000000000E+00  0.00000000000E+00  0.47901600383E+02  0.47901600383E+02  0.00000000000E+00 0.  1.
          1   -1    0    0  501    0  0.00000000000E+00 -0.00000000000E+00 -0.46773356250E+03  0.46773356250E+03  0.00000000000E+00 0. -1.
          5    1    1    2  502    0  0.50389195600E+02  0.79018075231E+02 -0.44727734320E+02  0.10394992768E+03  0.47000000000E+01 0.  1.
         -5    1    1    2    0  502 -0.37270020304E+02  0.11252569377E+02 -0.10206972043E+03  0.10934346144E+03  0.47000000000E+01 0.  1.
        -11    1    1    2    0    0 -0.48903325897E+02 -0.77931450860E+02 -0.19356985841E+03  0.21432250559E+03  0.00000000000E+00 0.  1.
         11    1    1    2    0    0  0.35784150602E+02 -0.12339193748E+02 -0.79464648959E+02  0.88019268179E+02  0.00000000000E+00 0. -1.
<mgrwt>
<rscale>  0 0.14810462E+03</rscale>
<asrwt>0</asrwt>
<pdfrwt beam="2">  1        1 0.71959009E-01 0.15474035E+03</pdfrwt>
<pdfrwt beam="1">  1       -1 0.73694771E-02 0.15474035E+03</pdfrwt>
<totfact> 0.46811478E+03</totfact>
</mgrwt>
</event>
<event>
 6    1  0.7270761E-006  0.1701642E+03  0.7546771E-02  0.1184095E+00
         -1   -1    0    0    0  501 -0.00000000000E+00  0.00000000000E+00  0.44252794256E+02  0.44252794256E+02  0.00000000000E+00 0.  1.
          1   -1    0    0  501    0  0.00000000000E+00 -0.00000000000E+00 -0.57398364968E+03  0.57398364968E+03  0.00000000000E+00 0. -1.
          5    1    1    2  502    0  0.58745056237E+01 -0.23224998914E+02 -0.11760859992E+03  0.12011570741E+03  0.47000000000E+01 0.  1.
         -5    1    1    2    0  502 -0.10912736686E+03  0.74905700079E+02 -0.19345705391E+03  0.23445120561E+03  0.47000000000E+01 0.  1.
        -11    1    1    2    0    0  0.85006581993E+02 -0.73867450947E+02 -0.19964492481E+03  0.22921739745E+03  0.00000000000E+00 0. -1.
         11    1    1    2    0    0  0.18246279242E+02  0.22186749783E+02 -0.19020276793E+02  0.34452133481E+02  0.00000000000E+00 0.  1.
<mgrwt>
<rscale>  0 0.16414456E+03</rscale>
<asrwt>0</asrwt>
<pdfrwt beam="2">  1        1 0.88305171E-01 0.17016420E+03</pdfrwt>
<pdfrwt beam="1">  1       -1 0.68081227E-02 0.17016420E+03</pdfrwt>
<totfact> 0.40402010E+03</totfact>
</mgrwt>
</event>
<event>
 6    1  0.7270761E-006  0.2684675E+03  0.7546771E-02  0.1102160E+00
         -2   -1    0    0    0  501 -0.00000000000E+00  0.00000000000E+00  0.44139228163E+02  0.44139228163E+02  0.00000000000E+00 0.  1.
          2   -1    0    0  501    0  0.00000000000E+00 -0.00000000000E+00 -0.40822429562E+03  0.40822429562E+03  0.00000000000E+00 0. -1.
          5    1    1    2  502    0 -0.23184520322E+02  0.19455401827E+02  0.97727120612E+01  0.32150125099E+02  0.47000000000E+01 0. -1.
         -5    1    1    2    0  502  0.78143527605E+02 -0.38155178460E+01 -0.12335153215E+03  0.14614602138E+03  0.47000000000E+01 0. -1.
        -11    1    1    2    0    0 -0.68072732627E+01 -0.50984241235E+02 -0.11728629642E+03  0.12806954029E+03  0.00000000000E+00 0. -1.
         11    1    1    2    0    0 -0.48151734020E+02  0.35344357254E+02 -0.13321995095E+03  0.14599783700E+03  0.00000000000E+00 0.  1.
<mgrwt>
<rscale>  0 0.26846754E+03</rscale>
<asrwt>0</asrwt>
<pdfrwt beam="2">  1        2 0.62803738E-01 0.26846754E+03</pdfrwt>
<pdfrwt beam="1">  1       -2 0.67906505E-02 0.26846754E+03</pdfrwt>
<totfact> 0.94607198E+03</totfact>
</mgrwt>
</event>
<event>
 6    1  0.7270761E-006  0.1444576E+03  0.7546771E-02  0.1218077E+00
         -2   -1    0    0    0  501 -0.00000000000E+00  0.00000000000E+00  0.24484878126E+02  0.24484878126E+02  0.00000000000E+00 0.  1.
          2   -1    0    0  501    0  0.00000000000E+00 -0.00000000000E+00 -0.72216204721E+03  0.72216204721E+03  0.00000000000E+00 0. -1.
          5    1    1    2  502    0  0.68900090737E+02 -0.24091499871E+02 -0.29998691375E+03  0.30877477437E+03  0.47000000000E+01 0. -1.
         -5    1    1    2    0  502 -0.15246528555E+02 -0.24539118126E+02 -0.64024107967E+01  0.29961739192E+02  0.47000000000E+01 0. -1.
        -11    1    1    2    0    0  0.19757165645E+02 -0.82051273872E+01 -0.54146806645E+02  0.58219810886E+02  0.00000000000E+00 0.  1.
         11    1    1    2    0    0 -0.73410727828E+02  0.56835745384E+02 -0.33714103789E+03  0.34969060088E+03  0.00000000000E+00 0. -1.
<mgrwt>
<rscale>  0 0.13652885E+03</rscale>
<asrwt>0</asrwt>
<pdfrwt beam="2">  1        2 0.11110187E+00 0.14445763E+03</pdfrwt>
<pdfrwt beam="1">  1       -2 0.37669038E-02 0.14445763E+03</pdfrwt>
<totfact> 0.11654880E+04</totfact>
</mgrwt>
</event>
<event>
 6    1  0.7270761E-006  0.1339074E+03  0.7546771E-02  0.1234506E+00
         -2   -1    0    0    0  501 -0.00000000000E+00  0.00000000000E+00  0.84036047483E+02  0.84036047483E+02  0.00000000000E+00 0.  1.
          2   -1    0    0  501    0  0.00000000000E+00 -0.00000000000E+00 -0.16899102802E+03  0.16899102802E+03  0.00000000000E+00 0. -1.
          5    1    1    2  502    0 -0.52548217014E+02  0.36136353007E+02 -0.38578228276E+02  0.74682801346E+02  0.47000000000E+01 0. -1.
         -5    1    1    2    0  502  0.11985522745E+02 -0.61850393858E+02  0.49901684010E+01  0.63372831375E+02  0.47000000000E+01 0. -1.
        -11    1    1    2    0    0 -0.98796235723E+01 -0.45366006283E+01  0.19834174401E+02  0.22618182539E+02  0.00000000000E+00 0.  1.
         11    1    1    2    0    0  0.50442317842E+02  0.30250641479E+02 -0.71201095063E+02  0.92353260242E+02  0.00000000000E+00 0. -1.
<mgrwt>
<rscale>  0 0.12536132E+03</rscale>
<asrwt>0</asrwt>
<pdfrwt beam="2">  1        2 0.25998619E-01 0.13390743E+03</pdfrwt>
<pdfrwt beam="1">  1       -2 0.12928623E-01 0.13390743E+03</pdfrwt>
<totfact> 0.85044195E+03</totfact>
</mgrwt>
</event>
<event>
 6    1  0.7270761E-006  0.1290114E+03  0.7546771E-02  0.1242995E+00
          4   -1    0    0  501    0  0.00000000000E+00  0.00000000000E+00  0.53738490225E+03  0.53738490225E+03  0.00000000000E+00 0. -1.
         -4   -1    0    0    0  501 -0.00000000000E+00 -0.00000000000E+00 -0.24311287228E+02  0.24311287228E+02  0.00000000000E+00 0.  1.
          5    1    1    2  502    0 -0.37547551240E+01  0.38590237595E+02  0.30707402225E+02  0.49682382945E+02  0.47000000000E+01 0.  1.
         -5    1    1    2    0  502  0.35523237744E+02 -0.41994285500E+02  0.30510685634E+03  0.31006080730E+03  0.47000000000E+01 0.  1.
        -11    1    1    2    0    0  0.17322598272E+02 -0.26727982497E+02  0.29699074031E+02  0.43548736578E+02  0.00000000000E+00 0.  1.
         11    1    1    2    0    0 -0.49091080893E+02  0.30132030402E+02  0.14756028243E+03  0.15840426266E+03  0.00000000000E+00 0. -1.
<mgrwt>
<rscale>  0 0.12006172E+03</rscale>
<asrwt>0</asrwt>
<pdfrwt beam="1">  1        4 0.82674592E-01 0.12901142E+03</pdfrwt>
<pdfrwt beam="2">  1       -4 0.37401984E-02 0.12901142E+03</pdfrwt>
<totfact> 0.82351872E+02</totfact>
</mgrwt>
</event>
<event>
 6    1  0.7270761E-006  0.1277889E+03  0.7546771E-02  0.1244369E+00
         -1   -1    0    0    0  501 -0.00000000000E+00  0.00000000000E+00  0.35124085605E+02  0.35124085605E+02  0.00000000000E+00 0.  1.
          1   -1    0    0  501    0  0.00000000000E+00 -0.00000000000E+00 -0.36063436562E+03  0.36063436562E+03  0.00000000000E+00 0. -1.
          5    1    1    2  502    0  0.22596647147E+02 -0.43418980240E+02 -0.16564374357E+03  0.17278818273E+03  0.47000000000E+01 0. -1.
         -5    1    1    2    0  502 -0.35736492319E+02  0.20331910215E+02 -0.69477436706E+01  0.41962418881E+02  0.47000000000E+01 0. -1.
        -11    1    1    2    0    0  0.21035247253E+02 -0.32340556626E+02 -0.82252972629E+02  0.90851223086E+02  0.00000000000E+00 0.  1.
         11    1    1    2    0    0 -0.78954020815E+01  0.55427626651E+02 -0.70665820145E+02  0.90156626528E+02  0.00000000000E+00 0. -1.
<mgrwt>
<rscale>  0 0.11923214E+03</rscale>
<asrwt>0</asrwt>
<pdfrwt beam="2">  1        1 0.55482213E-01 0.12778889E+03</pdfrwt>
<pdfrwt beam="1">  1       -1 0.54037052E-02 0.12778889E+03</pdfrwt>
<totfact> 0.10225353E+04</totfact>
</mgrwt>
</event>
<event>
 6    1  0.7270761E-006  0.1520174E+03  0.7546771E-02  0.1204499E+00
          1   -1    0    0  501    0  0.00000000000E+00  0.00000000000E+00  0.23619110043E+03  0.23619110043E+03  0.00000000000E+00 0. -1.
         -1   -1    0    0    0  501 -0.00000000000E+00 -0.00000000000E+00 -0.14712632478E+03  0.14712632478E+03  0.00000000000E+00 0.  1.
          5    1    1    2  502    0 -0.70155115604E+02  0.77073249081E+02 -0.72465257098E+02  0.12702491667E+03  0.47000000000E+01 0. -1.
         -5    1    1    2    0  502 -0.89835349424E+01 -0.42141850372E+02 -0.51172259301E+01  0.43645337140E+02  0.47000000000E+01 0. -1.
        -11    1    1    2    0    0  0.76980043459E+01 -0.38362853758E+02  0.12249848023E+03  0.12859566664E+03  0.00000000000E+00 0. -1.
         11    1    1    2    0    0  0.71440646200E+02  0.34314550499E+01  0.44148778444E+02  0.84051504754E+02  0.00000000000E+00 0.  1.
<mgrwt>
<rscale>  0 0.14676979E+03</rscale>
<asrwt>0</asrwt>
<pdfrwt beam="1">  1        1 0.36337092E-01 0.15201741E+03</pdfrwt>
<pdfrwt beam="2">  1       -1 0.22634819E-01 0.15201741E+03</pdfrwt>
<totfact> 0.19150479E+03</totfact>
</mgrwt>
</event>
<event>
 6    1  0.7270761E-006  0.2345153E+03  0.7546771E-02  0.1126315E+00
          1   -1    0    0  501    0  0.00000000000E+00  0.00000000000E+00  0.65472147668E+03  0.65472147668E+03  0.00000000000E+00 0. -1.
         -1   -1    0    0    0  501 -0.00000000000E+00 -0.00000000000E+00 -0.82171625003E+02  0.82171625003E+02  0.00000000000E+00 0.  1.
          5    1    1    2  502    0 -0.39660097220E+02  0.60723909396E+01  0.53738244353E+02  0.67228611092E+02  0.47000000000E+01 0. -1.
         -5    1    1    2    0  502 -0.38763476594E+02 -0.18833880847E+03  0.16356367341E+03  0.25248619596E+03  0.47000000000E+01 0. -1.
        -11    1    1    2    0    0  0.90796234385E+01  0.51738046518E+02  0.18209602109E+03  0.18952104347E+03  0.00000000000E+00 0. -1.
         11    1    1    2    0    0  0.69343950376E+02  0.13052837101E+03  0.17315191282E+03  0.22765725116E+03  0.00000000000E+00 0.  1.
<mgrwt>
<rscale>  0 0.23046156E+03</rscale>
<asrwt>0</asrwt>
<pdfrwt beam="1">  1        1 0.10072638E+00 0.23451532E+03</pdfrwt>
<pdfrwt beam="2">  1       -1 0.12641789E-01 0.23451532E+03</pdfrwt>
<totfact> 0.13106363E+03</totfact>
</mgrwt>
</event>
<event>
 6    1  0.7270761E-006  0.1383885E+03  0.7546771E-02  0.1227108E+00
         -1   -1    0    0    0  501 -0.00000000000E+00  0.00000000000E+00  0.18002860364E+03  0.18002860364E+03  0.00000000000E+00 0.  1.
          1   -1    0    0  501    0  0.00000000000E+00 -0.00000000000E+00 -0.90855612159E+02  0.90855612159E+02  0.00000000000E+00 0. -1.
          5    1    1    2  502    0 -0.80121071787E+02 -0.78970606229E+01  0.89995512773E+02  0.12084300571E+03  0.47000000000E+01 0.  1.
         -5    1    1    2    0  502  0.31385338784E+02 -0.26059743259E+02 -0.53022703487E+01  0.41404755526E+02  0.47000000000E+01 0.  1.
        -11    1    1    2    0    0  0.39722921345E+02  0.57881877242E+02  0.26358380164E+02  0.74986574786E+02  0.00000000000E+00 0.  1.
         11    1    1    2    0    0  0.90128116584E+01 -0.23925073361E+02 -0.21878631109E+02  0.33649879770E+02  0.00000000000E+00 0. -1.
<mgrwt>
<rscale>  0 0.13023467E+03</rscale>
<asrwt>0</asrwt>
<pdfrwt beam="2">  1        1 0.13977787E-01 0.13838855E+03</pdfrwt>
<pdfrwt beam="1">  1       -1 0.27696708E-01 0.13838855E+03</pdfrwt>
<totfact> 0.45872875E+03</totfact>
</mgrwt>
</event>
<event>
 6    1  0.7270761E-006  0.1450371E+03  0.7546771E-02  0.1216466E+00
          3   -1    0    0  501    0  0.00000000000E+00  0.00000000000E+00  0.35657363847E+02  0.35657363847E+02  0.00000000000E+00 0. -1.
         -3   -1    0    0    0  501 -0.00000000000E+00 -0.00000000000E+00 -0.49695400239E+03  0.49695400239E+03  0.00000000000E+00 0.  1.
          5    1    1    2  502    0  0.17990063511E+02  0.48405764629E+01  0.60866551148E+01  0.20154675291E+02  0.47000000000E+01 0. -1.
         -5    1    1    2    0  502  0.31702165308E+02 -0.59067898491E+02 -0.30205733204E+03  0.30944266958E+03  0.47000000000E+01 0. -1.
        -11    1    1    2    0    0 -0.58700454363E+02  0.42988489196E+02 -0.17228437335E+03  0.18701780355E+03  0.00000000000E+00 0.  1.
         11    1    1    2    0    0  0.90082255442E+01  0.11238832831E+02  0.69584117226E+01  0.15996217821E+02  0.00000000000E+00 0. -1.
<mgrwt>
<rscale>  0 0.13769430E+03</rscale>
<asrwt>0</asrwt>
<pdfrwt beam="1">  1        3 0.54857489E-02 0.14503713E+03</pdfrwt>
<pdfrwt beam="2">  1       -3 0.76454453E-01 0.14503713E+03</pdfrwt>
<totfact> 0.75551416E+02</totfact>
</mgrwt>
</event>
<event>
 6    1  0.7270761E-006  0.3187200E+03  0.7546771E-02  0.1076240E+00
         -2   -1    0    0    0  501 -0.00000000000E+00  0.00000000000E+00  0.56341965393E+02  0.56341965393E+02  0.00000000000E+00 0.  1.
          2   -1    0    0  501    0  0.00000000000E+00 -0.00000000000E+00 -0.45074055695E+03  0.45074055695E+03  0.00000000000E+00 0. -1.
          5    1    1    2  502    0  0.11802096960E+03  0.58867662818E+02 -0.92219240501E+02  0.16099946990E+03  0.47000000000E+01 0.  1.
         -5    1    1    2    0  502 -0.16628559040E+02 -0.12459827874E+02 -0.66254647814E+02  0.69595435507E+02  0.47000000000E+01 0.  1.
        -11    1    1    2    0    0 -0.29005877609E+02  0.27720478947E+02 -0.75852536645E+02  0.85810099664E+02  0.00000000000E+00 0. -1.
         11    1    1    2    0    0 -0.72386532950E+02 -0.74128313891E+02 -0.16007216660E+03  0.19067751727E+03  0.00000000000E+00 0.  1.
<mgrwt>
<rscale>  0 0.31872000E+03</rscale>
<asrwt>0</asrwt>
<pdfrwt beam="2">  1        2 0.69344700E-01 0.31872000E+03</pdfrwt>
<pdfrwt beam="1">  1       -2 0.86679948E-02 0.31872000E+03</pdfrwt>
<totfact> 0.58309791E+03</totfact>
</mgrwt>
</event>
<event>
 6    1  0.7270761E-006  0.1275575E+03  0.7546771E-02  0.1244896E+00
          2   -1    0    0  501    0  0.00000000000E+00  0.00000000000E+00  0.64132758320E+03  0.64132758320E+03  0.00000000000E+00 0. -1.
         -2   -1    0    0    0  501 -0.00000000000E+00 -0.00000000000E+00 -0.19708740820E+02  0.19708740820E+02  0.00000000000E+00 0.  1.
          5    1    1    2  502    0 -0.28258868409E+02 -0.34518319917E+02  0.21006527864E+03  0.21480127873E+03  0.47000000000E+01 0. -1.
         -5    1    1    2    0  502  0.37440230574E+02  0.58194668157E+02  0.11368852653E+03  0.13317492756E+03  0.47000000000E+01 0. -1.
        -11    1    1    2    0    0 -0.18477175400E+02  0.31922641803E+02  0.15831097491E+03  0.16255099460E+03  0.00000000000E+00 0. -1.
         11    1    1    2    0    0  0.92958132355E+01 -0.55598990044E+02  0.13955406231E+03  0.15050912312E+03  0.00000000000E+00 0.  1.
<mgrwt>
<rscale>  0 0.11891615E+03</rscale>
<asrwt>0</asrwt>
<pdfrwt beam="1">  1        2 0.98665766E-01 0.12755749E+03</pdfrwt>
<pdfrwt beam="2">  1       -2 0.30321145E-02 0.12755749E+03</pdfrwt>
<totfact> 0.18296224E+04</totfact>
</mgrwt>
</event>
<event>
 6    1  0.7270761E-006  0.5133541E+03  0.7546771E-02  0.1028576E+00
          1   -1    0    0  501    0  0.00000000000E+00  0.00000000000E+00  0.81166250284E+03  0.81166250284E+03  0.00000000000E+00 0. -1.
         -1   -1    0    0    0  501 -0.00000000000E+00 -0.00000000000E+00 -0.29438536157E+03  0.29438536157E+03  0.00000000000E+00 0.  1.
          5    1    1    2  502    0 -0.69311360218E+02 -0.85721637829E+02 -0.99820697015E+02  0.14879020599E+03  0.47000000000E+01 0. -1.
         -5    1    1    2    0  502 -0.32060486708E+02  0.34812050043E+03  0.10333313784E+03  0.36457589746E+03  0.47000000000E+01 0.  1.
        -11    1    1    2    0    0 -0.29379403875E+01 -0.52416570683E+02  0.15896932680E+03  0.16741378450E+03  0.00000000000E+00 0.  1.
         11    1    1    2    0    0  0.10430978731E+03 -0.20998229192E+03  0.35479537364E+03  0.42526797647E+03  0.00000000000E+00 0. -1.
<mgrwt>
<rscale>  0 0.44714711E+03</rscale>
<asrwt>0</asrwt>
<pdfrwt beam="1">  1        1 0.12487115E+00 0.51335409E+03</pdfrwt>
<pdfrwt beam="2">  1       -1 0.45290056E-01 0.51335409E+03</pdfrwt>
<totfact> 0.10866578E+02</totfact>
</mgrwt>
</event>
<event>
 6    1  0.7270761E-006  0.1593816E+03  0.7546771E-02  0.1197677E+00
          4   -1    0    0  501    0  0.00000000000E+00  0.00000000000E+00  0.82603247817E+03  0.82603247817E+03  0.00000000000E+00 0. -1.
         -4   -1    0    0    0  501 -0.00000000000E+00 -0.00000000000E+00 -0.26173698770E+02  0.26173698770E+02  0.00000000000E+00 0.  1.
          5    1    1    2  502    0 -0.26015710058E+01  0.11980392827E+03  0.30702053478E+03  0.32961105590E+03  0.47000000000E+01 0.  1.
         -5    1    1    2    0  502 -0.28805584767E+02 -0.25810231844E+02  0.81672945955E+02  0.90490275071E+02  0.47000000000E+01 0.  1.
        -11    1    1    2    0    0  0.52479493107E+02 -0.92255979414E+02  0.28382862367E+03  0.30302466987E+03  0.00000000000E+00 0. -1.
         11    1    1    2    0    0 -0.21072337334E+02 -0.17377170108E+01  0.12733667500E+03  0.12908017610E+03  0.00000000000E+00 0.  1.
<mgrwt>
<rscale>  0 0.15229844E+03</rscale>
<asrwt>0</asrwt>
<pdfrwt beam="1">  1        4 0.12708190E+00 0.15938164E+03</pdfrwt>
<pdfrwt beam="2">  1       -4 0.40267235E-02 0.15938164E+03</pdfrwt>
<totfact> 0.28012370E+02</totfact>
</mgrwt>
</event>
<event>
 6    1  0.7270761E-006  0.1775666E+03  0.7546771E-02  0.1176162E+00
         -2   -1    0    0    0  501 -0.00000000000E+00  0.00000000000E+00  0.45591688959E+02  0.45591688959E+02  0.00000000000E+00 0.  1.
          2   -1    0    0  501    0  0.00000000000E+00 -0.00000000000E+00 -0.60858152260E+03  0.60858152260E+03  0.00000000000E+00 0. -1.
          5    1    1    2  502    0  0.42408733501E+02  0.12889737177E+03 -0.25461394216E+03  0.28855395106E+03  0.47000000000E+01 0. -1.
         -5    1    1    2    0  502  0.31404479114E+02 -0.26639253196E+02 -0.65593387611E+02  0.77591711011E+02  0.47000000000E+01 0. -1.
        -11    1    1    2    0    0 -0.34549400919E+02  0.79568292300E+01 -0.36563453126E+02  0.50929935596E+02  0.00000000000E+00 0.  1.
         11    1    1    2    0    0 -0.39263811696E+02 -0.11021494780E+03 -0.20621905074E+03  0.23709761390E+03  0.00000000000E+00 0. -1.
<mgrwt>
<rscale>  0 0.17162668E+03</rscale>
<asrwt>0</asrwt>
<pdfrwt beam="2">  1        2 0.93627918E-01 0.17756664E+03</pdfrwt>
<pdfrwt beam="1">  1       -2 0.70141066E-02 0.17756664E+03</pdfrwt>
<totfact> 0.56366654E+03</totfact>
</mgrwt>
</event>
<event>
 6    1  0.7270761E-006  0.4145672E+03  0.7546771E-02  0.1038849E+00
         -2   -1    0    0    0  501 -0.00000000000E+00  0.00000000000E+00  0.20465792230E+02  0.20465792230E+02  0.00000000000E+00 0.  1.
          2   -1    0    0  501    0  0.00000000000E+00 -0.00000000000E+00 -0.20994292263E+04  0.20994292263E+04  0.00000000000E+00 0. -1.
          5    1    1    2  502    0 -0.14405600002E+02  0.12477806410E+03 -0.62642143921E+03  0.63890765850E+03  0.47000000000E+01 0.  1.
         -5    1    1    2    0  502  0.27469642385E+02  0.29299918870E+02 -0.83497217381E+03  0.83595076861E+03  0.47000000000E+01 0.  1.
        -11    1    1    2    0    0 -0.55898657679E+02 -0.83582465405E+02 -0.27911844425E+03  0.29667793038E+03  0.00000000000E+00 0.  1.
         11    1    1    2    0    0  0.42834615295E+02 -0.70495517566E+02 -0.33845137679E+03  0.34835866103E+03  0.00000000000E+00 0. -1.
<mgrwt>
<rscale>  0 0.41456716E+03</rscale>
<asrwt>0</asrwt>
<pdfrwt beam="2">  1        2 0.32298908E+00 0.41456716E+03</pdfrwt>
<pdfrwt beam="1">  1       -2 0.31485837E-02 0.41456716E+03</pdfrwt>
<totfact> 0.25747492E+03</totfact>
</mgrwt>
</event>
<event>
 6    1  0.7270761E-006  0.1502993E+03  0.7546771E-02  0.1209396E+00
          1   -1    0    0  501    0  0.00000000000E+00  0.00000000000E+00  0.35436012132E+03  0.35436012132E+03  0.00000000000E+00 0. -1.
         -1   -1    0    0    0  501 -0.00000000000E+00 -0.00000000000E+00 -0.64930683433E+02  0.64930683433E+02  0.00000000000E+00 0.  1.
          5    1    1    2  502    0  0.50641485894E+02  0.68721082087E+02  0.54251472715E+01  0.85666034341E+02  0.47000000000E+01 0.  1.
         -5    1    1    2    0  502 -0.47559330281E+02  0.14685521476E+02  0.60421075124E+02  0.78424172019E+02  0.47000000000E+01 0.  1.
        -11    1    1    2    0    0 -0.13978600346E+02  0.13053287413E+02  0.77355858162E+02  0.79685120141E+02  0.00000000000E+00 0. -1.
         11    1    1    2    0    0  0.10896444733E+02 -0.96459890976E+02  0.14622735733E+03  0.17551547825E+03  0.00000000000E+00 0.  1.
<mgrwt>
<rscale>  0 0.14296372E+03</rscale>
<asrwt>0</asrwt>
<pdfrwt beam="1">  1        1 0.54516941E-01 0.15029927E+03</pdfrwt>
<pdfrwt beam="2">  1       -1 0.99893361E-02 0.15029927E+03</pdfrwt>
<totfact> 0.41902618E+03</totfact>
</mgrwt>
</event>
<event>
 6    1  0.9588308E-006  0.3329706E+03  0.7546771E-02  0.1071099E+00
         -1   -1    0    0    0  501 -0.00000000000E+00  0.00000000000E+00  0.36072432876E+03  0.36072432876E+03  0.00000000000E+00 0.  1.
          1   -1    0    0  501    0  0.00000000000E+00 -0.00000000000E+00 -0.33648742459E+03  0.33648742459E+03  0.00000000000E+00 0. -1.
          5    1    1    2  502    0 -0.71111554047E+02  0.89848902014E+02  0.89850066552E+02  0.14568734596E+03  0.47000000000E+01 0.  1.
         -5    1    1    2    0  502 -0.20012057545E+03  0.57387804410E+02  0.41968707323E+02  0.21242661605E+03  0.47000000000E+01 0.  1.
        -11    1    1    2    0    0  0.18122150720E+03 -0.51151283113E+02 -0.79937079202E+02  0.20456692076E+03  0.00000000000E+00 0. -1.
         11    1    1    2    0    0  0.90010622291E+02 -0.96085423310E+02 -0.27644790502E+02  0.13453087058E+03  0.00000000000E+00 0.  1.
<mgrwt>
<rscale>  0 0.33008558E+03</rscale>
<asrwt>0</asrwt>
<pdfrwt beam="2">  1        1 0.51767296E-01 0.33297060E+03</pdfrwt>
<pdfrwt beam="1">  1       -1 0.55496051E-01 0.33297060E+03</pdfrwt>
<totfact> 0.25622866E+02</totfact>
</mgrwt>
</event>
<event>
 6    1  0.7270761E-006  0.1311297E+03  0.7546771E-02  0.1238730E+00
          2   -1    0    0  501    0  0.00000000000E+00  0.00000000000E+00  0.47542589194E+03  0.47542589194E+03  0.00000000000E+00 0. -1.
         -2   -1    0    0    0  501 -0.00000000000E+00 -0.00000000000E+00 -0.32496126928E+02  0.32496126928E+02  0.00000000000E+00 0.  1.
          5    1    1    2  502    0  0.41307012701E+01  0.39928617008E+02  0.98677789157E+02  0.10663373398E+03  0.47000000000E+01 0. -1.
         -5    1    1    2    0  502 -0.23329870752E+02 -0.74601280117E+02  0.56677235972E+02  0.96664538181E+02  0.47000000000E+01 0. -1.
        -11    1    1    2    0    0  0.25990159296E+02 -0.26439105077E+02  0.13825219707E+03  0.14313694370E+03  0.00000000000E+00 0. -1.
         11    1    1    2    0    0 -0.67909898140E+01  0.61111768187E+02  0.14932254281E+03  0.16148680301E+03  0.00000000000E+00 0.  1.
<mgrwt>
<rscale>  0 0.12268646E+03</rscale>
<asrwt>0</asrwt>
<pdfrwt beam="1">  1        2 0.73142440E-01 0.13112972E+03</pdfrwt>
<pdfrwt beam="2">  1       -2 0.49994045E-02 0.13112972E+03</pdfrwt>
<totfact> 0.12203978E+04</totfact>
</mgrwt>
</event>
<event>
 6    1  0.7270761E-006  0.1702797E+03  0.7546771E-02  0.1205270E+00
          2   -1    0    0  501    0  0.00000000000E+00  0.00000000000E+00  0.12558932106E+04  0.12558932106E+04  0.00000000000E+00 0. -1.
         -2   -1    0    0    0  501 -0.00000000000E+00 -0.00000000000E+00 -0.13749853919E+02  0.13749853919E+02  0.00000000000E+00 0.  1.
          5    1    1    2  502    0  0.37734165782E+02 -0.77057222912E+02  0.56817080404E+03  0.57463191299E+03  0.47000000000E+01 0. -1.
         -5    1    1    2    0  502 -0.47685602175E+02  0.58323174177E+02  0.25358660888E+03  0.26458225093E+03  0.47000000000E+01 0.  1.
        -11    1    1    2    0    0  0.31093347753E+02  0.47465671559E+02  0.25347815705E+03  0.25975173215E+03  0.00000000000E+00 0.  1.
         11    1    1    2    0    0 -0.21141911361E+02 -0.28731622824E+02  0.16690778666E+03  0.17067716841E+03  0.00000000000E+00 0. -1.
<mgrwt>
<rscale>  0 0.14616190E+03</rscale>
<asrwt>0</asrwt>
<pdfrwt beam="1">  1        2 0.19321425E+00 0.17027967E+03</pdfrwt>
<pdfrwt beam="2">  1       -2 0.21153631E-02 0.17027967E+03</pdfrwt>
<totfact> 0.12925742E+04</totfact>
</mgrwt>
</event>
<event>
 6    1  0.7270761E-006  0.1539477E+03  0.7546771E-02  0.1204117E+00
         -1   -1    0    0    0  501 -0.00000000000E+00  0.00000000000E+00  0.40552894647E+03  0.40552894647E+03  0.00000000000E+00 0.  1.
          1   -1    0    0  501    0  0.00000000000E+00 -0.00000000000E+00 -0.60937525253E+02  0.60937525253E+02  0.00000000000E+00 0. -1.
          5    1    1    2  502    0 -0.81397265006E+02  0.60060799883E+02  0.23564012533E+03  0.25647840669E+03  0.47000000000E+01 0. -1.
         -5    1    1    2    0  502  0.41473965848E+02  0.20436385070E+02  0.51803272438E+02  0.69594573878E+02  0.47000000000E+01 0. -1.
        -11    1    1    2    0    0  0.19859814814E+02 -0.33691489598E+02  0.76498837600E+02  0.85916243341E+02  0.00000000000E+00 0.  1.
         11    1    1    2    0    0  0.20063484344E+02 -0.46805695356E+02 -0.19350814146E+02  0.54477247818E+02  0.00000000000E+00 0. -1.
<mgrwt>
<rscale>  0 0.14707274E+03</rscale>
<asrwt>0</asrwt>
<pdfrwt beam="2">  1        1 0.93750041E-02 0.15394766E+03</pdfrwt>
<pdfrwt beam="1">  1       -1 0.62389067E-01 0.15394766E+03</pdfrwt>
<totfact> 0.18461674E+03</totfact>
</mgrwt>
</event>
<event>
 6    1  0.7270761E-006  0.1488586E+03  0.7546771E-02  0.1204200E+00
          2   -1    0    0  501    0  0.00000000000E+00  0.00000000000E+00  0.99361316854E+03  0.99361316854E+03  0.00000000000E+00 0. -1.
         -2   -1    0    0    0  501 -0.00000000000E+00 -0.00000000000E+00 -0.21626498482E+02  0.21626498482E+02  0.00000000000E+00 0.  1.
          5    1    1    2  502    0 -0.30949928526E+02 -0.10983726458E+02  0.49081508320E+02  0.59242086236E+02  0.47000000000E+01 0. -1.
         -5    1    1    2    0  502  0.18295532059E+02  0.10589679824E+03  0.37975427669E+03  0.39469514696E+03  0.47000000000E+01 0.  1.
        -11    1    1    2    0    0 -0.16941035655E+02  0.17303388105E+02  0.67968903049E+02  0.72153847511E+02  0.00000000000E+00 0.  1.
         11    1    1    2    0    0  0.29595432123E+02 -0.11221645989E+03  0.47518198199E+03  0.48914858631E+03  0.00000000000E+00 0. -1.
<mgrwt>
<rscale>  0 0.14700702E+03</rscale>
<asrwt>0</asrwt>
<pdfrwt beam="1">  1        2 0.15286353E+00 0.14885859E+03</pdfrwt>
<pdfrwt beam="2">  1       -2 0.33271544E-02 0.14885859E+03</pdfrwt>
<totfact> 0.93245711E+03</totfact>
</mgrwt>
</event>
<event>
 6    1  0.7270761E-006  0.2915739E+03  0.7546771E-02  0.1089530E+00
         -1   -1    0    0    0  501 -0.00000000000E+00  0.00000000000E+00  0.31005145530E+02  0.31005145530E+02  0.00000000000E+00 0.  1.
          1   -1    0    0  501    0  0.00000000000E+00 -0.00000000000E+00 -0.68549402314E+03  0.68549402314E+03  0.00000000000E+00 0. -1.
          5    1    1    2  502    0 -0.34631851985E+02 -0.62218823694E+02 -0.66952224233E+02  0.97853142635E+02  0.47000000000E+01 0.  1.
         -5    1    1    2    0  502  0.26503343084E+02  0.15091834233E+02 -0.18386714957E+03  0.18643875494E+03  0.47000000000E+01 0.  1.
        -11    1    1    2    0    0  0.63585018652E+02 -0.73487214850E+01 -0.99884703652E+02  0.11863394256E+03  0.00000000000E+00 0.  1.
         11    1    1    2    0    0 -0.55456509750E+02  0.54475710946E+02 -0.30378480016E+03  0.31357332853E+03  0.00000000000E+00 0. -1.
<mgrwt>
<rscale>  0 0.29157395E+03</rscale>
<asrwt>0</asrwt>
<pdfrwt beam="2">  1        1 0.10546062E+00 0.29157395E+03</pdfrwt>
<pdfrwt beam="1">  1       -1 0.47700223E-02 0.29157395E+03</pdfrwt>
<totfact> 0.54871687E+03</totfact>
</mgrwt>
</event>
<event>
 6    1  0.7270761E-006  0.4417165E+03  0.7546771E-02  0.1030221E+00
         -1   -1    0    0    0  501 -0.00000000000E+00  0.00000000000E+00  0.14723822859E+04  0.14723822859E+04  0.00000000000E+00 0.  1.
          1   -1    0    0  501    0  0.00000000000E+00 -0.00000000000E+00 -0.33128876568E+02  0.33128876568E+02  0.00000000000E+00 0. -1.
          5    1    1    2  502    0  0.26541269606E+02 -0.12257238375E+03  0.70462641339E+03  0.71571565632E+03  0.47000000000E+01 0.  1.
         -5    1    1    2    0  502  0.33550290652E+01  0.12611429503E+02  0.55988141880E+03  0.56005320952E+03  0.47000000000E+01 0.  1.
        -11    1    1    2    0    0 -0.24173801160E+02  0.79070185834E+02  0.17982033936E+03  0.19791872422E+03  0.00000000000E+00 0.  1.
         11    1    1    2    0    0 -0.57224975103E+01  0.30890768410E+02 -0.50747621999E+01  0.31823572429E+02  0.00000000000E+00 0. -1.
<mgrwt>
<rscale>  0 0.44171652E+03</rscale>
<asrwt>0</asrwt>
<pdfrwt beam="2">  1        1 0.50967514E-02 0.44171652E+03</pdfrwt>
<pdfrwt beam="1">  1       -1 0.22652030E+00 0.44171652E+03</pdfrwt>
<totfact> 0.17937945E+02</totfact>
</mgrwt>
</event>
<event>
 6    1  0.7270761E-006  0.1552134E+03  0.7546771E-02  0.1202508E+00
         -1   -1    0    0    0  501 -0.00000000000E+00  0.00000000000E+00  0.51894120460E+03  0.51894120460E+03  0.00000000000E+00 0.  1.
          1   -1    0    0  501    0  0.00000000000E+00 -0.00000000000E+00 -0.41489342059E+02  0.41489342059E+02  0.00000000000E+00 0. -1.
          5    1    1    2  502    0 -0.60132618893E+02 -0.32755605576E+02  0.53373652057E+02  0.86946525437E+02  0.47000000000E+01 0.  1.
         -5    1    1    2    0  502 -0.11397025691E+02 -0.25300429329E+02  0.27308692317E+03  0.27453335230E+03  0.47000000000E+01 0.  1.
        -11    1    1    2    0    0  0.23627195965E+02  0.28925703337E+02  0.13583153045E+03  0.14087279854E+03  0.00000000000E+00 0.  1.
         11    1    1    2    0    0  0.47902448619E+02  0.29130331568E+02  0.15159756869E+02  0.58077870392E+02  0.00000000000E+00 0. -1.
<mgrwt>
<rscale>  0 0.14835616E+03</rscale>
<asrwt>0</asrwt>
<pdfrwt beam="2">  1        1 0.63829761E-02 0.15521338E+03</pdfrwt>
<pdfrwt beam="1">  1       -1 0.79837104E-01 0.15521338E+03</pdfrwt>
<totfact> 0.19005491E+03</totfact>
</mgrwt>
</event>
<event>
 6    1  0.7270761E-006  0.2100350E+03  0.7546771E-02  0.1161892E+00
          1   -1    0    0  501    0  0.00000000000E+00  0.00000000000E+00  0.39178263915E+03  0.39178263915E+03  0.00000000000E+00 0. -1.
         -1   -1    0    0    0  501 -0.00000000000E+00 -0.00000000000E+00 -0.10413362740E+03  0.10413362740E+03  0.00000000000E+00 0.  1.
          5    1    1    2  502    0  0.60582483717E+02 -0.29595794596E+02 -0.36076848037E+01  0.67684959783E+02  0.47000000000E+01 0. -1.
         -5    1    1    2    0  502 -0.73454062170E+02  0.11892605270E+03  0.40109061285E+02  0.14549822012E+03  0.47000000000E+01 0.  1.
        -11    1    1    2    0    0 -0.16760786833E+01 -0.10275169240E+03  0.23724345142E+03  0.25854433812E+03  0.00000000000E+00 0. -1.
         11    1    1    2    0    0  0.14547657136E+02  0.13421434297E+02  0.13904183853E+02  0.24188748528E+02  0.00000000000E+00 0.  1.
<mgrwt>
<rscale>  0 0.18624526E+03</rscale>
<asrwt>0</asrwt>
<pdfrwt beam="1">  1        1 0.60274251E-01 0.21003504E+03</pdfrwt>
<pdfrwt beam="2">  1       -1 0.16020558E-01 0.21003504E+03</pdfrwt>
<totfact> 0.17878582E+03</totfact>
</mgrwt>
</event>
<event>
 6    1  0.7270761E-006  0.3038466E+03  0.7546771E-02  0.1084902E+00
         -2   -1    0    0    0  501 -0.00000000000E+00  0.00000000000E+00  0.73003582998E+02  0.73003582998E+02  0.00000000000E+00 0.  1.
          2   -1    0    0  501    0  0.00000000000E+00 -0.00000000000E+00 -0.12139047872E+04  0.12139047872E+04  0.00000000000E+00 0. -1.
          5    1    1    2  502    0  0.15791568503E+01 -0.17044347110E+02 -0.15611599001E+03  0.15712191395E+03  0.47000000000E+01 0. -1.
         -5    1    1    2    0  502  0.15948260684E+02 -0.25934694936E+03 -0.41120504727E+03  0.48644307792E+03  0.47000000000E+01 0. -1.
        -11    1    1    2    0    0 -0.53621765151E+02  0.14008559858E+03 -0.27946047314E+03  0.31717097074E+03  0.00000000000E+00 0. -1.
         11    1    1    2    0    0  0.36094347617E+02  0.13630569789E+03 -0.29411969380E+03  0.32617240761E+03  0.00000000000E+00 0.  1.
<mgrwt>
<rscale>  0 0.30067822E+03</rscale>
<asrwt>0</asrwt>
<pdfrwt beam="2">  1        2 0.18675457E+00 0.30384657E+03</pdfrwt>
<pdfrwt beam="1">  1       -2 0.11231321E-01 0.30384657E+03</pdfrwt>
<totfact> 0.10799465E+03</totfact>
</mgrwt>
</event>
<event>
 6    1  0.7270761E-006  0.1273311E+03  0.7546771E-02  0.1246342E+00
          2   -1    0    0  501    0  0.00000000000E+00  0.00000000000E+00  0.33153571737E+02  0.33153571737E+02  0.00000000000E+00 0. -1.
         -2   -1    0    0    0  501 -0.00000000000E+00 -0.00000000000E+00 -0.37244567932E+03  0.37244567932E+03  0.00000000000E+00 0.  1.
          5    1    1    2  502    0 -0.42457224326E+01 -0.43653038711E+02 -0.22104383315E+03  0.22540204108E+03  0.47000000000E+01 0.  1.
         -5    1    1    2    0  502  0.75887926110E+01  0.18127200614E+02  0.88539860794E+01  0.22060558580E+02  0.47000000000E+01 0.  1.
        -11    1    1    2    0    0 -0.10740675711E+02  0.42535168941E+02 -0.17918463563E+02  0.47388543426E+02  0.00000000000E+00 0. -1.
         11    1    1    2    0    0  0.73976055325E+01 -0.17009330844E+02 -0.10918379694E+03  0.11074810797E+03  0.00000000000E+00 0.  1.
<mgrwt>
<rscale>  0 0.11805445E+03</rscale>
<asrwt>0</asrwt>
<pdfrwt beam="1">  1        2 0.51005498E-02 0.12733109E+03</pdfrwt>
<pdfrwt beam="2">  1       -2 0.57299331E-01 0.12733109E+03</pdfrwt>
<totfact> 0.42150965E+03</totfact>
</mgrwt>
</event>
<event>
 6    1  0.7270761E-006  0.1665976E+03  0.7546771E-02  0.1203431E+00
         -1   -1    0    0    0  501 -0.00000000000E+00  0.00000000000E+00  0.82080014662E+03  0.82080014662E+03  0.00000000000E+00 0.  1.
          1   -1    0    0  501    0  0.00000000000E+00 -0.00000000000E+00 -0.25669751708E+02  0.25669751708E+02  0.00000000000E+00 0. -1.
          5    1    1    2  502    0 -0.20344589904E+02  0.33426088504E+02  0.38598196934E+02  0.55164449944E+02  0.47000000000E+01 0. -1.
         -5    1    1    2    0  502  0.66388976808E+01 -0.76758177670E+02  0.59436584919E+03  0.59935694331E+03  0.47000000000E+01 0.  1.
        -11    1    1    2    0    0  0.38930488718E+02  0.20352967843E+02  0.14905527031E+03  0.15539401488E+03  0.00000000000E+00 0.  1.
         11    1    1    2    0    0 -0.25224796495E+02  0.22979121323E+02  0.13111078469E+02  0.36554490198E+02  0.00000000000E+00 0. -1.
<mgrwt>
<rscale>  0 0.14761794E+03</rscale>
<asrwt>0</asrwt>
<pdfrwt beam="2">  1        1 0.39491932E-02 0.16659763E+03</pdfrwt>
<pdfrwt beam="1">  1       -1 0.12627693E+00 0.16659763E+03</pdfrwt>
<totfact> 0.13329811E+03</totfact>
</mgrwt>
</event>
<event>
 6    1  0.1243682E-005  0.2511579E+03  0.7546771E-02  0.1114983E+00
         -1   -1    0    0    0  501 -0.00000000000E+00  0.00000000000E+00  0.19732405547E+03  0.19732405547E+03  0.00000000000E+00 0. -1.
          1   -1    0    0  501    0  0.00000000000E+00 -0.00000000000E+00 -0.34032237056E+03  0.34032237056E+03  0.00000000000E+00 0.  1.
          5    1    1    2  502    0 -0.19318745939E+03 -0.68012638299E+02 -0.12298452656E+01  0.20486755710E+03  0.47000000000E+01 0.  1.
         -5    1    1    2    0  502 -0.22333835695E+02  0.36296703572E+02  0.19063018202E+02  0.46922697813E+02  0.47000000000E+01 0.  1.
        -11    1    1    2    0    0  0.73142115608E+02  0.55127612844E+02 -0.54036957979E+02  0.10634291514E+03  0.00000000000E+00 0. -1.
         11    1    1    2    0    0  0.14237917947E+03 -0.23411678118E+02 -0.10679453005E+03  0.17951325597E+03  0.00000000000E+00 0.  1.
<mgrwt>
<rscale>  0 0.24736323E+03</rscale>
<asrwt>0</asrwt>
<pdfrwt beam="2">  1        1 0.52357287E-01 0.25115794E+03</pdfrwt>
<pdfrwt beam="1">  1       -1 0.30357547E-01 0.25115794E+03</pdfrwt>
<totfact> 0.74911229E+02</totfact>
</mgrwt>
</event>
<event>
 6    1  0.7270761E-006  0.1370742E+03  0.7546771E-02  0.1226129E+00
          2   -1    0    0  501    0  0.00000000000E+00  0.00000000000E+00  0.66212195924E+03  0.66212195924E+03  0.00000000000E+00 0.  1.
         -2   -1    0    0    0  501 -0.00000000000E+00 -0.00000000000E+00 -0.24071835866E+02  0.24071835866E+02  0.00000000000E+00 0. -1.
          5    1    1    2  502    0 -0.10538317504E+02  0.52361420737E+02  0.18145104082E+03  0.18920714768E+03  0.47000000000E+01 0.  1.
         -5    1    1    2    0  502  0.65469264423E+02 -0.40238048681E+02  0.13025066490E+03  0.15130317529E+03  0.47000000000E+01 0.  1.
        -11    1    1    2    0    0 -0.68434618955E+02  0.93253940095E+01  0.30445673623E+03  0.31219251157E+03  0.00000000000E+00 0.  1.
         11    1    1    2    0    0  0.13503672037E+02 -0.21448766066E+02  0.21891681422E+02  0.33490960567E+02  0.00000000000E+00 0. -1.
<mgrwt>
<rscale>  0 0.13089818E+03</rscale>
<asrwt>0</asrwt>
<pdfrwt beam="1">  1        2 0.10186490E+00 0.13707416E+03</pdfrwt>
<pdfrwt beam="2">  1       -2 0.37033599E-02 0.13707416E+03</pdfrwt>
<totfact> 0.13200361E+04</totfact>
</mgrwt>
</event>
<event>
 6    1  0.7270761E-006  0.1272280E+03  0.7546771E-02  0.1246218E+00
         -4   -1    0    0    0  501 -0.00000000000E+00  0.00000000000E+00  0.94992378233E+02  0.94992378233E+02  0.00000000000E+00 0.  1.
          4   -1    0    0  501    0  0.00000000000E+00 -0.00000000000E+00 -0.12945242403E+03  0.12945242403E+03  0.00000000000E+00 0. -1.
          5    1    1    2  502    0  0.19559788762E+02  0.20371736585E+02  0.42716786296E+02  0.51423796236E+02  0.47000000000E+01 0.  1.
         -5    1    1    2    0  502 -0.42297501101E+02 -0.13670753910E+02 -0.63249621598E+02  0.77450453479E+02  0.47000000000E+01 0.  1.
        -11    1    1    2    0    0 -0.31492055668E+02  0.11840160567E+02  0.73478596073E+01  0.34437334585E+02  0.00000000000E+00 0.  1.
         11    1    1    2    0    0  0.54229768007E+02 -0.18541143242E+02 -0.21275070105E+02  0.61133217966E+02  0.00000000000E+00 0. -1.
<mgrwt>
<rscale>  0 0.11812801E+03</rscale>
<asrwt>0</asrwt>
<pdfrwt beam="2">  1        4 0.19915757E-01 0.12722804E+03</pdfrwt>
<pdfrwt beam="1">  1       -4 0.14614212E-01 0.12722804E+03</pdfrwt>
<totfact> 0.14558784E+03</totfact>
</mgrwt>
</event>
<event>
 6    1  0.7270761E-006  0.1255507E+03  0.7546771E-02  0.1243926E+00
         -1   -1    0    0    0  501 -0.00000000000E+00  0.00000000000E+00  0.53391998667E+02  0.53391998667E+02  0.00000000000E+00 0.  1.
          1   -1    0    0  501    0  0.00000000000E+00 -0.00000000000E+00 -0.46696102336E+03  0.46696102336E+03  0.00000000000E+00 0. -1.
          5    1    1    2  502    0 -0.54409271410E+02 -0.47335276226E+02  0.43429314970E+01  0.72401300021E+02  0.47000000000E+01 0.  1.
         -5    1    1    2    0  502  0.40187310593E+02  0.20033297250E+01 -0.42743149095E+02  0.58890576982E+02  0.47000000000E+01 0. -1.
        -11    1    1    2    0    0  0.13127604041E+02  0.72267395853E+02 -0.23108541863E+03  0.24247758905E+03  0.00000000000E+00 0. -1.
         11    1    1    2    0    0  0.10943567760E+01 -0.26935449352E+02 -0.14408338847E+03  0.14658355597E+03  0.00000000000E+00 0.  1.
<mgrwt>
<rscale>  0 0.11949901E+03</rscale>
<asrwt>0</asrwt>
<pdfrwt beam="2">  1        1 0.71840158E-01 0.12555071E+03</pdfrwt>
<pdfrwt beam="1">  1       -1 0.82141536E-02 0.12555071E+03</pdfrwt>
<totfact> 0.39430548E+03</totfact>
</mgrwt>
</event>
<event>
 6    1  0.7270761E-006  0.1306161E+03  0.7546771E-02  0.1239203E+00
          1   -1    0    0  501    0  0.00000000000E+00  0.00000000000E+00  0.72492573788E+03  0.72492573788E+03  0.00000000000E+00 0. -1.
         -1   -1    0    0    0  501 -0.00000000000E+00 -0.00000000000E+00 -0.33619621707E+02  0.33619621707E+02  0.00000000000E+00 0.  1.
          5    1    1    2  502    0  0.21998342777E+02  0.60134425395E+02  0.70324055281E+02  0.95224151105E+02  0.47000000000E+01 0.  1.
         -5    1    1    2    0  502  0.15823815732E+02 -0.62965383241E+02  0.46290693082E+02  0.79874594816E+02  0.47000000000E+01 0.  1.
        -11    1    1    2    0    0 -0.14405489418E+02 -0.45088615721E+02  0.27703328946E+03  0.28104794051E+03  0.00000000000E+00 0. -1.
         11    1    1    2    0    0 -0.23416669091E+02  0.47919573567E+02  0.29765807835E+03  0.30239867316E+03  0.00000000000E+00 0.  1.
<mgrwt>
<rscale>  0 0.12239148E+03</rscale>
<asrwt>0</asrwt>
<pdfrwt beam="1">  1        1 0.11152702E+00 0.13061612E+03</pdfrwt>
<pdfrwt beam="2">  1       -1 0.51722501E-02 0.13061612E+03</pdfrwt>
<totfact> 0.43458114E+03</totfact>
</mgrwt>
</event>
<event>
 6    1  0.7270761E-006  0.1746412E+03  0.7546771E-02  0.1201779E+00
         -1   -1    0    0    0  501 -0.00000000000E+00  0.00000000000E+00  0.28514757685E+03  0.28514757685E+03  0.00000000000E+00 0.  1.
          1   -1    0    0  501    0  0.00000000000E+00 -0.00000000000E+00 -0.64497266552E+02  0.64497266552E+02  0.00000000000E+00 0. -1.
          5    1    1    2  502    0 -0.11660687298E+01  0.90053816596E+02  0.73792704064E+02  0.11652683285E+03  0.47000000000E+01 0. -1.
         -5    1    1    2    0  502 -0.87038722546E+01 -0.82378840562E+02  0.98660224305E+02  0.12891066916E+03  0.47000000000E+01 0.  1.
        -11    1    1    2    0    0  0.45869754941E+02 -0.23157681374E+02  0.37416536898E+02  0.63563431771E+02  0.00000000000E+00 0.  1.
         11    1    1    2    0    0 -0.35999813957E+02  0.15482705340E+02  0.10780845029E+02  0.40643909619E+02  0.00000000000E+00 0. -1.
<mgrwt>
<rscale>  0 0.14894229E+03</rscale>
<asrwt>0</asrwt>
<pdfrwt beam="2">  1        1 0.99226566E-02 0.17464122E+03</pdfrwt>
<pdfrwt beam="1">  1       -1 0.43868857E-01 0.17464122E+03</pdfrwt>
<totfact> 0.33051987E+03</totfact>
</mgrwt>
</event>
<event>
 6    1  0.7270761E-006  0.1443410E+03  0.7546771E-02  0.1217309E+00
          2   -1    0    0  501    0  0.00000000000E+00  0.00000000000E+00  0.26349313488E+03  0.26349313488E+03  0.00000000000E+00 0. -1.
         -2   -1    0    0    0  501 -0.00000000000E+00 -0.00000000000E+00 -0.97406382069E+02  0.97406382069E+02  0.00000000000E+00 0.  1.
          5    1    1    2  502    0  0.59751233637E+02 -0.59158161830E+02  0.23195203807E+02  0.87349902759E+02  0.47000000000E+01 0. -1.
         -5    1    1    2    0  502 -0.41759515944E+02 -0.10745938434E+02 -0.38146887755E+02  0.57763374296E+02  0.47000000000E+01 0. -1.
        -11    1    1    2    0    0  0.28111369706E+02  0.67492097284E+01  0.15717913116E+02  0.32906742947E+02  0.00000000000E+00 0.  1.
         11    1    1    2    0    0 -0.46103087399E+02  0.63154890535E+02  0.16532052364E+03  0.18287949695E+03  0.00000000000E+00 0. -1.
<mgrwt>
<rscale>  0 0.13708279E+03</rscale>
<asrwt>0</asrwt>
<pdfrwt beam="1">  1        2 0.40537405E-01 0.14434095E+03</pdfrwt>
<pdfrwt beam="2">  1       -2 0.14985597E-01 0.14434095E+03</pdfrwt>
<totfact> 0.41651179E+03</totfact>
</mgrwt>
</event>
<event>
 6    1  0.7270761E-006  0.1281660E+03  0.7546771E-02  0.1245879E+00
         -1   -1    0    0    0  501 -0.00000000000E+00  0.00000000000E+00  0.18482622106E+03  0.18482622106E+03  0.00000000000E+00 0.  1.
          1   -1    0    0  501    0  0.00000000000E+00 -0.00000000000E+00 -0.72439597023E+02  0.72439597023E+02  0.00000000000E+00 0. -1.
          5    1    1    2  502    0  0.50359700832E+01  0.51219442043E+02  0.44155802912E+02  0.67975121690E+02  0.47000000000E+01 0.  1.
         -5    1    1    2    0  502 -0.23813915874E+02 -0.72426343360E+02  0.57383641605E+02  0.95538736257E+02  0.47000000000E+01 0.  1.
        -11    1    1    2    0    0  0.39450313395E+02  0.37012178259E+02  0.29612392566E+02  0.61669460513E+02  0.00000000000E+00 0.  1.
         11    1    1    2    0    0 -0.20672367604E+02 -0.15805276942E+02 -0.18765213044E+02  0.32082499625E+02  0.00000000000E+00 0. -1.
<mgrwt>
<rscale>  0 0.11832951E+03</rscale>
<asrwt>0</asrwt>
<pdfrwt beam="2">  1        1 0.11144553E-01 0.12816600E+03</pdfrwt>
<pdfrwt beam="1">  1       -1 0.28434803E-01 0.12816600E+03</pdfrwt>
<totfact> 0.58754219E+03</totfact>
</mgrwt>
</event>
<event>
 6    1  0.7270761E-006  0.1283106E+03  0.7546771E-02  0.1246835E+00
         -1   -1    0    0    0  501 -0.00000000000E+00  0.00000000000E+00  0.22676539749E+03  0.22676539749E+03  0.00000000000E+00 0.  1.
          1   -1    0    0  501    0  0.00000000000E+00 -0.00000000000E+00 -0.53075915871E+02  0.53075915871E+02  0.00000000000E+00 0. -1.
          5    1    1    2  502    0  0.52110893470E+02  0.42417483086E+02  0.16617851662E+02  0.69376012306E+02  0.47000000000E+01 0. -1.
         -5    1    1    2    0  502 -0.30319085574E+02 -0.23425761891E+02  0.88299462660E+02  0.96368554914E+02  0.47000000000E+01 0. -1.
        -11    1    1    2    0    0  0.80297938659E+00  0.33023135413E+02  0.16303147760E+02  0.36837004157E+02  0.00000000000E+00 0. -1.
         11    1    1    2    0    0 -0.22594787282E+02 -0.52014856608E+02  0.52469019534E+02  0.77259741982E+02  0.00000000000E+00 0.  1.
<mgrwt>
<rscale>  0 0.11776228E+03</rscale>
<asrwt>0</asrwt>
<pdfrwt beam="2">  1        1 0.81655257E-02 0.12831063E+03</pdfrwt>
<pdfrwt beam="1">  1       -1 0.34886984E-01 0.12831063E+03</pdfrwt>
<totfact> 0.62853435E+03</totfact>
</mgrwt>
</event>
<event>
 6    1  0.7270761E-006  0.3036193E+03  0.7546771E-02  0.1083445E+00
         -2   -1    0    0    0  501 -0.00000000000E+00  0.00000000000E+00  0.81690480455E+02  0.81690480455E+02  0.00000000000E+00 0. -1.
          2   -1    0    0  501    0  0.00000000000E+00 -0.00000000000E+00 -0.28211565792E+03  0.28211565792E+03  0.00000000000E+00 0.  1.
          5    1    1    2  502    0  0.45142311794E+02  0.12261849409E+03 -0.89553945965E+02  0.15847751464E+03  0.47000000000E+01 0.  1.
         -5    1    1    2    0  502 -0.13682056049E+02 -0.26383858499E+02 -0.19065196578E+02  0.35621319004E+02  0.47000000000E+01 0.  1.
        -11    1    1    2    0    0  0.63377483401E+01 -0.95143885424E+02 -0.35223486180E+02  0.10165244693E+03  0.00000000000E+00 0. -1.
         11    1    1    2    0    0 -0.37798004085E+02 -0.10907501712E+01 -0.56582548747E+02  0.68054857810E+02  0.00000000000E+00 0.  1.
<mgrwt>
<rscale>  0 0.30361926E+03</rscale>
<asrwt>0</asrwt>
<pdfrwt beam="2">  1        2 0.43402408E-01 0.30361926E+03</pdfrwt>
<pdfrwt beam="1">  1       -2 0.12567766E-01 0.30361926E+03</pdfrwt>
<totfact> 0.53479688E+03</totfact>
</mgrwt>
</event>
<event>
 6    1  0.7270761E-006  0.1391776E+03  0.7546771E-02  0.1222681E+00
          1   -1    0    0  501    0  0.00000000000E+00  0.00000000000E+00  0.35715298130E+03  0.35715298130E+03  0.00000000000E+00 0.  1.
         -1   -1    0    0    0  501 -0.00000000000E+00 -0.00000000000E+00 -0.54175655707E+02  0.54175655707E+02  0.00000000000E+00 0. -1.
          5    1    1    2  502    0  0.51109337471E+02  0.15226259516E+02  0.44112314892E+02  0.69368506404E+02  0.47000000000E+01 0.  1.
         -5    1    1    2    0  502 -0.37814896352E+02 -0.74964136388E+02  0.38570565799E+02  0.92516845366E+02  0.47000000000E+01 0.  1.
        -11    1    1    2    0    0 -0.56184032071E+02  0.39033950124E+02  0.11373070292E+03  0.13272139054E+03  0.00000000000E+00 0.  1.
         11    1    1    2    0    0  0.42889590952E+02  0.20703926749E+02  0.10656374199E+03  0.11672189469E+03  0.00000000000E+00 0. -1.
<mgrwt>
<rscale>  0 0.13327130E+03</rscale>
<asrwt>0</asrwt>
<pdfrwt beam="1">  1        1 0.54946611E-01 0.13917761E+03</pdfrwt>
<pdfrwt beam="2">  1       -1 0.83347165E-02 0.13917761E+03</pdfrwt>
<totfact> 0.54428937E+03</totfact>
</mgrwt>
</event>
<event>
 6    1  0.7270761E-006  0.1664479E+03  0.7546771E-02  0.1188725E+00
          2   -1    0    0  501    0  0.00000000000E+00  0.00000000000E+00  0.96397683512E+02  0.96397683512E+02  0.00000000000E+00 0. -1.
         -2   -1    0    0    0  501 -0.00000000000E+00 -0.00000000000E+00 -0.25293094616E+03  0.25293094616E+03  0.00000000000E+00 0.  1.
          5    1    1    2  502    0  0.85925102894E+02 -0.78234054893E+02 -0.66032830184E+02  0.13373898203E+03  0.47000000000E+01 0. -1.
         -5    1    1    2    0  502  0.18737843706E+02  0.44678806544E+02 -0.45430604213E+02  0.66583273726E+02  0.47000000000E+01 0. -1.
        -11    1    1    2    0    0 -0.87871059717E+02  0.32533692546E+02 -0.71370313374E+02  0.11778576280E+03  0.00000000000E+00 0.  1.
         11    1    1    2    0    0 -0.16791886882E+02  0.10215558034E+01  0.26300485120E+02  0.31220611122E+02  0.00000000000E+00 0. -1.
<mgrwt>
<rscale>  0 0.15997471E+03</rscale>
<asrwt>0</asrwt>
<pdfrwt beam="1">  1        2 0.14830413E-01 0.16644792E+03</pdfrwt>
<pdfrwt beam="2">  1       -2 0.38912453E-01 0.16644792E+03</pdfrwt>
<totfact> 0.24213069E+03</totfact>
</mgrwt>
</event>
<event>
 6    1  0.7270761E-006  0.1256574E+03  0.7546771E-02  0.1240994E+00
         -1   -1    0    0    0  501 -0.00000000000E+00  0.00000000000E+00  0.28149072974E+03  0.28149072974E+03  0.00000000000E+00 0.  1.
          1   -1    0    0  501    0  0.00000000000E+00 -0.00000000000E+00 -0.57008190122E+02  0.57008190122E+02  0.00000000000E+00 0. -1.
          5    1    1    2  502    0 -0.60705225177E+02 -0.25158094480E+02  0.62842280820E+02  0.91045572876E+02  0.47000000000E+01 0. -1.
         -5    1    1    2    0  502  0.11325873299E+02  0.50660913092E+02  0.11979723545E+03  0.13064559366E+03  0.47000000000E+01 0.  1.
        -11    1    1    2    0    0 -0.95160651053E+01 -0.14175141668E+02  0.53107338837E+02  0.55784223350E+02  0.00000000000E+00 0. -1.
         11    1    1    2    0    0  0.58895416984E+02 -0.11327676944E+02 -0.11264315494E+02  0.61023529971E+02  0.00000000000E+00 0.  1.
<mgrwt>
<rscale>  0 0.12128398E+03</rscale>
<asrwt>0</asrwt>
<pdfrwt beam="2">  1        1 0.87704910E-02 0.12565739E+03</pdfrwt>
<pdfrwt beam="1">  1       -1 0.43306265E-01 0.12565739E+03</pdfrwt>
<totfact> 0.39149448E+03</totfact>
</mgrwt>
</event>
<event>
 6    1  0.7270761E-006  0.1339804E+03  0.7546771E-02  0.1234263E+00
         -3   -1    0    0    0  501 -0.00000000000E+00  0.00000000000E+00  0.18890866212E+03  0.18890866212E+03  0.00000000000E+00 0. -1.
          3   -1    0    0  501    0  0.00000000000E+00 -0.00000000000E+00 -0.98081755759E+02  0.98081755759E+02  0.00000000000E+00 0.  1.
          5    1    1    2  502    0 -0.28638439779E+00 -0.85722725388E+02  0.11206538090E+03  0.14117084423E+03  0.47000000000E+01 0. -1.
         -5    1    1    2    0  502 -0.74826275341E+00  0.37509342951E+02  0.78080031112E+01  0.38607844001E+02  0.47000000000E+01 0. -1.
        -11    1    1    2    0    0 -0.31247787980E+01  0.69536957113E+02  0.16241226123E+01  0.69626075728E+02  0.00000000000E+00 0. -1.
         11    1    1    2    0    0  0.41594259492E+01 -0.21323574676E+02 -0.30670600256E+02  0.37585653929E+02  0.00000000000E+00 0.  1.
<mgrwt>
<rscale>  0 0.12551713E+03</rscale>
<asrwt>0</asrwt>
<pdfrwt beam="2">  1        3 0.15089501E-01 0.13398040E+03</pdfrwt>
<pdfrwt beam="1">  1       -3 0.29062871E-01 0.13398040E+03</pdfrwt>
<totfact> 0.96325496E+02</totfact>
</mgrwt>
</event>
<event>
 6    1  0.1073044E-005  0.2227302E+03  0.7546771E-02  0.1135192E+00
          1   -1    0    0  501    0  0.00000000000E+00  0.00000000000E+00  0.99567903228E+03  0.99567903228E+03  0.00000000000E+00 0. -1.
         -1   -1    0    0    0  501 -0.00000000000E+00 -0.00000000000E+00 -0.53904237649E+02  0.53904237649E+02  0.00000000000E+00 0.  1.
          5    1    1    2  502    0  0.38802271995E+01 -0.26225592645E+02  0.23933688999E+02  0.36024288220E+02  0.47000000000E+01 0.  1.
         -5    1    1    2    0  502 -0.18504799001E+03  0.60303397713E+02  0.26261607494E+03  0.32690755757E+03  0.47000000000E+01 0.  1.
        -11    1    1    2    0    0  0.11212458517E+03 -0.42997873891E+02  0.27456243116E+03  0.29967527152E+03  0.00000000000E+00 0.  1.
         11    1    1    2    0    0  0.69043177643E+02  0.89200688236E+01  0.38066259953E+03  0.38697615261E+03  0.00000000000E+00 0. -1.
<mgrwt>
<rscale>  0 0.21825302E+03</rscale>
<asrwt>0</asrwt>
<pdfrwt beam="1">  1        1 0.15318138E+00 0.22273023E+03</pdfrwt>
<pdfrwt beam="2">  1       -1 0.82929604E-02 0.22273023E+03</pdfrwt>
<totfact> 0.13137446E+03</totfact>
</mgrwt>
</event>
<event>
 6    1  0.7270761E-006  0.1481855E+03  0.7546771E-02  0.1212313E+00
          3   -1    0    0  501    0  0.00000000000E+00  0.00000000000E+00  0.11878375660E+03  0.11878375660E+03  0.00000000000E+00 0. -1.
         -3   -1    0    0    0  501 -0.00000000000E+00 -0.00000000000E+00 -0.16119686083E+03  0.16119686083E+03  0.00000000000E+00 0.  1.
          5    1    1    2  502    0  0.95290386017E+02  0.12417787390E+02 -0.16159212793E+02  0.97558542778E+02  0.47000000000E+01 0. -1.
         -5    1    1    2    0  502 -0.30559667692E+02  0.33865085552E+02 -0.40200385367E+02  0.60982770456E+02  0.47000000000E+01 0. -1.
        -11    1    1    2    0    0 -0.11631563429E+02  0.60627362745E+01 -0.31497510985E+02  0.34119543332E+02  0.00000000000E+00 0.  1.
         11    1    1    2    0    0 -0.53099154896E+02 -0.52345609216E+02  0.45444004920E+02  0.87319760868E+02  0.00000000000E+00 0. -1.
<mgrwt>
<rscale>  0 0.14075809E+03</rscale>
<asrwt>0</asrwt>
<pdfrwt beam="1">  1        3 0.18274424E-01 0.14818550E+03</pdfrwt>
<pdfrwt beam="2">  1       -3 0.24799517E-01 0.14818550E+03</pdfrwt>
<totfact> 0.93836286E+02</totfact>
</mgrwt>
</event>
<event>
 6    1  0.7270761E-006  0.1713335E+03  0.7546771E-02  0.1182437E+00
          2   -1    0    0  501    0  0.00000000000E+00  0.00000000000E+00  0.40812367277E+03  0.40812367277E+03  0.00000000000E+00 0.  1.
         -2   -1    0    0    0  501 -0.00000000000E+00 -0.00000000000E+00 -0.64835582874E+02  0.64835582874E+02  0.00000000000E+00 0. -1.
          5    1    1    2  502    0 -0.51628344520E+02 -0.45572049400E+02  0.97088293630E+02  0.11912398753E+03  0.47000000000E+01 0.  1.
         -5    1    1    2    0  502 -0.63137183040E+02  0.69216040136E+02  0.47914507507E+02  0.10533306282E+03  0.47000000000E+01 0.  1.
        -11    1    1    2    0    0  0.11027222301E+03  0.14113446852E+02  0.13773737943E+03  0.17700491022E+03  0.00000000000E+00 0. -1.
         11    1    1    2    0    0  0.44933045525E+01 -0.37757437587E+02  0.60547909327E+02  0.71497295074E+02  0.00000000000E+00 0.  1.
<mgrwt>
<rscale>  0 0.16567254E+03</rscale>
<asrwt>0</asrwt>
<pdfrwt beam="1">  1        2 0.62788256E-01 0.17133346E+03</pdfrwt>
<pdfrwt beam="2">  1       -2 0.99747053E-02 0.17133346E+03</pdfrwt>
<totfact> 0.50646060E+03</totfact>
</mgrwt>
</event>
<event>
 6    1  0.7270761E-006  0.2727341E+03  0.7546771E-02  0.1099725E+00
         -2   -1    0    0    0  501 -0.00000000000E+00  0.00000000000E+00  0.32194165007E+03  0.32194165007E+03  0.00000000000E+00 0.  1.
          2   -1    0    0  501    0  0.00000000000E+00 -0.00000000000E+00 -0.57761946144E+02  0.57761946144E+02  0.00000000000E+00 0. -1.
          5    1    1    2  502    0  0.85310186137E+02 -0.45786805599E+02  0.56602306709E+02  0.11225048129E+03  0.47000000000E+01 0. -1.
         -5    1    1    2    0  502 -0.34298623858E+02 -0.16873749058E+02  0.84450192380E+02  0.92817261320E+02  0.47000000000E+01 0. -1.
        -11    1    1    2    0    0 -0.48908092241E+02  0.27184345239E+01  0.98090783325E+02  0.10964120186E+03  0.00000000000E+00 0.  1.
         11    1    1    2    0    0 -0.21034700378E+01  0.59942120133E+02  0.25036421509E+02  0.64994651735E+02  0.00000000000E+00 0. -1.
<mgrwt>
<rscale>  0 0.27273413E+03</rscale>
<asrwt>0</asrwt>
<pdfrwt beam="2">  1        2 0.88864535E-02 0.27273413E+03</pdfrwt>
<pdfrwt beam="1">  1       -2 0.49529483E-01 0.27273413E+03</pdfrwt>
<totfact> 0.28995835E+03</totfact>
</mgrwt>
</event>
<event>
 6    1  0.7270761E-006  0.1333476E+03  0.7546771E-02  0.1234519E+00
         -1   -1    0    0    0  501 -0.00000000000E+00  0.00000000000E+00  0.19924281393E+02  0.19924281393E+02  0.00000000000E+00 0.  1.
          1   -1    0    0  501    0  0.00000000000E+00 -0.00000000000E+00 -0.78916433191E+03  0.78916433191E+03  0.00000000000E+00 0. -1.
          5    1    1    2  502    0 -0.66554455362E+02 -0.14519019167E+02 -0.78210004398E+02  0.10382288878E+03  0.47000000000E+01 0.  1.
         -5    1    1    2    0  502  0.31501992607E+02 -0.15966037852E+02 -0.21969077852E+03  0.22256104347E+03  0.47000000000E+01 0.  1.
        -11    1    1    2    0    0 -0.20753464306E+02  0.41389519019E+02 -0.17933292506E+03  0.18521365116E+03  0.00000000000E+00 0.  1.
         11    1    1    2    0    0  0.55805927062E+02 -0.10904462000E+02 -0.29200634254E+03  0.29749102990E+03  0.00000000000E+00 0. -1.
<mgrwt>
<rscale>  0 0.12535256E+03</rscale>
<asrwt>0</asrwt>
<pdfrwt beam="2">  1        1 0.12140988E+00 0.13334765E+03</pdfrwt>
<pdfrwt beam="1">  1       -1 0.30652745E-02 0.13334765E+03</pdfrwt>
<totfact> 0.82738254E+03</totfact>
</mgrwt>
</event>
<event>
 6    1  0.7270761E-006  0.2519495E+03  0.7546771E-02  0.1112079E+00
          1   -1    0    0  501    0  0.00000000000E+00  0.00000000000E+00  0.85565951397E+03  0.85565951397E+03  0.00000000000E+00 0. -1.
         -1   -1    0    0    0  501 -0.00000000000E+00 -0.00000000000E+00 -0.18546669090E+02  0.18546669090E+02  0.00000000000E+00 0.  1.
          5    1    1    2  502    0 -0.85236984963E+02  0.73345100688E+01  0.17582090173E+03  0.19558685571E+03  0.47000000000E+01 0.  1.
         -5    1    1    2    0  502  0.21775711992E+02  0.86351629240E+01  0.29381952505E+03  0.29478933321E+03  0.47000000000E+01 0.  1.
        -11    1    1    2    0    0  0.42537443698E+02 -0.49354979659E+02  0.28603402363E+03  0.29336122922E+03  0.00000000000E+00 0. -1.
         11    1    1    2    0    0  0.20923829273E+02  0.33385306667E+02  0.81438394471E+02  0.90468764923E+02  0.00000000000E+00 0.  1.
<mgrwt>
<rscale>  0 0.25194947E+03</rscale>
<asrwt>0</asrwt>
<pdfrwt beam="1">  1        1 0.13163989E+00 0.25194947E+03</pdfrwt>
<pdfrwt beam="2">  1       -1 0.28533344E-02 0.25194947E+03</pdfrwt>
<totfact> 0.83763390E+03</totfact>
</mgrwt>
</event>
<event>
 6    1  0.7270761E-006  0.1255560E+03  0.7546771E-02  0.1249603E+00
         -3   -1    0    0    0  501 -0.00000000000E+00  0.00000000000E+00  0.53244705241E+03  0.53244705241E+03  0.00000000000E+00 0.  1.
          3   -1    0    0  501    0  0.00000000000E+00 -0.00000000000E+00 -0.25459152332E+02  0.25459152332E+02  0.00000000000E+00 0. -1.
          5    1    1    2  502    0 -0.18824632269E+02  0.16836241415E+01 -0.14466536047E+00  0.19475941528E+02  0.47000000000E+01 0. -1.
         -5    1    1    2    0  502  0.11397208271E+02  0.75173522191E+01  0.38648160494E+03  0.38675124809E+03  0.47000000000E+01 0. -1.
        -11    1    1    2    0    0  0.13551585761E+02  0.24903846910E+02  0.23973569419E+01  0.28453372170E+02  0.00000000000E+00 0.  1.
         11    1    1    2    0    0 -0.61241617626E+01 -0.34104823271E+02  0.11825360356E+03  0.12322564296E+03  0.00000000000E+00 0. -1.
<mgrwt>
<rscale>  0 0.11614065E+03</rscale>
<asrwt>0</asrwt>
<pdfrwt beam="2">  1        3 0.39167931E-02 0.12555596E+03</pdfrwt>
<pdfrwt beam="1">  1       -3 0.81914923E-01 0.12555596E+03</pdfrwt>
<totfact> 0.10816286E+03</totfact>
</mgrwt>
</event>
<event>
 6    1  0.7270761E-006  0.3238324E+03  0.7546771E-02  0.1073899E+00
          1   -1    0    0  501    0  0.00000000000E+00  0.00000000000E+00  0.17145885329E+03  0.17145885329E+03  0.00000000000E+00 0. -1.
         -1   -1    0    0    0  501 -0.00000000000E+00 -0.00000000000E+00 -0.15290462901E+03  0.15290462901E+03  0.00000000000E+00 0.  1.
          5    1    1    2  502    0 -0.19981774386E+02  0.11596702952E+03  0.46686079983E+01  0.11786224647E+03  0.47000000000E+01 0.  1.
         -5    1    1    2    0  502  0.17887886245E+02 -0.10023905269E+02 -0.46839308918E+02  0.51346528715E+02  0.47000000000E+01 0.  1.
        -11    1    1    2    0    0  0.43206758612E+02 -0.70145519316E+02  0.57654329264E+02  0.10055465953E+03  0.00000000000E+00 0. -1.
         11    1    1    2    0    0 -0.41112870472E+02 -0.35797604935E+02  0.30705959331E+01  0.54600047591E+02  0.00000000000E+00 0.  1.
<mgrwt>
<rscale>  0 0.32383238E+03</rscale>
<asrwt>0</asrwt>
<pdfrwt beam="1">  1        1 0.26378285E-01 0.32383238E+03</pdfrwt>
<pdfrwt beam="2">  1       -1 0.23523789E-01 0.32383238E+03</pdfrwt>
<totfact> 0.27561323E+03</totfact>
</mgrwt>
</event>
<event>
 6    1  0.1164455E-005  0.4531157E+03  0.7546771E-02  0.1026797E+00
         -1   -1    0    0    0  501 -0.00000000000E+00  0.00000000000E+00  0.10279258354E+04  0.10279258354E+04  0.00000000000E+00 0.  1.
          1   -1    0    0  501    0  0.00000000000E+00 -0.00000000000E+00 -0.49934006645E+02  0.49934006645E+02  0.00000000000E+00 0. -1.
          5    1    1    2  502    0  0.15156103347E+02  0.24156528366E+02  0.55673887858E+02  0.62728917738E+02  0.47000000000E+01 0. -1.
         -5    1    1    2    0  502 -0.19898875162E+03  0.48171902929E+02  0.43151378792E+03  0.47764348072E+03  0.47000000000E+01 0. -1.
        -11    1    1    2    0    0  0.15226989930E+03 -0.31190867210E+02  0.43188009403E+03  0.45899826584E+03  0.00000000000E+00 0.  1.
         11    1    1    2    0    0  0.31562748977E+02 -0.41137564085E+02  0.58924058975E+02  0.78489177776E+02  0.00000000000E+00 0. -1.
<mgrwt>
<rscale>  0 0.45311568E+03</rscale>
<asrwt>0</asrwt>
<pdfrwt beam="2">  1        1 0.76821556E-02 0.45311568E+03</pdfrwt>
<pdfrwt beam="1">  1       -1 0.15814242E+00 0.45311568E+03</pdfrwt>
<totfact> 0.30005531E+02</totfact>
</mgrwt>
</event>
<event>
 6    1  0.7270761E-006  0.1419757E+03  0.7546771E-02  0.1221469E+00
          1   -1    0    0  501    0  0.00000000000E+00  0.00000000000E+00  0.80266085495E+02  0.80266085495E+02  0.00000000000E+00 0. -1.
         -1   -1    0    0    0  501 -0.00000000000E+00 -0.00000000000E+00 -0.20540427006E+03  0.20540427006E+03  0.00000000000E+00 0.  1.
          5    1    1    2  502    0 -0.53179290996E+01 -0.89547973244E+02 -0.10232315613E+03  0.13615887104E+03  0.47000000000E+01 0. -1.
         -5    1    1    2    0  502  0.10479923192E+02  0.22426795197E+02  0.16144226027E+02  0.29925172797E+02  0.47000000000E+01 0. -1.
        -11    1    1    2    0    0  0.11549481977E+02  0.61485325578E+02  0.13707814597E+02  0.64044827866E+02  0.00000000000E+00 0. -1.
         11    1    1    2    0    0 -0.16711476069E+02  0.56358524698E+01 -0.52667069064E+02  0.55541483859E+02  0.00000000000E+00 0.  1.
<mgrwt>
<rscale>  0 0.13411887E+03</rscale>
<asrwt>0</asrwt>
<pdfrwt beam="1">  1        1 0.12348629E-01 0.14197571E+03</pdfrwt>
<pdfrwt beam="2">  1       -1 0.31600657E-01 0.14197571E+03</pdfrwt>
<totfact> 0.43291920E+03</totfact>
</mgrwt>
</event>
<event>
 6    1  0.7270761E-006  0.1562131E+03  0.7546771E-02  0.1200903E+00
          2   -1    0    0  501    0  0.00000000000E+00  0.00000000000E+00  0.33876880488E+03  0.33876880488E+03  0.00000000000E+00 0.  1.
         -2   -1    0    0    0  501 -0.00000000000E+00 -0.00000000000E+00 -0.64361939838E+02  0.64361939838E+02  0.00000000000E+00 0. -1.
          5    1    1    2  502    0 -0.56989300797E+00 -0.30879487812E+02  0.14427215850E+02  0.34410784687E+02  0.47000000000E+01 0. -1.
         -5    1    1    2    0  502 -0.12847506635E+02  0.12362637859E+03  0.88837184555E+02  0.15284853703E+03  0.47000000000E+01 0. -1.
        -11    1    1    2    0    0  0.41880670987E+02 -0.89135938052E+02  0.15289712871E+03  0.18187011305E+03  0.00000000000E+00 0.  1.
         11    1    1    2    0    0 -0.28463271345E+02 -0.36109527293E+01  0.18245335926E+02  0.34001309950E+02  0.00000000000E+00 0. -1.
<mgrwt>
<rscale>  0 0.14965023E+03</rscale>
<asrwt>0</asrwt>
<pdfrwt beam="1">  1        2 0.52118277E-01 0.15621305E+03</pdfrwt>
<pdfrwt beam="2">  1       -2 0.99018371E-02 0.15621305E+03</pdfrwt>
<totfact> 0.62246777E+03</totfact>
</mgrwt>
</event>
<event>
 6    1  0.7270761E-006  0.1852403E+03  0.7546771E-02  0.1167922E+00
         -2   -1    0    0    0  501 -0.00000000000E+00  0.00000000000E+00  0.14159437952E+03  0.14159437952E+03  0.00000000000E+00 0. -1.
          2   -1    0    0  501    0  0.00000000000E+00 -0.00000000000E+00 -0.25526589600E+03  0.25526589600E+03  0.00000000000E+00 0.  1.
          5    1    1    2  502    0  0.12794972169E+02 -0.77314133004E+02 -0.40838339645E+02  0.88493200077E+02  0.47000000000E+01 0.  1.
         -5    1    1    2    0  502  0.71809637881E+02 -0.30080701479E+02  0.58676895009E+02  0.97603999416E+02  0.47000000000E+01 0.  1.
        -11    1    1    2    0    0 -0.32723217537E+02  0.10752441162E+03 -0.96889381362E+02  0.14839090363E+03  0.00000000000E+00 0.  1.
         11    1    1    2    0    0 -0.51881392513E+02 -0.12957713614E+00 -0.34620690480E+02  0.62372172390E+02  0.00000000000E+00 0. -1.
<mgrwt>
<rscale>  0 0.17987678E+03</rscale>
<asrwt>0</asrwt>
<pdfrwt beam="2">  1        2 0.39271676E-01 0.18524026E+03</pdfrwt>
<pdfrwt beam="1">  1       -2 0.21783751E-01 0.18524026E+03</pdfrwt>
<totfact> 0.23256754E+03</totfact>
</mgrwt>
</event>
<event>
 6    1  0.7270761E-006  0.1648023E+03  0.7546771E-02  0.1190193E+00
         -2   -1    0    0    0  501 -0.00000000000E+00  0.00000000000E+00  0.30309856145E+03  0.30309856145E+03  0.00000000000E+00 0.  1.
          2   -1    0    0  501    0  0.00000000000E+00 -0.00000000000E+00 -0.80954291413E+02  0.80954291413E+02  0.00000000000E+00 0. -1.
          5    1    1    2  502    0 -0.41722096266E+02  0.61603014242E+01  0.66002752093E+02  0.78467419445E+02  0.47000000000E+01 0.  1.
         -5    1    1    2    0  502  0.65278772473E+02  0.98616741835E+02  0.92877604289E+02  0.15044905877E+03  0.47000000000E+01 0.  1.
        -11    1    1    2    0    0 -0.43347281497E+02 -0.22663262147E+02  0.49439242018E+02  0.69547458010E+02  0.00000000000E+00 0.  1.
         11    1    1    2    0    0  0.19790605290E+02 -0.82113781112E+02  0.13824671641E+02  0.85588916644E+02  0.00000000000E+00 0. -1.
<mgrwt>
<rscale>  0 0.15868183E+03</rscale>
<asrwt>0</asrwt>
<pdfrwt beam="2">  1        2 0.12454507E-01 0.16480226E+03</pdfrwt>
<pdfrwt beam="1">  1       -2 0.46630547E-01 0.16480226E+03</pdfrwt>
<totfact> 0.21040631E+03</totfact>
</mgrwt>
</event>
<event>
 6    1  0.7270761E-006  0.1485955E+03  0.7546771E-02  0.1213928E+00
          1   -1    0    0  501    0  0.00000000000E+00  0.00000000000E+00  0.32528266619E+03  0.32528266619E+03  0.00000000000E+00 0. -1.
         -1   -1    0    0    0  501 -0.00000000000E+00 -0.00000000000E+00 -0.66375922761E+02  0.66375922761E+02  0.00000000000E+00 0.  1.
          5    1    1    2  502    0  0.71266509330E+02 -0.68301371535E+02  0.29903712528E+02  0.10324880013E+03  0.47000000000E+01 0. -1.
         -5    1    1    2    0  502  0.65513760507E+01  0.48183804239E+02  0.27400672250E+02  0.56013269489E+02  0.47000000000E+01 0. -1.
        -11    1    1    2    0    0 -0.91978308508E+01 -0.23646559316E+02  0.94689902544E+02  0.98030288705E+02  0.00000000000E+00 0. -1.
         11    1    1    2    0    0 -0.68620054529E+02  0.43764126612E+02  0.10691245611E+03  0.13436623063E+03  0.00000000000E+00 0.  1.
<mgrwt>
<rscale>  0 0.13955609E+03</rscale>
<asrwt>0</asrwt>
<pdfrwt beam="1">  1        1 0.50043486E-01 0.14859547E+03</pdfrwt>
<pdfrwt beam="2">  1       -1 0.10211681E-01 0.14859547E+03</pdfrwt>
<totfact> 0.45060231E+03</totfact>
</mgrwt>
</event>
<event>
 6    1  0.7270761E-006  0.1135571E+03  0.7546771E-02  0.1264086E+00
         -1   -1    0    0    0  501 -0.00000000000E+00  0.00000000000E+00  0.56078917809E+03  0.56078917809E+03  0.00000000000E+00 0.  1.
          1   -1    0    0  501    0  0.00000000000E+00 -0.00000000000E+00 -0.19190612376E+02  0.19190612376E+02  0.00000000000E+00 0. -1.
          5    1    1    2  502    0  0.57043524413E+02  0.44071090667E+01  0.16988668718E+03  0.17932362580E+03  0.47000000000E+01 0. -1.
         -5    1    1    2    0  502 -0.53542892210E+02  0.15746152430E+02  0.14898267343E+03  0.15916252575E+03  0.47000000000E+01 0.  1.
        -11    1    1    2    0    0 -0.34253342070E+02  0.20336100531E+02  0.12698625413E+03  0.13308777993E+03  0.00000000000E+00 0.  1.
         11    1    1    2    0    0  0.30752709867E+02 -0.40489362028E+02  0.95742950975E+02  0.10840585899E+03  0.00000000000E+00 0. -1.
<mgrwt>
<rscale>  0 0.10812307E+03</rscale>
<asrwt>0</asrwt>
<pdfrwt beam="2">  1        1 0.29524023E-02 0.11355706E+03</pdfrwt>
<pdfrwt beam="1">  1       -1 0.86275246E-01 0.11355706E+03</pdfrwt>
<totfact> 0.45763464E+03</totfact>
</mgrwt>
</event>
<event>
 6    1  0.7270761E-006  0.1369755E+03  0.7546771E-02  0.1229444E+00
         -4   -1    0    0    0  501 -0.00000000000E+00  0.00000000000E+00  0.74705876414E+02  0.74705876414E+02  0.00000000000E+00 0.  1.
          4   -1    0    0  501    0  0.00000000000E+00 -0.00000000000E+00 -0.22749104185E+03  0.22749104185E+03  0.00000000000E+00 0. -1.
          5    1    1    2  502    0 -0.44189902035E+02 -0.24781315524E+02 -0.43699749923E+02  0.67071746543E+02  0.47000000000E+01 0. -1.
         -5    1    1    2    0  502  0.67259409484E+02 -0.26256444523E+02  0.12461133417E+02  0.73420697961E+02  0.47000000000E+01 0. -1.
        -11    1    1    2    0    0 -0.45800850284E+02  0.31257035042E+02 -0.11921707566E+03  0.13148167650E+03  0.00000000000E+00 0. -1.
         11    1    1    2    0    0  0.22731342835E+02  0.19780725004E+02 -0.23294732742E+01  0.30222797265E+02  0.00000000000E+00 0.  1.
<mgrwt>
<rscale>  0 0.12866929E+03</rscale>
<asrwt>0</asrwt>
<pdfrwt beam="2">  1        4 0.34998622E-01 0.13697546E+03</pdfrwt>
<pdfrwt beam="1">  1       -4 0.11493212E-01 0.13697546E+03</pdfrwt>
<totfact> 0.78392748E+02</totfact>
</mgrwt>
</event>
<event>
 6    1  0.7270761E-006  0.1282709E+03  0.7546771E-02  0.1251246E+00
         -2   -1    0    0    0  501 -0.00000000000E+00  0.00000000000E+00  0.15375175077E+03  0.15375175077E+03  0.00000000000E+00 0.  1.
          2   -1    0    0  501    0  0.00000000000E+00 -0.00000000000E+00 -0.79302146033E+02  0.79302146033E+02  0.00000000000E+00 0. -1.
          5    1    1    2  502    0 -0.39900725243E+02 -0.31945659487E+02  0.55423921493E+02  0.75541340395E+02  0.47000000000E+01 0.  1.
         -5    1    1    2    0  502  0.67057669725E+02  0.22366897502E+02  0.21540362381E+02  0.74047865495E+02  0.47000000000E+01 0.  1.
        -11    1    1    2    0    0 -0.34923253094E+02 -0.28169432265E+02 -0.22597192825E+01  0.44925013657E+02  0.00000000000E+00 0.  1.
         11    1    1    2    0    0  0.77663086124E+01  0.37748194251E+02 -0.25495985213E+00  0.38539677258E+02  0.00000000000E+00 0. -1.
<mgrwt>
<rscale>  0 0.11519206E+03</rscale>
<asrwt>0</asrwt>
<pdfrwt beam="2">  1        2 0.12200330E-01 0.12827092E+03</pdfrwt>
<pdfrwt beam="1">  1       -2 0.23654115E-01 0.12827092E+03</pdfrwt>
<totfact> 0.73822064E+03</totfact>
</mgrwt>
</event>
<event>
 6    1  0.7270761E-006  0.1292975E+03  0.7546771E-02  0.1241118E+00
         -1   -1    0    0    0  501 -0.00000000000E+00  0.00000000000E+00  0.27829222253E+02  0.27829222253E+02  0.00000000000E+00 0.  1.
          1   -1    0    0  501    0  0.00000000000E+00 -0.00000000000E+00 -0.47590208228E+03  0.47590208228E+03  0.00000000000E+00 0. -1.
          5    1    1    2  502    0 -0.35167052405E+02 -0.17744023659E+01 -0.15918303634E+02  0.38927528424E+02  0.47000000000E+01 0.  1.
         -5    1    1    2    0  502  0.43230321400E+02  0.33839322858E+02 -0.26012356964E+03  0.26589532140E+03  0.47000000000E+01 0.  1.
        -11    1    1    2    0    0  0.77852444804E+00 -0.65361535233E+02 -0.11021872798E+03  0.12814407667E+03  0.00000000000E+00 0.  1.
         11    1    1    2    0    0 -0.88417934431E+01  0.33296614741E+02 -0.61812258773E+02  0.70764378038E+02  0.00000000000E+00 0. -1.
<mgrwt>
<rscale>  0 0.12120740E+03</rscale>
<asrwt>0</asrwt>
<pdfrwt beam="2">  1        1 0.73215704E-01 0.12929754E+03</pdfrwt>
<pdfrwt beam="1">  1       -1 0.42814189E-02 0.12929754E+03</pdfrwt>
<totfact> 0.10158556E+04</totfact>
</mgrwt>
</event>
<event>
 6    1  0.7270761E-006  0.1720391E+03  0.7546771E-02  0.1182248E+00
         -1   -1    0    0    0  501 -0.00000000000E+00  0.00000000000E+00  0.61900308700E+02  0.61900308700E+02  0.00000000000E+00 0.  1.
          1   -1    0    0  501    0  0.00000000000E+00 -0.00000000000E+00 -0.42131638045E+03  0.42131638045E+03  0.00000000000E+00 0. -1.
          5    1    1    2  502    0  0.50512014813E+02  0.42709437255E+02 -0.13714721459E+03  0.15233846573E+03  0.47000000000E+01 0.  1.
         -5    1    1    2    0  502  0.67689637767E+02 -0.43940146706E+02 -0.26416929772E+02  0.85044504421E+02  0.47000000000E+01 0.  1.
        -11    1    1    2    0    0 -0.11694524641E+02 -0.24053673451E+01  0.89786048464E+01  0.14938642630E+02  0.00000000000E+00 0.  1.
         11    1    1    2    0    0 -0.10650712794E+03  0.36360767963E+01 -0.20483053223E+03  0.23089507637E+03  0.00000000000E+00 0. -1.
<mgrwt>
<rscale>  0 0.16584828E+03</rscale>
<asrwt>0</asrwt>
<pdfrwt beam="2">  1        1 0.64817905E-01 0.17203908E+03</pdfrwt>
<pdfrwt beam="1">  1       -1 0.95231243E-02 0.17203908E+03</pdfrwt>
<totfact> 0.36444854E+03</totfact>
</mgrwt>
</event>
<event>
 6    1  0.7270761E-006  0.1256716E+03  0.7546771E-02  0.1249307E+00
         -4   -1    0    0    0  501 -0.00000000000E+00  0.00000000000E+00  0.21728168895E+03  0.21728168895E+03  0.00000000000E+00 0.  1.
          4   -1    0    0  501    0  0.00000000000E+00 -0.00000000000E+00 -0.56800304336E+02  0.56800304336E+02  0.00000000000E+00 0. -1.
          5    1    1    2  502    0  0.34417742985E+02 -0.39739781873E+02  0.92067591771E+02  0.10612427974E+03  0.47000000000E+01 0.  1.
         -5    1    1    2    0  502 -0.47381806402E+02  0.38405901176E+02  0.26549517840E+02  0.66685948449E+02  0.47000000000E+01 0.  1.
        -11    1    1    2    0    0  0.20725537663E+02  0.22265554181E+02  0.63358191666E+02  0.70282026618E+02  0.00000000000E+00 0.  1.
         11    1    1    2    0    0 -0.77614742463E+01 -0.20931673484E+02 -0.21493916664E+02  0.30989738478E+02  0.00000000000E+00 0. -1.
<mgrwt>
<rscale>  0 0.11631258E+03</rscale>
<asrwt>0</asrwt>
<pdfrwt beam="2">  1        4 0.87385085E-02 0.12567162E+03</pdfrwt>
<pdfrwt beam="1">  1       -4 0.33427952E-01 0.12567162E+03</pdfrwt>
<totfact> 0.13336818E+03</totfact>
</mgrwt>
</event>
<event>
 6    1  0.7270761E-006  0.3794539E+03  0.7546771E-02  0.1051136E+00
         -1   -1    0    0    0  501 -0.00000000000E+00  0.00000000000E+00  0.55408921682E+02  0.55408921682E+02  0.00000000000E+00 0.  1.
          1   -1    0    0  501    0  0.00000000000E+00 -0.00000000000E+00 -0.64964848994E+03  0.64964848994E+03  0.00000000000E+00 0. -1.
          5    1    1    2  502    0  0.30646611071E+01  0.20438413874E+02 -0.76910775991E+01  0.22546919613E+02  0.47000000000E+01 0. -1.
         -5    1    1    2    0  502 -0.19410091066E+02 -0.15762868564E+03 -0.22775574156E+03  0.27770185809E+03  0.47000000000E+01 0. -1.
        -11    1    1    2    0    0 -0.35144730113E+02  0.45272121648E+02 -0.42276848847E+02  0.71218319284E+02  0.00000000000E+00 0.  1.
         11    1    1    2    0    0  0.51490160072E+02  0.91918150122E+02 -0.31651590025E+03  0.33359031464E+03  0.00000000000E+00 0. -1.
<mgrwt>
<rscale>  0 0.37945394E+03</rscale>
<asrwt>0</asrwt>
<pdfrwt beam="2">  1        1 0.99945921E-01 0.37945394E+03</pdfrwt>
<pdfrwt beam="1">  1       -1 0.85244495E-02 0.37945394E+03</pdfrwt>
<totfact> 0.24617113E+03</totfact>
</mgrwt>
</event>
<event>
 6    1  0.7270761E-006  0.1914014E+03  0.7546771E-02  0.1160621E+00
         -1   -1    0    0    0  501 -0.00000000000E+00  0.00000000000E+00  0.43401105017E+02  0.43401105017E+02  0.00000000000E+00 0.  1.
          1   -1    0    0  501    0  0.00000000000E+00 -0.00000000000E+00 -0.92350657142E+03  0.92350657142E+03  0.00000000000E+00 0. -1.
          5    1    1    2  502    0 -0.84619701376E+02 -0.24866516604E+02 -0.83546859128E+02  0.12157715731E+03  0.47000000000E+01 0. -1.
         -5    1    1    2    0  502 -0.48149047964E+02  0.83026165802E+02 -0.18131550597E+03  0.20520496517E+03  0.47000000000E+01 0. -1.
        -11    1    1    2    0    0  0.23217606913E+01 -0.35862539478E+02 -0.65850655694E+02  0.75018805415E+02  0.00000000000E+00 0.  1.
         11    1    1    2    0    0  0.13044698865E+03 -0.22297109721E+02 -0.54939244562E+03  0.56510674854E+03  0.00000000000E+00 0. -1.
<mgrwt>
<rscale>  0 0.18762549E+03</rscale>
<asrwt>0</asrwt>
<pdfrwt beam="2">  1        1 0.14207793E+00 0.19140137E+03</pdfrwt>
<pdfrwt beam="1">  1       -1 0.66770934E-02 0.19140137E+03</pdfrwt>
<totfact> 0.20690305E+03</totfact>
</mgrwt>
</event>
<event>
 6    1  0.7270761E-006  0.2709924E+03  0.7546771E-02  0.1100713E+00
          1   -1    0    0  501    0  0.00000000000E+00  0.00000000000E+00  0.43792988053E+03  0.43792988053E+03  0.00000000000E+00 0. -1.
         -1   -1    0    0    0  501 -0.00000000000E+00 -0.00000000000E+00 -0.41922735183E+02  0.41922735183E+02  0.00000000000E+00 0.  1.
          5    1    1    2  502    0 -0.19539078792E+02  0.77549399045E+02  0.11760269620E+03  0.14229606124E+03  0.47000000000E+01 0. -1.
         -5    1    1    2    0  502  0.87480003797E+01 -0.27016504371E+02 -0.10074181461E+02  0.30495871051E+02  0.47000000000E+01 0. -1.
        -11    1    1    2    0    0  0.39866990069E+02 -0.10404361146E+02  0.21174565980E+03  0.21571706486E+03  0.00000000000E+00 0. -1.
         11    1    1    2    0    0 -0.29075911658E+02 -0.40128533528E+02  0.76732970812E+02  0.91343618559E+02  0.00000000000E+00 0.  1.
<mgrwt>
<rscale>  0 0.27099239E+03</rscale>
<asrwt>0</asrwt>
<pdfrwt beam="1">  1        1 0.67373825E-01 0.27099239E+03</pdfrwt>
<pdfrwt beam="2">  1       -1 0.64496519E-02 0.27099239E+03</pdfrwt>
<totfact> 0.64055319E+03</totfact>
</mgrwt>
</event>
<event>
 6    1  0.7270761E-006  0.1282327E+03  0.7546771E-02  0.1243812E+00
          2   -1    0    0  501    0  0.00000000000E+00  0.00000000000E+00  0.20538760780E+02  0.20538760780E+02  0.00000000000E+00 0. -1.
         -2   -1    0    0    0  501 -0.00000000000E+00 -0.00000000000E+00 -0.63631481234E+03  0.63631481234E+03  0.00000000000E+00 0.  1.
          5    1    1    2  502    0  0.32923959943E+02 -0.44370232985E+02 -0.38793442776E+03  0.39187742338E+03  0.47000000000E+01 0. -1.
         -5    1    1    2    0  502 -0.21699515211E+02  0.18094996735E+02 -0.17998375700E+02  0.33827938084E+02  0.47000000000E+01 0. -1.
        -11    1    1    2    0    0  0.38643379734E+02  0.63411297993E+01 -0.12258129276E+03  0.12868447482E+03  0.00000000000E+00 0. -1.
         11    1    1    2    0    0 -0.49867824466E+02  0.19934106451E+02 -0.87261955340E+02  0.10246373684E+03  0.00000000000E+00 0.  1.
<mgrwt>
<rscale>  0 0.11956742E+03</rscale>
<asrwt>0</asrwt>
<pdfrwt beam="1">  1        2 0.31598097E-02 0.12823266E+03</pdfrwt>
<pdfrwt beam="2">  1       -2 0.97894575E-01 0.12823266E+03</pdfrwt>
<totfact> 0.25033269E+03</totfact>
</mgrwt>
</event>
<event>
 6    1  0.7270761E-006  0.1300822E+03  0.7546771E-02  0.1241326E+00
         -4   -1    0    0    0  501 -0.00000000000E+00  0.00000000000E+00  0.43447974830E+02  0.43447974830E+02  0.00000000000E+00 0.  1.
          4   -1    0    0  501    0  0.00000000000E+00 -0.00000000000E+00 -0.40268938088E+03  0.40268938088E+03  0.00000000000E+00 0. -1.
          5    1    1    2  502    0 -0.49656347428E+02  0.16678731274E+02 -0.72923730024E+02  0.89910473903E+02  0.47000000000E+01 0. -1.
         -5    1    1    2    0  502  0.62220198773E+02  0.17072340471E+02 -0.12989789609E+02  0.65982138330E+02  0.47000000000E+01 0. -1.
        -11    1    1    2    0    0 -0.15873423693E+01 -0.49022558571E+02 -0.26530027697E+03  0.26979615984E+03  0.00000000000E+00 0. -1.
         11    1    1    2    0    0 -0.10976508976E+02  0.15271486826E+02 -0.80276094428E+01  0.20448583632E+02  0.00000000000E+00 0.  1.
<mgrwt>
<rscale>  0 0.12107990E+03</rscale>
<asrwt>0</asrwt>
<pdfrwt beam="2">  1        4 0.61952208E-01 0.13008218E+03</pdfrwt>
<pdfrwt beam="1">  1       -4 0.66843043E-02 0.13008218E+03</pdfrwt>
<totfact> 0.60606338E+02</totfact>
</mgrwt>
</event>
<event>
 6    1  0.7270761E-006  0.1697101E+03  0.7546771E-02  0.1184956E+00
         -2   -1    0    0    0  501 -0.00000000000E+00  0.00000000000E+00  0.35026651870E+03  0.35026651870E+03  0.00000000000E+00 0.  1.
          2   -1    0    0  501    0  0.00000000000E+00 -0.00000000000E+00 -0.96416579030E+02  0.96416579030E+02  0.00000000000E+00 0. -1.
          5    1    1    2  502    0  0.88788763349E+02 -0.10198704958E+03  0.21880189052E+03  0.25725699228E+03  0.47000000000E+01 0.  1.
         -5    1    1    2    0  502 -0.31557019984E+02  0.24838722744E+01  0.29658175251E+02  0.43631553845E+02  0.47000000000E+01 0.  1.
        -11    1    1    2    0    0 -0.23585606431E+02 -0.35737638573E+01 -0.23600631532E+02  0.33556555657E+02  0.00000000000E+00 0. -1.
         11    1    1    2    0    0 -0.33646136934E+02  0.10307694116E+03  0.28990505425E+02  0.11223799595E+03  0.00000000000E+00 0.  1.
<mgrwt>
<rscale>  0 0.16335853E+03</rscale>
<asrwt>0</asrwt>
<pdfrwt beam="2">  1        2 0.14833320E-01 0.16971008E+03</pdfrwt>
<pdfrwt beam="1">  1       -2 0.53887156E-01 0.16971008E+03</pdfrwt>
<totfact> 0.12832916E+03</totfact>
</mgrwt>
</event>
<event>
 6    1  0.7270761E-006  0.1311943E+03  0.7546771E-02  0.1266878E+00
          2   -1    0    0  501    0  0.00000000000E+00  0.00000000000E+00  0.13664195135E+03  0.13664195135E+03  0.00000000000E+00 0.  1.
         -2   -1    0    0    0  501 -0.00000000000E+00 -0.00000000000E+00 -0.72709834622E+02  0.72709834622E+02  0.00000000000E+00 0. -1.
          5    1    1    2  502    0  0.13199819802E+02 -0.75177198571E+02 -0.12829888178E+02  0.77540585879E+02  0.47000000000E+01 0. -1.
         -5    1    1    2    0  502  0.14009143572E+02  0.46051782369E+02  0.24378442265E+02  0.54161067293E+02  0.47000000000E+01 0. -1.
        -11    1    1    2    0    0 -0.27414255197E+02 -0.68272266065E+00  0.27248513789E+02  0.38658621315E+02  0.00000000000E+00 0.  1.
         11    1    1    2    0    0  0.20529182377E+00  0.29808138862E+02  0.25135048853E+02  0.38991511486E+02  0.00000000000E+00 0. -1.
<mgrwt>
<rscale>  0 0.10666246E+03</rscale>
<asrwt>0</asrwt>
<pdfrwt beam="1">  1        2 0.21021839E-01 0.13119435E+03</pdfrwt>
<pdfrwt beam="2">  1       -2 0.11186128E-01 0.13119435E+03</pdfrwt>
<totfact> 0.13543470E+04</totfact>
</mgrwt>
</event>
<event>
 6    1  0.7270761E-006  0.3256391E+03  0.7546771E-02  0.1073083E+00
         -1   -1    0    0    0  501 -0.00000000000E+00  0.00000000000E+00  0.86397001303E+02  0.86397001303E+02  0.00000000000E+00 0.  1.
          1   -1    0    0  501    0  0.00000000000E+00 -0.00000000000E+00 -0.30684174428E+03  0.30684174428E+03  0.00000000000E+00 0. -1.
          5    1    1    2  502    0 -0.25101528770E+02 -0.13548169135E+02 -0.18588705053E+02  0.34369602690E+02  0.47000000000E+01 0.  1.
         -5    1    1    2    0  502  0.75329557573E+02  0.12423428156E+03 -0.10797886625E+03  0.18108071271E+03  0.47000000000E+01 0.  1.
        -11    1    1    2    0    0 -0.56776501062E+01 -0.42709803005E+02  0.11610512937E+02  0.44622494261E+02  0.00000000000E+00 0.  1.
         11    1    1    2    0    0 -0.44550378697E+02 -0.67976309424E+02 -0.10548768461E+03  0.13316593592E+03  0.00000000000E+00 0. -1.
<mgrwt>
<rscale>  0 0.32563910E+03</rscale>
<asrwt>0</asrwt>
<pdfrwt beam="2">  1        1 0.47206422E-01 0.32563910E+03</pdfrwt>
<pdfrwt beam="1">  1       -1 0.13291846E-01 0.32563910E+03</pdfrwt>
<totfact> 0.33211263E+03</totfact>
</mgrwt>
</event>
<event>
 6    1  0.7270761E-006  0.3409106E+03  0.7546771E-02  0.1067655E+00
          2   -1    0    0  501    0  0.00000000000E+00  0.00000000000E+00  0.18833001471E+04  0.18833001471E+04  0.00000000000E+00 0.  1.
         -2   -1    0    0    0  501 -0.00000000000E+00 -0.00000000000E+00 -0.77277730404E+02  0.77277730404E+02  0.00000000000E+00 0. -1.
          5    1    1    2  502    0 -0.97065912281E+02 -0.40518658588E+02  0.78692013726E+02  0.13144609559E+03  0.47000000000E+01 0.  1.
         -5    1    1    2    0  502 -0.12797391253E+03 -0.18297860114E+03  0.36805741172E+03  0.43051926680E+03  0.47000000000E+01 0.  1.
        -11    1    1    2    0    0  0.21713006135E+03  0.17360770134E+03  0.11845101563E+04  0.12166961034E+04  0.00000000000E+00 0. -1.
         11    1    1    2    0    0  0.79097634606E+01  0.49889558383E+02  0.17476283492E+03  0.18191641175E+03  0.00000000000E+00 0.  1.
<mgrwt>
<rscale>  0 0.33799169E+03</rscale>
<asrwt>0</asrwt>
<pdfrwt beam="1">  1        2 0.28973845E+00 0.34091057E+03</pdfrwt>
<pdfrwt beam="2">  1       -2 0.11888883E-01 0.34091057E+03</pdfrwt>
<totfact> 0.42592346E+02</totfact>
</mgrwt>
</event>
<event>
 6    1  0.7270761E-006  0.1503658E+03  0.7546771E-02  0.1209625E+00
          4   -1    0    0  501    0  0.00000000000E+00  0.00000000000E+00  0.23529444670E+03  0.23529444670E+03  0.00000000000E+00 0.  1.
         -4   -1    0    0    0  501 -0.00000000000E+00 -0.00000000000E+00 -0.10560158354E+03  0.10560158354E+03  0.00000000000E+00 0. -1.
          5    1    1    2  502    0 -0.94939156208E+02  0.31961858037E+02 -0.27282808841E+02  0.10393000245E+03  0.47000000000E+01 0. -1.
         -5    1    1    2    0  502  0.12186941271E+02 -0.43797134295E+02  0.11881363520E+02  0.47222529677E+02  0.47000000000E+01 0. -1.
        -11    1    1    2    0    0  0.66154856095E+02  0.32075415163E+02  0.44811418433E+02  0.86100873775E+02  0.00000000000E+00 0. -1.
         11    1    1    2    0    0  0.16597358843E+02 -0.20240138905E+02  0.10028289005E+03  0.10364262434E+03  0.00000000000E+00 0.  1.
<mgrwt>
<rscale>  0 0.14278838E+03</rscale>
<asrwt>0</asrwt>
<pdfrwt beam="1">  1        4 0.36199146E-01 0.15036583E+03</pdfrwt>
<pdfrwt beam="2">  1       -4 0.16246397E-01 0.15036583E+03</pdfrwt>
<totfact> 0.41037109E+02</totfact>
</mgrwt>
</event>
<event>
 6    1  0.7270761E-006  0.2766263E+03  0.7546771E-02  0.1099266E+00
         -1   -1    0    0    0  501 -0.00000000000E+00  0.00000000000E+00  0.15304020437E+03  0.15304020437E+03  0.00000000000E+00 0.  1.
          1   -1    0    0  501    0  0.00000000000E+00 -0.00000000000E+00 -0.51519113088E+03  0.51519113088E+03  0.00000000000E+00 0. -1.
          5    1    1    2  502    0 -0.23418908088E+03 -0.61164215647E+02 -0.11602556432E+03  0.26845783366E+03  0.47000000000E+01 0. -1.
         -5    1    1    2    0  502 -0.15317482820E+01 -0.11867861925E+02  0.20499910427E+02  0.24197700862E+02  0.47000000000E+01 0. -1.
        -11    1    1    2    0    0  0.16109889466E+03  0.63329728496E+02 -0.11955831532E+03  0.21037513906E+03  0.00000000000E+00 0.  1.
         11    1    1    2    0    0  0.74621934494E+02  0.97023490766E+01 -0.14706695730E+03  0.16520066166E+03  0.00000000000E+00 0. -1.
<mgrwt>
<rscale>  0 0.27354744E+03</rscale>
<asrwt>0</asrwt>
<pdfrwt beam="2">  1        1 0.79260175E-01 0.27662630E+03</pdfrwt>
<pdfrwt beam="1">  1       -1 0.23544647E-01 0.27662630E+03</pdfrwt>
<totfact> 0.67019672E+02</totfact>
</mgrwt>
</event>
<event>
 6    1  0.7270761E-006  0.1339029E+03  0.7546771E-02  0.1234123E+00
          1   -1    0    0  501    0  0.00000000000E+00  0.00000000000E+00  0.22617830094E+03  0.22617830094E+03  0.00000000000E+00 0. -1.
         -1   -1    0    0    0  501 -0.00000000000E+00 -0.00000000000E+00 -0.62397160103E+02  0.62397160103E+02  0.00000000000E+00 0.  1.
          5    1    1    2  502    0  0.32128946706E+02  0.23916318622E+02  0.12212331358E+03  0.12860969339E+03  0.47000000000E+01 0. -1.
         -5    1    1    2    0  502  0.24939049889E+01  0.93494790312E+01 -0.31361122441E+02  0.33154823495E+02  0.47000000000E+01 0. -1.
        -11    1    1    2    0    0 -0.24398333414E+02 -0.44369555048E+02 -0.16198154809E+01  0.50661226700E+02  0.00000000000E+00 0.  1.
         11    1    1    2    0    0 -0.10224518281E+02  0.11103757394E+02  0.74638765176E+02  0.76149717461E+02  0.00000000000E+00 0. -1.
<mgrwt>
<rscale>  0 0.12560725E+03</rscale>
<asrwt>0</asrwt>
<pdfrwt beam="1">  1        1 0.34796661E-01 0.13390289E+03</pdfrwt>
<pdfrwt beam="2">  1       -1 0.95995632E-02 0.13390289E+03</pdfrwt>
<totfact> 0.77183604E+03</totfact>
</mgrwt>
</event>
<event>
 6    1  0.7270761E-006  0.1314706E+03  0.7546771E-02  0.1239207E+00
         -2   -1    0    0    0  501 -0.00000000000E+00  0.00000000000E+00  0.16367326026E+03  0.16367326026E+03  0.00000000000E+00 0. -1.
          2   -1    0    0  501    0  0.00000000000E+00 -0.00000000000E+00 -0.82656573248E+02  0.82656573248E+02  0.00000000000E+00 0.  1.
          5    1    1    2  502    0  0.14335928687E+02 -0.52366754981E+02  0.44872077541E+02  0.70593124463E+02  0.47000000000E+01 0.  1.
         -5    1    1    2    0  502  0.22662580882E+02  0.69346663240E+02  0.18806254566E+02  0.75487200807E+02  0.47000000000E+01 0.  1.
        -11    1    1    2    0    0  0.25748169856E+02 -0.10578990186E+02  0.24094801339E+02  0.36816337893E+02  0.00000000000E+00 0. -1.
         11    1    1    2    0    0 -0.62746679426E+02 -0.64009180729E+01 -0.67564464371E+01  0.63433170341E+02  0.00000000000E+00 0.  1.
<mgrwt>
<rscale>  0 0.12238932E+03</rscale>
<asrwt>0</asrwt>
<pdfrwt beam="2">  1        2 0.12716396E-01 0.13147065E+03</pdfrwt>
<pdfrwt beam="1">  1       -2 0.25180501E-01 0.13147065E+03</pdfrwt>
<totfact> 0.63139792E+03</totfact>
</mgrwt>
</event>
<event>
 6    1  0.7270761E-006  0.1277047E+03  0.7546771E-02  0.1245282E+00
         -1   -1    0    0    0  501 -0.00000000000E+00  0.00000000000E+00  0.44307686372E+02  0.44307686372E+02  0.00000000000E+00 0.  1.
          1   -1    0    0  501    0  0.00000000000E+00 -0.00000000000E+00 -0.33250015974E+03  0.33250015974E+03  0.00000000000E+00 0. -1.
          5    1    1    2  502    0  0.14561388853E+02 -0.23734487812E+02 -0.99826718353E+02  0.10374402949E+03  0.47000000000E+01 0. -1.
         -5    1    1    2    0  502 -0.74281307924E+01  0.49152604149E+02  0.11865200073E+02  0.51322788257E+02  0.47000000000E+01 0.  1.
        -11    1    1    2    0    0  0.21019385545E+02  0.18070807993E+02 -0.19918230112E+02  0.34133628008E+02  0.00000000000E+00 0.  1.
         11    1    1    2    0    0 -0.28152643606E+02 -0.43488924331E+02 -0.18031272498E+03  0.18760740036E+03  0.00000000000E+00 0. -1.
<mgrwt>
<rscale>  0 0.11868500E+03</rscale>
<asrwt>0</asrwt>
<pdfrwt beam="2">  1        1 0.51153870E-01 0.12770470E+03</pdfrwt>
<pdfrwt beam="1">  1       -1 0.68165672E-02 0.12770470E+03</pdfrwt>
<totfact> 0.80065022E+03</totfact>
</mgrwt>
</event>
<event>
 6    1  0.7270761E-006  0.1418260E+03  0.7546771E-02  0.1221251E+00
         -2   -1    0    0    0  501 -0.00000000000E+00  0.00000000000E+00  0.16406106676E+02  0.16406106676E+02  0.00000000000E+00 0.  1.
          2   -1    0    0  501    0  0.00000000000E+00 -0.00000000000E+00 -0.10199617768E+04  0.10199617768E+04  0.00000000000E+00 0. -1.
          5    1    1    2  502    0  0.35392806665E+02 -0.26921932267E+01 -0.27618454402E+02  0.45219107593E+02  0.47000000000E+01 0.  1.
         -5    1    1    2    0  502  0.11387134608E+02  0.50662760246E+02 -0.45003785630E+03  0.45304805950E+03  0.47000000000E+01 0.  1.
        -11    1    1    2    0    0 -0.62684327535E+02 -0.12806476288E+01 -0.24447563182E+03  0.25238720160E+03  0.00000000000E+00 0.  1.
         11    1    1    2    0    0  0.15904386262E+02 -0.46689919391E+02 -0.28142372756E+03  0.28571351475E+03  0.00000000000E+00 0. -1.
<mgrwt>
<rscale>  0 0.13427206E+03</rscale>
<asrwt>0</asrwt>
<pdfrwt beam="2">  1        2 0.15691722E+00 0.14182602E+03</pdfrwt>
<pdfrwt beam="1">  1       -2 0.25240160E-02 0.14182602E+03</pdfrwt>
<totfact> 0.13463459E+04</totfact>
</mgrwt>
</event>
<event>
 6    1  0.7270761E-006  0.1295201E+03  0.7546771E-02  0.1242399E+00
         -1   -1    0    0    0  501 -0.00000000000E+00  0.00000000000E+00  0.28374090727E+02  0.28374090727E+02  0.00000000000E+00 0.  1.
          1   -1    0    0  501    0  0.00000000000E+00 -0.00000000000E+00 -0.47379902491E+03  0.47379902491E+03  0.00000000000E+00 0. -1.
          5    1    1    2  502    0  0.21858906398E+02  0.56752496750E+02 -0.55915255850E+02  0.82748193413E+02  0.47000000000E+01 0.  1.
         -5    1    1    2    0  502  0.12060766963E+02 -0.57296775033E+02 -0.14327063102E+03  0.15484491029E+03  0.47000000000E+01 0.  1.
        -11    1    1    2    0    0 -0.44346378631E+02 -0.31375886309E+02 -0.92988303185E+02  0.10769341702E+03  0.00000000000E+00 0.  1.
         11    1    1    2    0    0  0.10426705270E+02  0.31920164592E+02 -0.15325074413E+03  0.15688659492E+03  0.00000000000E+00 0. -1.
<mgrwt>
<rscale>  0 0.12042430E+03</rscale>
<asrwt>0</asrwt>
<pdfrwt beam="2">  1        1 0.72892156E-01 0.12952014E+03</pdfrwt>
<pdfrwt beam="1">  1       -1 0.43652448E-02 0.12952014E+03</pdfrwt>
<totfact> 0.99308519E+03</totfact>
</mgrwt>
</event>
<event>
 6    1  0.7270761E-006  0.3798818E+03  0.7546771E-02  0.1050977E+00
         -2   -1    0    0    0  501 -0.00000000000E+00  0.00000000000E+00  0.37228939241E+02  0.37228939241E+02  0.00000000000E+00 0.  1.
          2   -1    0    0  501    0  0.00000000000E+00 -0.00000000000E+00 -0.96907283541E+03  0.96907283541E+03  0.00000000000E+00 0. -1.
          5    1    1    2  502    0 -0.19532136324E+02 -0.70242609525E+00 -0.88552157046E+02  0.90805133496E+02  0.47000000000E+01 0.  1.
         -5    1    1    2    0  502  0.10656886893E+03 -0.29175821531E+02 -0.68915556942E+02  0.13030578028E+03  0.47000000000E+01 0.  1.
        -11    1    1    2    0    0 -0.30908108077E+02 -0.33250163327E+02 -0.26971491272E+03  0.27350871768E+03  0.00000000000E+00 0.  1.
         11    1    1    2    0    0 -0.56128624527E+02  0.63128410953E+02 -0.50466126947E+03  0.51168214319E+03  0.00000000000E+00 0. -1.
<mgrwt>
<rscale>  0 0.37988184E+03</rscale>
<asrwt>0</asrwt>
<pdfrwt beam="2">  1        2 0.14908813E+00 0.37988184E+03</pdfrwt>
<pdfrwt beam="1">  1       -2 0.57275292E-02 0.37988184E+03</pdfrwt>
<totfact> 0.43832521E+03</totfact>
</mgrwt>
</event>
<event>
 6    1  0.7270761E-006  0.3064105E+03  0.7546771E-02  0.1083153E+00
          2   -1    0    0  501    0  0.00000000000E+00  0.00000000000E+00  0.77200260670E+03  0.77200260670E+03  0.00000000000E+00 0. -1.
         -2   -1    0    0    0  501 -0.00000000000E+00 -0.00000000000E+00 -0.13470583050E+03  0.13470583050E+03  0.00000000000E+00 0.  1.
          5    1    1    2  502    0 -0.10555230442E+03 -0.20128235528E+03  0.12067705017E+03  0.25737310651E+03  0.47000000000E+01 0.  1.
         -5    1    1    2    0  502 -0.78360186914E+02 -0.95240406150E+01  0.43262994826E+02  0.90137688922E+02  0.47000000000E+01 0.  1.
        -11    1    1    2    0    0  0.60242817315E+02  0.12165218561E+03  0.15382926765E+03  0.20516309338E+03  0.00000000000E+00 0.  1.
         11    1    1    2    0    0  0.12366967402E+03  0.89154210295E+02  0.31952746355E+03  0.35403454839E+03  0.00000000000E+00 0. -1.
<mgrwt>
<rscale>  0 0.30421363E+03</rscale>
<asrwt>0</asrwt>
<pdfrwt beam="1">  1        2 0.11876963E+00 0.30641053E+03</pdfrwt>
<pdfrwt beam="2">  1       -2 0.20723974E-01 0.30641053E+03</pdfrwt>
<totfact> 0.73542815E+02</totfact>
</mgrwt>
</event>
<event>
 6    1  0.7270761E-006  0.3540975E+03  0.7546771E-02  0.1060946E+00
          2   -1    0    0  501    0  0.00000000000E+00  0.00000000000E+00  0.22735740353E+03  0.22735740353E+03  0.00000000000E+00 0. -1.
         -2   -1    0    0    0  501 -0.00000000000E+00 -0.00000000000E+00 -0.13787214363E+03  0.13787214363E+03  0.00000000000E+00 0.  1.
          5    1    1    2  502    0 -0.12723073266E+03 -0.45213425125E+02 -0.46584451189E+02  0.14291296035E+03  0.47000000000E+01 0. -1.
         -5    1    1    2    0  502  0.15224033911E+02 -0.91252918294E+01  0.29059010599E+02  0.34373801892E+02  0.47000000000E+01 0. -1.
        -11    1    1    2    0    0  0.36896466320E+02 -0.25420017472E+02  0.27477385626E+02  0.52559806278E+02  0.00000000000E+00 0. -1.
         11    1    1    2    0    0  0.75110232428E+02  0.79758734427E+02  0.79533314856E+02  0.13538297864E+03  0.00000000000E+00 0.  1.
<mgrwt>
<rscale>  0 0.35409746E+03</rscale>
<asrwt>0</asrwt>
<pdfrwt beam="1">  1        2 0.34978062E-01 0.35409746E+03</pdfrwt>
<pdfrwt beam="2">  1       -2 0.21211099E-01 0.35409746E+03</pdfrwt>
<totfact> 0.28214783E+03</totfact>
</mgrwt>
</event>
<event>
 6    1  0.7270761E-006  0.1269595E+03  0.7546771E-02  0.1247321E+00
          1   -1    0    0  501    0  0.00000000000E+00  0.00000000000E+00  0.54623918602E+02  0.54623918602E+02  0.00000000000E+00 0. -1.
         -1   -1    0    0    0  501 -0.00000000000E+00 -0.00000000000E+00 -0.26026297591E+03  0.26026297591E+03  0.00000000000E+00 0.  1.
          5    1    1    2  502    0 -0.51600299079E+02 -0.31566947829E+02 -0.10617692335E+03  0.12228937858E+03  0.47000000000E+01 0.  1.
         -5    1    1    2    0  502  0.39490247271E+02  0.50212485774E+02 -0.70220368194E+02  0.95046112317E+02  0.47000000000E+01 0.  1.
        -11    1    1    2    0    0  0.15257212769E+02  0.22385304612E+02 -0.45785075376E+02  0.53199224912E+02  0.00000000000E+00 0.  1.
         11    1    1    2    0    0 -0.31471609618E+01 -0.41030842557E+02  0.16543309614E+02  0.44352178707E+02  0.00000000000E+00 0. -1.
<mgrwt>
<rscale>  0 0.11747517E+03</rscale>
<asrwt>0</asrwt>
<pdfrwt beam="1">  1        1 0.84036797E-02 0.12695949E+03</pdfrwt>
<pdfrwt beam="2">  1       -1 0.40040458E-01 0.12695949E+03</pdfrwt>
<totfact> 0.47616548E+03</totfact>
</mgrwt>
</event>
<event>
 6    1  0.7270761E-006  0.2669892E+03  0.7546771E-02  0.1104748E+00
          2   -1    0    0  501    0  0.00000000000E+00  0.00000000000E+00  0.57500710717E+02  0.57500710717E+02  0.00000000000E+00 0.  1.
         -2   -1    0    0    0  501 -0.00000000000E+00 -0.00000000000E+00 -0.15070333602E+04  0.15070333602E+04  0.00000000000E+00 0. -1.
          5    1    1    2  502    0  0.43188328457E+01  0.10909453814E+02 -0.56102574492E+01  0.13828719692E+02  0.47000000000E+01 0.  1.
         -5    1    1    2    0  502 -0.12809866424E+03  0.18992883283E+03 -0.10927769312E+04  0.11165418670E+04  0.47000000000E+01 0.  1.
        -11    1    1    2    0    0  0.46091619553E+02 -0.25692364305E+02 -0.13701381074E+03  0.14682411012E+03  0.00000000000E+00 0.  1.
         11    1    1    2    0    0  0.77688211837E+02 -0.17514592234E+03 -0.21413165012E+03  0.28733937418E+03  0.00000000000E+00 0. -1.
<mgrwt>
<rscale>  0 0.26402614E+03</rscale>
<asrwt>0</asrwt>
<pdfrwt beam="1">  1        2 0.88462647E-02 0.26698923E+03</pdfrwt>
<pdfrwt beam="2">  1       -2 0.23185125E+00 0.26698923E+03</pdfrwt>
<totfact> 0.68715002E+01</totfact>
</mgrwt>
</event>
<event>
 6    1  0.7270761E-006  0.1259647E+03  0.7546771E-02  0.1258612E+00
         -2   -1    0    0    0  501 -0.00000000000E+00  0.00000000000E+00  0.46722059754E+02  0.46722059754E+02  0.00000000000E+00 0. -1.
          2   -1    0    0  501    0  0.00000000000E+00 -0.00000000000E+00 -0.39018756085E+03  0.39018756085E+03  0.00000000000E+00 0.  1.
          5    1    1    2  502    0  0.31377524544E+02  0.10540547017E+02  0.34004321738E+02  0.47686854319E+02  0.47000000000E+01 0.  1.
         -5    1    1    2    0  502 -0.17483063280E+02 -0.37319267343E+01 -0.87050834821E+02  0.88991699736E+02  0.47000000000E+01 0.  1.
        -11    1    1    2    0    0  0.19781120291E+02 -0.28122203908E+02 -0.10185840118E+03  0.10750481368E+03  0.00000000000E+00 0.  1.
         11    1    1    2    0    0 -0.33675581555E+02  0.21313583625E+02 -0.18856058682E+03  0.19272625287E+03  0.00000000000E+00 0. -1.
<mgrwt>
<rscale>  0 0.11106390E+03</rscale>
<asrwt>0</asrwt>
<pdfrwt beam="2">  1        2 0.60028854E-01 0.12596466E+03</pdfrwt>
<pdfrwt beam="1">  1       -2 0.71880093E-02 0.12596466E+03</pdfrwt>
<totfact> 0.86820397E+03</totfact>
</mgrwt>
</event>
<event>
 6    1  0.7270761E-006  0.1257398E+03  0.7546771E-02  0.1250267E+00
          1   -1    0    0  501    0  0.00000000000E+00  0.00000000000E+00  0.95648211561E+02  0.95648211561E+02  0.00000000000E+00 0. -1.
         -1   -1    0    0    0  501 -0.00000000000E+00 -0.00000000000E+00 -0.16012017359E+03  0.16012017359E+03  0.00000000000E+00 0.  1.
          5    1    1    2  502    0  0.53410375282E+02 -0.81162273374E+01 -0.17988994108E+02  0.57133486179E+02  0.47000000000E+01 0. -1.
         -5    1    1    2    0  502 -0.60406825784E+02  0.19725760922E+02 -0.80023819361E+02  0.10229365528E+03  0.47000000000E+01 0. -1.
        -11    1    1    2    0    0  0.19490561653E+02 -0.45555001817E+02  0.41293486540E+01  0.49721139412E+02  0.00000000000E+00 0.  1.
         11    1    1    2    0    0 -0.12494111151E+02  0.33945468232E+02  0.29411502786E+02  0.46620104280E+02  0.00000000000E+00 0. -1.
<mgrwt>
<rscale>  0 0.11575602E+03</rscale>
<asrwt>0</asrwt>
<pdfrwt beam="1">  1        1 0.14715109E-01 0.12573982E+03</pdfrwt>
<pdfrwt beam="2">  1       -1 0.24633873E-01 0.12573982E+03</pdfrwt>
<totfact> 0.51748579E+03</totfact>
</mgrwt>
</event>
<event>
 6    1  0.7270761E-006  0.3965453E+03  0.7546771E-02  0.1044983E+00
         -1   -1    0    0    0  501 -0.00000000000E+00  0.00000000000E+00  0.67354247382E+02  0.67354247382E+02  0.00000000000E+00 0.  1.
          1   -1    0    0  501    0  0.00000000000E+00 -0.00000000000E+00 -0.58366107267E+03  0.58366107267E+03  0.00000000000E+00 0. -1.
          5    1    1    2  502    0  0.13711462185E+01  0.16885688362E+02 -0.10612312336E+03  0.10756957667E+03  0.47000000000E+01 0.  1.
         -5    1    1    2    0  502 -0.51111466262E+02  0.12667241999E+03 -0.57380534317E+02  0.14823258646E+03  0.47000000000E+01 0.  1.
        -11    1    1    2    0    0  0.70641740027E+02 -0.76545848294E+02 -0.24894411616E+03  0.26985680516E+03  0.00000000000E+00 0.  1.
         11    1    1    2    0    0 -0.20901419984E+02 -0.67012260063E+02 -0.10385905146E+03  0.12535635176E+03  0.00000000000E+00 0. -1.
<mgrwt>
<rscale>  0 0.39654534E+03</rscale>
<asrwt>0</asrwt>
<pdfrwt beam="2">  1        1 0.89794014E-01 0.39654534E+03</pdfrwt>
<pdfrwt beam="1">  1       -1 0.10362192E-01 0.39654534E+03</pdfrwt>
<totfact> 0.21158047E+03</totfact>
</mgrwt>
</event>
<event>
 6    1  0.7552601E-006  0.3427406E+03  0.7546771E-02  0.1065635E+00
          1   -1    0    0  501    0  0.00000000000E+00  0.00000000000E+00  0.82583039318E+02  0.82583039318E+02  0.00000000000E+00 0. -1.
         -1   -1    0    0    0  501 -0.00000000000E+00 -0.00000000000E+00 -0.35561510446E+03  0.35561510446E+03  0.00000000000E+00 0.  1.
          5    1    1    2  502    0  0.92455619318E+02 -0.46539567134E+02 -0.25367863010E+03  0.27402355779E+03  0.47000000000E+01 0.  1.
         -5    1    1    2    0  502 -0.17798471140E+02 -0.20737450750E+02 -0.20029792334E+01  0.27801607225E+02  0.47000000000E+01 0.  1.
        -11    1    1    2    0    0  0.11290695367E+02  0.43923467375E+02 -0.13108529781E+02  0.47207884311E+02  0.00000000000E+00 0.  1.
         11    1    1    2    0    0 -0.85947843546E+02  0.23353550509E+02 -0.42419260207E+01  0.89165094448E+02  0.00000000000E+00 0. -1.
<mgrwt>
<rscale>  0 0.34274058E+03</rscale>
<asrwt>0</asrwt>
<pdfrwt beam="1">  1        1 0.12705083E-01 0.34274058E+03</pdfrwt>
<pdfrwt beam="2">  1       -1 0.54710016E-01 0.34274058E+03</pdfrwt>
<totfact> 0.16174295E+03</totfact>
</mgrwt>
</event>
<event>
 6    1  0.7270761E-006  0.1246394E+03  0.7546771E-02  0.1242402E+00
         -2   -1    0    0    0  501 -0.00000000000E+00  0.00000000000E+00  0.16704353427E+02  0.16704353427E+02  0.00000000000E+00 0.  1.
          2   -1    0    0  501    0  0.00000000000E+00 -0.00000000000E+00 -0.81544876578E+03  0.81544876578E+03  0.00000000000E+00 0. -1.
          5    1    1    2  502    0  0.25023750266E+02  0.71914088522E+02 -0.18617412778E+03  0.20119821088E+03  0.47000000000E+01 0. -1.
         -5    1    1    2    0  502 -0.29029711609E+02 -0.16129840834E+02 -0.25665072920E+03  0.25883311751E+03  0.47000000000E+01 0.  1.
        -11    1    1    2    0    0  0.73464698754E+01 -0.80569577460E+02 -0.23194959333E+03  0.24565431256E+03  0.00000000000E+00 0.  1.
         11    1    1    2    0    0 -0.33405085326E+01  0.24785329773E+02 -0.12396996204E+03  0.12646747826E+03  0.00000000000E+00 0. -1.
<mgrwt>
<rscale>  0 0.12042254E+03</rscale>
<asrwt>0</asrwt>
<pdfrwt beam="2">  1        2 0.12545362E+00 0.12463936E+03</pdfrwt>
<pdfrwt beam="1">  1       -2 0.25699013E-02 0.12463936E+03</pdfrwt>
<totfact> 0.17447199E+04</totfact>
</mgrwt>
</event>
<event>
 6    1  0.7270761E-006  0.1711673E+03  0.7546771E-02  0.1206522E+00
          3   -1    0    0  501    0  0.00000000000E+00  0.00000000000E+00  0.15091270410E+03  0.15091270410E+03  0.00000000000E+00 0. -1.
         -3   -1    0    0    0  501 -0.00000000000E+00 -0.00000000000E+00 -0.30541702975E+03  0.30541702975E+03  0.00000000000E+00 0.  1.
          5    1    1    2  502    0  0.23410557326E+02  0.71750946702E+02 -0.13058355807E+03  0.15089866860E+03  0.47000000000E+01 0. -1.
         -5    1    1    2    0  502 -0.50336005208E+02 -0.80358507393E+02 -0.13394249728E+03  0.16417638596E+03  0.47000000000E+01 0.  1.
        -11    1    1    2    0    0  0.35139759940E+01  0.27398350600E+02  0.10765428359E+03  0.11114163224E+03  0.00000000000E+00 0. -1.
         11    1    1    2    0    0  0.23411471888E+02 -0.18790789909E+02  0.23674461078E+01  0.30113047047E+02  0.00000000000E+00 0.  1.
<mgrwt>
<rscale>  0 0.14518149E+03</rscale>
<asrwt>0</asrwt>
<pdfrwt beam="1">  1        3 0.23217339E-01 0.17116733E+03</pdfrwt>
<pdfrwt beam="2">  1       -3 0.46987235E-01 0.17116733E+03</pdfrwt>
<totfact> 0.18673966E+02</totfact>
</mgrwt>
</event>
<event>
 6    1  0.7270761E-006  0.2964052E+03  0.7546771E-02  0.1134581E+00
         -1   -1    0    0    0  501 -0.00000000000E+00  0.00000000000E+00  0.11083150332E+03  0.11083150332E+03  0.00000000000E+00 0.  1.
          1   -1    0    0  501    0  0.00000000000E+00 -0.00000000000E+00 -0.52064441638E+03  0.52064441638E+03  0.00000000000E+00 0. -1.
          5    1    1    2  502    0 -0.11059150764E+03  0.52249628552E+02 -0.27867691783E+02  0.12553566621E+03  0.47000000000E+01 0. -1.
         -5    1    1    2    0  502  0.15678452429E+03 -0.71559522872E+02 -0.77709869756E+02  0.18911125357E+03  0.47000000000E+01 0.  1.
        -11    1    1    2    0    0 -0.43359286767E+02  0.34588627756E+02 -0.29152237859E+03  0.29675191345E+03  0.00000000000E+00 0. -1.
         11    1    1    2    0    0 -0.28337298848E+01 -0.15278733437E+02 -0.12712972937E+02  0.20077086477E+02  0.00000000000E+00 0.  1.
<mgrwt>
<rscale>  0 0.21906622E+03</rscale>
<asrwt>0</asrwt>
<pdfrwt beam="2">  1        1 0.80099142E-01 0.29640523E+03</pdfrwt>
<pdfrwt beam="1">  1       -1 0.17051000E-01 0.29640523E+03</pdfrwt>
<totfact> 0.11197657E+03</totfact>
</mgrwt>
</event>
<event>
 6    1  0.7270761E-006  0.1571340E+03  0.7546771E-02  0.1199961E+00
          3   -1    0    0  501    0  0.00000000000E+00  0.00000000000E+00  0.17005933322E+03  0.17005933322E+03  0.00000000000E+00 0. -1.
         -3   -1    0    0    0  501 -0.00000000000E+00 -0.00000000000E+00 -0.12704000137E+03  0.12704000137E+03  0.00000000000E+00 0.  1.
          5    1    1    2  502    0 -0.26226189251E+02  0.16116965902E+02  0.14751785054E+01  0.31174280171E+02  0.47000000000E+01 0.  1.
         -5    1    1    2    0  502  0.10029964144E+03 -0.75950681080E+02 -0.50464651438E+01  0.12600032079E+03  0.47000000000E+01 0.  1.
        -11    1    1    2    0    0 -0.59520394334E+02  0.77796714049E+02  0.12519827509E+02  0.98750960195E+02  0.00000000000E+00 0.  1.
         11    1    1    2    0    0 -0.14553057851E+02 -0.17962998871E+02  0.34070790978E+02  0.41173773438E+02  0.00000000000E+00 0. -1.
<mgrwt>
<rscale>  0 0.15041704E+03</rscale>
<asrwt>0</asrwt>
<pdfrwt beam="1">  1        3 0.26162974E-01 0.15713402E+03</pdfrwt>
<pdfrwt beam="2">  1       -3 0.19544616E-01 0.15713402E+03</pdfrwt>
<totfact> 0.76348269E+02</totfact>
</mgrwt>
</event>
<event>
 6    1  0.7270761E-006  0.1581011E+03  0.7546771E-02  0.1198934E+00
          1   -1    0    0  501    0  0.00000000000E+00  0.00000000000E+00  0.65004982207E+03  0.65004982207E+03  0.00000000000E+00 0. -1.
         -1   -1    0    0    0  501 -0.00000000000E+00 -0.00000000000E+00 -0.39270059412E+02  0.39270059412E+02  0.00000000000E+00 0.  1.
          5    1    1    2  502    0  0.28010503340E+02 -0.38091583585E+02  0.59229078633E+02  0.75932409373E+02  0.47000000000E+01 0. -1.
         -5    1    1    2    0  502  0.46163812674E+02  0.10028670695E+03  0.12547386862E+03  0.16719540334E+03  0.47000000000E+01 0. -1.
        -11    1    1    2    0    0 -0.51172649556E+02  0.13171341448E+02  0.19588463601E+03  0.20288645820E+03  0.00000000000E+00 0.  1.
         11    1    1    2    0    0 -0.23001666459E+02 -0.75366464812E+02  0.23019217940E+03  0.24330561057E+03  0.00000000000E+00 0. -1.
<mgrwt>
<rscale>  0 0.15125966E+03</rscale>
<asrwt>0</asrwt>
<pdfrwt beam="1">  1        1 0.10000766E+00 0.15810109E+03</pdfrwt>
<pdfrwt beam="2">  1       -1 0.60415481E-02 0.15810109E+03</pdfrwt>
<totfact> 0.40599944E+03</totfact>
</mgrwt>
</event>
<event>
 6    1  0.7270761E-006  0.1514803E+03  0.7546771E-02  0.1207633E+00
         -2   -1    0    0    0  501 -0.00000000000E+00  0.00000000000E+00  0.33735096493E+03  0.33735096493E+03  0.00000000000E+00 0.  1.
          2   -1    0    0  501    0  0.00000000000E+00 -0.00000000000E+00 -0.84282376705E+02  0.84282376705E+02  0.00000000000E+00 0. -1.
          5    1    1    2  502    0  0.33327614674E+02 -0.76615926396E+02  0.13662692001E+03  0.16021777476E+03  0.47000000000E+01 0.  1.
         -5    1    1    2    0  502  0.47373146039E+02  0.48175989138E+02  0.11862043071E+03  0.13659442696E+03  0.47000000000E+01 0.  1.
        -11    1    1    2    0    0 -0.45583209538E+02  0.59085605090E+02  0.13111092954E+02  0.75768321079E+02  0.00000000000E+00 0.  1.
         11    1    1    2    0    0 -0.35117551175E+02 -0.30645667831E+02 -0.15289855438E+02  0.49052818845E+02  0.00000000000E+00 0. -1.
<mgrwt>
<rscale>  0 0.14431868E+03</rscale>
<asrwt>0</asrwt>
<pdfrwt beam="2">  1        2 0.12966520E-01 0.15148027E+03</pdfrwt>
<pdfrwt beam="1">  1       -2 0.51900148E-01 0.15148027E+03</pdfrwt>
<totfact> 0.16162886E+03</totfact>
</mgrwt>
</event>
<event>
 6    1  0.7270761E-006  0.1421325E+03  0.7546771E-02  0.1240212E+00
          2   -1    0    0  501    0  0.00000000000E+00  0.00000000000E+00  0.50139908190E+02  0.50139908190E+02  0.00000000000E+00 0. -1.
         -2   -1    0    0    0  501 -0.00000000000E+00 -0.00000000000E+00 -0.24743922555E+03  0.24743922555E+03  0.00000000000E+00 0.  1.
          5    1    1    2  502    0 -0.25841770353E+02 -0.31348479646E+02 -0.17086797239E+03  0.17569427497E+03  0.47000000000E+01 0. -1.
         -5    1    1    2    0  502 -0.27422986000E+02 -0.10363266043E+02  0.16642824837E+02  0.34036613563E+02  0.47000000000E+01 0. -1.
        -11    1    1    2    0    0  0.37842465192E+02  0.32892400998E+02 -0.11227221359E+02  0.51381054044E+02  0.00000000000E+00 0. -1.
         11    1    1    2    0    0  0.15422291161E+02  0.88193446915E+01 -0.31846948451E+02  0.36467191160E+02  0.00000000000E+00 0.  1.
<mgrwt>
<rscale>  0 0.12176575E+03</rscale>
<asrwt>0</asrwt>
<pdfrwt beam="1">  1        2 0.77138322E-02 0.14213251E+03</pdfrwt>
<pdfrwt beam="2">  1       -2 0.38067572E-01 0.14213251E+03</pdfrwt>
<totfact> 0.55542622E+03</totfact>
</mgrwt>
</event>
<event>
 6    1  0.7270761E-006  0.2623160E+03  0.7546771E-02  0.1131590E+00
          2   -1    0    0  501    0  0.00000000000E+00  0.00000000000E+00  0.10855518796E+03  0.10855518796E+03  0.00000000000E+00 0. -1.
         -2   -1    0    0    0  501 -0.00000000000E+00 -0.00000000000E+00 -0.65653637114E+03  0.65653637114E+03  0.00000000000E+00 0.  1.
          5    1    1    2  502    0 -0.54204280252E+02  0.67772669438E+02 -0.61103528538E+02  0.10624015211E+03  0.47000000000E+01 0. -1.
         -5    1    1    2    0  502 -0.42556595772E+02 -0.10467589941E+03 -0.50758699501E+03  0.52003341745E+03  0.47000000000E+01 0.  1.
        -11    1    1    2    0    0  0.51760230721E+02  0.33527230690E+02 -0.31960408413E+02  0.69459804117E+02  0.00000000000E+00 0.  1.
         11    1    1    2    0    0  0.45000645303E+02  0.33759992819E+01  0.52669748786E+02  0.69358185429E+02  0.00000000000E+00 0. -1.
<mgrwt>
<rscale>  0 0.22310441E+03</rscale>
<asrwt>0</asrwt>
<pdfrwt beam="1">  1        2 0.16700799E-01 0.26231598E+03</pdfrwt>
<pdfrwt beam="2">  1       -2 0.10100559E+00 0.26231598E+03</pdfrwt>
<totfact> 0.28805221E+02</totfact>
</mgrwt>
</event>
<event>
 6    1  0.7270761E-006  0.1395508E+03  0.7546771E-02  0.1225516E+00
          1   -1    0    0  501    0  0.00000000000E+00  0.00000000000E+00  0.24795130358E+02  0.24795130358E+02  0.00000000000E+00 0. -1.
         -1   -1    0    0    0  501 -0.00000000000E+00 -0.00000000000E+00 -0.62912251044E+03  0.62912251044E+03  0.00000000000E+00 0.  1.
          5    1    1    2  502    0  0.59804271054E+02  0.67315826568E+02 -0.15357500275E+03  0.17808801985E+03  0.47000000000E+01 0.  1.
         -5    1    1    2    0  502 -0.39910115851E+01 -0.40736780686E+02 -0.15850343849E+03  0.16377070400E+03  0.47000000000E+01 0.  1.
        -11    1    1    2    0    0 -0.77644196249E+02 -0.18055105007E+02 -0.26160241651E+03  0.27347839467E+03  0.00000000000E+00 0.  1.
         11    1    1    2    0    0  0.21830936780E+02 -0.85239408755E+01 -0.30646522331E+02  0.38580522284E+02  0.00000000000E+00 0. -1.
<mgrwt>
<rscale>  0 0.13131583E+03</rscale>
<asrwt>0</asrwt>
<pdfrwt beam="1">  1        1 0.38146357E-02 0.13955083E+03</pdfrwt>
<pdfrwt beam="2">  1       -1 0.96788073E-01 0.13955083E+03</pdfrwt>
<totfact> 0.25497400E+03</totfact>
</mgrwt>
</event>
<event>
 6    1  0.7270761E-006  0.2150026E+03  0.7546771E-02  0.1139596E+00
         -2   -1    0    0    0  501 -0.00000000000E+00  0.00000000000E+00  0.18404790993E+03  0.18404790993E+03  0.00000000000E+00 0.  1.
          2   -1    0    0  501    0  0.00000000000E+00 -0.00000000000E+00 -0.42255731904E+03  0.42255731904E+03  0.00000000000E+00 0. -1.
          5    1    1    2  502    0 -0.11945335612E+03 -0.35775897794E+02 -0.18086280501E+01  0.12479735689E+03  0.47000000000E+01 0. -1.
         -5    1    1    2    0  502 -0.62852397938E+02  0.20120453412E+02  0.80391919463E+02  0.10411631614E+03  0.47000000000E+01 0.  1.
        -11    1    1    2    0    0  0.10147203971E+03 -0.37793855102E+02 -0.16651971329E+03  0.19862971893E+03  0.00000000000E+00 0.  1.
         11    1    1    2    0    0  0.80833714344E+02  0.53449299483E+02 -0.15057298723E+03  0.17906183701E+03  0.00000000000E+00 0. -1.
<mgrwt>
<rscale>  0 0.21250646E+03</rscale>
<asrwt>0</asrwt>
<pdfrwt beam="2">  1        2 0.65008818E-01 0.21500264E+03</pdfrwt>
<pdfrwt beam="1">  1       -2 0.28315063E-01 0.21500264E+03</pdfrwt>
<totfact> 0.85485331E+02</totfact>
</mgrwt>
</event>
<event>
 6    1  0.7270761E-006  0.1453988E+03  0.7546771E-02  0.1216471E+00
         -2   -1    0    0    0  501 -0.00000000000E+00  0.00000000000E+00  0.64048230531E+02  0.64048230531E+02  0.00000000000E+00 0.  1.
          2   -1    0    0  501    0  0.00000000000E+00 -0.00000000000E+00 -0.26895389084E+03  0.26895389084E+03  0.00000000000E+00 0. -1.
          5    1    1    2  502    0  0.13957592692E+02  0.54720411405E+02  0.88459157130E+01  0.57353971465E+02  0.47000000000E+01 0.  1.
         -5    1    1    2    0  502  0.23270989206E+02  0.95374667897E+01 -0.12828712993E+03  0.13081353109E+03  0.47000000000E+01 0.  1.
        -11    1    1    2    0    0 -0.62230403008E+02 -0.20096447343E+02 -0.56379262111E+02  0.86342987268E+02  0.00000000000E+00 0.  1.
         11    1    1    2    0    0  0.25001821110E+02 -0.44161430852E+02 -0.29085183986E+02  0.58491631548E+02  0.00000000000E+00 0. -1.
<mgrwt>
<rscale>  0 0.13769023E+03</rscale>
<asrwt>0</asrwt>
<pdfrwt beam="2">  1        2 0.41377522E-01 0.14539878E+03</pdfrwt>
<pdfrwt beam="1">  1       -2 0.98535739E-02 0.14539878E+03</pdfrwt>
<totfact> 0.79811356E+03</totfact>
</mgrwt>
</event>
<event>
 6    1  0.7270761E-006  0.1270775E+03  0.7546771E-02  0.1237595E+00
          1   -1    0    0  501    0  0.00000000000E+00  0.00000000000E+00  0.20418044330E+03  0.20418044330E+03  0.00000000000E+00 0. -1.
         -1   -1    0    0    0  501 -0.00000000000E+00 -0.00000000000E+00 -0.81328141055E+02  0.81328141055E+02  0.00000000000E+00 0.  1.
          5    1    1    2  502    0 -0.28050010963E+02 -0.44058298479E+02 -0.13024376943E+02  0.54033889131E+02  0.47000000000E+01 0.  1.
         -5    1    1    2    0  502  0.20651338299E+02  0.65712572974E+02  0.25718638717E+02  0.73676036795E+02  0.47000000000E+01 0.  1.
        -11    1    1    2    0    0 -0.23641611351E+02 -0.52336021101E+02  0.26090659363E+02  0.63076995791E+02  0.00000000000E+00 0.  1.
         11    1    1    2    0    0  0.31040284015E+02  0.30681746607E+02  0.84067381104E+02  0.94721662635E+02  0.00000000000E+00 0. -1.
<mgrwt>
<rscale>  0 0.12339758E+03</rscale>
<asrwt>0</asrwt>
<pdfrwt beam="1">  1        1 0.31412376E-01 0.12707746E+03</pdfrwt>
<pdfrwt beam="2">  1       -1 0.12512022E-01 0.12707746E+03</pdfrwt>
<totfact> 0.58155063E+03</totfact>
</mgrwt>
</event>
<event>
 6    1  0.7270761E-006  0.1892160E+03  0.7546771E-02  0.1164121E+00
          3   -1    0    0  501    0  0.00000000000E+00  0.00000000000E+00  0.36968742103E+03  0.36968742103E+03  0.00000000000E+00 0. -1.
         -3   -1    0    0    0  501 -0.00000000000E+00 -0.00000000000E+00 -0.86693703608E+02  0.86693703608E+02  0.00000000000E+00 0.  1.
          5    1    1    2  502    0  0.10248356253E+03 -0.92122696902E+02  0.95101953851E+02  0.16749908507E+03  0.47000000000E+01 0.  1.
         -5    1    1    2    0  502  0.29879684159E+02  0.40583027254E+02  0.47774857943E+02  0.69601039346E+02  0.47000000000E+01 0.  1.
        -11    1    1    2    0    0  0.25392169153E+01 -0.12679483807E+02 -0.19907981721E+01  0.13083585499E+02  0.00000000000E+00 0.  1.
         11    1    1    2    0    0 -0.13490246361E+03  0.64219153455E+02  0.14210770380E+03  0.20619741472E+03  0.00000000000E+00 0. -1.
<mgrwt>
<rscale>  0 0.18385749E+03</rscale>
<asrwt>0</asrwt>
<pdfrwt beam="1">  1        3 0.56874987E-01 0.18921598E+03</pdfrwt>
<pdfrwt beam="2">  1       -3 0.13337493E-01 0.18921598E+03</pdfrwt>
<totfact> 0.33893802E+02</totfact>
</mgrwt>
</event>
<event>
 6    1  0.7270761E-006  0.2113570E+03  0.7546771E-02  0.1144349E+00
          2   -1    0    0  501    0  0.00000000000E+00  0.00000000000E+00  0.29875012779E+03  0.29875012779E+03  0.00000000000E+00 0. -1.
         -2   -1    0    0    0  501 -0.00000000000E+00 -0.00000000000E+00 -0.17417973423E+03  0.17417973423E+03  0.00000000000E+00 0.  1.
          5    1    1    2  502    0 -0.31742976979E+01  0.18439659722E+02 -0.15831049585E+02  0.24956148491E+02  0.47000000000E+01 0. -1.
         -5    1    1    2    0  502  0.62309247885E+02 -0.17827657586E+03 -0.29360512717E+02  0.19117821418E+03  0.47000000000E+01 0. -1.
        -11    1    1    2    0    0 -0.57682366172E+02  0.56519456809E+02  0.37725046053E+02  0.89134075779E+02  0.00000000000E+00 0.  1.
         11    1    1    2    0    0 -0.14525840146E+01  0.10331745933E+03  0.13203690981E+03  0.16766142357E+03  0.00000000000E+00 0. -1.
<mgrwt>
<rscale>  0 0.20652399E+03</rscale>
<asrwt>0</asrwt>
<pdfrwt beam="1">  1        2 0.45961558E-01 0.21135701E+03</pdfrwt>
<pdfrwt beam="2">  1       -2 0.26796882E-01 0.21135701E+03</pdfrwt>
<totfact> 0.13716518E+03</totfact>
</mgrwt>
</event>
<event>
 6    1  0.7270761E-006  0.1283432E+03  0.7546771E-02  0.1246823E+00
          3   -1    0    0  501    0  0.00000000000E+00  0.00000000000E+00  0.32201069180E+02  0.32201069180E+02  0.00000000000E+00 0. -1.
         -3   -1    0    0    0  501 -0.00000000000E+00 -0.00000000000E+00 -0.45476698024E+03  0.45476698024E+03  0.00000000000E+00 0.  1.
          5    1    1    2  502    0 -0.35175004512E+02 -0.25903132482E+02 -0.30293228994E+03  0.30610180578E+03  0.47000000000E+01 0.  1.
         -5    1    1    2    0  502  0.44371814560E+02 -0.17312021747E+01 -0.39592238188E+02  0.59678223106E+02  0.47000000000E+01 0.  1.
        -11    1    1    2    0    0  0.17399083464E+02  0.50136656055E+02 -0.63096789094E+02  0.82447663277E+02  0.00000000000E+00 0. -1.
         11    1    1    2    0    0 -0.26595893512E+02 -0.22502321399E+02 -0.16944593841E+02  0.38740357258E+02  0.00000000000E+00 0.  1.
<mgrwt>
<rscale>  0 0.11776951E+03</rscale>
<asrwt>0</asrwt>
<pdfrwt beam="1">  1        3 0.49540110E-02 0.12834320E+03</pdfrwt>
<pdfrwt beam="2">  1       -3 0.69964146E-01 0.12834320E+03</pdfrwt>
<totfact> 0.10530597E+03</totfact>
</mgrwt>
</event>
<event>
 6    1  0.7270761E-006  0.1651686E+03  0.7546771E-02  0.1190537E+00
          1   -1    0    0  501    0  0.00000000000E+00  0.00000000000E+00  0.34870026231E+03  0.34870026231E+03  0.00000000000E+00 0. -1.
         -1   -1    0    0    0  501 -0.00000000000E+00 -0.00000000000E+00 -0.70799507566E+02  0.70799507566E+02  0.00000000000E+00 0.  1.
          5    1    1    2  502    0  0.86927157717E+02 -0.45093366279E+02  0.94319709619E+02  0.13604425770E+03  0.47000000000E+01 0. -1.
         -5    1    1    2    0  502  0.20773464655E+02  0.52174284877E+02  0.47414829258E+01  0.56553200586E+02  0.47000000000E+01 0. -1.
        -11    1    1    2    0    0 -0.85659929449E+02 -0.31720319167E+01  0.18482176943E+03  0.20373210782E+03  0.00000000000E+00 0. -1.
         11    1    1    2    0    0 -0.22040692922E+02 -0.39088866809E+01 -0.59822072300E+01  0.23170203774E+02  0.00000000000E+00 0.  1.
<mgrwt>
<rscale>  0 0.15838093E+03</rscale>
<asrwt>0</asrwt>
<pdfrwt beam="1">  1        1 0.53646193E-01 0.16516858E+03</pdfrwt>
<pdfrwt beam="2">  1       -1 0.10892232E-01 0.16516858E+03</pdfrwt>
<totfact> 0.37603863E+03</totfact>
</mgrwt>
</event>
<event>
 6    1  0.7270761E-006  0.1338334E+03  0.7546771E-02  0.1234571E+00
          2   -1    0    0  501    0  0.00000000000E+00  0.00000000000E+00  0.16575545600E+03  0.16575545600E+03  0.00000000000E+00 0. -1.
         -2   -1    0    0    0  501 -0.00000000000E+00 -0.00000000000E+00 -0.84631092500E+02  0.84631092500E+02  0.00000000000E+00 0.  1.
          5    1    1    2  502    0  0.27059793161E+02 -0.18197473822E+02  0.90350108252E+02  0.96169706876E+02  0.47000000000E+01 0.  1.
         -5    1    1    2    0  502  0.20398662831E+02  0.12360452362E+02 -0.40011354185E+02  0.46817568194E+02  0.47000000000E+01 0.  1.
        -11    1    1    2    0    0 -0.61777897101E+02 -0.55871358776E+01 -0.98672166573E+01  0.62809924551E+02  0.00000000000E+00 0.  1.
         11    1    1    2    0    0  0.14319441108E+02  0.11424157338E+02  0.40652826095E+02  0.44589348885E+02  0.00000000000E+00 0. -1.
<mgrwt>
<rscale>  0 0.12531964E+03</rscale>
<asrwt>0</asrwt>
<pdfrwt beam="1">  1        2 0.25500839E-01 0.13383337E+03</pdfrwt>
<pdfrwt beam="2">  1       -2 0.13020168E-01 0.13383337E+03</pdfrwt>
<totfact> 0.85886987E+03</totfact>
</mgrwt>
</event>
<event>
 6    1  0.7270761E-006  0.1365362E+03  0.7546771E-02  0.1229738E+00
         -2   -1    0    0    0  501 -0.00000000000E+00  0.00000000000E+00  0.19670343070E+03  0.19670343070E+03  0.00000000000E+00 0.  1.
          2   -1    0    0  501    0  0.00000000000E+00 -0.00000000000E+00 -0.75403252768E+02  0.75403252768E+02  0.00000000000E+00 0. -1.
          5    1    1    2  502    0  0.79981738232E+02  0.32685367140E+02  0.38403237860E+02  0.94669479527E+02  0.47000000000E+01 0.  1.
         -5    1    1    2    0  502 -0.48081623280E+02  0.12044799310E+02  0.28633848504E+02  0.57436112054E+02  0.47000000000E+01 0.  1.
        -11    1    1    2    0    0  0.46180828623E+01 -0.41092960663E+02  0.69009412491E+02  0.80450339450E+02  0.00000000000E+00 0.  1.
         11    1    1    2    0    0 -0.36518197814E+02 -0.36372057880E+01 -0.14746320924E+02  0.39550752437E+02  0.00000000000E+00 0. -1.
<mgrwt>
<rscale>  0 0.12847363E+03</rscale>
<asrwt>0</asrwt>
<pdfrwt beam="2">  1        2 0.11600500E-01 0.13653622E+03</pdfrwt>
<pdfrwt beam="1">  1       -2 0.30262066E-01 0.13653622E+03</pdfrwt>
<totfact> 0.51020820E+03</totfact>
</mgrwt>
</event>
<event>
 6    1  0.7270761E-006  0.1498288E+03  0.7546771E-02  0.1210703E+00
         -2   -1    0    0    0  501 -0.00000000000E+00  0.00000000000E+00  0.40551235993E+02  0.40551235993E+02  0.00000000000E+00 0.  1.
          2   -1    0    0  501    0  0.00000000000E+00 -0.00000000000E+00 -0.45491671874E+03  0.45491671874E+03  0.00000000000E+00 0. -1.
          5    1    1    2  502    0 -0.26475112145E+02  0.49557111311E+02 -0.52831733322E+02  0.77266557387E+02  0.47000000000E+01 0.  1.
         -5    1    1    2    0  502  0.89199773799E+02  0.41917338193E+01 -0.15494324892E+03  0.17889569772E+03  0.47000000000E+01 0.  1.
        -11    1    1    2    0    0 -0.51143884371E+02 -0.28611877414E+02 -0.20312907432E+03  0.21141371117E+03  0.00000000000E+00 0. -1.
         11    1    1    2    0    0 -0.11580777283E+02 -0.25136967716E+02 -0.34614261839E+01  0.27891988449E+02  0.00000000000E+00 0.  1.
<mgrwt>
<rscale>  0 0.14196926E+03</rscale>
<asrwt>0</asrwt>
<pdfrwt beam="2">  1        2 0.69987188E-01 0.14982876E+03</pdfrwt>
<pdfrwt beam="1">  1       -2 0.62386516E-02 0.14982876E+03</pdfrwt>
<totfact> 0.92476873E+03</totfact>
</mgrwt>
</event>
<event>
 6    1  0.7270761E-006  0.1251316E+03  0.7546771E-02  0.1249466E+00
          2   -1    0    0  501    0  0.00000000000E+00  0.00000000000E+00  0.24337658436E+03  0.24337658436E+03  0.00000000000E+00 0. -1.
         -2   -1    0    0    0  501 -0.00000000000E+00 -0.00000000000E+00 -0.67993013764E+02  0.67993013764E+02  0.00000000000E+00 0.  1.
          5    1    1    2  502    0 -0.48053752481E+02  0.29248873270E+02 -0.24493279502E+02  0.61535928170E+02  0.47000000000E+01 0. -1.
         -5    1    1    2    0  502  0.43937121512E+02 -0.25244066887E+02  0.39644139150E+02  0.64509544477E+02  0.47000000000E+01 0. -1.
        -11    1    1    2    0    0 -0.38890621196E+02  0.16471370827E+02  0.99852226382E+02  0.10841703550E+03  0.00000000000E+00 0. -1.
         11    1    1    2    0    0  0.43007252165E+02 -0.20476177210E+02  0.60380484567E+02  0.76907089976E+02  0.00000000000E+00 0.  1.
<mgrwt>
<rscale>  0 0.11621998E+03</rscale>
<asrwt>0</asrwt>
<pdfrwt beam="1">  1        2 0.37442551E-01 0.12513158E+03</pdfrwt>
<pdfrwt beam="2">  1       -2 0.10460464E-01 0.12513158E+03</pdfrwt>
<totfact> 0.79948051E+03</totfact>
</mgrwt>
</event>
<event>
 6    1  0.7270761E-006  0.1413690E+03  0.7546771E-02  0.1219995E+00
          2   -1    0    0  501    0  0.00000000000E+00  0.00000000000E+00  0.67907287705E+03  0.67907287705E+03  0.00000000000E+00 0. -1.
         -2   -1    0    0    0  501 -0.00000000000E+00 -0.00000000000E+00 -0.28772977733E+02  0.28772977733E+02  0.00000000000E+00 0.  1.
          5    1    1    2  502    0 -0.48784948725E+02  0.64512021887E+02  0.14323436571E+03  0.16455985449E+03  0.47000000000E+01 0.  1.
         -5    1    1    2    0  502  0.58934100636E+02  0.73590632424E+00  0.75776566388E+02  0.96114243427E+02  0.47000000000E+01 0.  1.
        -11    1    1    2    0    0 -0.46224499345E+02 -0.59849110123E+02  0.34995948569E+03  0.35803667681E+03  0.00000000000E+00 0. -1.
         11    1    1    2    0    0  0.36075347434E+02 -0.53988180890E+01  0.81329481539E+02  0.89135080057E+02  0.00000000000E+00 0.  1.
<mgrwt>
<rscale>  0 0.13515957E+03</rscale>
<asrwt>0</asrwt>
<pdfrwt beam="1">  1        2 0.10447274E+00 0.14136901E+03</pdfrwt>
<pdfrwt beam="2">  1       -2 0.44266125E-02 0.14136901E+03</pdfrwt>
<totfact> 0.98474582E+03</totfact>
</mgrwt>
</event>
<event>
 6    1  0.7270761E-006  0.1367574E+03  0.7546771E-02  0.1229547E+00
          2   -1    0    0  501    0  0.00000000000E+00  0.00000000000E+00  0.21918456110E+03  0.21918456110E+03  0.00000000000E+00 0. -1.
         -2   -1    0    0    0  501 -0.00000000000E+00 -0.00000000000E+00 -0.83095992627E+02  0.83095992627E+02  0.00000000000E+00 0.  1.
          5    1    1    2  502    0 -0.10602937976E+02  0.49493550420E+02 -0.49159312273E+02  0.70716064724E+02  0.47000000000E+01 0.  1.
         -5    1    1    2    0  502  0.29212870007E+02  0.27661053633E+01  0.59406234587E+02  0.66424647690E+02  0.47000000000E+01 0.  1.
        -11    1    1    2    0    0 -0.59707220296E+01  0.22305273221E+02  0.67381733033E+01  0.24053642437E+02  0.00000000000E+00 0.  1.
         11    1    1    2    0    0 -0.12639210001E+02 -0.74564929004E+02  0.11910347285E+03  0.14108619887E+03  0.00000000000E+00 0. -1.
<mgrwt>
<rscale>  0 0.12860054E+03</rscale>
<asrwt>0</asrwt>
<pdfrwt beam="1">  1        2 0.33720701E-01 0.13675736E+03</pdfrwt>
<pdfrwt beam="2">  1       -2 0.12783999E-01 0.13675736E+03</pdfrwt>
<totfact> 0.65404366E+03</totfact>
</mgrwt>
</event>
<event>
 6    1  0.7270761E-006  0.1587117E+03  0.7546771E-02  0.1197324E+00
          1   -1    0    0  501    0  0.00000000000E+00  0.00000000000E+00  0.14381788143E+03  0.14381788143E+03  0.00000000000E+00 0. -1.
         -1   -1    0    0    0  501 -0.00000000000E+00 -0.00000000000E+00 -0.15059976600E+03  0.15059976600E+03  0.00000000000E+00 0.  1.
          5    1    1    2  502    0  0.34141445340E+02  0.70561963313E+02 -0.18763319528E+02  0.80738969006E+02  0.47000000000E+01 0.  1.
         -5    1    1    2    0  502 -0.73654796344E+02  0.18901474258E+02  0.16659600620E+02  0.77986710704E+02  0.47000000000E+01 0.  1.
        -11    1    1    2    0    0  0.42614680489E+02 -0.10168978253E+03 -0.23787743301E+02  0.11279485625E+03  0.00000000000E+00 0.  1.
         11    1    1    2    0    0 -0.31013294851E+01  0.12226344963E+02  0.19109577644E+02  0.22897111465E+02  0.00000000000E+00 0. -1.
<mgrwt>
<rscale>  0 0.15259165E+03</rscale>
<asrwt>0</asrwt>
<pdfrwt beam="1">  1        1 0.22125828E-01 0.15871174E+03</pdfrwt>
<pdfrwt beam="2">  1       -1 0.23169195E-01 0.15871174E+03</pdfrwt>
<totfact> 0.34389244E+03</totfact>
</mgrwt>
</event>
<event>
 6    1  0.7270761E-006  0.1512078E+03  0.7546771E-02  0.1207678E+00
         -3   -1    0    0    0  501 -0.00000000000E+00  0.00000000000E+00  0.32292651650E+03  0.32292651650E+03  0.00000000000E+00 0.  1.
          3   -1    0    0  501    0  0.00000000000E+00 -0.00000000000E+00 -0.67491118612E+02  0.67491118612E+02  0.00000000000E+00 0. -1.
          5    1    1    2  502    0 -0.30599797610E+02 -0.87728826601E+02  0.12333291075E+03  0.15448557054E+03  0.47000000000E+01 0.  1.
         -5    1    1    2    0  502  0.57496372983E+02  0.70118530516E+01  0.82951786021E+02  0.10128221855E+03  0.47000000000E+01 0.  1.
        -11    1    1    2    0    0 -0.20741249005E+02 -0.44214491201E+01 -0.16575915986E+02  0.26916716244E+02  0.00000000000E+00 0. -1.
         11    1    1    2    0    0 -0.61553263685E+01  0.85138422670E+02  0.65726617104E+02  0.10773312979E+03  0.00000000000E+00 0.  1.
<mgrwt>
<rscale>  0 0.14428432E+03</rscale>
<asrwt>0</asrwt>
<pdfrwt beam="2">  1        3 0.10383249E-01 0.15120776E+03</pdfrwt>
<pdfrwt beam="1">  1       -3 0.49681002E-01 0.15120776E+03</pdfrwt>
<totfact> 0.65925485E+02</totfact>
</mgrwt>
</event>
<event>
 6    1  0.7270761E-006  0.1560511E+03  0.7546771E-02  0.1218408E+00
         -4   -1    0    0    0  501 -0.00000000000E+00  0.00000000000E+00  0.13836568383E+03  0.13836568383E+03  0.00000000000E+00 0.  1.
          4   -1    0    0  501    0  0.00000000000E+00 -0.00000000000E+00 -0.22033755618E+03  0.22033755618E+03  0.00000000000E+00 0. -1.
          5    1    1    2  502    0  0.32715014286E+02 -0.66441937794E+02 -0.35201216429E+01  0.74291887269E+02  0.47000000000E+01 0. -1.
         -5    1    1    2    0  502 -0.64747461230E+01  0.57507719916E+02  0.81748177251E+02  0.10026921098E+03  0.47000000000E+01 0.  1.
        -11    1    1    2    0    0 -0.37624532298E+02  0.11580152837E+01 -0.16523228106E+03  0.16946578750E+03  0.00000000000E+00 0. -1.
         11    1    1    2    0    0  0.11384264135E+02  0.77762025944E+01  0.50323530932E+01  0.14676354259E+02  0.00000000000E+00 0.  1.
<mgrwt>
<rscale>  0 0.13629171E+03</rscale>
<asrwt>0</asrwt>
<pdfrwt beam="2">  1        4 0.33898085E-01 0.15605111E+03</pdfrwt>
<pdfrwt beam="1">  1       -4 0.21287028E-01 0.15605111E+03</pdfrwt>
<totfact> 0.28924958E+02</totfact>
</mgrwt>
</event>
<event>
 6    1  0.7270761E-006  0.1404469E+03  0.7546771E-02  0.1223938E+00
          1   -1    0    0  501    0  0.00000000000E+00  0.00000000000E+00  0.22140051760E+03  0.22140051760E+03  0.00000000000E+00 0. -1.
         -1   -1    0    0    0  501 -0.00000000000E+00 -0.00000000000E+00 -0.71668978635E+02  0.71668978635E+02  0.00000000000E+00 0.  1.
          5    1    1    2  502    0 -0.49496975805E+02 -0.12928228897E+01  0.13898659853E+02  0.51641889494E+02  0.47000000000E+01 0.  1.
         -5    1    1    2    0  502  0.59241859131E+02 -0.61997184167E+02  0.79478043644E+02  0.11701323916E+03  0.47000000000E+01 0.  1.
        -11    1    1    2    0    0 -0.46044364955E+02  0.48722393743E+02  0.17503106169E+02  0.69284297801E+02  0.00000000000E+00 0.  1.
         11    1    1    2    0    0  0.36299481629E+02  0.14567613313E+02  0.38851729297E+02  0.55130069776E+02  0.00000000000E+00 0. -1.
<mgrwt>
<rscale>  0 0.13239936E+03</rscale>
<asrwt>0</asrwt>
<pdfrwt beam="1">  1        1 0.34061618E-01 0.14044694E+03</pdfrwt>
<pdfrwt beam="2">  1       -1 0.11025997E-01 0.14044694E+03</pdfrwt>
<totfact> 0.64328054E+03</totfact>
</mgrwt>
</event>
<event>
 6    1  0.7270761E-006  0.2312875E+03  0.7546771E-02  0.1129142E+00
          4   -1    0    0  501    0  0.00000000000E+00  0.00000000000E+00  0.48534564862E+03  0.48534564862E+03  0.00000000000E+00 0.  1.
         -4   -1    0    0    0  501 -0.00000000000E+00 -0.00000000000E+00 -0.10215777948E+03  0.10215777948E+03  0.00000000000E+00 0. -1.
          5    1    1    2  502    0 -0.19581684713E+01  0.10073924800E+03  0.14819459577E+03  0.17926505160E+03  0.47000000000E+01 0.  1.
         -5    1    1    2    0  502 -0.10260097941E+03  0.63386976917E+02  0.74671765264E+02  0.14192544643E+03  0.47000000000E+01 0.  1.
        -11    1    1    2    0    0  0.90655910196E+02 -0.84505416474E+02  0.60620787500E+02  0.13796571800E+03  0.00000000000E+00 0.  1.
         11    1    1    2    0    0  0.13903237681E+02 -0.79620808438E+02  0.99700720611E+02  0.12834721206E+03  0.00000000000E+00 0. -1.
<mgrwt>
<rscale>  0 0.22648007E+03</rscale>
<asrwt>0</asrwt>
<pdfrwt beam="1">  1        4 0.74668560E-01 0.23128753E+03</pdfrwt>
<pdfrwt beam="2">  1       -4 0.15716582E-01 0.23128753E+03</pdfrwt>
<totfact> 0.10410833E+02</totfact>
</mgrwt>
</event>
<event>
 6    1  0.7270761E-006  0.2623050E+03  0.7546771E-02  0.1110287E+00
          1   -1    0    0  501    0  0.00000000000E+00  0.00000000000E+00  0.10607740110E+03  0.10607740110E+03  0.00000000000E+00 0. -1.
         -1   -1    0    0    0  501 -0.00000000000E+00 -0.00000000000E+00 -0.58557297183E+03  0.58557297183E+03  0.00000000000E+00 0.  1.
          5    1    1    2  502    0  0.98423548524E+02 -0.52912684673E+02 -0.43572338454E+02  0.12003160326E+03  0.47000000000E+01 0. -1.
         -5    1    1    2    0  502  0.11299901035E+03  0.10838089128E+02 -0.24427326424E+03  0.26940259490E+03  0.47000000000E+01 0.  1.
        -11    1    1    2    0    0 -0.75448780200E+02  0.65753430837E+01 -0.16242954572E+02  0.77457001902E+02  0.00000000000E+00 0. -1.
         11    1    1    2    0    0 -0.13597377868E+03  0.35499252461E+02 -0.17540701347E+03  0.22475917286E+03  0.00000000000E+00 0.  1.
<mgrwt>
<rscale>  0 0.25483488E+03</rscale>
<asrwt>0</asrwt>
<pdfrwt beam="1">  1        1 0.16319600E-01 0.26230498E+03</pdfrwt>
<pdfrwt beam="2">  1       -1 0.90088148E-01 0.26230498E+03</pdfrwt>
<totfact> 0.42370889E+02</totfact>
</mgrwt>
</event>
<event>
 6    1  0.7270761E-006  0.2626577E+03  0.7546771E-02  0.1105557E+00
         -1   -1    0    0    0  501 -0.00000000000E+00  0.00000000000E+00  0.60340431579E+02  0.60340431579E+02  0.00000000000E+00 0.  1.
          1   -1    0    0  501    0  0.00000000000E+00 -0.00000000000E+00 -0.28583264675E+03  0.28583264675E+03  0.00000000000E+00 0. -1.
          5    1    1    2  502    0 -0.71706487930E+02 -0.70213529634E+02 -0.62676390604E+02  0.11841528657E+03  0.47000000000E+01 0. -1.
         -5    1    1    2    0  502  0.41869577119E+02  0.78477531008E+01 -0.27881062166E+02  0.51128195199E+02  0.47000000000E+01 0. -1.
        -11    1    1    2    0    0  0.48907760878E+02  0.74618733776E+01 -0.33583567390E+02  0.59795523470E+02  0.00000000000E+00 0.  1.
         11    1    1    2    0    0 -0.19070850066E+02  0.54903903155E+02 -0.10135119501E+03  0.11683407308E+03  0.00000000000E+00 0. -1.
<mgrwt>
<rscale>  0 0.26265769E+03</rscale>
<asrwt>0</asrwt>
<pdfrwt beam="2">  1        1 0.43974252E-01 0.26265769E+03</pdfrwt>
<pdfrwt beam="1">  1       -1 0.92831435E-02 0.26265769E+03</pdfrwt>
<totfact> 0.63153213E+03</totfact>
</mgrwt>
</event>
<event>
 6    1  0.7270761E-006  0.1380938E+03  0.7546771E-02  0.1227440E+00
         -2   -1    0    0    0  501 -0.00000000000E+00  0.00000000000E+00  0.11768786654E+04  0.11768786654E+04  0.00000000000E+00 0.  1.
          2   -1    0    0  501    0  0.00000000000E+00 -0.00000000000E+00 -0.15156019493E+02  0.15156019493E+02  0.00000000000E+00 0. -1.
          5    1    1    2  502    0 -0.33406961724E+02 -0.80666477904E+02  0.69239553713E+03  0.69789453041E+03  0.47000000000E+01 0.  1.
         -5    1    1    2    0  502 -0.11002030819E+02  0.42294472711E+02  0.17560413276E+03  0.18102145880E+03  0.47000000000E+01 0.  1.
        -11    1    1    2    0    0 -0.82456299219E+01  0.97762644337E+01 -0.55625854075E+00  0.12801374249E+02  0.00000000000E+00 0. -1.
         11    1    1    2    0    0  0.52654622465E+02  0.28595740760E+02  0.29427923458E+03  0.30031732145E+03  0.00000000000E+00 0.  1.
<mgrwt>
<rscale>  0 0.13001044E+03</rscale>
<asrwt>0</asrwt>
<pdfrwt beam="2">  1        2 0.23316962E-02 0.13809377E+03</pdfrwt>
<pdfrwt beam="1">  1       -2 0.18105818E+00 0.13809377E+03</pdfrwt>
<totfact> 0.82366131E+02</totfact>
</mgrwt>
</event>
<event>
 6    1  0.7270761E-006  0.1478830E+03  0.7546771E-02  0.1212259E+00
          2   -1    0    0  501    0  0.00000000000E+00  0.00000000000E+00  0.13625883804E+03  0.13625883804E+03  0.00000000000E+00 0. -1.
         -2   -1    0    0    0  501 -0.00000000000E+00 -0.00000000000E+00 -0.13372499560E+03  0.13372499560E+03  0.00000000000E+00 0.  1.
          5    1    1    2  502    0  0.10119754109E+03  0.28558732592E+01 -0.20312967049E+02  0.10336249302E+03  0.47000000000E+01 0.  1.
         -5    1    1    2    0  502 -0.29607103431E+02  0.30526978520E+02  0.12954847570E+02  0.44703412249E+02  0.47000000000E+01 0.  1.
        -11    1    1    2    0    0 -0.35952532042E+02 -0.61558665386E+02 -0.10613134379E+02  0.72074214985E+02  0.00000000000E+00 0.  1.
         11    1    1    2    0    0 -0.35637905614E+02  0.28175813607E+02  0.20505096296E+02  0.49843713375E+02  0.00000000000E+00 0. -1.
<mgrwt>
<rscale>  0 0.14079815E+03</rscale>
<asrwt>0</asrwt>
<pdfrwt beam="1">  1        2 0.20962898E-01 0.14788296E+03</pdfrwt>
<pdfrwt beam="2">  1       -2 0.20573076E-01 0.14788296E+03</pdfrwt>
<totfact> 0.50496613E+03</totfact>
</mgrwt>
</event>
<event>
 6    1  0.7270761E-006  0.1440725E+03  0.7546771E-02  0.1217589E+00
          2   -1    0    0  501    0  0.00000000000E+00  0.00000000000E+00  0.77436139657E+03  0.77436139657E+03  0.00000000000E+00 0.  1.
         -2   -1    0    0    0  501 -0.00000000000E+00 -0.00000000000E+00 -0.22214855390E+02  0.22214855390E+02  0.00000000000E+00 0. -1.
          5    1    1    2  502    0 -0.64196805751E+02 -0.47458512662E+02  0.34963350095E+03  0.35866309439E+03  0.47000000000E+01 0. -1.
         -5    1    1    2    0  502 -0.66295463770E+01  0.36790168351E+02  0.32606302466E+02  0.49826983984E+02  0.47000000000E+01 0. -1.
        -11    1    1    2    0    0 -0.37812880659E+01 -0.22201449224E+02  0.24884661920E+02  0.33562611429E+02  0.00000000000E+00 0. -1.
         11    1    1    2    0    0  0.74607640194E+02  0.32869793535E+02  0.34502207585E+03  0.35452356216E+03  0.00000000000E+00 0.  1.
<mgrwt>
<rscale>  0 0.13688046E+03</rscale>
<asrwt>0</asrwt>
<pdfrwt beam="1">  1        2 0.11913250E+00 0.14407247E+03</pdfrwt>
<pdfrwt beam="2">  1       -2 0.34176707E-02 0.14407247E+03</pdfrwt>
<totfact> 0.12364357E+04</totfact>
</mgrwt>
</event>
<event>
 6    1  0.7270761E-006  0.1252267E+03  0.7546771E-02  0.1249767E+00
         -2   -1    0    0    0  501 -0.00000000000E+00  0.00000000000E+00  0.35796362520E+02  0.35796362520E+02  0.00000000000E+00 0. -1.
          2   -1    0    0  501    0  0.00000000000E+00 -0.00000000000E+00 -0.44242363838E+03  0.44242363838E+03  0.00000000000E+00 0.  1.
          5    1    1    2  502    0 -0.21945804976E+02 -0.11590529074E+02  0.22266168792E+02  0.33672406996E+02  0.47000000000E+01 0.  1.
         -5    1    1    2    0  502  0.14962988689E+02  0.14412401806E+02 -0.12936222390E+03  0.13110409349E+03  0.47000000000E+01 0.  1.
        -11    1    1    2    0    0  0.18343297285E+02 -0.44455617340E+02 -0.18174975114E+03  0.18800465555E+03  0.00000000000E+00 0.  1.
         11    1    1    2    0    0 -0.11360480998E+02  0.41633744607E+02 -0.11778146961E+03  0.12543884487E+03  0.00000000000E+00 0. -1.
<mgrwt>
<rscale>  0 0.11604538E+03</rscale>
<asrwt>0</asrwt>
<pdfrwt beam="2">  1        2 0.68065175E-01 0.12522671E+03</pdfrwt>
<pdfrwt beam="1">  1       -2 0.55071327E-02 0.12522671E+03</pdfrwt>
<totfact> 0.11366886E+04</totfact>
</mgrwt>
</event>
<event>
 6    1  0.7270761E-006  0.2266351E+03  0.7546771E-02  0.1132320E+00
          1   -1    0    0  501    0  0.00000000000E+00  0.00000000000E+00  0.53756775238E+02  0.53756775238E+02  0.00000000000E+00 0. -1.
         -1   -1    0    0    0  501 -0.00000000000E+00 -0.00000000000E+00 -0.89177185471E+03  0.89177185471E+03  0.00000000000E+00 0.  1.
          5    1    1    2  502    0 -0.66103766245E+02 -0.29421444373E+01 -0.77922835749E+02  0.10233485456E+03  0.47000000000E+01 0.  1.
         -5    1    1    2    0  502 -0.66298222990E+02 -0.13200015828E+03 -0.40503385895E+03  0.43115427987E+03  0.47000000000E+01 0.  1.
        -11    1    1    2    0    0  0.62922561407E+01  0.62046630137E+02 -0.88302957930E+02  0.10810545397E+03  0.00000000000E+00 0.  1.
         11    1    1    2    0    0  0.12610973309E+03  0.72895672584E+02 -0.26675542684E+03  0.30393404155E+03  0.00000000000E+00 0. -1.
<mgrwt>
<rscale>  0 0.22211002E+03</rscale>
<asrwt>0</asrwt>
<pdfrwt beam="1">  1        1 0.82702737E-02 0.22663514E+03</pdfrwt>
<pdfrwt beam="2">  1       -1 0.13719566E+00 0.22663514E+03</pdfrwt>
<totfact> 0.39589693E+02</totfact>
</mgrwt>
</event>
<event>
 6    1  0.7270761E-006  0.1294740E+03  0.7546771E-02  0.1242901E+00
          1   -1    0    0  501    0  0.00000000000E+00  0.00000000000E+00  0.72829046534E+03  0.72829046534E+03  0.00000000000E+00 0. -1.
         -1   -1    0    0    0  501 -0.00000000000E+00 -0.00000000000E+00 -0.20619625612E+02  0.20619625612E+02  0.00000000000E+00 0.  1.
          5    1    1    2  502    0 -0.57250823507E+02  0.55007843185E+02  0.13144063300E+03  0.15363023663E+03  0.47000000000E+01 0.  1.
         -5    1    1    2    0  502  0.27850249042E+02 -0.38452555921E+02  0.12125540337E+03  0.13030425271E+03  0.47000000000E+01 0.  1.
        -11    1    1    2    0    0  0.44114197234E+02  0.25597267839E+02  0.22517807753E+03  0.23088189430E+03  0.00000000000E+00 0. -1.
         11    1    1    2    0    0 -0.14713622770E+02 -0.42152555104E+02  0.22979672583E+03  0.23409370731E+03  0.00000000000E+00 0.  1.
<mgrwt>
<rscale>  0 0.12011900E+03</rscale>
<asrwt>0</asrwt>
<pdfrwt beam="1">  1        1 0.11204467E+00 0.12947396E+03</pdfrwt>
<pdfrwt beam="2">  1       -1 0.31722506E-02 0.12947396E+03</pdfrwt>
<totfact> 0.88414795E+03</totfact>
</mgrwt>
</event>
<event>
 6    1  0.7270761E-006  0.2826963E+03  0.7546771E-02  0.1095957E+00
         -4   -1    0    0    0  501 -0.00000000000E+00  0.00000000000E+00  0.10784876803E+03  0.10784876803E+03  0.00000000000E+00 0.  1.
          4   -1    0    0  501    0  0.00000000000E+00 -0.00000000000E+00 -0.70873574413E+03  0.70873574413E+03  0.00000000000E+00 0. -1.
          5    1    1    2  502    0 -0.16660360865E+03 -0.16922705713E+03 -0.28673515696E+03  0.37233546637E+03  0.47000000000E+01 0.  1.
         -5    1    1    2    0  502 -0.37511159949E+02  0.18794756036E+02 -0.27691694402E+02  0.50490097188E+02  0.47000000000E+01 0.  1.
        -11    1    1    2    0    0  0.26934535935E+02  0.46629042774E+02 -0.20204227517E+02  0.57514760415E+02  0.00000000000E+00 0. -1.
         11    1    1    2    0    0  0.17718023267E+03  0.10380325832E+03 -0.26625589722E+03  0.33624418819E+03  0.00000000000E+00 0.  1.
<mgrwt>
<rscale>  0 0.27950887E+03</rscale>
<asrwt>0</asrwt>
<pdfrwt beam="2">  1        4 0.10903627E+00 0.28269633E+03</pdfrwt>
<pdfrwt beam="1">  1       -4 0.16592118E-01 0.28269633E+03</pdfrwt>
<totfact> 0.40507304E+01</totfact>
</mgrwt>
</event>
<event>
 6    1  0.7270761E-006  0.1651111E+03  0.7546771E-02  0.1189707E+00
         -1   -1    0    0    0  501 -0.00000000000E+00  0.00000000000E+00  0.80754695499E+03  0.80754695499E+03  0.00000000000E+00 0.  1.
          1   -1    0    0  501    0  0.00000000000E+00 -0.00000000000E+00 -0.36092224932E+02  0.36092224932E+02  0.00000000000E+00 0. -1.
          5    1    1    2  502    0  0.45182470252E+02 -0.13460912445E+02  0.89401396156E+02  0.10117979747E+03  0.47000000000E+01 0. -1.
         -5    1    1    2    0  502 -0.45178110696E+02 -0.94489944547E+02  0.50242495684E+03  0.51324685928E+03  0.47000000000E+01 0. -1.
        -11    1    1    2    0    0 -0.33535078285E+02  0.10787889569E+02  0.23712646592E+02  0.42464922528E+02  0.00000000000E+00 0. -1.
         11    1    1    2    0    0  0.33530718729E+02  0.97162967423E+02  0.15591573047E+03  0.18674760064E+03  0.00000000000E+00 0.  1.
<mgrwt>
<rscale>  0 0.15910887E+03</rscale>
<asrwt>0</asrwt>
<pdfrwt beam="2">  1        1 0.55526506E-02 0.16511113E+03</pdfrwt>
<pdfrwt beam="1">  1       -1 0.12423798E+00 0.16511113E+03</pdfrwt>
<totfact> 0.86675825E+02</totfact>
</mgrwt>
</event>
<event>
 6    1  0.7270761E-006  0.3426564E+03  0.7546771E-02  0.1065670E+00
         -1   -1    0    0    0  501 -0.00000000000E+00  0.00000000000E+00  0.61749058202E+02  0.61749058202E+02  0.00000000000E+00 0.  1.
          1   -1    0    0  501    0  0.00000000000E+00 -0.00000000000E+00 -0.47536522602E+03  0.47536522602E+03  0.00000000000E+00 0. -1.
          5    1    1    2  502    0  0.16182618798E+02 -0.32097411539E+02  0.12932330442E+02  0.38489688870E+02  0.47000000000E+01 0. -1.
         -5    1    1    2    0  502 -0.69813553411E+02 -0.78238241565E+02 -0.15398075511E+03  0.18635267003E+03  0.47000000000E+01 0. -1.
        -11    1    1    2    0    0  0.66735806842E+02  0.38509801516E+02 -0.11269903658E+03  0.13652012882E+03  0.00000000000E+00 0.  1.
         11    1    1    2    0    0 -0.13104872229E+02  0.71825851588E+02 -0.15986870657E+03  0.17575179650E+03  0.00000000000E+00 0. -1.
<mgrwt>
<rscale>  0 0.34265642E+03</rscale>
<asrwt>0</asrwt>
<pdfrwt beam="2">  1        1 0.73133112E-01 0.34265642E+03</pdfrwt>
<pdfrwt beam="1">  1       -1 0.94998551E-02 0.34265642E+03</pdfrwt>
<totfact> 0.31973502E+03</totfact>
</mgrwt>
</event>
<event>
 6    1  0.7270761E-006  0.5363184E+03  0.7546771E-02  0.1004711E+00
         -2   -1    0    0    0  501 -0.00000000000E+00  0.00000000000E+00  0.14768544986E+03  0.14768544986E+03  0.00000000000E+00 0.  1.
          2   -1    0    0  501    0  0.00000000000E+00 -0.00000000000E+00 -0.48690880558E+03  0.48690880558E+03  0.00000000000E+00 0. -1.
          5    1    1    2  502    0  0.58898234998E+02 -0.57358326764E+02 -0.22073068900E+01  0.82376828895E+02  0.47000000000E+01 0. -1.
         -5    1    1    2    0  502  0.85070072047E+01 -0.97186748659E+00  0.98205800902E+02  0.98690339086E+02  0.47000000000E+01 0. -1.
        -11    1    1    2    0    0 -0.40931200623E+02 -0.34235974068E+01 -0.62439031358E+02  0.74737653432E+02  0.00000000000E+00 0.  1.
         11    1    1    2    0    0 -0.26474041580E+02  0.61753791658E+02 -0.37278281837E+03  0.37878943403E+03  0.00000000000E+00 0. -1.
<mgrwt>
<rscale>  0 0.53631836E+03</rscale>
<asrwt>0</asrwt>
<pdfrwt beam="2">  1        2 0.74909047E-01 0.53631836E+03</pdfrwt>
<pdfrwt beam="1">  1       -2 0.22720839E-01 0.53631836E+03</pdfrwt>
<totfact> 0.10833759E+03</totfact>
</mgrwt>
</event>
<event>
 6    1  0.7270761E-006  0.1383560E+03  0.7546771E-02  0.1228251E+00
         -3   -1    0    0    0  501 -0.00000000000E+00  0.00000000000E+00  0.31401237201E+03  0.31401237201E+03  0.00000000000E+00 0.  1.
          3   -1    0    0  501    0  0.00000000000E+00 -0.00000000000E+00 -0.49273695132E+02  0.49273695132E+02  0.00000000000E+00 0. -1.
          5    1    1    2  502    0 -0.89623827399E+02 -0.25414680968E+02  0.13333288394E+03  0.16272087876E+03  0.47000000000E+01 0. -1.
         -5    1    1    2    0  502  0.30689608326E+02  0.31869201705E+02  0.49424146559E+02  0.66500634129E+02  0.47000000000E+01 0. -1.
        -11    1    1    2    0    0  0.63627537130E+02  0.21382297456E+02  0.81824561042E+02  0.10583442217E+03  0.00000000000E+00 0.  1.
         11    1    1    2    0    0 -0.46933180567E+01 -0.27836818193E+02  0.15708533717E+00  0.28230132081E+02  0.00000000000E+00 0. -1.
<mgrwt>
<rscale>  0 0.12946537E+03</rscale>
<asrwt>0</asrwt>
<pdfrwt beam="2">  1        3 0.75805687E-02 0.13835595E+03</pdfrwt>
<pdfrwt beam="1">  1       -3 0.48309594E-01 0.13835595E+03</pdfrwt>
<totfact> 0.11524377E+03</totfact>
</mgrwt>
</event>
<event>
 6    1  0.7270761E-006  0.1317045E+03  0.7546771E-02  0.1238350E+00
          1   -1    0    0  501    0  0.00000000000E+00  0.00000000000E+00  0.13043916761E+03  0.13043916761E+03  0.00000000000E+00 0. -1.
         -1   -1    0    0    0  501 -0.00000000000E+00 -0.00000000000E+00 -0.18423546734E+03  0.18423546734E+03  0.00000000000E+00 0.  1.
          5    1    1    2  502    0  0.12445350585E+02  0.10027597751E+02 -0.14451886604E+03  0.14547588154E+03  0.47000000000E+01 0. -1.
         -5    1    1    2    0  502 -0.27759610848E+02  0.28498783289E+02  0.11535826161E+02  0.41688630687E+02  0.47000000000E+01 0. -1.
        -11    1    1    2    0    0 -0.23923467501E+01  0.24177714371E+02 -0.84356628143E+00  0.24310425732E+02  0.00000000000E+00 0.  1.
         11    1    1    2    0    0  0.17706607013E+02 -0.62704095411E+02  0.80030306424E+02  0.10319969699E+03  0.00000000000E+00 0. -1.
<mgrwt>
<rscale>  0 0.12292402E+03</rscale>
<asrwt>0</asrwt>
<pdfrwt beam="1">  1        1 0.20067564E-01 0.13170446E+03</pdfrwt>
<pdfrwt beam="2">  1       -1 0.28343918E-01 0.13170446E+03</pdfrwt>
<totfact> 0.27659144E+03</totfact>
</mgrwt>
</event>
<event>
 6    1  0.7270761E-006  0.1324928E+03  0.7546771E-02  0.1236801E+00
         -1   -1    0    0    0  501 -0.00000000000E+00  0.00000000000E+00  0.50233241436E+02  0.50233241436E+02  0.00000000000E+00 0.  1.
          1   -1    0    0  501    0  0.00000000000E+00 -0.00000000000E+00 -0.44091364502E+03  0.44091364502E+03  0.00000000000E+00 0. -1.
          5    1    1    2  502    0  0.35192031104E+02 -0.47733471554E+02 -0.79137815729E+02  0.99004278889E+02  0.47000000000E+01 0. -1.
         -5    1    1    2    0  502  0.83259659784E+01  0.41478906876E+02  0.18857875916E+02  0.46556749340E+02  0.47000000000E+01 0. -1.
        -11    1    1    2    0    0 -0.53563633232E+01 -0.40077534636E+02 -0.15554707045E+03  0.16071649117E+03  0.00000000000E+00 0. -1.
         11    1    1    2    0    0 -0.38161633760E+02  0.46332099315E+02 -0.17485339332E+03  0.18486936705E+03  0.00000000000E+00 0.  1.
<mgrwt>
<rscale>  0 0.12389812E+03</rscale>
<asrwt>0</asrwt>
<pdfrwt beam="2">  1        1 0.67832869E-01 0.13249280E+03</pdfrwt>
<pdfrwt beam="1">  1       -1 0.77281910E-02 0.13249280E+03</pdfrwt>
<totfact> 0.46647422E+03</totfact>
</mgrwt>
</event>
<event>
 6    1  0.7270761E-006  0.1672281E+03  0.7546771E-02  0.1187562E+00
          2   -1    0    0  501    0  0.00000000000E+00  0.00000000000E+00  0.99494204813E+02  0.99494204813E+02  0.00000000000E+00 0. -1.
         -2   -1    0    0    0  501 -0.00000000000E+00 -0.00000000000E+00 -0.35234392093E+03  0.35234392093E+03  0.00000000000E+00 0.  1.
          5    1    1    2  502    0  0.19786222880E+02 -0.17841864434E+02 -0.18934720526E+03  0.19127017771E+03  0.47000000000E+01 0.  1.
         -5    1    1    2    0  502  0.91210393446E+02  0.21973667098E+02 -0.69318271316E+02  0.11674455301E+03  0.47000000000E+01 0.  1.
        -11    1    1    2    0    0 -0.10281280701E+03  0.31194124037E+02  0.47760246827E+01  0.10754699936E+03  0.00000000000E+00 0.  1.
         11    1    1    2    0    0 -0.81838093160E+01 -0.35325926701E+02  0.10397357727E+01  0.36276395668E+02  0.00000000000E+00 0. -1.
<mgrwt>
<rscale>  0 0.16100914E+03</rscale>
<asrwt>0</asrwt>
<pdfrwt beam="1">  1        2 0.15306800E-01 0.16722812E+03</pdfrwt>
<pdfrwt beam="2">  1       -2 0.54206759E-01 0.16722812E+03</pdfrwt>
<totfact> 0.12214196E+03</totfact>
</mgrwt>
</event>
<event>
 6    1  0.7270761E-006  0.1803267E+03  0.7546771E-02  0.1173480E+00
         -2   -1    0    0    0  501 -0.00000000000E+00  0.00000000000E+00  0.43941920641E+02  0.43941920641E+02  0.00000000000E+00 0.  1.
          2   -1    0    0  501    0  0.00000000000E+00 -0.00000000000E+00 -0.67561217814E+03  0.67561217814E+03  0.00000000000E+00 0. -1.
          5    1    1    2  502    0 -0.35801356746E+02 -0.19607859230E+02 -0.12737177203E+03  0.13383521061E+03  0.47000000000E+01 0. -1.
         -5    1    1    2    0  502 -0.53450565572E+02  0.11409137493E+03 -0.13704927195E+03  0.18622136756E+03  0.47000000000E+01 0. -1.
        -11    1    1    2    0    0  0.61580549000E+01  0.15432686136E+02 -0.20594034609E+02  0.26461362456E+02  0.00000000000E+00 0.  1.
         11    1    1    2    0    0  0.83093867418E+02 -0.10991620184E+03 -0.34665517891E+03  0.37303615816E+03  0.00000000000E+00 0. -1.
<mgrwt>
<rscale>  0 0.17425687E+03</rscale>
<asrwt>0</asrwt>
<pdfrwt beam="2">  1        2 0.10394033E+00 0.18032672E+03</pdfrwt>
<pdfrwt beam="1">  1       -2 0.67602956E-02 0.18032672E+03</pdfrwt>
<totfact> 0.52825701E+03</totfact>
</mgrwt>
</event>
<event>
 6    1  0.7270761E-006  0.3284533E+03  0.7546771E-02  0.1071823E+00
         -1   -1    0    0    0  501 -0.00000000000E+00  0.00000000000E+00  0.33386444165E+03  0.33386444165E+03  0.00000000000E+00 0.  1.
          1   -1    0    0  501    0  0.00000000000E+00 -0.00000000000E+00 -0.80782485031E+02  0.80782485031E+02  0.00000000000E+00 0. -1.
          5    1    1    2  502    0 -0.87611646925E+02  0.62631697571E+02  0.22759282739E+03  0.25183152165E+03  0.47000000000E+01 0. -1.
         -5    1    1    2    0  502  0.26492363214E+02 -0.18474226546E+02  0.30426802716E+02  0.44620877161E+02  0.47000000000E+01 0. -1.
        -11    1    1    2    0    0  0.38300658593E+02  0.23665132659E+02  0.72614140268E+01  0.45603805610E+02  0.00000000000E+00 0.  1.
         11    1    1    2    0    0  0.22818625118E+02 -0.67822603684E+02 -0.12199087510E+02  0.72590722264E+02  0.00000000000E+00 0. -1.
<mgrwt>
<rscale>  0 0.32845334E+03</rscale>
<asrwt>0</asrwt>
<pdfrwt beam="2">  1        1 0.12428075E-01 0.32845334E+03</pdfrwt>
<pdfrwt beam="1">  1       -1 0.51363760E-01 0.32845334E+03</pdfrwt>
<totfact> 0.18746796E+03</totfact>
</mgrwt>
</event>
<event>
 6    1  0.7270761E-006  0.1299336E+03  0.7546771E-02  0.1240900E+00
          1   -1    0    0  501    0  0.00000000000E+00  0.00000000000E+00  0.70890986585E+02  0.70890986585E+02  0.00000000000E+00 0. -1.
         -1   -1    0    0    0  501 -0.00000000000E+00 -0.00000000000E+00 -0.18626304333E+03  0.18626304333E+03  0.00000000000E+00 0.  1.
          5    1    1    2  502    0  0.44269345150E+02  0.24521657503E+02 -0.41591061392E+02  0.65673381171E+02  0.47000000000E+01 0.  1.
         -5    1    1    2    0  502 -0.76873678281E+02 -0.10590515505E+02 -0.36090094385E+02  0.85710596450E+02  0.47000000000E+01 0.  1.
        -11    1    1    2    0    0  0.18508437486E+02  0.37802750081E+02 -0.36304139680E+01  0.42246775941E+02  0.00000000000E+00 0. -1.
         11    1    1    2    0    0  0.14095895644E+02 -0.51733892078E+02 -0.34060486995E+02  0.63523276348E+02  0.00000000000E+00 0.  1.
<mgrwt>
<rscale>  0 0.12134158E+03</rscale>
<asrwt>0</asrwt>
<pdfrwt beam="1">  1        1 0.10906306E-01 0.12993362E+03</pdfrwt>
<pdfrwt beam="2">  1       -1 0.28655853E-01 0.12993362E+03</pdfrwt>
<totfact> 0.59733810E+03</totfact>
</mgrwt>
</event>
<event>
 6    1  0.8279511E-006  0.2512812E+03  0.7546771E-02  0.1114986E+00
         -2   -1    0    0    0  501 -0.00000000000E+00  0.00000000000E+00  0.65243293581E+02  0.65243293581E+02  0.00000000000E+00 0.  1.
          2   -1    0    0  501    0  0.00000000000E+00 -0.00000000000E+00 -0.10706536862E+04  0.10706536862E+04  0.00000000000E+00 0. -1.
          5    1    1    2  502    0  0.18231656693E+02 -0.21528945646E+02 -0.12757079888E+03  0.13073747563E+03  0.47000000000E+01 0.  1.
         -5    1    1    2    0  502  0.11340946787E+02 -0.19443969617E+03 -0.16842581083E+03  0.25753593200E+03  0.47000000000E+01 0.  1.
        -11    1    1    2    0    0 -0.57875050145E+02  0.10052389360E+03 -0.38636811720E+03  0.40340413558E+03  0.00000000000E+00 0.  1.
         11    1    1    2    0    0  0.28302446665E+02  0.11544474821E+03 -0.32304566568E+03  0.34421943654E+03  0.00000000000E+00 0. -1.
<mgrwt>
<rscale>  0 0.24735784E+03</rscale>
<asrwt>0</asrwt>
<pdfrwt beam="2">  1        2 0.16471595E+00 0.25128121E+03</pdfrwt>
<pdfrwt beam="1">  1       -2 0.10037430E-01 0.25128121E+03</pdfrwt>
<totfact> 0.15692004E+03</totfact>
</mgrwt>
</event>
<event>
 6    1  0.7270761E-006  0.1270844E+03  0.7546771E-02  0.1246857E+00
          2   -1    0    0  501    0  0.00000000000E+00  0.00000000000E+00  0.15412638116E+02  0.15412638116E+02  0.00000000000E+00 0.  1.
         -2   -1    0    0    0  501 -0.00000000000E+00 -0.00000000000E+00 -0.11371714117E+04  0.11371714117E+04  0.00000000000E+00 0. -1.
          5    1    1    2  502    0  0.23730217443E+02 -0.17047554273E+02 -0.54232183298E+02  0.61781567088E+02  0.47000000000E+01 0.  1.
         -5    1    1    2    0  502 -0.17141406060E+02  0.39016319788E+02 -0.88137357478E+03  0.88241575764E+03  0.47000000000E+01 0.  1.
        -11    1    1    2    0    0  0.13605987535E+02 -0.53961350302E+02 -0.11701533384E+03  0.12957445187E+03  0.00000000000E+00 0. -1.
         11    1    1    2    0    0 -0.20194798919E+02  0.31992584787E+02 -0.69137681704E+02  0.78812273258E+02  0.00000000000E+00 0.  1.
<mgrwt>
<rscale>  0 0.11774897E+03</rscale>
<asrwt>0</asrwt>
<pdfrwt beam="1">  1        2 0.23711754E-02 0.12708443E+03</pdfrwt>
<pdfrwt beam="2">  1       -2 0.17494943E+00 0.12708443E+03</pdfrwt>
<totfact> 0.87994356E+02</totfact>
</mgrwt>
</event>
<event>
 6    1  0.7270761E-006  0.2252013E+03  0.7546771E-02  0.1130064E+00
          2   -1    0    0  501    0  0.00000000000E+00  0.00000000000E+00  0.44519573195E+03  0.44519573195E+03  0.00000000000E+00 0. -1.
         -2   -1    0    0    0  501 -0.00000000000E+00 -0.00000000000E+00 -0.28479388380E+02  0.28479388380E+02  0.00000000000E+00 0.  1.
          5    1    1    2  502    0 -0.91568527600E+01  0.93297393668E+01 -0.11461471311E+02  0.18009645020E+02  0.47000000000E+01 0. -1.
         -5    1    1    2    0  502  0.47108800708E+02 -0.22328377602E+02  0.23919610139E+03  0.24485640786E+03  0.47000000000E+01 0. -1.
        -11    1    1    2    0    0 -0.38049751795E+02 -0.91053474438E+01  0.18404864795E+03  0.18816108997E+03  0.00000000000E+00 0. -1.
         11    1    1    2    0    0  0.97803846697E-01  0.22103985679E+02  0.49330655367E+01  0.22647977483E+02  0.00000000000E+00 0.  1.
<mgrwt>
<rscale>  0 0.22520126E+03</rscale>
<asrwt>0</asrwt>
<pdfrwt beam="1">  1        2 0.68491646E-01 0.22520126E+03</pdfrwt>
<pdfrwt beam="2">  1       -2 0.43814447E-02 0.22520126E+03</pdfrwt>
<totfact> 0.16636110E+04</totfact>
</mgrwt>
</event>
<event>
 6    1  0.7270761E-006  0.1477618E+03  0.7546771E-02  0.1212831E+00
          4   -1    0    0  501    0  0.00000000000E+00  0.00000000000E+00  0.13312692796E+03  0.13312692796E+03  0.00000000000E+00 0. -1.
         -4   -1    0    0    0  501 -0.00000000000E+00 -0.00000000000E+00 -0.15905984070E+03  0.15905984070E+03  0.00000000000E+00 0.  1.
          5    1    1    2  502    0 -0.16155586201E+02  0.48783877405E+02 -0.80592372525E+02  0.95697910998E+02  0.47000000000E+01 0.  1.
         -5    1    1    2    0  502 -0.59004949690E+02 -0.32176438924E+02  0.99140631785E+01  0.68097620799E+02  0.47000000000E+01 0.  1.
        -11    1    1    2    0    0  0.88716827066E+02 -0.63614628808E+01  0.58560130705E+02  0.10649146690E+03  0.00000000000E+00 0. -1.
         11    1    1    2    0    0 -0.13556291176E+02 -0.10245975600E+02 -0.13814734090E+02  0.21899769962E+02  0.00000000000E+00 0.  1.
<mgrwt>
<rscale>  0 0.14037049E+03</rscale>
<asrwt>0</asrwt>
<pdfrwt beam="1">  1        4 0.20481066E-01 0.14776181E+03</pdfrwt>
<pdfrwt beam="2">  1       -4 0.24470745E-01 0.14776181E+03</pdfrwt>
<totfact> 0.56756535E+02</totfact>
</mgrwt>
</event>
<event>
 6    1  0.7270761E-006  0.1553964E+03  0.7546771E-02  0.1203424E+00
          2   -1    0    0  501    0  0.00000000000E+00  0.00000000000E+00  0.43433237187E+02  0.43433237187E+02  0.00000000000E+00 0. -1.
         -2   -1    0    0    0  501 -0.00000000000E+00 -0.00000000000E+00 -0.52811367444E+03  0.52811367444E+03  0.00000000000E+00 0.  1.
          5    1    1    2  502    0 -0.12219194860E+03  0.13152876804E+01 -0.29000117254E+03  0.31473063461E+03  0.47000000000E+01 0.  1.
         -5    1    1    2    0  502  0.30499444140E+02 -0.11987614119E+02 -0.77761002994E+02  0.84514984303E+02  0.47000000000E+01 0.  1.
        -11    1    1    2    0    0  0.77137193896E+02 -0.90306137477E+01 -0.12443083163E+03  0.14667900506E+03  0.00000000000E+00 0.  1.
         11    1    1    2    0    0  0.14555310564E+02  0.19702940187E+02  0.75125699151E+01  0.25622287649E+02  0.00000000000E+00 0. -1.
<mgrwt>
<rscale>  0 0.14762377E+03</rscale>
<asrwt>0</asrwt>
<pdfrwt beam="1">  1        2 0.66820361E-02 0.15539642E+03</pdfrwt>
<pdfrwt beam="2">  1       -2 0.81248262E-01 0.15539642E+03</pdfrwt>
<totfact> 0.14390380E+03</totfact>
</mgrwt>
</event>
<event>
 6    1  0.7270761E-006  0.1338079E+03  0.7546771E-02  0.1235290E+00
          2   -1    0    0  501    0  0.00000000000E+00  0.00000000000E+00  0.14937485415E+03  0.14937485415E+03  0.00000000000E+00 0. -1.
         -2   -1    0    0    0  501 -0.00000000000E+00 -0.00000000000E+00 -0.10621139736E+03  0.10621139736E+03  0.00000000000E+00 0.  1.
          5    1    1    2  502    0  0.23644781887E+01 -0.19069897548E+02 -0.70615203551E+02  0.73333817044E+02  0.47000000000E+01 0.  1.
         -5    1    1    2    0  502 -0.32907503546E+02 -0.17596090192E+02  0.49459889163E+02  0.62136115228E+02  0.47000000000E+01 0.  1.
        -11    1    1    2    0    0  0.22513892815E+02 -0.15571992202E+02 -0.98072023895E+01  0.29078231196E+02  0.00000000000E+00 0.  1.
         11    1    1    2    0    0  0.80291325425E+01  0.52237979942E+02  0.74125973563E+02  0.91038088043E+02  0.00000000000E+00 0. -1.
<mgrwt>
<rscale>  0 0.12485866E+03</rscale>
<asrwt>0</asrwt>
<pdfrwt beam="1">  1        2 0.22980747E-01 0.13380790E+03</pdfrwt>
<pdfrwt beam="2">  1       -2 0.16340215E-01 0.13380790E+03</pdfrwt>
<totfact> 0.66567999E+03</totfact>
</mgrwt>
</event>
<event>
 6    1  0.7270761E-006  0.2694087E+03  0.7546771E-02  0.1103543E+00
         -1   -1    0    0    0  501 -0.00000000000E+00  0.00000000000E+00  0.58105179833E+02  0.58105179833E+02  0.00000000000E+00 0.  1.
          1   -1    0    0  501    0  0.00000000000E+00 -0.00000000000E+00 -0.13876035331E+04  0.13876035331E+04  0.00000000000E+00 0. -1.
          5    1    1    2  502    0  0.14445836412E+02  0.15659438042E+02 -0.12729217184E+03  0.12914831474E+03  0.47000000000E+01 0.  1.
         -5    1    1    2    0  502 -0.34049166195E+02  0.22219186825E+03 -0.27841840719E+03  0.35786515826E+03  0.47000000000E+01 0.  1.
        -11    1    1    2    0    0  0.26791692857E+02 -0.71254393136E+02 -0.16374913212E+03  0.18057896228E+03  0.00000000000E+00 0.  1.
         11    1    1    2    0    0 -0.71883630744E+01 -0.16659691315E+03 -0.76003864211E+03  0.77811627765E+03  0.00000000000E+00 0. -1.
<mgrwt>
<rscale>  0 0.26608163E+03</rscale>
<asrwt>0</asrwt>
<pdfrwt beam="2">  1        1 0.21347745E+00 0.26940870E+03</pdfrwt>
<pdfrwt beam="1">  1       -1 0.89392593E-02 0.26940870E+03</pdfrwt>
<totfact> 0.61863480E+02</totfact>
</mgrwt>
</event>
<event>
 6    1  0.7270761E-006  0.1785037E+03  0.7546771E-02  0.1180628E+00
          2   -1    0    0  501    0  0.00000000000E+00  0.00000000000E+00  0.89368900698E+03  0.89368900698E+03  0.00000000000E+00 0. -1.
         -2   -1    0    0    0  501 -0.00000000000E+00 -0.00000000000E+00 -0.28011953393E+02  0.28011953393E+02  0.00000000000E+00 0.  1.
          5    1    1    2  502    0  0.11573556341E+03  0.18768179517E+02  0.49081417939E+03  0.50464602831E+03  0.47000000000E+01 0.  1.
         -5    1    1    2    0  502  0.70814040205E+01  0.15217256174E+02 -0.20137001073E+00  0.17431056143E+02  0.47000000000E+01 0.  1.
        -11    1    1    2    0    0 -0.49121150558E+01  0.10526559945E+02  0.25059603090E+02  0.27621025426E+02  0.00000000000E+00 0. -1.
         11    1    1    2    0    0 -0.11790485238E+03 -0.44511995636E+02  0.35000464112E+03  0.37200285049E+03  0.00000000000E+00 0.  1.
<mgrwt>
<rscale>  0 0.16736087E+03</rscale>
<asrwt>0</asrwt>
<pdfrwt beam="1">  1        2 0.13749059E+00 0.17850365E+03</pdfrwt>
<pdfrwt beam="2">  1       -2 0.43095320E-02 0.17850365E+03</pdfrwt>
<totfact> 0.73792514E+03</totfact>
</mgrwt>
</event>
<event>
 6    1  0.7270761E-006  0.1270152E+03  0.7546771E-02  0.1246736E+00
         -2   -1    0    0    0  501 -0.00000000000E+00  0.00000000000E+00  0.46521164292E+02  0.46521164292E+02  0.00000000000E+00 0.  1.
          2   -1    0    0  501    0  0.00000000000E+00 -0.00000000000E+00 -0.26261177387E+03  0.26261177387E+03  0.00000000000E+00 0. -1.
          5    1    1    2  502    0  0.36031748939E+02  0.29785557690E+02 -0.11968035725E+02  0.48484948774E+02  0.47000000000E+01 0. -1.
         -5    1    1    2    0  502 -0.58139011510E+02 -0.25341319079E+02 -0.11319662606E+03  0.12983795001E+03  0.47000000000E+01 0. -1.
        -11    1    1    2    0    0  0.41202696104E+02 -0.26662608904E+02 -0.18093432184E+02  0.52306110236E+02  0.00000000000E+00 0.  1.
         11    1    1    2    0    0 -0.19095433533E+02  0.22218370293E+02 -0.72832515606E+02  0.78503929136E+02  0.00000000000E+00 0. -1.
<mgrwt>
<rscale>  0 0.11782061E+03</rscale>
<asrwt>0</asrwt>
<pdfrwt beam="2">  1        2 0.40401811E-01 0.12701521E+03</pdfrwt>
<pdfrwt beam="1">  1       -2 0.71571022E-02 0.12701521E+03</pdfrwt>
<totfact> 0.13299904E+04</totfact>
</mgrwt>
</event>
<event>
 6    1  0.7270761E-006  0.1339213E+03  0.7546771E-02  0.1234988E+00
         -2   -1    0    0    0  501 -0.00000000000E+00  0.00000000000E+00  0.83757237937E+02  0.83757237937E+02  0.00000000000E+00 0.  1.
          2   -1    0    0  501    0  0.00000000000E+00 -0.00000000000E+00 -0.17174097832E+03  0.17174097832E+03  0.00000000000E+00 0. -1.
          5    1    1    2  502    0 -0.56346059263E+01  0.71007553787E+02 -0.13611207402E+02  0.72671703198E+02  0.47000000000E+01 0.  1.
         -5    1    1    2    0  502 -0.37508242064E+02 -0.49813515143E+02 -0.12762267980E+02  0.63821783096E+02  0.47000000000E+01 0.  1.
        -11    1    1    2    0    0 -0.14295159974E+02 -0.19873619525E+02  0.10642139883E+02  0.26693959860E+02  0.00000000000E+00 0.  1.
         11    1    1    2    0    0  0.57438007964E+02 -0.13204191192E+01 -0.72252404885E+02  0.92310770104E+02  0.00000000000E+00 0. -1.
<mgrwt>
<rscale>  0 0.12505187E+03</rscale>
<asrwt>0</asrwt>
<pdfrwt beam="2">  1        2 0.26421689E-01 0.13392129E+03</pdfrwt>
<pdfrwt beam="1">  1       -2 0.12885729E-01 0.13392129E+03</pdfrwt>
<totfact> 0.83999092E+03</totfact>
</mgrwt>
</event>
<event>
 6    1  0.7270761E-006  0.3580855E+03  0.7546771E-02  0.1059344E+00
          2   -1    0    0  501    0  0.00000000000E+00  0.00000000000E+00  0.25275271916E+03  0.25275271916E+03  0.00000000000E+00 0. -1.
         -2   -1    0    0    0  501 -0.00000000000E+00 -0.00000000000E+00 -0.12682876223E+03  0.12682876223E+03  0.00000000000E+00 0.  1.
          5    1    1    2  502    0 -0.12674515793E+03  0.58477051191E+02 -0.16483067882E+02  0.14063314723E+03  0.47000000000E+01 0.  1.
         -5    1    1    2    0  502  0.66546400067E+01  0.10762188289E+02  0.46501291823E+02  0.48420750423E+02  0.47000000000E+01 0.  1.
        -11    1    1    2    0    0  0.24873537695E+02 -0.18149135697E+02 -0.16224969359E+02  0.34804218634E+02  0.00000000000E+00 0.  1.
         11    1    1    2    0    0  0.95216980224E+02 -0.51090103784E+02  0.11213070235E+03  0.15572336510E+03  0.00000000000E+00 0. -1.
<mgrwt>
<rscale>  0 0.35808555E+03</rscale>
<asrwt>0</asrwt>
<pdfrwt beam="1">  1        2 0.38885034E-01 0.35808555E+03</pdfrwt>
<pdfrwt beam="2">  1       -2 0.19512117E-01 0.35808555E+03</pdfrwt>
<totfact> 0.29031755E+03</totfact>
</mgrwt>
</event>
<event>
 6    1  0.7270761E-006  0.2167345E+03  0.7546771E-02  0.1140004E+00
          2   -1    0    0  501    0  0.00000000000E+00  0.00000000000E+00  0.21776013553E+04  0.21776013553E+04  0.00000000000E+00 0. -1.
         -2   -1    0    0    0  501 -0.00000000000E+00 -0.00000000000E+00 -0.19938363971E+02  0.19938363971E+02  0.00000000000E+00 0.  1.
          5    1    1    2  502    0 -0.10371023804E+03 -0.94296234600E+02  0.68675218369E+03  0.70092670454E+03  0.47000000000E+01 0.  1.
         -5    1    1    2    0  502 -0.63186013003E+02  0.35182801475E+02  0.53722172095E+03  0.54208815631E+03  0.47000000000E+01 0.  1.
        -11    1    1    2    0    0  0.47444886268E+02  0.62941546875E+02  0.36512850468E+03  0.37353912845E+03  0.00000000000E+00 0.  1.
         11    1    1    2    0    0  0.11945136477E+03 -0.38281137496E+01  0.56856058196E+03  0.58098572991E+03  0.00000000000E+00 0. -1.
<mgrwt>
<rscale>  0 0.21198424E+03</rscale>
<asrwt>0</asrwt>
<pdfrwt beam="1">  1        2 0.33501541E+00 0.21673446E+03</pdfrwt>
<pdfrwt beam="2">  1       -2 0.30674423E-02 0.21673446E+03</pdfrwt>
<totfact> 0.24583288E+03</totfact>
</mgrwt>
</event>
<event>
 6    1  0.7270761E-006  0.2120149E+03  0.7546771E-02  0.1178121E+00
         -1   -1    0    0    0  501 -0.00000000000E+00  0.00000000000E+00  0.16268041937E+02  0.16268041937E+02  0.00000000000E+00 0.  1.
          1   -1    0    0  501    0  0.00000000000E+00 -0.00000000000E+00 -0.13756613362E+04  0.13756613362E+04  0.00000000000E+00 0. -1.
          5    1    1    2  502    0  0.11877591140E+02  0.88800907784E+02 -0.25672817975E+03  0.27195243458E+03  0.47000000000E+01 0. -1.
         -5    1    1    2    0  502 -0.62785739541E+02 -0.86128118404E+02 -0.69208854821E+03  0.70026334363E+03  0.47000000000E+01 0.  1.
        -11    1    1    2    0    0  0.65384532635E+02 -0.15990226106E+02 -0.32657225454E+03  0.33343704335E+03  0.00000000000E+00 0.  1.
         11    1    1    2    0    0 -0.14476384234E+02  0.13317436726E+02 -0.84004311738E+02  0.86276556561E+02  0.00000000000E+00 0. -1.
<mgrwt>
<rscale>  0 0.16973806E+03</rscale>
<asrwt>0</asrwt>
<pdfrwt beam="2">  1        1 0.21164025E+00 0.21201494E+03</pdfrwt>
<pdfrwt beam="1">  1       -1 0.25027752E-02 0.21201494E+03</pdfrwt>
<totfact> 0.42538080E+03</totfact>
</mgrwt>
</event>
<event>
 6    1  0.7270761E-006  0.1420845E+03  0.7546771E-02  0.1220832E+00
          2   -1    0    0  501    0  0.00000000000E+00  0.00000000000E+00  0.86230135106E+02  0.86230135106E+02  0.00000000000E+00 0. -1.
         -2   -1    0    0    0  501 -0.00000000000E+00 -0.00000000000E+00 -0.19766069624E+03  0.19766069624E+03  0.00000000000E+00 0.  1.
          5    1    1    2  502    0 -0.12173423667E+02  0.10375334507E+03 -0.60391478275E+02  0.12075665408E+03  0.47000000000E+01 0.  1.
         -5    1    1    2    0  502  0.54216332668E+01 -0.36542068551E+02 -0.27812976037E+02  0.46479764600E+02  0.47000000000E+01 0.  1.
        -11    1    1    2    0    0  0.73166512060E+01 -0.90602595341E+02 -0.19416283589E+02  0.92948134655E+02  0.00000000000E+00 0.  1.
         11    1    1    2    0    0 -0.56486080591E+00  0.23391318825E+02 -0.38098232335E+01  0.23706278011E+02  0.00000000000E+00 0. -1.
<mgrwt>
<rscale>  0 0.13456726E+03</rscale>
<asrwt>0</asrwt>
<pdfrwt beam="1">  1        2 0.13266175E-01 0.14208446E+03</pdfrwt>
<pdfrwt beam="2">  1       -2 0.30409337E-01 0.14208446E+03</pdfrwt>
<totfact> 0.43176784E+03</totfact>
</mgrwt>
</event>
<event>
 6    1  0.7270761E-006  0.1480037E+03  0.7546771E-02  0.1220139E+00
         -1   -1    0    0    0  501 -0.00000000000E+00  0.00000000000E+00  0.81979240379E+02  0.81979240379E+02  0.00000000000E+00 0.  1.
          1   -1    0    0  501    0  0.00000000000E+00 -0.00000000000E+00 -0.22042721988E+03  0.22042721988E+03  0.00000000000E+00 0. -1.
          5    1    1    2  502    0  0.56944039943E+02  0.91654532046E+01 -0.42924893139E+02  0.72050438364E+02  0.47000000000E+01 0. -1.
         -5    1    1    2    0  502 -0.67575227925E+02  0.35417041507E+02  0.16743992382E+02  0.78251067335E+02  0.47000000000E+01 0.  1.
        -11    1    1    2    0    0 -0.96160285066E+01  0.22187695755E+02 -0.58922887223E+01  0.24889373506E+02  0.00000000000E+00 0.  1.
         11    1    1    2    0    0  0.20247216489E+02 -0.66770190466E+02 -0.10637479002E+03  0.12721558105E+03  0.00000000000E+00 0. -1.
<mgrwt>
<rscale>  0 0.13505742E+03</rscale>
<asrwt>0</asrwt>
<pdfrwt beam="2">  1        1 0.33911880E-01 0.14800373E+03</pdfrwt>
<pdfrwt beam="1">  1       -1 0.12612191E-01 0.14800373E+03</pdfrwt>
<totfact> 0.52733060E+03</totfact>
</mgrwt>
</event>
<event>
 6    1  0.7270761E-006  0.1503080E+03  0.7546771E-02  0.1209616E+00
          1   -1    0    0  501    0  0.00000000000E+00  0.00000000000E+00  0.45905333444E+03  0.45905333444E+03  0.00000000000E+00 0. -1.
         -1   -1    0    0    0  501 -0.00000000000E+00 -0.00000000000E+00 -0.40717018757E+02  0.40717018757E+02  0.00000000000E+00 0.  1.
          5    1    1    2  502    0  0.15644706717E+02  0.43983052669E+02  0.14440258118E+03  0.15183366301E+03  0.47000000000E+01 0.  1.
         -5    1    1    2    0  502 -0.90972261441E+02 -0.77140966041E+01  0.10365629473E+03  0.13821062577E+03  0.47000000000E+01 0.  1.
        -11    1    1    2    0    0  0.22644246231E+02 -0.51286335651E+02  0.13047966617E+03  0.14201406056E+03  0.00000000000E+00 0. -1.
         11    1    1    2    0    0  0.52683308494E+02  0.15017379586E+02  0.39797773595E+02  0.67712003859E+02  0.00000000000E+00 0.  1.
<mgrwt>
<rscale>  0 0.14279530E+03</rscale>
<asrwt>0</asrwt>
<pdfrwt beam="1">  1        1 0.70623586E-01 0.15030796E+03</pdfrwt>
<pdfrwt beam="2">  1       -1 0.62641571E-02 0.15030796E+03</pdfrwt>
<totfact> 0.61120586E+03</totfact>
</mgrwt>
</event>
<event>
 6    1  0.7270761E-006  0.3451376E+03  0.7546771E-02  0.1064629E+00
         -2   -1    0    0    0  501 -0.00000000000E+00  0.00000000000E+00  0.40080975059E+02  0.40080975059E+02  0.00000000000E+00 0.  1.
          2   -1    0    0  501    0  0.00000000000E+00 -0.00000000000E+00 -0.74299547537E+03  0.74299547537E+03  0.00000000000E+00 0. -1.
          5    1    1    2  502    0 -0.39297107353E+01  0.21424582107E+02 -0.14302206516E+03  0.14474756118E+03  0.47000000000E+01 0. -1.
         -5    1    1    2    0  502  0.61805755289E+02  0.93045097630E+02 -0.91936032468E+02  0.14474690202E+03  0.47000000000E+01 0.  1.
        -11    1    1    2    0    0 -0.80903595863E+02 -0.75748578857E+02 -0.35771268579E+03  0.37448845723E+03  0.00000000000E+00 0.  1.
         11    1    1    2    0    0  0.23027551309E+02 -0.38721100879E+02 -0.11024371689E+03  0.11909352999E+03  0.00000000000E+00 0. -1.
<mgrwt>
<rscale>  0 0.34513756E+03</rscale>
<asrwt>0</asrwt>
<pdfrwt beam="2">  1        2 0.11430699E+00 0.34513756E+03</pdfrwt>
<pdfrwt beam="1">  1       -2 0.61663040E-02 0.34513756E+03</pdfrwt>
<totfact> 0.55494295E+03</totfact>
</mgrwt>
</event>
<event>
 6    1  0.7270761E-006  0.4123074E+03  0.7546771E-02  0.1039599E+00
         -1   -1    0    0    0  501 -0.00000000000E+00  0.00000000000E+00  0.65324445714E+03  0.65324445714E+03  0.00000000000E+00 0.  1.
          1   -1    0    0  501    0  0.00000000000E+00 -0.00000000000E+00 -0.65058860199E+02  0.65058860199E+02  0.00000000000E+00 0. -1.
          5    1    1    2  502    0  0.30293636579E+02 -0.16256176694E+02  0.19269592258E+02  0.39690992476E+02  0.47000000000E+01 0.  1.
         -5    1    1    2    0  502  0.39740070451E+02 -0.42465307005E+02  0.46715898641E+03  0.47078889545E+03  0.47000000000E+01 0.  1.
        -11    1    1    2    0    0  0.30116903311E+02  0.62573250342E+02  0.78743820772E+02  0.10499061307E+03  0.00000000000E+00 0.  1.
         11    1    1    2    0    0 -0.10015061034E+03 -0.38517666423E+01  0.23013197507E+02  0.10283281635E+03  0.00000000000E+00 0. -1.
<mgrwt>
<rscale>  0 0.41230736E+03</rscale>
<asrwt>0</asrwt>
<pdfrwt beam="2">  1        1 0.10009056E-01 0.41230736E+03</pdfrwt>
<pdfrwt beam="1">  1       -1 0.10049914E+00 0.41230736E+03</pdfrwt>
<totfact> 0.63959793E+02</totfact>
</mgrwt>
</event>
<event>
 6    1  0.7270761E-006  0.2146388E+03  0.7546771E-02  0.1141857E+00
          2   -1    0    0  501    0  0.00000000000E+00  0.00000000000E+00  0.34408541925E+03  0.34408541925E+03  0.00000000000E+00 0. -1.
         -2   -1    0    0    0  501 -0.00000000000E+00 -0.00000000000E+00 -0.19192229380E+03  0.19192229380E+03  0.00000000000E+00 0.  1.
          5    1    1    2  502    0 -0.35660918831E+01  0.16654971736E+02 -0.65016107290E+02  0.67374248062E+02  0.47000000000E+01 0.  1.
         -5    1    1    2    0  502  0.84264449476E+02  0.13804509641E+03 -0.18152665252E+02  0.16281448137E+03  0.47000000000E+01 0.  1.
        -11    1    1    2    0    0  0.92281173677E-01 -0.87028250106E+02  0.80680818405E+02  0.11867316163E+03  0.00000000000E+00 0.  1.
         11    1    1    2    0    0 -0.80790638766E+02 -0.67671818044E+02  0.15465107958E+03  0.18714582198E+03  0.00000000000E+00 0. -1.
<mgrwt>
<rscale>  0 0.20963299E+03</rscale>
<asrwt>0</asrwt>
<pdfrwt beam="1">  1        2 0.52936218E-01 0.21463878E+03</pdfrwt>
<pdfrwt beam="2">  1       -2 0.29526507E-01 0.21463878E+03</pdfrwt>
<totfact> 0.99012970E+02</totfact>
</mgrwt>
</event>
<event>
 6    1  0.7270761E-006  0.1939224E+03  0.7546771E-02  0.1159589E+00
         -2   -1    0    0    0  501 -0.00000000000E+00  0.00000000000E+00  0.26219642465E+02  0.26219642465E+02  0.00000000000E+00 0.  1.
          2   -1    0    0  501    0  0.00000000000E+00 -0.00000000000E+00 -0.13483279315E+04  0.13483279315E+04  0.00000000000E+00 0. -1.
          5    1    1    2  502    0  0.56729123161E+02  0.58909560110E+02 -0.14181622142E+03  0.16377564027E+03  0.47000000000E+01 0.  1.
         -5    1    1    2    0  502 -0.37522049811E+02  0.88103991435E+02 -0.41207117483E+03  0.42307796050E+03  0.47000000000E+01 0.  1.
        -11    1    1    2    0    0  0.93406316486E+01 -0.13384243093E+03 -0.69768698763E+03  0.71047039095E+03  0.00000000000E+00 0. -1.
         11    1    1    2    0    0 -0.28547704998E+02 -0.13171120612E+02 -0.70533905133E+02  0.77223582228E+02  0.00000000000E+00 0.  1.
<mgrwt>
<rscale>  0 0.18875504E+03</rscale>
<asrwt>0</asrwt>
<pdfrwt beam="2">  1        2 0.20743505E+00 0.19392241E+03</pdfrwt>
<pdfrwt beam="1">  1       -2 0.40337914E-02 0.19392241E+03</pdfrwt>
<totfact> 0.44479005E+03</totfact>
</mgrwt>
</event>
<event>
 6    1  0.7270761E-006  0.2390026E+03  0.7546771E-02  0.1120459E+00
         -1   -1    0    0    0  501 -0.00000000000E+00  0.00000000000E+00  0.95705168274E+02  0.95705168274E+02  0.00000000000E+00 0.  1.
          1   -1    0    0  501    0  0.00000000000E+00 -0.00000000000E+00 -0.14921411596E+03  0.14921411596E+03  0.00000000000E+00 0. -1.
          5    1    1    2  502    0  0.27102723775E+01  0.40502752825E+01 -0.75527031543E+02  0.75829893841E+02  0.47000000000E+01 0.  1.
         -5    1    1    2    0  502 -0.41647492697E+02 -0.36934379544E+02  0.33890110271E+02  0.65339816456E+02  0.47000000000E+01 0.  1.
        -11    1    1    2    0    0  0.15736545695E+02  0.63064834794E+02 -0.77870375091E+01  0.65463350137E+02  0.00000000000E+00 0. -1.
         11    1    1    2    0    0  0.23200674625E+02 -0.30180730532E+02 -0.40849889037E+01  0.38286223800E+02  0.00000000000E+00 0.  1.
<mgrwt>
<rscale>  0 0.23900261E+03</rscale>
<asrwt>0</asrwt>
<pdfrwt beam="2">  1        1 0.22956018E-01 0.23900261E+03</pdfrwt>
<pdfrwt beam="1">  1       -1 0.14723872E-01 0.23900261E+03</pdfrwt>
<totfact> 0.69549701E+03</totfact>
</mgrwt>
</event>
<event>
 6    1  0.7270761E-006  0.1281413E+03  0.7546771E-02  0.1245322E+00
         -4   -1    0    0    0  501 -0.00000000000E+00  0.00000000000E+00  0.26918684175E+03  0.26918684175E+03  0.00000000000E+00 0.  1.
          4   -1    0    0  501    0  0.00000000000E+00 -0.00000000000E+00 -0.47574103989E+02  0.47574103989E+02  0.00000000000E+00 0. -1.
          5    1    1    2  502    0 -0.57408586983E+02 -0.48773947707E+02  0.83653445218E+02  0.11267046077E+03  0.47000000000E+01 0.  1.
         -5    1    1    2    0  502  0.46763292823E+02  0.22664583780E+02  0.72641308229E+02  0.89439021545E+02  0.47000000000E+01 0.  1.
        -11    1    1    2    0    0 -0.31664124154E+01  0.23221861279E+02  0.86266783559E+02  0.89393729950E+02  0.00000000000E+00 0.  1.
         11    1    1    2    0    0  0.13811706575E+02  0.28875026476E+01 -0.20948799247E+02  0.25257733468E+02  0.00000000000E+00 0. -1.
<mgrwt>
<rscale>  0 0.11866138E+03</rscale>
<asrwt>0</asrwt>
<pdfrwt beam="2">  1        4 0.73190931E-02 0.12814130E+03</pdfrwt>
<pdfrwt beam="1">  1       -4 0.41413360E-01 0.12814130E+03</pdfrwt>
<totfact> 0.11841089E+03</totfact>
</mgrwt>
</event>
<event>
 6    1  0.7270761E-006  0.2879278E+03  0.7546771E-02  0.1092269E+00
         -1   -1    0    0    0  501 -0.00000000000E+00  0.00000000000E+00  0.69739209984E+02  0.69739209984E+02  0.00000000000E+00 0.  1.
          1   -1    0    0  501    0  0.00000000000E+00 -0.00000000000E+00 -0.14916664749E+04  0.14916664749E+04  0.00000000000E+00 0. -1.
          5    1    1    2  502    0  0.30527723768E+02  0.66346867624E+01 -0.11498305079E+03  0.11924408982E+03  0.47000000000E+01 0. -1.
         -5    1    1    2    0  502  0.18590473250E+03  0.14747778945E+03 -0.23566851608E+03  0.33447273046E+03  0.47000000000E+01 0.  1.
        -11    1    1    2    0    0 -0.17944345317E+02  0.90769104348E+01 -0.38604609889E+02  0.43528217705E+02  0.00000000000E+00 0.  1.
         11    1    1    2    0    0 -0.19848811096E+03 -0.16318938665E+03 -0.10326710882E+04  0.10641606469E+04  0.00000000000E+00 0. -1.
<mgrwt>
<rscale>  0 0.28635271E+03</rscale>
<asrwt>0</asrwt>
<pdfrwt beam="2">  1        1 0.22948713E+00 0.28792782E+03</pdfrwt>
<pdfrwt beam="1">  1       -1 0.10729110E-01 0.28792782E+03</pdfrwt>
<totfact> 0.39611616E+02</totfact>
</mgrwt>
</event>
<event>
 6    1  0.7270761E-006  0.1743540E+03  0.7546771E-02  0.1179416E+00
         -1   -1    0    0    0  501 -0.00000000000E+00  0.00000000000E+00  0.81668372411E+02  0.81668372411E+02  0.00000000000E+00 0.  1.
          1   -1    0    0  501    0  0.00000000000E+00 -0.00000000000E+00 -0.32649412814E+03  0.32649412814E+03  0.00000000000E+00 0. -1.
          5    1    1    2  502    0  0.10640988665E+02  0.11758721437E+03 -0.14425915254E+03  0.18647460072E+03  0.47000000000E+01 0.  1.
         -5    1    1    2    0  502  0.20187750220E+02 -0.13649066852E-01  0.19072250924E+02  0.28167112037E+02  0.47000000000E+01 0.  1.
        -11    1    1    2    0    0 -0.39562731091E+02 -0.10248083148E+03 -0.13230713072E+03  0.17196716940E+03  0.00000000000E+00 0. -1.
         11    1    1    2    0    0  0.87339922063E+01 -0.15092733816E+02  0.12668276603E+02  0.21553618397E+02  0.00000000000E+00 0.  1.
<mgrwt>
<rscale>  0 0.16850464E+03</rscale>
<asrwt>0</asrwt>
<pdfrwt beam="2">  1        1 0.50229866E-01 0.17435396E+03</pdfrwt>
<pdfrwt beam="1">  1       -1 0.12564365E-01 0.17435396E+03</pdfrwt>
<totfact> 0.32807110E+03</totfact>
</mgrwt>
</event>
<event>
 6    1  0.7270761E-006  0.1330340E+03  0.7546771E-02  0.1234938E+00
          3   -1    0    0  501    0  0.00000000000E+00  0.00000000000E+00  0.39852651303E+03  0.39852651303E+03  0.00000000000E+00 0. -1.
         -3   -1    0    0    0  501 -0.00000000000E+00 -0.00000000000E+00 -0.38902213925E+02  0.38902213925E+02  0.00000000000E+00 0.  1.
          5    1    1    2  502    0 -0.21613278015E+02 -0.99495635624E+01  0.15327879674E+03  0.15518571820E+03  0.47000000000E+01 0. -1.
         -5    1    1    2    0  502 -0.23909581515E+02  0.94373260509E+01 -0.20166803772E+02  0.33007895807E+02  0.47000000000E+01 0. -1.
        -11    1    1    2    0    0 -0.23870937684E+02  0.88059480221E+01  0.11383497102E+03  0.11664376115E+03  0.00000000000E+00 0. -1.
         11    1    1    2    0    0  0.69393797214E+02 -0.82937105106E+01  0.11267733511E+03  0.13259135181E+03  0.00000000000E+00 0.  1.
<mgrwt>
<rscale>  0 0.12508398E+03</rscale>
<asrwt>0</asrwt>
<pdfrwt beam="1">  1        3 0.61311768E-01 0.13303396E+03</pdfrwt>
<pdfrwt beam="2">  1       -3 0.59849563E-02 0.13303396E+03</pdfrwt>
<totfact> 0.10347577E+03</totfact>
</mgrwt>
</event>
<event>
 6    1  0.7270761E-006  0.1472908E+03  0.7546771E-02  0.1207577E+00
         -1   -1    0    0    0  501 -0.00000000000E+00  0.00000000000E+00  0.11728672263E+03  0.11728672263E+03  0.00000000000E+00 0. -1.
          1   -1    0    0  501    0  0.00000000000E+00 -0.00000000000E+00 -0.17863799413E+03  0.17863799413E+03  0.00000000000E+00 0.  1.
          5    1    1    2  502    0  0.73817499394E+02 -0.15235491983E+02 -0.71562422643E+01  0.75858059796E+02  0.47000000000E+01 0.  1.
         -5    1    1    2    0  502 -0.43178170239E+02 -0.56405719968E+02  0.59411824737E+01  0.71437716085E+02  0.47000000000E+01 0.  1.
        -11    1    1    2    0    0 -0.38568963948E+02  0.29629640292E+02 -0.85899709648E+02  0.98712920540E+02  0.00000000000E+00 0.  1.
         11    1    1    2    0    0  0.79296347934E+01  0.42011571658E+02  0.25763497939E+02  0.49916020347E+02  0.00000000000E+00 0. -1.
<mgrwt>
<rscale>  0 0.14436182E+03</rscale>
<asrwt>0</asrwt>
<pdfrwt beam="2">  1        1 0.27482768E-01 0.14729076E+03</pdfrwt>
<pdfrwt beam="1">  1       -1 0.18044111E-01 0.14729076E+03</pdfrwt>
<totfact> 0.39021427E+03</totfact>
</mgrwt>
</event>
<event>
 6    1  0.7270761E-006  0.1630194E+03  0.7546771E-02  0.1192738E+00
          3   -1    0    0  501    0  0.00000000000E+00  0.00000000000E+00  0.72277770087E+02  0.72277770087E+02  0.00000000000E+00 0. -1.
         -3   -1    0    0    0  501 -0.00000000000E+00 -0.00000000000E+00 -0.34189884561E+03  0.34189884561E+03  0.00000000000E+00 0.  1.
          5    1    1    2  502    0  0.28947806303E+01  0.24313222987E+02  0.14097712983E+02  0.28641719192E+02  0.47000000000E+01 0. -1.
         -5    1    1    2    0  502 -0.63833595856E+01  0.80273316703E+02 -0.21781953674E+03  0.23227568370E+03  0.47000000000E+01 0. -1.
        -11    1    1    2    0    0  0.38247156591E+02 -0.90331108941E+02 -0.60639963968E+02  0.11532458307E+03  0.00000000000E+00 0.  1.
         11    1    1    2    0    0 -0.34758577636E+02 -0.14255430750E+02 -0.52592878019E+01  0.37934629737E+02  0.00000000000E+00 0. -1.
<mgrwt>
<rscale>  0 0.15647257E+03</rscale>
<asrwt>0</asrwt>
<pdfrwt beam="1">  1        3 0.11119657E-01 0.16301935E+03</pdfrwt>
<pdfrwt beam="2">  1       -3 0.52599822E-01 0.16301935E+03</pdfrwt>
<totfact> 0.52987989E+02</totfact>
</mgrwt>
</event>
<event>
 6    1  0.7270761E-006  0.3059370E+03  0.7546771E-02  0.1082310E+00
          1   -1    0    0  501    0  0.00000000000E+00  0.00000000000E+00  0.40570542568E+03  0.40570542568E+03  0.00000000000E+00 0. -1.
         -1   -1    0    0    0  501 -0.00000000000E+00 -0.00000000000E+00 -0.57675728748E+02  0.57675728748E+02  0.00000000000E+00 0.  1.
          5    1    1    2  502    0  0.84761298018E+01  0.14122749057E+02 -0.19734475725E+02  0.26131137546E+02  0.47000000000E+01 0.  1.
         -5    1    1    2    0  502 -0.12095539525E+02 -0.10228622424E+03  0.11338793100E+03  0.15325693016E+03  0.47000000000E+01 0.  1.
        -11    1    1    2    0    0  0.37033555620E+02  0.98181980483E+01  0.10857722538E+03  0.11513859095E+03  0.00000000000E+00 0.  1.
         11    1    1    2    0    0 -0.33414145897E+02  0.78345277134E+02  0.14579901627E+03  0.16885449577E+03  0.00000000000E+00 0. -1.
<mgrwt>
<rscale>  0 0.30593696E+03</rscale>
<asrwt>0</asrwt>
<pdfrwt beam="1">  1        1 0.62416218E-01 0.30593696E+03</pdfrwt>
<pdfrwt beam="2">  1       -1 0.88731893E-02 0.30593696E+03</pdfrwt>
<totfact> 0.43607994E+03</totfact>
</mgrwt>
</event>
<event>
 6    1  0.7270761E-006  0.1742394E+03  0.7546771E-02  0.1179408E+00
          2   -1    0    0  501    0  0.00000000000E+00  0.00000000000E+00  0.12185049260E+04  0.12185049260E+04  0.00000000000E+00 0. -1.
         -2   -1    0    0    0  501 -0.00000000000E+00 -0.00000000000E+00 -0.22051303723E+02  0.22051303723E+02  0.00000000000E+00 0.  1.
          5    1    1    2  502    0 -0.66925537553E+02 -0.70338798253E+02  0.54264834552E+03  0.55128567096E+03  0.47000000000E+01 0. -1.
         -5    1    1    2    0  502 -0.39476368525E+02  0.11903306482E+02  0.43111468421E+02  0.59839460948E+02  0.47000000000E+01 0. -1.
        -11    1    1    2    0    0  0.12475857148E+02  0.52002582316E+02  0.30205686489E+03  0.30675440536E+03  0.00000000000E+00 0. -1.
         11    1    1    2    0    0  0.93926048929E+02  0.64329094543E+01  0.30863694343E+03  0.32267669244E+03  0.00000000000E+00 0.  1.
<mgrwt>
<rscale>  0 0.16851218E+03</rscale>
<asrwt>0</asrwt>
<pdfrwt beam="1">  1        2 0.18746224E+00 0.17423940E+03</pdfrwt>
<pdfrwt beam="2">  1       -2 0.33925092E-02 0.17423940E+03</pdfrwt>
<totfact> 0.67664067E+03</totfact>
</mgrwt>
</event>
<event>
 6    1  0.7270761E-006  0.1288232E+03  0.7546771E-02  0.1240540E+00
         -1   -1    0    0    0  501 -0.00000000000E+00  0.00000000000E+00  0.49089608955E+03  0.49089608955E+03  0.00000000000E+00 0.  1.
          1   -1    0    0  501    0  0.00000000000E+00 -0.00000000000E+00 -0.27182134092E+02  0.27182134092E+02  0.00000000000E+00 0. -1.
          5    1    1    2  502    0  0.78973106653E+01  0.62814233061E+02  0.20103813827E+03  0.21082319235E+03  0.47000000000E+01 0. -1.
         -5    1    1    2    0  502 -0.30304090347E+02 -0.41195875620E+02  0.51810194900E+02  0.72950835194E+02  0.47000000000E+01 0. -1.
        -11    1    1    2    0    0 -0.10936505172E+02 -0.25367721057E+01 -0.68987553871E+01  0.13177070387E+02  0.00000000000E+00 0. -1.
         11    1    1    2    0    0  0.33343284854E+02 -0.19081585335E+02  0.21776437767E+03  0.22112712571E+03  0.00000000000E+00 0.  1.
<mgrwt>
<rscale>  0 0.12156336E+03</rscale>
<asrwt>0</asrwt>
<pdfrwt beam="2">  1        1 0.41818672E-02 0.12882321E+03</pdfrwt>
<pdfrwt beam="1">  1       -1 0.75522469E-01 0.12882321E+03</pdfrwt>
<totfact> 0.37550525E+03</totfact>
</mgrwt>
</event>
<event>
 6    1  0.7270761E-006  0.1323780E+03  0.7546771E-02  0.1237249E+00
         -3   -1    0    0    0  501 -0.00000000000E+00  0.00000000000E+00  0.40059685240E+02  0.40059685240E+02  0.00000000000E+00 0.  1.
          3   -1    0    0  501    0  0.00000000000E+00 -0.00000000000E+00 -0.33963069738E+03  0.33963069738E+03  0.00000000000E+00 0. -1.
          5    1    1    2  502    0  0.56934548518E+02  0.63147316071E+01 -0.87448302145E+02  0.10464566020E+03  0.47000000000E+01 0. -1.
         -5    1    1    2    0  502 -0.53581417068E+02 -0.49745529317E+02 -0.73962989235E+02  0.10410667471E+03  0.47000000000E+01 0. -1.
        -11    1    1    2    0    0  0.66962379280E+01  0.66093129471E+02 -0.12787018073E+03  0.14409692740E+03  0.00000000000E+00 0.  1.
         11    1    1    2    0    0 -0.10049369378E+02 -0.22662331761E+02 -0.10289540027E+02  0.26841120314E+02  0.00000000000E+00 0. -1.
<mgrwt>
<rscale>  0 0.12361528E+03</rscale>
<asrwt>0</asrwt>
<pdfrwt beam="2">  1        3 0.52250877E-01 0.13237799E+03</pdfrwt>
<pdfrwt beam="1">  1       -3 0.61630284E-02 0.13237799E+03</pdfrwt>
<totfact> 0.13662570E+03</totfact>
</mgrwt>
</event>
<event>
 6    1  0.7270761E-006  0.3037646E+03  0.7546771E-02  0.1083374E+00
         -1   -1    0    0    0  501 -0.00000000000E+00  0.00000000000E+00  0.10282180830E+03  0.10282180830E+03  0.00000000000E+00 0.  1.
          1   -1    0    0  501    0  0.00000000000E+00 -0.00000000000E+00 -0.22435158327E+03  0.22435158327E+03  0.00000000000E+00 0. -1.
          5    1    1    2  502    0  0.10658004736E+03 -0.14908582990E+02  0.26632117962E+02  0.11096365193E+03  0.47000000000E+01 0. -1.
         -5    1    1    2    0  502 -0.13805869472E+02 -0.10701586520E+02 -0.44217441275E+02  0.47774450272E+02  0.47000000000E+01 0. -1.
        -11    1    1    2    0    0 -0.18086771053E+02  0.50442887844E+02 -0.47132487377E+02  0.71365871308E+02  0.00000000000E+00 0. -1.
         11    1    1    2    0    0 -0.74687406833E+02 -0.24832718333E+02 -0.56811964275E+02  0.97069418068E+02  0.00000000000E+00 0.  1.
<mgrwt>
<rscale>  0 0.30376462E+03</rscale>
<asrwt>0</asrwt>
<pdfrwt beam="2">  1        1 0.34515628E-01 0.30376462E+03</pdfrwt>
<pdfrwt beam="1">  1       -1 0.15818740E-01 0.30376462E+03</pdfrwt>
<totfact> 0.37331375E+03</totfact>
</mgrwt>
</event>
<event>
 6    1  0.7270761E-006  0.1719995E+03  0.7546771E-02  0.1191854E+00
          2   -1    0    0  501    0  0.00000000000E+00  0.00000000000E+00  0.21781605170E+03  0.21781605170E+03  0.00000000000E+00 0. -1.
         -2   -1    0    0    0  501 -0.00000000000E+00 -0.00000000000E+00 -0.15355322415E+03  0.15355322415E+03  0.00000000000E+00 0.  1.
          5    1    1    2  502    0  0.37390873741E+02 -0.61788042012E+02  0.29656754088E+02  0.78214146021E+02  0.47000000000E+01 0. -1.
         -5    1    1    2    0  502  0.28501880006E+02  0.14339422711E+02 -0.10450028208E+03  0.10936350014E+03  0.47000000000E+01 0.  1.
        -11    1    1    2    0    0 -0.85659717032E+02  0.28742737595E+02  0.12136405133E+03  0.15130421356E+03  0.00000000000E+00 0.  1.
         11    1    1    2    0    0  0.19766963284E+02  0.18705881706E+02  0.17742304211E+02  0.32487416127E+02  0.00000000000E+00 0. -1.
<mgrwt>
<rscale>  0 0.15723494E+03</rscale>
<asrwt>0</asrwt>
<pdfrwt beam="1">  1        2 0.33510162E-01 0.17199948E+03</pdfrwt>
<pdfrwt beam="2">  1       -2 0.23623573E-01 0.17199948E+03</pdfrwt>
<totfact> 0.23913270E+03</totfact>
</mgrwt>
</event>
<event>
 6    1  0.7270761E-006  0.1439059E+03  0.7546771E-02  0.1218878E+00
         -2   -1    0    0    0  501 -0.00000000000E+00  0.00000000000E+00  0.11797621174E+02  0.11797621174E+02  0.00000000000E+00 0.  1.
          2   -1    0    0  501    0  0.00000000000E+00 -0.00000000000E+00 -0.14171449742E+04  0.14171449742E+04  0.00000000000E+00 0. -1.
          5    1    1    2  502    0 -0.23658392224E+02 -0.10238625747E+03 -0.55867132257E+03  0.56848782036E+03  0.47000000000E+01 0.  1.
         -5    1    1    2    0  502  0.22276086255E+02  0.31311754086E+02 -0.20875830962E+03  0.21231762008E+03  0.47000000000E+01 0.  1.
        -11    1    1    2    0    0 -0.41717809532E+02  0.16000283835E+02 -0.25554284695E+03  0.25941960478E+03  0.00000000000E+00 0.  1.
         11    1    1    2    0    0  0.43100115501E+02  0.55074219543E+02 -0.38237487386E+03  0.38871755012E+03  0.00000000000E+00 0. -1.
<mgrwt>
<rscale>  0 0.13595483E+03</rscale>
<asrwt>0</asrwt>
<pdfrwt beam="2">  1        2 0.21802232E+00 0.14390586E+03</pdfrwt>
<pdfrwt beam="1">  1       -2 0.18150185E-02 0.14390586E+03</pdfrwt>
<totfact> 0.13115734E+04</totfact>
</mgrwt>
</event>
<event>
 6    1  0.7270761E-006  0.1392299E+03  0.7546771E-02  0.1225502E+00
         -2   -1    0    0    0  501 -0.00000000000E+00  0.00000000000E+00  0.17963689095E+03  0.17963689095E+03  0.00000000000E+00 0.  1.
          2   -1    0    0  501    0  0.00000000000E+00 -0.00000000000E+00 -0.20822124274E+03  0.20822124274E+03  0.00000000000E+00 0. -1.
          5    1    1    2  502    0  0.39346242833E+02 -0.28936132842E+02  0.11442757962E+03  0.12450376535E+03  0.47000000000E+01 0.  1.
         -5    1    1    2    0  502 -0.58191826196E+02 -0.29429569900E+02  0.18390920416E+02  0.67916891671E+02  0.47000000000E+01 0.  1.
        -11    1    1    2    0    0  0.85723541148E+01  0.47403169870E+02 -0.17096949181E+03  0.17762632941E+03  0.00000000000E+00 0. -1.
         11    1    1    2    0    0  0.10273229247E+02  0.10962532872E+02  0.95666399931E+01  0.17811147265E+02  0.00000000000E+00 0.  1.
<mgrwt>
<rscale>  0 0.13132538E+03</rscale>
<asrwt>0</asrwt>
<pdfrwt beam="2">  1        2 0.32034037E-01 0.13922986E+03</pdfrwt>
<pdfrwt beam="1">  1       -2 0.27636445E-01 0.13922986E+03</pdfrwt>
<totfact> 0.18902163E+03</totfact>
</mgrwt>
</event>
<event>
 6    1  0.7270761E-006  0.3383426E+03  0.7546771E-02  0.1068680E+00
         -1   -1    0    0    0  501 -0.00000000000E+00  0.00000000000E+00  0.54840611861E+02  0.54840611861E+02  0.00000000000E+00 0.  1.
          1   -1    0    0  501    0  0.00000000000E+00 -0.00000000000E+00 -0.21976037905E+04  0.21976037905E+04  0.00000000000E+00 0. -1.
          5    1    1    2  502    0  0.12896450403E+03 -0.10046951639E+03 -0.51967999295E+03  0.54480762853E+03  0.47000000000E+01 0. -1.
         -5    1    1    2    0  502  0.73531321220E+02 -0.14003548436E+03 -0.24878798970E+03  0.29484630895E+03  0.47000000000E+01 0. -1.
        -11    1    1    2    0    0 -0.44867862765E+02  0.19349310875E+02 -0.12274213279E+03  0.13211037848E+03  0.00000000000E+00 0.  1.
         11    1    1    2    0    0 -0.15762796248E+03  0.22115568988E+03 -0.12515530632E+04  0.12806800864E+04  0.00000000000E+00 0. -1.
<mgrwt>
<rscale>  0 0.33561178E+03</rscale>
<asrwt>0</asrwt>
<pdfrwt beam="2">  1        1 0.33809280E+00 0.33834257E+03</pdfrwt>
<pdfrwt beam="1">  1       -1 0.84370194E-02 0.33834257E+03</pdfrwt>
<totfact> 0.19644636E+02</totfact>
</mgrwt>
</event>
<event>
 6    1  0.7270761E-006  0.1731153E+03  0.7546771E-02  0.1202847E+00
          1   -1    0    0  501    0  0.00000000000E+00  0.00000000000E+00  0.28682385249E+03  0.28682385249E+03  0.00000000000E+00 0. -1.
         -1   -1    0    0    0  501 -0.00000000000E+00 -0.00000000000E+00 -0.89847659620E+02  0.89847659620E+02  0.00000000000E+00 0.  1.
          5    1    1    2  502    0  0.73304451609E+02 -0.41334987898E+02  0.23129165361E+02  0.87402357752E+02  0.47000000000E+01 0. -1.
         -5    1    1    2    0  502 -0.68987775133E+02  0.51582516248E+02 -0.64844682734E+01  0.86511313879E+02  0.47000000000E+01 0.  1.
        -11    1    1    2    0    0  0.33010430619E+02  0.17988149907E+02  0.12371360370E+03  0.12929933413E+03  0.00000000000E+00 0. -1.
         11    1    1    2    0    0 -0.37327107096E+02 -0.28235678257E+02  0.56617892081E+02  0.73458506346E+02  0.00000000000E+00 0.  1.
<mgrwt>
<rscale>  0 0.14808429E+03</rscale>
<asrwt>0</asrwt>
<pdfrwt beam="1">  1        1 0.44126746E-01 0.17311534E+03</pdfrwt>
<pdfrwt beam="2">  1       -1 0.13822717E-01 0.17311534E+03</pdfrwt>
<totfact> 0.33214451E+03</totfact>
</mgrwt>
</event>
<event>
 6    1  0.7270761E-006  0.1514446E+03  0.7546771E-02  0.1203649E+00
         -1   -1    0    0    0  501 -0.00000000000E+00  0.00000000000E+00  0.11805725213E+03  0.11805725213E+03  0.00000000000E+00 0.  1.
          1   -1    0    0  501    0  0.00000000000E+00 -0.00000000000E+00 -0.19493322458E+03  0.19493322458E+03  0.00000000000E+00 0. -1.
          5    1    1    2  502    0  0.35843033241E+02 -0.27620359938E+02  0.40447597016E+02  0.60874505496E+02  0.47000000000E+01 0. -1.
         -5    1    1    2    0  502 -0.69156177875E+02 -0.14560681667E+02 -0.27120575712E+02  0.75843299083E+02  0.47000000000E+01 0. -1.
        -11    1    1    2    0    0  0.51981951462E+02  0.25861985878E+02  0.21452916595E+02  0.61896633364E+02  0.00000000000E+00 0.  1.
         11    1    1    2    0    0 -0.18668806827E+02  0.16319055727E+02 -0.11165591035E+03  0.11437603876E+03  0.00000000000E+00 0. -1.
<mgrwt>
<rscale>  0 0.14744443E+03</rscale>
<asrwt>0</asrwt>
<pdfrwt beam="2">  1        1 0.29989727E-01 0.15144463E+03</pdfrwt>
<pdfrwt beam="1">  1       -1 0.18162654E-01 0.15144463E+03</pdfrwt>
<totfact> 0.34674730E+03</totfact>
</mgrwt>
</event>
<event>
 6    1  0.7270761E-006  0.3920702E+03  0.7546771E-02  0.1046561E+00
          2   -1    0    0  501    0  0.00000000000E+00  0.00000000000E+00  0.10478807394E+04  0.10478807394E+04  0.00000000000E+00 0. -1.
         -2   -1    0    0    0  501 -0.00000000000E+00 -0.00000000000E+00 -0.36673800742E+02  0.36673800742E+02  0.00000000000E+00 0.  1.
          5    1    1    2  502    0  0.13137767366E+03  0.56944797024E+02  0.24703227568E+03  0.28556932306E+03  0.47000000000E+01 0. -1.
         -5    1    1    2    0  502 -0.24721078782E+02  0.39540354328E+02  0.68021034540E+02  0.82604615467E+02  0.47000000000E+01 0. -1.
        -11    1    1    2    0    0 -0.84432812571E+02 -0.16718325161E+02  0.37005865545E+03  0.37993658775E+03  0.00000000000E+00 0.  1.
         11    1    1    2    0    0 -0.22223782310E+02 -0.79766826191E+02  0.32609497302E+03  0.33644401390E+03  0.00000000000E+00 0. -1.
<mgrwt>
<rscale>  0 0.39207025E+03</rscale>
<asrwt>0</asrwt>
<pdfrwt beam="1">  1        2 0.16121240E+00 0.39207025E+03</pdfrwt>
<pdfrwt beam="2">  1       -2 0.56421240E-02 0.39207025E+03</pdfrwt>
<totfact> 0.40102957E+03</totfact>
</mgrwt>
</event>
<event>
 6    1  0.7270761E-006  0.1379615E+03  0.7546771E-02  0.1225051E+00
          1   -1    0    0  501    0  0.00000000000E+00  0.00000000000E+00  0.48478049317E+03  0.48478049317E+03  0.00000000000E+00 0. -1.
         -1   -1    0    0    0  501 -0.00000000000E+00 -0.00000000000E+00 -0.44417028175E+02  0.44417028175E+02  0.00000000000E+00 0.  1.
          5    1    1    2  502    0 -0.21378426681E+02  0.26552587182E+02 -0.85438638552E+01  0.35456517356E+02  0.47000000000E+01 0.  1.
         -5    1    1    2    0  502  0.78496953363E+02 -0.14176938694E+02  0.10923990284E+03  0.13534475849E+03  0.47000000000E+01 0.  1.
        -11    1    1    2    0    0 -0.59621818709E+02 -0.48754311322E+02  0.25011125732E+03  0.26170094607E+03  0.00000000000E+00 0. -1.
         11    1    1    2    0    0  0.25032920276E+01  0.36378662834E+02  0.89556168700E+02  0.96695299435E+02  0.00000000000E+00 0.  1.
<mgrwt>
<rscale>  0 0.13163433E+03</rscale>
<asrwt>0</asrwt>
<pdfrwt beam="1">  1        1 0.74581611E-01 0.13796153E+03</pdfrwt>
<pdfrwt beam="2">  1       -1 0.68333893E-02 0.13796153E+03</pdfrwt>
<totfact> 0.49774705E+03</totfact>
</mgrwt>
</event>
<event>
 6    1  0.7270761E-006  0.1263899E+03  0.7546771E-02  0.1250309E+00
         -4   -1    0    0    0  501 -0.00000000000E+00  0.00000000000E+00  0.19301115276E+02  0.19301115276E+02  0.00000000000E+00 0.  1.
          4   -1    0    0  501    0  0.00000000000E+00 -0.00000000000E+00 -0.60583267665E+03  0.60583267665E+03  0.00000000000E+00 0. -1.
          5    1    1    2  502    0  0.52613099880E+02  0.15068577655E+02 -0.23698290827E+03  0.24326567601E+03  0.47000000000E+01 0.  1.
         -5    1    1    2    0  502 -0.45441147050E+02 -0.32350411555E+02 -0.76969710082E+02  0.95172859803E+02  0.47000000000E+01 0.  1.
        -11    1    1    2    0    0 -0.42291752899E+02  0.27520632103E+02 -0.12867740653E+03  0.13821668678E+03  0.00000000000E+00 0. -1.
         11    1    1    2    0    0  0.35119800069E+02 -0.10238798202E+02 -0.14390153649E+03  0.14847856933E+03  0.00000000000E+00 0.  1.
<mgrwt>
<rscale>  0 0.11573172E+03</rscale>
<asrwt>0</asrwt>
<pdfrwt beam="2">  1        4 0.93205038E-01 0.12638986E+03</pdfrwt>
<pdfrwt beam="1">  1       -4 0.29694020E-02 0.12638986E+03</pdfrwt>
<totfact> 0.90035883E+02</totfact>
</mgrwt>
</event>
<event>
 6    1  0.7270761E-006  0.4548965E+03  0.7546771E-02  0.1026272E+00
          2   -1    0    0  501    0  0.00000000000E+00  0.00000000000E+00  0.32057383126E+03  0.32057383126E+03  0.00000000000E+00 0. -1.
         -2   -1    0    0    0  501 -0.00000000000E+00 -0.00000000000E+00 -0.16137533098E+03  0.16137533098E+03  0.00000000000E+00 0.  1.
          5    1    1    2  502    0 -0.11895139088E+01 -0.23799937881E+02  0.25294680160E+02  0.35067974433E+02  0.47000000000E+01 0.  1.
         -5    1    1    2    0  502 -0.17587938342E+03  0.28132390848E+02 -0.37408191968E+02  0.18206167019E+03  0.47000000000E+01 0.  1.
        -11    1    1    2    0    0  0.12668360231E+03  0.42029205271E+02  0.11368755654E+03  0.17532840529E+03  0.00000000000E+00 0.  1.
         11    1    1    2    0    0  0.50385295016E+02 -0.46361658238E+02  0.57624455542E+02  0.89491112323E+02  0.00000000000E+00 0. -1.
<mgrwt>
<rscale>  0 0.45489651E+03</rscale>
<asrwt>0</asrwt>
<pdfrwt beam="1">  1        2 0.49319051E-01 0.45489651E+03</pdfrwt>
<pdfrwt beam="2">  1       -2 0.24826974E-01 0.45489651E+03</pdfrwt>
<totfact> 0.14739419E+03</totfact>
</mgrwt>
</event>
<event>
 6    1  0.7270761E-006  0.1660591E+03  0.7546771E-02  0.1189161E+00
          2   -1    0    0  501    0  0.00000000000E+00  0.00000000000E+00  0.22628714503E+03  0.22628714503E+03  0.00000000000E+00 0. -1.
         -2   -1    0    0    0  501 -0.00000000000E+00 -0.00000000000E+00 -0.11218268229E+03  0.11218268229E+03  0.00000000000E+00 0.  1.
          5    1    1    2  502    0  0.76580602250E+01 -0.46908075088E+02  0.47057213662E+02  0.67048376210E+02  0.47000000000E+01 0. -1.
         -5    1    1    2    0  502 -0.92828419700E+02 -0.21622173386E+02 -0.29628514558E+02  0.99922834031E+02  0.47000000000E+01 0. -1.
        -11    1    1    2    0    0  0.50632804633E+02 -0.86955310338E+01  0.14083678129E+02  0.53269533081E+02  0.00000000000E+00 0.  1.
         11    1    1    2    0    0  0.34537554842E+02  0.77225779507E+02  0.82592085501E+02  0.11822908400E+03  0.00000000000E+00 0. -1.
<mgrwt>
<rscale>  0 0.15958919E+03</rscale>
<asrwt>0</asrwt>
<pdfrwt beam="1">  1        2 0.34813407E-01 0.16605910E+03</pdfrwt>
<pdfrwt beam="2">  1       -2 0.17258874E-01 0.16605910E+03</pdfrwt>
<totfact> 0.39108993E+03</totfact>
</mgrwt>
</event>
<event>
 6    1  0.7270761E-006  0.1703880E+03  0.7546771E-02  0.1185102E+00
         -2   -1    0    0    0  501 -0.00000000000E+00  0.00000000000E+00  0.60686369920E+02  0.60686369920E+02  0.00000000000E+00 0.  1.
          2   -1    0    0  501    0  0.00000000000E+00 -0.00000000000E+00 -0.48321678632E+03  0.48321678632E+03  0.00000000000E+00 0. -1.
          5    1    1    2  502    0 -0.60052674767E+02  0.15488329408E+02 -0.12474717527E+03  0.13939210822E+03  0.47000000000E+01 0. -1.
         -5    1    1    2    0  502 -0.45663709813E+02 -0.49528739131E+02  0.67467122208E+01  0.67866623016E+02  0.47000000000E+01 0.  1.
        -11    1    1    2    0    0  0.71504005089E+02 -0.86219117912E+01 -0.90084067711E+02  0.11533559451E+03  0.00000000000E+00 0.  1.
         11    1    1    2    0    0  0.34212379491E+02  0.42662321514E+02 -0.21444588563E+03  0.22130883049E+03  0.00000000000E+00 0. -1.
<mgrwt>
<rscale>  0 0.16322583E+03</rscale>
<asrwt>0</asrwt>
<pdfrwt beam="2">  1        2 0.74341046E-01 0.17038801E+03</pdfrwt>
<pdfrwt beam="1">  1       -2 0.93363643E-02 0.17038801E+03</pdfrwt>
<totfact> 0.46748655E+03</totfact>
</mgrwt>
</event>
<event>
 6    1  0.7270761E-006  0.1262624E+03  0.7546771E-02  0.1249046E+00
         -2   -1    0    0    0  501 -0.00000000000E+00  0.00000000000E+00  0.17465508782E+03  0.17465508782E+03  0.00000000000E+00 0.  1.
          2   -1    0    0  501    0  0.00000000000E+00 -0.00000000000E+00 -0.68092028691E+02  0.68092028691E+02  0.00000000000E+00 0. -1.
          5    1    1    2  502    0  0.15219197438E+02 -0.63736442403E+02  0.93607201865E+00  0.65703305029E+02  0.47000000000E+01 0.  1.
         -5    1    1    2    0  502 -0.99580022180E+01  0.46743915652E+02  0.53217453871E+02  0.71682235283E+02  0.47000000000E+01 0.  1.
        -11    1    1    2    0    0  0.14656731151E+02  0.12810868284E+02  0.73510937961E+02  0.76044698133E+02  0.00000000000E+00 0.  1.
         11    1    1    2    0    0 -0.19917926372E+02  0.41816584665E+01 -0.21101404720E+02  0.29316878068E+02  0.00000000000E+00 0. -1.
<mgrwt>
<rscale>  0 0.11646467E+03</rscale>
<asrwt>0</asrwt>
<pdfrwt beam="2">  1        2 0.10475697E-01 0.12626236E+03</pdfrwt>
<pdfrwt beam="1">  1       -2 0.26870013E-01 0.12626236E+03</pdfrwt>
<totfact> 0.70946600E+03</totfact>
</mgrwt>
</event>
<event>
 6    1  0.7270761E-006  0.1259829E+03  0.7546771E-02  0.1248764E+00
          2   -1    0    0  501    0  0.00000000000E+00  0.00000000000E+00  0.73656538793E+02  0.73656538793E+02  0.00000000000E+00 0. -1.
         -2   -1    0    0    0  501 -0.00000000000E+00 -0.00000000000E+00 -0.17912706446E+03  0.17912706446E+03  0.00000000000E+00 0.  1.
          5    1    1    2  502    0 -0.30561938587E+02  0.48524460057E+02 -0.42331338002E+02  0.71433098008E+02  0.47000000000E+01 0. -1.
         -5    1    1    2    0  502  0.46188670034E+02 -0.50187857065E+02 -0.56300633049E+02  0.88566729182E+02  0.47000000000E+01 0. -1.
        -11    1    1    2    0    0  0.34753373552E+02  0.12501008892E+02  0.10526327414E+02  0.38404111309E+02  0.00000000000E+00 0. -1.
         11    1    1    2    0    0 -0.50380105000E+02 -0.10837611884E+02 -0.17364882034E+02  0.54379664758E+02  0.00000000000E+00 0.  1.
<mgrwt>
<rscale>  0 0.11662882E+03</rscale>
<asrwt>0</asrwt>
<pdfrwt beam="1">  1        2 0.11331775E-01 0.12598285E+03</pdfrwt>
<pdfrwt beam="2">  1       -2 0.27558010E-01 0.12598285E+03</pdfrwt>
<totfact> 0.61671751E+03</totfact>
</mgrwt>
</event>
<event>
 6    1  0.7270761E-006  0.1270722E+03  0.7546771E-02  0.1247453E+00
          1   -1    0    0  501    0  0.00000000000E+00  0.00000000000E+00  0.85442368252E+02  0.85442368252E+02  0.00000000000E+00 0. -1.
         -1   -1    0    0    0  501 -0.00000000000E+00 -0.00000000000E+00 -0.14564818815E+03  0.14564818815E+03  0.00000000000E+00 0.  1.
          5    1    1    2  502    0  0.42779731927E+02  0.38536356700E+02  0.10278761899E+02  0.58676223443E+02  0.47000000000E+01 0. -1.
         -5    1    1    2    0  502 -0.20131194813E+02 -0.41181027694E+02 -0.65004181685E+02  0.79679204834E+02  0.47000000000E+01 0. -1.
        -11    1    1    2    0    0  0.22140332427E+02  0.23348186295E+02 -0.23884179793E+02  0.40072261823E+02  0.00000000000E+00 0.  1.
         11    1    1    2    0    0 -0.44788869541E+02 -0.20703515300E+02  0.18403779680E+02  0.52662866302E+02  0.00000000000E+00 0. -1.
<mgrwt>
<rscale>  0 0.11739758E+03</rscale>
<asrwt>0</asrwt>
<pdfrwt beam="1">  1        1 0.13144980E-01 0.12707224E+03</pdfrwt>
<pdfrwt beam="2">  1       -1 0.22407413E-01 0.12707224E+03</pdfrwt>
<totfact> 0.69955329E+03</totfact>
</mgrwt>
</event>
<event>
 6    1  0.7270761E-006  0.1518913E+03  0.7546771E-02  0.1207015E+00
          1   -1    0    0  501    0  0.00000000000E+00  0.00000000000E+00  0.11235081993E+03  0.11235081993E+03  0.00000000000E+00 0. -1.
         -1   -1    0    0    0  501 -0.00000000000E+00 -0.00000000000E+00 -0.19012043636E+03  0.19012043636E+03  0.00000000000E+00 0.  1.
          5    1    1    2  502    0 -0.91717782249E+01 -0.53554853150E+02 -0.76847414555E+02  0.94233003430E+02  0.47000000000E+01 0. -1.
         -5    1    1    2    0  502  0.80866698583E+02  0.55372141044E+01 -0.12954735063E+02  0.82219212112E+02  0.47000000000E+01 0. -1.
        -11    1    1    2    0    0 -0.33639476231E+02  0.23607700049E+02 -0.39820148489E+02  0.57223964284E+02  0.00000000000E+00 0.  1.
         11    1    1    2    0    0 -0.38055444127E+02  0.24409938997E+02  0.51852681674E+02  0.68795076469E+02  0.00000000000E+00 0. -1.
<mgrwt>
<rscale>  0 0.14479763E+03</rscale>
<asrwt>0</asrwt>
<pdfrwt beam="1">  1        1 0.17284742E-01 0.15189127E+03</pdfrwt>
<pdfrwt beam="2">  1       -1 0.29249297E-01 0.15189127E+03</pdfrwt>
<totfact> 0.31979195E+03</totfact>
</mgrwt>
</event>
<event>
 6    1  0.7270761E-006  0.3514760E+03  0.7546771E-02  0.1062011E+00
         -1   -1    0    0    0  501 -0.00000000000E+00  0.00000000000E+00  0.31512230067E+02  0.31512230067E+02  0.00000000000E+00 0.  1.
          1   -1    0    0  501    0  0.00000000000E+00 -0.00000000000E+00 -0.98005917898E+03  0.98005917898E+03  0.00000000000E+00 0. -1.
          5    1    1    2  502    0 -0.87296374353E+02 -0.23670259103E+01 -0.40879692765E+03  0.41804698042E+03  0.47000000000E+01 0. -1.
         -5    1    1    2    0  502 -0.25164606455E+02  0.11455944819E+02 -0.47187187252E+01  0.28440330451E+02  0.47000000000E+01 0. -1.
        -11    1    1    2    0    0  0.88056291240E+00 -0.54602904554E+02 -0.10325535390E+03  0.11680719450E+03  0.00000000000E+00 0.  1.
         11    1    1    2    0    0  0.11158041790E+03  0.45513985645E+02 -0.43177594864E+03  0.44827690368E+03  0.00000000000E+00 0. -1.
<mgrwt>
<rscale>  0 0.35147603E+03</rscale>
<asrwt>0</asrwt>
<pdfrwt beam="2">  1        1 0.15077834E+00 0.35147603E+03</pdfrwt>
<pdfrwt beam="1">  1       -1 0.48480353E-02 0.35147603E+03</pdfrwt>
<totfact> 0.30604498E+03</totfact>
</mgrwt>
</event>
<event>
 6    1  0.7270761E-006  0.1377077E+03  0.7546771E-02  0.1229146E+00
         -1   -1    0    0    0  501 -0.00000000000E+00  0.00000000000E+00  0.19739627693E+03  0.19739627693E+03  0.00000000000E+00 0.  1.
          1   -1    0    0  501    0  0.00000000000E+00 -0.00000000000E+00 -0.96918175209E+02  0.96918175209E+02  0.00000000000E+00 0. -1.
          5    1    1    2  502    0  0.40470468195E+02  0.82272016940E+02  0.68532686124E+02  0.11456597503E+03  0.47000000000E+01 0.  1.
         -5    1    1    2    0  502 -0.35799489297E+02 -0.24682313030E+02  0.56374663822E+02  0.71351333074E+02  0.47000000000E+01 0.  1.
        -11    1    1    2    0    0 -0.20183353131E+02 -0.26121034378E+02 -0.53479474177E+02  0.62846880104E+02  0.00000000000E+00 0. -1.
         11    1    1    2    0    0  0.15512374233E+02 -0.31468669532E+02  0.29050225957E+02  0.45550263936E+02  0.00000000000E+00 0.  1.
<mgrwt>
<rscale>  0 0.12886746E+03</rscale>
<asrwt>0</asrwt>
<pdfrwt beam="2">  1        1 0.14910488E-01 0.13770766E+03</pdfrwt>
<pdfrwt beam="1">  1       -1 0.30368658E-01 0.13770766E+03</pdfrwt>
<totfact> 0.36148445E+03</totfact>
</mgrwt>
</event>
<event>
 6    1  0.7270761E-006  0.1486528E+03  0.7546771E-02  0.1211406E+00
         -2   -1    0    0    0  501 -0.00000000000E+00  0.00000000000E+00  0.66192792734E+02  0.66192792734E+02  0.00000000000E+00 0.  1.
          2   -1    0    0  501    0  0.00000000000E+00 -0.00000000000E+00 -0.32096389832E+03  0.32096389832E+03  0.00000000000E+00 0. -1.
          5    1    1    2  502    0  0.32145735032E+02 -0.89000568968E+02 -0.79742168346E+02  0.12383599222E+03  0.47000000000E+01 0. -1.
         -5    1    1    2    0  502  0.21616577105E+02  0.29150481394E+02  0.13371718207E+02  0.38960490488E+02  0.47000000000E+01 0. -1.
        -11    1    1    2    0    0  0.20102996149E+02  0.49991984058E+01 -0.77720608223E+02  0.80433919347E+02  0.00000000000E+00 0. -1.
         11    1    1    2    0    0 -0.73865308286E+02  0.54850889168E+02 -0.11068004722E+03  0.14392628900E+03  0.00000000000E+00 0.  1.
<mgrwt>
<rscale>  0 0.14143892E+03</rscale>
<asrwt>0</asrwt>
<pdfrwt beam="2">  1        2 0.49379060E-01 0.14865281E+03</pdfrwt>
<pdfrwt beam="1">  1       -2 0.10183507E-01 0.14865281E+03</pdfrwt>
<totfact> 0.62890090E+03</totfact>
</mgrwt>
</event>
<event>
 6    1  0.7270761E-006  0.1363465E+03  0.7546771E-02  0.1224234E+00
          2   -1    0    0  501    0  0.00000000000E+00  0.00000000000E+00  0.95966212415E+03  0.95966212415E+03  0.00000000000E+00 0. -1.
         -2   -1    0    0    0  501 -0.00000000000E+00 -0.00000000000E+00 -0.19479245046E+02  0.19479245046E+02  0.00000000000E+00 0.  1.
          5    1    1    2  502    0  0.21270257801E+02 -0.21002068937E+02  0.12444278717E+03  0.12806876296E+03  0.47000000000E+01 0. -1.
         -5    1    1    2    0  502 -0.99924276882E+02  0.12242625644E+02  0.20348356387E+03  0.22707354262E+03  0.47000000000E+01 0.  1.
        -11    1    1    2    0    0 -0.20660959470E+02 -0.10231336614E+01  0.10697720452E+03  0.10895891123E+03  0.00000000000E+00 0.  1.
         11    1    1    2    0    0  0.99314978551E+02  0.97825769543E+01  0.50527932353E+03  0.51504015238E+03  0.00000000000E+00 0. -1.
<mgrwt>
<rscale>  0 0.13219552E+03</rscale>
<asrwt>0</asrwt>
<pdfrwt beam="1">  1        2 0.14764029E+00 0.13634649E+03</pdfrwt>
<pdfrwt beam="2">  1       -2 0.29968077E-02 0.13634649E+03</pdfrwt>
<totfact> 0.11351140E+04</totfact>
</mgrwt>
</event>
<event>
 6    1  0.7270761E-006  0.1491275E+03  0.7546771E-02  0.1209157E+00
          1   -1    0    0  501    0  0.00000000000E+00  0.00000000000E+00  0.22029212524E+03  0.22029212524E+03  0.00000000000E+00 0. -1.
         -1   -1    0    0    0  501 -0.00000000000E+00 -0.00000000000E+00 -0.87822687655E+02  0.87822687655E+02  0.00000000000E+00 0.  1.
          5    1    1    2  502    0 -0.68715515977E+02 -0.17549131729E+02  0.46248088149E+02  0.84798406930E+02  0.47000000000E+01 0. -1.
         -5    1    1    2    0  502  0.41917000660E+02 -0.59220775578E+02  0.49570859379E+01  0.72875221477E+02  0.47000000000E+01 0. -1.
        -11    1    1    2    0    0  0.50822061819E+02  0.17496299619E+02  0.65197843694E+02  0.84497108177E+02  0.00000000000E+00 0. -1.
         11    1    1    2    0    0 -0.24023546502E+02  0.59273607688E+02  0.16066419802E+02  0.65944076309E+02  0.00000000000E+00 0.  1.
<mgrwt>
<rscale>  0 0.14314640E+03</rscale>
<asrwt>0</asrwt>
<pdfrwt beam="1">  1        1 0.33891096E-01 0.14912747E+03</pdfrwt>
<pdfrwt beam="2">  1       -1 0.13511183E-01 0.14912747E+03</pdfrwt>
<totfact> 0.47435325E+03</totfact>
</mgrwt>
</event>
<event>
 6    1  0.7270761E-006  0.3138282E+03  0.7546771E-02  0.1079927E+00
         -1   -1    0    0    0  501 -0.00000000000E+00  0.00000000000E+00  0.25134675514E+03  0.25134675514E+03  0.00000000000E+00 0.  1.
          1   -1    0    0  501    0  0.00000000000E+00 -0.00000000000E+00 -0.38931337385E+03  0.38931337385E+03  0.00000000000E+00 0. -1.
          5    1    1    2  502    0  0.74328931957E+02  0.92151428638E+02 -0.63842783069E+02  0.13459073845E+03  0.47000000000E+01 0. -1.
         -5    1    1    2    0  502  0.64470407983E+02  0.16003428489E+03  0.49533574620E+02  0.17956355660E+03  0.47000000000E+01 0. -1.
        -11    1    1    2    0    0 -0.14773053651E+03 -0.22651421336E+03 -0.12763090508E+03  0.29903619881E+03  0.00000000000E+00 0. -1.
         11    1    1    2    0    0  0.89311965700E+01 -0.25671500168E+02  0.39734948071E+01  0.27469635128E+02  0.00000000000E+00 0.  1.
<mgrwt>
<rscale>  0 0.31087567E+03</rscale>
<asrwt>0</asrwt>
<pdfrwt beam="2">  1        1 0.59894365E-01 0.31382825E+03</pdfrwt>
<pdfrwt beam="1">  1       -1 0.38668732E-01 0.31382825E+03</pdfrwt>
<totfact> 0.41313592E+02</totfact>
</mgrwt>
</event>
<event>
 6    1  0.7270761E-006  0.3401635E+03  0.7546771E-02  0.1066726E+00
         -1   -1    0    0    0  501 -0.00000000000E+00  0.00000000000E+00  0.25069355474E+03  0.25069355474E+03  0.00000000000E+00 0.  1.
          1   -1    0    0  501    0  0.00000000000E+00 -0.00000000000E+00 -0.11539109295E+03  0.11539109295E+03  0.00000000000E+00 0. -1.
          5    1    1    2  502    0 -0.86716809155E+02 -0.56848523592E+02  0.79512120450E+02  0.13075101117E+03  0.47000000000E+01 0. -1.
         -5    1    1    2    0  502  0.31939372484E+02 -0.12085675696E+02  0.96091117928E+02  0.10208711974E+03  0.47000000000E+01 0. -1.
        -11    1    1    2    0    0  0.48175905600E+02 -0.33828505951E+01  0.35349366021E+01  0.48423726987E+02  0.00000000000E+00 0.  1.
         11    1    1    2    0    0  0.66015310705E+01  0.72317049884E+02 -0.43835713194E+02  0.84822789789E+02  0.00000000000E+00 0. -1.
<mgrwt>
<rscale>  0 0.34016351E+03</rscale>
<asrwt>0</asrwt>
<pdfrwt beam="2">  1        1 0.17752476E-01 0.34016351E+03</pdfrwt>
<pdfrwt beam="1">  1       -1 0.38568239E-01 0.34016351E+03</pdfrwt>
<totfact> 0.19720900E+03</totfact>
</mgrwt>
</event>
<event>
 6    1  0.7270761E-006  0.3097514E+03  0.7546771E-02  0.1080465E+00
         -1   -1    0    0    0  501 -0.00000000000E+00  0.00000000000E+00  0.21386558503E+03  0.21386558503E+03  0.00000000000E+00 0.  1.
          1   -1    0    0  501    0  0.00000000000E+00 -0.00000000000E+00 -0.11215681913E+03  0.11215681913E+03  0.00000000000E+00 0. -1.
          5    1    1    2  502    0  0.62469100013E+01 -0.16319075698E+02  0.78705745643E+02  0.80759027442E+02  0.47000000000E+01 0. -1.
         -5    1    1    2    0  502  0.10123075182E+03  0.22043235676E+02  0.40461376485E+01  0.10378839330E+03  0.47000000000E+01 0. -1.
        -11    1    1    2    0    0 -0.43052213206E+02 -0.46723055241E+02  0.40006380647E+01  0.63659579467E+02  0.00000000000E+00 0. -1.
         11    1    1    2    0    0 -0.64425448617E+02  0.40998895263E+02  0.14956244544E+02  0.77815403958E+02  0.00000000000E+00 0.  1.
<mgrwt>
<rscale>  0 0.30975141E+03</rscale>
<asrwt>0</asrwt>
<pdfrwt beam="2">  1        1 0.17254895E-01 0.30975141E+03</pdfrwt>
<pdfrwt beam="1">  1       -1 0.32902398E-01 0.30975141E+03</pdfrwt>
<totfact> 0.26986145E+03</totfact>
</mgrwt>
</event>
<event>
 6    1  0.7270761E-006  0.1416831E+03  0.7546771E-02  0.1218557E+00
         -2   -1    0    0    0  501 -0.00000000000E+00  0.00000000000E+00  0.55370867906E+02  0.55370867906E+02  0.00000000000E+00 0.  1.
          2   -1    0    0  501    0  0.00000000000E+00 -0.00000000000E+00 -0.32891439771E+03  0.32891439771E+03  0.00000000000E+00 0. -1.
          5    1    1    2  502    0 -0.48104962806E+02 -0.39504296932E+02 -0.12053636577E+03  0.13574160157E+03  0.47000000000E+01 0. -1.
         -5    1    1    2    0  502  0.11251384597E+02 -0.32873319089E+02  0.17749900311E+02  0.39298825992E+02  0.47000000000E+01 0.  1.
        -11    1    1    2    0    0 -0.11765812330E+01  0.61970714853E+02 -0.42728924555E+02  0.75282898699E+02  0.00000000000E+00 0.  1.
         11    1    1    2    0    0  0.38030159442E+02  0.10406901167E+02 -0.12802813979E+03  0.13396193936E+03  0.00000000000E+00 0. -1.
<mgrwt>
<rscale>  0 0.13618430E+03</rscale>
<asrwt>0</asrwt>
<pdfrwt beam="2">  1        2 0.50602216E-01 0.14168308E+03</pdfrwt>
<pdfrwt beam="1">  1       -2 0.85185949E-02 0.14168308E+03</pdfrwt>
<totfact> 0.80776193E+03</totfact>
</mgrwt>
</event>
<event>
 6    1  0.7270761E-006  0.1318654E+03  0.7546771E-02  0.1237639E+00
          4   -1    0    0  501    0  0.00000000000E+00  0.00000000000E+00  0.12193523068E+03  0.12193523068E+03  0.00000000000E+00 0. -1.
         -4   -1    0    0    0  501 -0.00000000000E+00 -0.00000000000E+00 -0.36362418473E+03  0.36362418473E+03  0.00000000000E+00 0.  1.
          5    1    1    2  502    0 -0.79198051796E+02 -0.54351618171E+00 -0.23986135554E+03  0.25264240875E+03  0.47000000000E+01 0. -1.
         -5    1    1    2    0  502  0.43334286084E+02  0.22383385281E+02 -0.87610548820E+02  0.10038214259E+03  0.47000000000E+01 0. -1.
        -11    1    1    2    0    0  0.20426660520E+02 -0.36553772163E+02 -0.22707190593E+01  0.41935460942E+02  0.00000000000E+00 0.  1.
         11    1    1    2    0    0  0.15437105192E+02  0.14713903064E+02  0.88053669359E+02  0.90599403131E+02  0.00000000000E+00 0. -1.
<mgrwt>
<rscale>  0 0.12336991E+03</rscale>
<asrwt>0</asrwt>
<pdfrwt beam="1">  1        4 0.18759266E-01 0.13186541E+03</pdfrwt>
<pdfrwt beam="2">  1       -4 0.55942182E-01 0.13186541E+03</pdfrwt>
<totfact> 0.12977738E+02</totfact>
</mgrwt>
</event>
<event>
 6    1  0.7270761E-006  0.2253792E+03  0.7546771E-02  0.1133049E+00
         -2   -1    0    0    0  501 -0.00000000000E+00  0.00000000000E+00  0.44360996007E+02  0.44360996007E+02  0.00000000000E+00 0.  1.
          2   -1    0    0  501    0  0.00000000000E+00 -0.00000000000E+00 -0.10703294853E+04  0.10703294853E+04  0.00000000000E+00 0. -1.
          5    1    1    2  502    0  0.78963716563E+02 -0.29540715774E+00 -0.34670101527E+03  0.35561079819E+03  0.47000000000E+01 0.  1.
         -5    1    1    2    0  502  0.78203993353E+02  0.10261282364E+03 -0.23326607850E+03  0.26660909499E+03  0.47000000000E+01 0.  1.
        -11    1    1    2    0    0 -0.89154784092E+02 -0.60826870538E+02 -0.35729209226E+03  0.37323735464E+03  0.00000000000E+00 0. -1.
         11    1    1    2    0    0 -0.68012925824E+02 -0.41490545943E+02 -0.88709303235E+02  0.11923323346E+03  0.00000000000E+00 0.  1.
<mgrwt>
<rscale>  0 0.22112285E+03</rscale>
<asrwt>0</asrwt>
<pdfrwt beam="2">  1        2 0.16466607E+00 0.22537916E+03</pdfrwt>
<pdfrwt beam="1">  1       -2 0.68247690E-02 0.22537916E+03</pdfrwt>
<totfact> 0.28739456E+03</totfact>
</mgrwt>
</event>
<event>
 6    1  0.7270761E-006  0.1408933E+03  0.7546771E-02  0.1223791E+00
          2   -1    0    0  501    0  0.00000000000E+00  0.00000000000E+00  0.26472800044E+02  0.26472800044E+02  0.00000000000E+00 0. -1.
         -2   -1    0    0    0  501 -0.00000000000E+00 -0.00000000000E+00 -0.67289779119E+03  0.67289779119E+03  0.00000000000E+00 0.  1.
          5    1    1    2  502    0  0.46726203212E+02  0.10343021568E+02 -0.47669961191E+02  0.67711382808E+02  0.47000000000E+01 0.  1.
         -5    1    1    2    0  502  0.17125799817E+02  0.18026006888E+01 -0.42835097959E+03  0.42872274736E+03  0.47000000000E+01 0.  1.
        -11    1    1    2    0    0  0.20367894603E+02  0.65614401722E+01 -0.53697775343E+02  0.57804452290E+02  0.00000000000E+00 0.  1.
         11    1    1    2    0    0 -0.84219897632E+02 -0.18707062429E+02 -0.11670627503E+03  0.14513200878E+03  0.00000000000E+00 0. -1.
<mgrwt>
<rscale>  0 0.13250136E+03</rscale>
<asrwt>0</asrwt>
<pdfrwt beam="1">  1        2 0.40727391E-02 0.14089326E+03</pdfrwt>
<pdfrwt beam="2">  1       -2 0.10352272E+00 0.14089326E+03</pdfrwt>
<totfact> 0.15790956E+03</totfact>
</mgrwt>
</event>
<event>
 6    1  0.7270761E-006  0.1284060E+03  0.7546771E-02  0.1247367E+00
         -1   -1    0    0    0  501 -0.00000000000E+00  0.00000000000E+00  0.26720047705E+03  0.26720047705E+03  0.00000000000E+00 0.  1.
          1   -1    0    0  501    0  0.00000000000E+00 -0.00000000000E+00 -0.45125130199E+02  0.45125130199E+02  0.00000000000E+00 0. -1.
          5    1    1    2  502    0  0.18047460493E+02 -0.44035433264E+02  0.63754262806E+02  0.79696463152E+02  0.47000000000E+01 0.  1.
         -5    1    1    2    0  502 -0.26067603705E+02  0.72311626319E+02  0.49734682490E+02  0.91673987075E+02  0.47000000000E+01 0.  1.
        -11    1    1    2    0    0 -0.33274644680E+02 -0.22083534018E+02  0.23919658051E+02  0.46551417750E+02  0.00000000000E+00 0. -1.
         11    1    1    2    0    0  0.41294787892E+02 -0.61926590367E+01  0.84666743506E+02  0.94403739274E+02  0.00000000000E+00 0.  1.
<mgrwt>
<rscale>  0 0.11744851E+03</rscale>
<asrwt>0</asrwt>
<pdfrwt beam="2">  1        1 0.69423279E-02 0.12840596E+03</pdfrwt>
<pdfrwt beam="1">  1       -1 0.41107765E-01 0.12840596E+03</pdfrwt>
<totfact> 0.58797528E+03</totfact>
</mgrwt>
</event>
<event>
 6    1  0.7270761E-006  0.1269821E+03  0.7546771E-02  0.1246256E+00
         -4   -1    0    0    0  501 -0.00000000000E+00  0.00000000000E+00  0.25645594751E+03  0.25645594751E+03  0.00000000000E+00 0.  1.
          4   -1    0    0  501    0  0.00000000000E+00 -0.00000000000E+00 -0.49614080580E+02  0.49614080580E+02  0.00000000000E+00 0. -1.
          5    1    1    2  502    0 -0.68921299656E+02  0.26751309254E+02  0.46551962385E+02  0.87492589943E+02  0.47000000000E+01 0.  1.
         -5    1    1    2    0  502  0.50089760356E+02 -0.14758124227E+02  0.44366865651E+02  0.68682567591E+02  0.47000000000E+01 0.  1.
        -11    1    1    2    0    0 -0.14597684140E+02 -0.21208456035E+02 -0.30914830662E+01  0.25931607301E+02  0.00000000000E+00 0. -1.
         11    1    1    2    0    0  0.33429223440E+02  0.92152710081E+01  0.11901452196E+03  0.12396326326E+03  0.00000000000E+00 0.  1.
<mgrwt>
<rscale>  0 0.11810539E+03</rscale>
<asrwt>0</asrwt>
<pdfrwt beam="2">  1        4 0.76329356E-02 0.12698207E+03</pdfrwt>
<pdfrwt beam="1">  1       -4 0.39454760E-01 0.12698207E+03</pdfrwt>
<totfact> 0.12131270E+03</totfact>
</mgrwt>
</event>
<event>
 6    1  0.7270761E-006  0.2342634E+03  0.7546771E-02  0.1126456E+00
         -2   -1    0    0    0  501 -0.00000000000E+00  0.00000000000E+00  0.61753997586E+02  0.61753997586E+02  0.00000000000E+00 0.  1.
          2   -1    0    0  501    0  0.00000000000E+00 -0.00000000000E+00 -0.87464829126E+03  0.87464829126E+03  0.00000000000E+00 0. -1.
          5    1    1    2  502    0  0.35817530273E+02 -0.19117508771E+02 -0.51406027219E+02  0.65673771408E+02  0.47000000000E+01 0.  1.
         -5    1    1    2    0  502  0.93758592164E+02  0.16900288776E+03 -0.26316538334E+03  0.32654365506E+03  0.47000000000E+01 0.  1.
        -11    1    1    2    0    0 -0.78175343365E+02 -0.12830588686E+03 -0.43290303946E+03  0.45823446672E+03  0.00000000000E+00 0. -1.
         11    1    1    2    0    0 -0.51400779072E+02 -0.21579492123E+02 -0.65419843652E+02  0.85950395653E+02  0.00000000000E+00 0.  1.
<mgrwt>
<rscale>  0 0.23026071E+03</rscale>
<asrwt>0</asrwt>
<pdfrwt beam="2">  1        2 0.13456127E+00 0.23426339E+03</pdfrwt>
<pdfrwt beam="1">  1       -2 0.95006156E-02 0.23426339E+03</pdfrwt>
<totfact> 0.22665136E+03</totfact>
</mgrwt>
</event>
<event>
 6    1  0.7270761E-006  0.1443183E+03  0.7546771E-02  0.1217670E+00
          1   -1    0    0  501    0  0.00000000000E+00  0.00000000000E+00  0.18959195175E+03  0.18959195175E+03  0.00000000000E+00 0. -1.
         -1   -1    0    0    0  501 -0.00000000000E+00 -0.00000000000E+00 -0.89763902588E+02  0.89763902588E+02  0.00000000000E+00 0.  1.
          5    1    1    2  502    0 -0.15076389957E+02  0.90765207709E+01  0.88733748824E+02  0.90583933143E+02  0.47000000000E+01 0. -1.
         -5    1    1    2    0  502 -0.51439080785E+02  0.18856173118E+02 -0.32991509924E+02  0.64125377377E+02  0.47000000000E+01 0. -1.
        -11    1    1    2    0    0  0.56517949591E+02 -0.58968643290E+02  0.19954786372E+02  0.84081942275E+02  0.00000000000E+00 0.  1.
         11    1    1    2    0    0  0.99975211503E+01  0.31035949401E+02  0.24131023892E+02  0.40564601544E+02  0.00000000000E+00 0. -1.
<mgrwt>
<rscale>  0 0.13682211E+03</rscale>
<asrwt>0</asrwt>
<pdfrwt beam="1">  1        1 0.29167992E-01 0.14431831E+03</pdfrwt>
<pdfrwt beam="2">  1       -1 0.13809831E-01 0.14431831E+03</pdfrwt>
<totfact> 0.55155495E+03</totfact>
</mgrwt>
</event>
<event>
 6    1  0.7270761E-006  0.1308447E+03  0.7546771E-02  0.1239496E+00
         -3   -1    0    0    0  501 -0.00000000000E+00  0.00000000000E+00  0.41262809719E+02  0.41262809719E+02  0.00000000000E+00 0.  1.
          3   -1    0    0  501    0  0.00000000000E+00 -0.00000000000E+00 -0.33867301681E+03  0.33867301681E+03  0.00000000000E+00 0. -1.
          5    1    1    2  502    0 -0.12796363395E+02 -0.60596457259E+02 -0.66250642040E+02  0.90812527325E+02  0.47000000000E+01 0.  1.
         -5    1    1    2    0  502 -0.25657258566E+02  0.56415496927E+02 -0.14380758001E+03  0.15666433314E+03  0.47000000000E+01 0.  1.
        -11    1    1    2    0    0  0.57118901875E+01 -0.23744394983E+02  0.97130227100E+01  0.26282404623E+02  0.00000000000E+00 0.  1.
         11    1    1    2    0    0  0.32741731774E+02  0.27925355315E+02 -0.97065007752E+02  0.10617656144E+03  0.00000000000E+00 0. -1.
<mgrwt>
<rscale>  0 0.12220917E+03</rscale>
<asrwt>0</asrwt>
<pdfrwt beam="2">  1        3 0.52103543E-01 0.13084472E+03</pdfrwt>
<pdfrwt beam="1">  1       -3 0.63481244E-02 0.13084472E+03</pdfrwt>
<totfact> 0.13078584E+03</totfact>
</mgrwt>
</event>
<event>
 6    1  0.7270761E-006  0.1272480E+03  0.7546771E-02  0.1253636E+00
         -1   -1    0    0    0  501 -0.00000000000E+00  0.00000000000E+00  0.67349921785E+03  0.67349921785E+03  0.00000000000E+00 0.  1.
          1   -1    0    0  501    0  0.00000000000E+00 -0.00000000000E+00 -0.16198417852E+02  0.16198417852E+02  0.00000000000E+00 0. -1.
          5    1    1    2  502    0  0.31419490859E+02 -0.44169893180E+02  0.31414427706E+03  0.31882107941E+03  0.47000000000E+01 0.  1.
         -5    1    1    2    0  502 -0.99942324790E+01  0.54480105254E+02  0.99763642671E+02  0.11420525798E+03  0.47000000000E+01 0.  1.
        -11    1    1    2    0    0  0.16376211754E+02 -0.26473138512E+02  0.16740718836E+03  0.17027675733E+03  0.00000000000E+00 0.  1.
         11    1    1    2    0    0 -0.37801470133E+02  0.16162926438E+02  0.75985691909E+02  0.86394540974E+02  0.00000000000E+00 0. -1.
<mgrwt>
<rscale>  0 0.11383076E+03</rscale>
<asrwt>0</asrwt>
<pdfrwt beam="2">  1        1 0.24920648E-02 0.12724796E+03</pdfrwt>
<pdfrwt beam="1">  1       -1 0.10361524E+00 0.12724796E+03</pdfrwt>
<totfact> 0.39333541E+03</totfact>
</mgrwt>
</event>
<event>
 6    1  0.7270761E-006  0.2869774E+03  0.7546771E-02  0.1091938E+00
          2   -1    0    0  501    0  0.00000000000E+00  0.00000000000E+00  0.85654143734E+03  0.85654143734E+03  0.00000000000E+00 0. -1.
         -2   -1    0    0    0  501 -0.00000000000E+00 -0.00000000000E+00 -0.24037377944E+02  0.24037377944E+02  0.00000000000E+00 0.  1.
          5    1    1    2  502    0 -0.10108844210E+02  0.33057125687E+02  0.80218820099E+02  0.87476347592E+02  0.47000000000E+01 0. -1.
         -5    1    1    2    0  502 -0.42090416491E+01 -0.11493587351E+03  0.23876160495E+03  0.26506068183E+03  0.47000000000E+01 0. -1.
        -11    1    1    2    0    0 -0.31666853824E+02  0.66837193583E+02  0.33596460431E+03  0.34400903393E+03  0.00000000000E+00 0. -1.
         11    1    1    2    0    0  0.45984739684E+02  0.15041554238E+02  0.17755903003E+03  0.18403275193E+03  0.00000000000E+00 0.  1.
<mgrwt>
<rscale>  0 0.28697742E+03</rscale>
<asrwt>0</asrwt>
<pdfrwt beam="1">  1        2 0.13177558E+00 0.28697742E+03</pdfrwt>
<pdfrwt beam="2">  1       -2 0.36980588E-02 0.28697742E+03</pdfrwt>
<totfact> 0.10030019E+04</totfact>
</mgrwt>
</event>
<event>
 6    1  0.7270761E-006  0.1435708E+03  0.7546771E-02  0.1218181E+00
          2   -1    0    0  501    0  0.00000000000E+00  0.00000000000E+00  0.13944074684E+03  0.13944074684E+03  0.00000000000E+00 0. -1.
         -2   -1    0    0    0  501 -0.00000000000E+00 -0.00000000000E+00 -0.13020054673E+03  0.13020054673E+03  0.00000000000E+00 0.  1.
          5    1    1    2  502    0 -0.55128575331E+02  0.24840605533E+02 -0.34680602513E+02  0.69864509531E+02  0.47000000000E+01 0. -1.
         -5    1    1    2    0  502  0.63838352221E+01 -0.75947395859E+02  0.58084468717E+01  0.76580600317E+02  0.47000000000E+01 0. -1.
        -11    1    1    2    0    0  0.35118968491E+02 -0.17368339949E+02  0.36214836717E+02  0.53352746685E+02  0.00000000000E+00 0. -1.
         11    1    1    2    0    0  0.13625771618E+02  0.68475130275E+02  0.18975190397E+01  0.69843437035E+02  0.00000000000E+00 0.  1.
<mgrwt>
<rscale>  0 0.13645442E+03</rscale>
<asrwt>0</asrwt>
<pdfrwt beam="1">  1        2 0.21452423E-01 0.14357078E+03</pdfrwt>
<pdfrwt beam="2">  1       -2 0.20030853E-01 0.14357078E+03</pdfrwt>
<totfact> 0.51389891E+03</totfact>
</mgrwt>
</event>
<event>
 6    1  0.7270761E-006  0.3318222E+03  0.7546771E-02  0.1070333E+00
          3   -1    0    0  501    0  0.00000000000E+00  0.00000000000E+00  0.24848756050E+03  0.24848756050E+03  0.00000000000E+00 0. -1.
         -3   -1    0    0    0  501 -0.00000000000E+00 -0.00000000000E+00 -0.11077611851E+03  0.11077611851E+03  0.00000000000E+00 0.  1.
          5    1    1    2  502    0 -0.70176884815E+01 -0.69677132668E+02 -0.77837643755E+02  0.10480906237E+03  0.47000000000E+01 0.  1.
         -5    1    1    2    0  502  0.16617239952E+02  0.23521988543E+02  0.25428193736E+02  0.38705292213E+02  0.47000000000E+01 0.  1.
        -11    1    1    2    0    0  0.34061858990E+02  0.21486404150E+02  0.13656667351E+03  0.14238094014E+03  0.00000000000E+00 0.  1.
         11    1    1    2    0    0 -0.43661410461E+02  0.24668739975E+02  0.53554218500E+02  0.73368384298E+02  0.00000000000E+00 0. -1.
<mgrwt>
<rscale>  0 0.33182217E+03</rscale>
<asrwt>0</asrwt>
<pdfrwt beam="1">  1        3 0.38228855E-01 0.33182217E+03</pdfrwt>
<pdfrwt beam="2">  1       -3 0.17042480E-01 0.33182217E+03</pdfrwt>
<totfact> 0.52086733E+02</totfact>
</mgrwt>
</event>
<event>
 6    1  0.7270761E-006  0.2966507E+03  0.7546771E-02  0.1086927E+00
          1   -1    0    0  501    0  0.00000000000E+00  0.00000000000E+00  0.69553426807E+03  0.69553426807E+03  0.00000000000E+00 0. -1.
         -1   -1    0    0    0  501 -0.00000000000E+00 -0.00000000000E+00 -0.31630958416E+02  0.31630958416E+02  0.00000000000E+00 0.  1.
          5    1    1    2  502    0 -0.63672349695E+02 -0.67645772339E+02  0.23851616834E+03  0.25601205283E+03  0.47000000000E+01 0. -1.
         -5    1    1    2    0  502  0.11406372146E+02  0.24659522629E+01 -0.10988205070E+02  0.16703798872E+02  0.47000000000E+01 0. -1.
        -11    1    1    2    0    0  0.37992534622E+02 -0.10766844097E+02  0.73491738643E+02  0.83428971393E+02  0.00000000000E+00 0.  1.
         11    1    1    2    0    0  0.14273442926E+02  0.75946664173E+02  0.36288360773E+03  0.37102040339E+03  0.00000000000E+00 0. -1.
<mgrwt>
<rscale>  0 0.29665074E+03</rscale>
<asrwt>0</asrwt>
<pdfrwt beam="1">  1        1 0.10700526E+00 0.29665074E+03</pdfrwt>
<pdfrwt beam="2">  1       -1 0.48663018E-02 0.29665074E+03</pdfrwt>
<totfact> 0.52155832E+03</totfact>
</mgrwt>
</event>
<event>
 6    1  0.7270761E-006  0.1448310E+03  0.7546771E-02  0.1217105E+00
         -1   -1    0    0    0  501 -0.00000000000E+00  0.00000000000E+00  0.12528259212E+03  0.12528259212E+03  0.00000000000E+00 0.  1.
          1   -1    0    0  501    0  0.00000000000E+00 -0.00000000000E+00 -0.20337924180E+03  0.20337924180E+03  0.00000000000E+00 0. -1.
          5    1    1    2  502    0  0.47420282520E+02 -0.76113167329E+01  0.37989282111E+02  0.61415721864E+02  0.47000000000E+01 0. -1.
         -5    1    1    2    0  502 -0.65892470543E+02 -0.63162487206E+02  0.13995897877E+02  0.92462384902E+02  0.47000000000E+01 0. -1.
        -11    1    1    2    0    0  0.48492837909E+02  0.37599386655E+02 -0.37382778978E+02  0.71852218960E+02  0.00000000000E+00 0.  1.
         11    1    1    2    0    0 -0.30020649887E+02  0.33174417284E+02 -0.92699050681E+02  0.10293150819E+03  0.00000000000E+00 0. -1.
<mgrwt>
<rscale>  0 0.13723042E+03</rscale>
<asrwt>0</asrwt>
<pdfrwt beam="2">  1        1 0.31289114E-01 0.14483098E+03</pdfrwt>
<pdfrwt beam="1">  1       -1 0.19274245E-01 0.14483098E+03</pdfrwt>
<totfact> 0.29845754E+03</totfact>
</mgrwt>
</event>
<event>
 6    1  0.7270761E-006  0.1712703E+03  0.7546771E-02  0.1227071E+00
          2   -1    0    0  501    0  0.00000000000E+00  0.00000000000E+00  0.43823878343E+03  0.43823878343E+03  0.00000000000E+00 0. -1.
         -2   -1    0    0    0  501 -0.00000000000E+00 -0.00000000000E+00 -0.30623485301E+02  0.30623485301E+02  0.00000000000E+00 0.  1.
          5    1    1    2  502    0 -0.52223788360E+02  0.31947650027E+02  0.24184406079E+03  0.24951676527E+03  0.47000000000E+01 0. -1.
         -5    1    1    2    0  502  0.25197787014E+02 -0.58651211876E+02  0.27490721089E+02  0.69661487717E+02  0.47000000000E+01 0.  1.
        -11    1    1    2    0    0  0.10064584522E+02  0.35759293371E+02  0.10315658395E+03  0.10964170619E+03  0.00000000000E+00 0. -1.
         11    1    1    2    0    0  0.16961416824E+02 -0.90557315214E+01  0.35123932305E+02  0.40042309557E+02  0.00000000000E+00 0.  1.
<mgrwt>
<rscale>  0 0.13025931E+03</rscale>
<asrwt>0</asrwt>
<pdfrwt beam="1">  1        2 0.67421347E-01 0.17127035E+03</pdfrwt>
<pdfrwt beam="2">  1       -2 0.47113058E-02 0.17127035E+03</pdfrwt>
<totfact> 0.14872647E+04</totfact>
</mgrwt>
</event>
<event>
 6    1  0.7270761E-006  0.4175023E+03  0.7546771E-02  0.1037882E+00
          2   -1    0    0  501    0  0.00000000000E+00  0.00000000000E+00  0.38397194435E+03  0.38397194435E+03  0.00000000000E+00 0. -1.
         -2   -1    0    0    0  501 -0.00000000000E+00 -0.00000000000E+00 -0.11349015472E+03  0.11349015472E+03  0.00000000000E+00 0.  1.
          5    1    1    2  502    0  0.18269302943E+02 -0.75299909240E+01  0.80448858387E+02  0.82973351199E+02  0.47000000000E+01 0.  1.
         -5    1    1    2    0  502  0.19850895013E-01 -0.16321507562E+03  0.71869549897E+02  0.17839978561E+03  0.47000000000E+01 0.  1.
        -11    1    1    2    0    0 -0.51974330295E+02  0.10089106332E+03  0.11009636877E+03  0.15811877841E+03  0.00000000000E+00 0.  1.
         11    1    1    2    0    0  0.33685176457E+02  0.69854003219E+02  0.80670125750E+01  0.77970183856E+02  0.00000000000E+00 0. -1.
<mgrwt>
<rscale>  0 0.41750227E+03</rscale>
<asrwt>0</asrwt>
<pdfrwt beam="1">  1        2 0.59072606E-01 0.41750227E+03</pdfrwt>
<pdfrwt beam="2">  1       -2 0.17460024E-01 0.41750227E+03</pdfrwt>
<totfact> 0.22289028E+03</totfact>
</mgrwt>
</event>
<event>
 6    1  0.7270761E-006  0.2942608E+03  0.7546771E-02  0.1089825E+00
         -4   -1    0    0    0  501 -0.00000000000E+00  0.00000000000E+00  0.58537186023E+03  0.58537186023E+03  0.00000000000E+00 0.  1.
          4   -1    0    0  501    0  0.00000000000E+00 -0.00000000000E+00 -0.14415366929E+03  0.14415366929E+03  0.00000000000E+00 0. -1.
          5    1    1    2  502    0  0.18857050045E+03  0.16806457404E+03  0.23674548027E+03  0.34622976059E+03  0.47000000000E+01 0. -1.
         -5    1    1    2    0  502  0.34614433937E+02 -0.22611328051E+02  0.37658152444E+02  0.56121810721E+02  0.47000000000E+01 0. -1.
        -11    1    1    2    0    0 -0.20254064849E+03 -0.11235218168E+03  0.17105476539E+03  0.28793308212E+03  0.00000000000E+00 0.  1.
         11    1    1    2    0    0 -0.20644285893E+02 -0.33101064314E+02 -0.42402071613E+01  0.39240876080E+02  0.00000000000E+00 0. -1.
<mgrwt>
<rscale>  0 0.29100520E+03</rscale>
<asrwt>0</asrwt>
<pdfrwt beam="2">  1        4 0.22177488E-01 0.29426083E+03</pdfrwt>
<pdfrwt beam="1">  1       -4 0.90057208E-01 0.29426083E+03</pdfrwt>
<totfact> 0.37595110E+01</totfact>
</mgrwt>
</event>
<event>
 6    1  0.7270761E-006  0.1652381E+03  0.7546771E-02  0.1190118E+00
         -1   -1    0    0    0  501 -0.00000000000E+00  0.00000000000E+00  0.18636771349E+02  0.18636771349E+02  0.00000000000E+00 0.  1.
          1   -1    0    0  501    0  0.00000000000E+00 -0.00000000000E+00 -0.13009279218E+04  0.13009279218E+04  0.00000000000E+00 0. -1.
          5    1    1    2  502    0  0.11085890860E+02 -0.58929928192E+02 -0.49669186662E+03  0.50032043110E+03  0.47000000000E+01 0.  1.
         -5    1    1    2    0  502 -0.31838712900E+02 -0.47110107208E+02 -0.71853738508E+02  0.91750289252E+02  0.47000000000E+01 0.  1.
        -11    1    1    2    0    0 -0.33340493762E+02  0.26214734523E+02 -0.16643474473E+03  0.17175367560E+03  0.00000000000E+00 0. -1.
         11    1    1    2    0    0  0.54093315802E+02  0.79825300876E+02 -0.54731080064E+03  0.55574029724E+03  0.00000000000E+00 0.  1.
<mgrwt>
<rscale>  0 0.15874729E+03</rscale>
<asrwt>0</asrwt>
<pdfrwt beam="2">  1        1 0.20014282E+00 0.16523811E+03</pdfrwt>
<pdfrwt beam="1">  1       -1 0.28671947E-02 0.16523811E+03</pdfrwt>
<totfact> 0.38921333E+03</totfact>
</mgrwt>
</event>
<event>
 6    1  0.7270761E-006  0.1320755E+03  0.7546771E-02  0.1237634E+00
         -2   -1    0    0    0  501 -0.00000000000E+00  0.00000000000E+00  0.15264723757E+02  0.15264723757E+02  0.00000000000E+00 0.  1.
          2   -1    0    0  501    0  0.00000000000E+00 -0.00000000000E+00 -0.91616161110E+03  0.91616161110E+03  0.00000000000E+00 0. -1.
          5    1    1    2  502    0 -0.18163277046E+02  0.71529647924E+01 -0.15838042731E+01  0.20141200917E+02  0.47000000000E+01 0. -1.
         -5    1    1    2    0  502  0.65988482278E+01  0.34023749674E+02 -0.42461793111E+03  0.42605590920E+03  0.47000000000E+01 0. -1.
        -11    1    1    2    0    0  0.50762968853E+02 -0.26671598800E+02 -0.23340702666E+03  0.24034785891E+03  0.00000000000E+00 0.  1.
         11    1    1    2    0    0 -0.39198540034E+02 -0.14505115666E+02 -0.24128812530E+03  0.24488136583E+03  0.00000000000E+00 0. -1.
<mgrwt>
<rscale>  0 0.12337322E+03</rscale>
<asrwt>0</asrwt>
<pdfrwt beam="2">  1        2 0.14094790E+00 0.13207552E+03</pdfrwt>
<pdfrwt beam="1">  1       -2 0.23484197E-02 0.13207552E+03</pdfrwt>
<totfact> 0.17214863E+04</totfact>
</mgrwt>
</event>
<event>
 6    1  0.7270761E-006  0.1338956E+03  0.7546771E-02  0.1235188E+00
          1   -1    0    0  501    0  0.00000000000E+00  0.00000000000E+00  0.64115305666E+02  0.64115305666E+02  0.00000000000E+00 0. -1.
         -1   -1    0    0    0  501 -0.00000000000E+00 -0.00000000000E+00 -0.21676917087E+03  0.21676917087E+03  0.00000000000E+00 0.  1.
          5    1    1    2  502    0 -0.55566726113E+02 -0.16921603177E+01 -0.31278871743E+02  0.63960787010E+02  0.47000000000E+01 0.  1.
         -5    1    1    2    0  502  0.63102627171E+02 -0.45746836749E+02 -0.47157819839E+02  0.91217677017E+02  0.47000000000E+01 0.  1.
        -11    1    1    2    0    0  0.39926540031E+02  0.29680976331E+02 -0.45716884095E+02  0.67565689859E+02  0.00000000000E+00 0. -1.
         11    1    1    2    0    0 -0.47462441088E+02  0.17758020736E+02 -0.28500289521E+02  0.58140322645E+02  0.00000000000E+00 0.  1.
<mgrwt>
<rscale>  0 0.12492428E+03</rscale>
<asrwt>0</asrwt>
<pdfrwt beam="1">  1        1 0.98638932E-02 0.13389564E+03</pdfrwt>
<pdfrwt beam="2">  1       -1 0.33349103E-01 0.13389564E+03</pdfrwt>
<totfact> 0.52940810E+03</totfact>
</mgrwt>
</event>
<event>
 6    1  0.7270761E-006  0.1550282E+03  0.7546771E-02  0.1203081E+00
          1   -1    0    0  501    0  0.00000000000E+00  0.00000000000E+00  0.52583200322E+02  0.52583200322E+02  0.00000000000E+00 0. -1.
         -1   -1    0    0    0  501 -0.00000000000E+00 -0.00000000000E+00 -0.39412555059E+03  0.39412555059E+03  0.00000000000E+00 0.  1.
          5    1    1    2  502    0 -0.55411998080E+02 -0.16513717692E+02 -0.22313427039E+03  0.23055191395E+03  0.47000000000E+01 0. -1.
         -5    1    1    2    0  502 -0.17698197006E+02 -0.38847618566E+02 -0.22550142080E+01  0.43006263900E+02  0.47000000000E+01 0. -1.
        -11    1    1    2    0    0  0.45461995926E+02  0.53190150529E+02 -0.12566440363E+03  0.14383159433E+03  0.00000000000E+00 0.  1.
         11    1    1    2    0    0  0.27648199160E+02  0.21711857296E+01  0.95113379609E+01  0.29318978735E+02  0.00000000000E+00 0. -1.
<mgrwt>
<rscale>  0 0.14789697E+03</rscale>
<asrwt>0</asrwt>
<pdfrwt beam="1">  1        1 0.80897229E-02 0.15502821E+03</pdfrwt>
<pdfrwt beam="2">  1       -1 0.60634702E-01 0.15502821E+03</pdfrwt>
<totfact> 0.23767079E+03</totfact>
</mgrwt>
</event>
<event>
 6    1  0.7270761E-006  0.3692978E+03  0.7546771E-02  0.1054962E+00
          1   -1    0    0  501    0  0.00000000000E+00  0.00000000000E+00  0.69448679721E+03  0.69448679721E+03  0.00000000000E+00 0. -1.
         -1   -1    0    0    0  501 -0.00000000000E+00 -0.00000000000E+00 -0.49094114912E+02  0.49094114912E+02  0.00000000000E+00 0.  1.
          5    1    1    2  502    0 -0.41088978483E+02  0.65471623940E+02  0.99509268670E+02  0.12609132502E+03  0.47000000000E+01 0. -1.
         -5    1    1    2    0  502  0.30567769678E+02  0.66628202831E+01 -0.21554122372E+02  0.38281221355E+02  0.47000000000E+01 0. -1.
        -11    1    1    2    0    0 -0.39600653438E+02 -0.37135251761E+02  0.30003764347E+03  0.30490953769E+03  0.00000000000E+00 0.  1.
         11    1    1    2    0    0  0.50121862243E+02 -0.34999192462E+02  0.26739989253E+03  0.27429882806E+03  0.00000000000E+00 0. -1.
<mgrwt>
<rscale>  0 0.36929779E+03</rscale>
<asrwt>0</asrwt>
<pdfrwt beam="1">  1        1 0.10684412E+00 0.36929779E+03</pdfrwt>
<pdfrwt beam="2">  1       -1 0.75529412E-02 0.36929779E+03</pdfrwt>
<totfact> 0.26910650E+03</totfact>
</mgrwt>
</event>
<event>
 6    1  0.7270761E-006  0.3085821E+03  0.7546771E-02  0.1081027E+00
          2   -1    0    0  501    0  0.00000000000E+00  0.00000000000E+00  0.68885706856E+03  0.68885706856E+03  0.00000000000E+00 0. -1.
         -2   -1    0    0    0  501 -0.00000000000E+00 -0.00000000000E+00 -0.34558308483E+02  0.34558308483E+02  0.00000000000E+00 0.  1.
          5    1    1    2  502    0 -0.23724582748E+02 -0.36587606344E+01  0.13442627983E+02  0.27911227186E+02  0.47000000000E+01 0. -1.
         -5    1    1    2    0  502  0.75695946463E+02  0.99466724888E+02  0.34694777235E+03  0.36880665993E+03  0.47000000000E+01 0. -1.
        -11    1    1    2    0    0 -0.46838893914E+02 -0.12494485965E+02  0.17378815467E+03  0.18042260631E+03  0.00000000000E+00 0. -1.
         11    1    1    2    0    0 -0.51324698013E+01 -0.83313478289E+02  0.12012020507E+03  0.14627488362E+03  0.00000000000E+00 0.  1.
<mgrwt>
<rscale>  0 0.30858215E+03</rscale>
<asrwt>0</asrwt>
<pdfrwt beam="1">  1        2 0.10597800E+00 0.30858215E+03</pdfrwt>
<pdfrwt beam="2">  1       -2 0.53166633E-02 0.30858215E+03</pdfrwt>
<totfact> 0.76301437E+03</totfact>
</mgrwt>
</event>
<event>
 6    1  0.7270761E-006  0.1311244E+03  0.7546771E-02  0.1239355E+00
          1   -1    0    0  501    0  0.00000000000E+00  0.00000000000E+00  0.22108908344E+03  0.22108908344E+03  0.00000000000E+00 0.  1.
         -1   -1    0    0    0  501 -0.00000000000E+00 -0.00000000000E+00 -0.67720553422E+02  0.67720553422E+02  0.00000000000E+00 0. -1.
          5    1    1    2  502    0  0.30517231902E+02 -0.31619256648E+02  0.71293443673E+02  0.83880414548E+02  0.47000000000E+01 0.  1.
         -5    1    1    2    0  502 -0.39608937920E+02 -0.68762430506E+01 -0.33545393019E+02  0.52569326365E+02  0.47000000000E+01 0.  1.
        -11    1    1    2    0    0 -0.24225999403E+02 -0.86854853590E+01  0.81067272546E+02  0.85054331935E+02  0.00000000000E+00 0.  1.
         11    1    1    2    0    0  0.33317705421E+02  0.47180985058E+02  0.34553206817E+02  0.67305564011E+02  0.00000000000E+00 0. -1.
<mgrwt>
<rscale>  0 0.12229737E+03</rscale>
<asrwt>0</asrwt>
<pdfrwt beam="1">  1        1 0.34013705E-01 0.13112443E+03</pdfrwt>
<pdfrwt beam="2">  1       -1 0.10418547E-01 0.13112443E+03</pdfrwt>
<totfact> 0.69966147E+03</totfact>
</mgrwt>
</event>
<event>
 6    1  0.7270761E-006  0.2385537E+03  0.7546771E-02  0.1120760E+00
          2   -1    0    0  501    0  0.00000000000E+00  0.00000000000E+00  0.30659142569E+03  0.30659142569E+03  0.00000000000E+00 0. -1.
         -2   -1    0    0    0  501 -0.00000000000E+00 -0.00000000000E+00 -0.46403679867E+02  0.46403679867E+02  0.00000000000E+00 0.  1.
          5    1    1    2  502    0 -0.12869287818E+02 -0.38181890399E+01  0.10832809035E+03  0.10925777911E+03  0.47000000000E+01 0. -1.
         -5    1    1    2    0  502  0.21619518472E+02  0.39876803768E+02 -0.18341320795E+02  0.49153403812E+02  0.47000000000E+01 0. -1.
        -11    1    1    2    0    0 -0.46926563341E+02 -0.16014282257E+02  0.10868455155E+03  0.11946083597E+03  0.00000000000E+00 0.  1.
         11    1    1    2    0    0  0.38176332687E+02 -0.20044332472E+02  0.61516424719E+02  0.75123086677E+02  0.00000000000E+00 0. -1.
<mgrwt>
<rscale>  0 0.23855373E+03</rscale>
<asrwt>0</asrwt>
<pdfrwt beam="1">  1        2 0.47167910E-01 0.23855373E+03</pdfrwt>
<pdfrwt beam="2">  1       -2 0.71390279E-02 0.23855373E+03</pdfrwt>
<totfact> 0.11859315E+04</totfact>
</mgrwt>
</event>
<event>
 6    1  0.7270761E-006  0.1276474E+03  0.7546771E-02  0.1246462E+00
         -2   -1    0    0    0  501 -0.00000000000E+00  0.00000000000E+00  0.51872822325E+03  0.51872822325E+03  0.00000000000E+00 0.  1.
          2   -1    0    0  501    0  0.00000000000E+00 -0.00000000000E+00 -0.25496542607E+02  0.25496542607E+02  0.00000000000E+00 0. -1.
          5    1    1    2  502    0  0.35369986777E+02 -0.38450988617E+02  0.65609728131E+02  0.84001434009E+02  0.47000000000E+01 0.  1.
         -5    1    1    2    0  502 -0.44277443353E+02  0.14177669367E+02  0.29181906779E+03  0.29553672636E+03  0.47000000000E+01 0.  1.
        -11    1    1    2    0    0 -0.36971789112E+02 -0.67973549272E+01  0.59684036099E+02  0.70535816357E+02  0.00000000000E+00 0. -1.
         11    1    1    2    0    0  0.45879245689E+02  0.31070674177E+02  0.76118848616E+02  0.94150789128E+02  0.00000000000E+00 0.  1.
<mgrwt>
<rscale>  0 0.11798299E+03</rscale>
<asrwt>0</asrwt>
<pdfrwt beam="2">  1        2 0.39225454E-02 0.12764745E+03</pdfrwt>
<pdfrwt beam="1">  1       -2 0.79804334E-01 0.12764745E+03</pdfrwt>
<totfact> 0.29618353E+03</totfact>
</mgrwt>
</event>
<event>
 6    1  0.7270761E-006  0.1692297E+03  0.7546771E-02  0.1185023E+00
          1   -1    0    0  501    0  0.00000000000E+00  0.00000000000E+00  0.18480803947E+03  0.18480803947E+03  0.00000000000E+00 0. -1.
         -1   -1    0    0    0  501 -0.00000000000E+00 -0.00000000000E+00 -0.28558895356E+03  0.28558895356E+03  0.00000000000E+00 0.  1.
          5    1    1    2  502    0  0.40127915195E+02  0.42541066878E+02 -0.53952300736E+02  0.79705286549E+02  0.47000000000E+01 0.  1.
         -5    1    1    2    0  502 -0.88591997109E+02  0.60446381882E+02 -0.16869810634E+03  0.19995861601E+03  0.47000000000E+01 0.  1.
        -11    1    1    2    0    0 -0.12680289934E+02 -0.56146892877E+02  0.91162240354E+02  0.10781380894E+03  0.00000000000E+00 0. -1.
         11    1    1    2    0    0  0.61144371847E+02 -0.46840555883E+02  0.30707252636E+02  0.82919281524E+02  0.00000000000E+00 0.  1.
<mgrwt>
<rscale>  0 0.16329776E+03</rscale>
<asrwt>0</asrwt>
<pdfrwt beam="1">  1        1 0.28432006E-01 0.16922971E+03</pdfrwt>
<pdfrwt beam="2">  1       -1 0.43936762E-01 0.16922971E+03</pdfrwt>
<totfact> 0.84304657E+02</totfact>
</mgrwt>
</event>
<event>
 6    1  0.7270761E-006  0.1759256E+03  0.7546771E-02  0.1177489E+00
          1   -1    0    0  501    0  0.00000000000E+00  0.00000000000E+00  0.50382064682E+03  0.50382064682E+03  0.00000000000E+00 0. -1.
         -1   -1    0    0    0  501 -0.00000000000E+00 -0.00000000000E+00 -0.85646419052E+02  0.85646419052E+02  0.00000000000E+00 0.  1.
          5    1    1    2  502    0 -0.42585338229E+02  0.10700251133E+02  0.56510383803E+02  0.71718337153E+02  0.47000000000E+01 0.  1.
         -5    1    1    2    0  502 -0.46890623427E+02 -0.96260929182E+02 -0.17191829357E+02  0.10854743686E+03  0.47000000000E+01 0.  1.
        -11    1    1    2    0    0  0.77150252142E+02  0.35176747825E+02  0.13150711663E+03  0.15647263888E+03  0.00000000000E+00 0.  1.
         11    1    1    2    0    0  0.12325709514E+02  0.50383930224E+02  0.24734855669E+03  0.25272865298E+03  0.00000000000E+00 0. -1.
<mgrwt>
<rscale>  0 0.17034461E+03</rscale>
<asrwt>0</asrwt>
<pdfrwt beam="1">  1        1 0.77510867E-01 0.17592555E+03</pdfrwt>
<pdfrwt beam="2">  1       -1 0.13176372E-01 0.17592555E+03</pdfrwt>
<totfact> 0.17505306E+03</totfact>
</mgrwt>
</event>
<event>
 6    1  0.7270761E-006  0.1875362E+03  0.7546771E-02  0.1165393E+00
          1   -1    0    0  501    0  0.00000000000E+00  0.00000000000E+00  0.65222884740E+02  0.65222884740E+02  0.00000000000E+00 0. -1.
         -1   -1    0    0    0  501 -0.00000000000E+00 -0.00000000000E+00 -0.48894070724E+03  0.48894070724E+03  0.00000000000E+00 0.  1.
          5    1    1    2  502    0  0.33903277498E+02 -0.74284146622E+02 -0.64781112737E+02  0.10433719007E+03  0.47000000000E+01 0.  1.
         -5    1    1    2    0  502 -0.74604494646E+02 -0.59463883431E+02 -0.18281532064E+03  0.20626515827E+03  0.47000000000E+01 0.  1.
        -11    1    1    2    0    0 -0.11757228036E+02  0.10818666244E+03 -0.10130620803E+03  0.14867929959E+03  0.00000000000E+00 0. -1.
         11    1    1    2    0    0  0.52458445184E+02  0.25561367616E+02 -0.74815181086E+02  0.94881944049E+02  0.00000000000E+00 0.  1.
<mgrwt>
<rscale>  0 0.18251289E+03</rscale>
<asrwt>0</asrwt>
<pdfrwt beam="1">  1        1 0.10034290E-01 0.18753620E+03</pdfrwt>
<pdfrwt beam="2">  1       -1 0.75221645E-01 0.18753620E+03</pdfrwt>
<totfact> 0.11727145E+03</totfact>
</mgrwt>
</event>
<event>
 6    1  0.7270761E-006  0.1728861E+03  0.7546771E-02  0.1181065E+00
         -2   -1    0    0    0  501 -0.00000000000E+00  0.00000000000E+00  0.51822671254E+03  0.51822671254E+03  0.00000000000E+00 0.  1.
          2   -1    0    0  501    0  0.00000000000E+00 -0.00000000000E+00 -0.57730550118E+02  0.57730550118E+02  0.00000000000E+00 0. -1.
          5    1    1    2  502    0  0.29999562333E+02  0.13401719775E+02  0.36511446373E+01  0.33391626050E+02  0.47000000000E+01 0.  1.
         -5    1    1    2    0  502  0.86207486483E+02  0.14077692417E+02  0.34301303733E+03  0.35399144894E+03  0.47000000000E+01 0.  1.
        -11    1    1    2    0    0 -0.23431210343E+02 -0.10288106336E+01 -0.14838931105E+02  0.27753809573E+02  0.00000000000E+00 0. -1.
         11    1    1    2    0    0 -0.92775838472E+02 -0.26450601559E+02  0.12867091156E+03  0.16082037809E+03  0.00000000000E+00 0.  1.
<mgrwt>
<rscale>  0 0.16695121E+03</rscale>
<asrwt>0</asrwt>
<pdfrwt beam="2">  1        2 0.88816235E-02 0.17288607E+03</pdfrwt>
<pdfrwt beam="1">  1       -2 0.79727183E-01 0.17288607E+03</pdfrwt>
<totfact> 0.10509442E+03</totfact>
</mgrwt>
</event>
<event>
 6    1  0.7270761E-006  0.1338381E+03  0.7546771E-02  0.1224286E+00
         -2   -1    0    0    0  501 -0.00000000000E+00  0.00000000000E+00  0.18862848791E+03  0.18862848791E+03  0.00000000000E+00 0.  1.
          2   -1    0    0  501    0  0.00000000000E+00 -0.00000000000E+00 -0.99752625450E+02  0.99752625450E+02  0.00000000000E+00 0. -1.
          5    1    1    2  502    0 -0.25546940872E+02 -0.40004941508E+02  0.34015223950E+02  0.58584699311E+02  0.47000000000E+01 0.  1.
         -5    1    1    2    0  502  0.10466583167E+02  0.85325964237E+02  0.55703758599E+02  0.10254300687E+03  0.47000000000E+01 0.  1.
        -11    1    1    2    0    0  0.88663774746E+01 -0.85624729605E+02 -0.52115472433E+01  0.86240171580E+02  0.00000000000E+00 0. -1.
         11    1    1    2    0    0  0.62139802303E+01  0.40303706877E+02  0.43684271526E+01  0.41013235597E+02  0.00000000000E+00 0.  1.
<mgrwt>
<rscale>  0 0.13215994E+03</rscale>
<asrwt>0</asrwt>
<pdfrwt beam="2">  1        2 0.15346558E-01 0.13383812E+03</pdfrwt>
<pdfrwt beam="1">  1       -2 0.29019767E-01 0.13383812E+03</pdfrwt>
<totfact> 0.39409580E+03</totfact>
</mgrwt>
</event>
<event>
 6    1  0.7270761E-006  0.3238336E+03  0.7546771E-02  0.1107423E+00
          2   -1    0    0  501    0  0.00000000000E+00  0.00000000000E+00  0.79090453129E+03  0.79090453129E+03  0.00000000000E+00 0. -1.
         -2   -1    0    0    0  501 -0.00000000000E+00 -0.00000000000E+00 -0.70233740182E+02  0.70233740182E+02  0.00000000000E+00 0.  1.
          5    1    1    2  502    0 -0.10444309819E+03  0.74775001999E+02  0.43985060578E+03  0.45824699354E+03  0.47000000000E+01 0. -1.
         -5    1    1    2    0  502  0.50619257811E+02  0.78747550737E+01 -0.33476104905E+02  0.61376384941E+02  0.47000000000E+01 0.  1.
        -11    1    1    2    0    0 -0.25173876168E+02 -0.20355524411E+02  0.91474436479E+02  0.97034241093E+02  0.00000000000E+00 0. -1.
         11    1    1    2    0    0  0.78997716544E+02 -0.62294232662E+02  0.22282185376E+03  0.24448065190E+03  0.00000000000E+00 0.  1.
<mgrwt>
<rscale>  0 0.25953566E+03</rscale>
<asrwt>0</asrwt>
<pdfrwt beam="1">  1        2 0.12167761E+00 0.32383363E+03</pdfrwt>
<pdfrwt beam="2">  1       -2 0.10805191E-01 0.32383363E+03</pdfrwt>
<totfact> 0.21106417E+03</totfact>
</mgrwt>
</event>
<event>
 6    1  0.7270761E-006  0.1666031E+03  0.7546771E-02  0.1188338E+00
         -2   -1    0    0    0  501 -0.00000000000E+00  0.00000000000E+00  0.99220086020E+02  0.99220086020E+02  0.00000000000E+00 0.  1.
          2   -1    0    0  501    0  0.00000000000E+00 -0.00000000000E+00 -0.24627986610E+03  0.24627986610E+03  0.00000000000E+00 0. -1.
          5    1    1    2  502    0  0.17258307399E+02  0.46913597627E+02  0.16265318505E+01  0.50234155935E+02  0.47000000000E+01 0. -1.
         -5    1    1    2    0  502 -0.96511405125E+02  0.29899825786E+02 -0.10521284802E+03  0.14594616915E+03  0.47000000000E+01 0. -1.
        -11    1    1    2    0    0  0.56195445959E+02  0.43086638494E+01 -0.48741778348E+01  0.56570755168E+02  0.00000000000E+00 0.  1.
         11    1    1    2    0    0  0.23057651767E+02 -0.81122087263E+02 -0.38599286074E+02  0.92748871865E+02  0.00000000000E+00 0. -1.
<mgrwt>
<rscale>  0 0.16031832E+03</rscale>
<asrwt>0</asrwt>
<pdfrwt beam="2">  1        2 0.37889210E-01 0.16660311E+03</pdfrwt>
<pdfrwt beam="1">  1       -2 0.15264629E-01 0.16660311E+03</pdfrwt>
<totfact> 0.43763921E+03</totfact>
</mgrwt>
</event>
<event>
 6    1  0.7270761E-006  0.1552017E+03  0.7546771E-02  0.1203020E+00
          1   -1    0    0  501    0  0.00000000000E+00  0.00000000000E+00  0.80869700587E+02  0.80869700587E+02  0.00000000000E+00 0. -1.
         -1   -1    0    0    0  501 -0.00000000000E+00 -0.00000000000E+00 -0.29341755565E+03  0.29341755565E+03  0.00000000000E+00 0.  1.
          5    1    1    2  502    0 -0.11829041634E+02  0.75012358299E+01  0.17037821318E+02  0.22551543632E+02  0.47000000000E+01 0.  1.
         -5    1    1    2    0  502 -0.61557290262E+01  0.82715207254E+02 -0.20507189657E+03  0.22126064104E+03  0.47000000000E+01 0.  1.
        -11    1    1    2    0    0  0.17122466782E+02 -0.24575752832E+01  0.24470655872E+02  0.29967174437E+02  0.00000000000E+00 0. -1.
         11    1    1    2    0    0  0.86230387842E+00 -0.87758867801E+02 -0.48984435682E+02  0.10050789713E+03  0.00000000000E+00 0.  1.
<mgrwt>
<rscale>  0 0.14794603E+03</rscale>
<asrwt>0</asrwt>
<pdfrwt beam="1">  1        1 0.12441492E-01 0.15520170E+03</pdfrwt>
<pdfrwt beam="2">  1       -1 0.45141162E-01 0.15520170E+03</pdfrwt>
<totfact> 0.23140698E+03</totfact>
</mgrwt>
</event>
<event>
 6    1  0.7270761E-006  0.1271691E+03  0.7546771E-02  0.1246685E+00
         -3   -1    0    0    0  501 -0.00000000000E+00  0.00000000000E+00  0.23441206429E+03  0.23441206429E+03  0.00000000000E+00 0.  1.
          3   -1    0    0  501    0  0.00000000000E+00 -0.00000000000E+00 -0.77733691325E+02  0.77733691325E+02  0.00000000000E+00 0. -1.
          5    1    1    2  502    0  0.92781571873E+01  0.34218869255E+02  0.46527950293E+01  0.36065963394E+02  0.47000000000E+01 0.  1.
         -5    1    1    2    0  502 -0.11958523307E+02 -0.57429988832E+02  0.17059682134E+03  0.18046211611E+03  0.47000000000E+01 0.  1.
        -11    1    1    2    0    0 -0.27056103871E+02  0.43950937983E+02  0.57953073553E+01  0.51935568675E+02  0.00000000000E+00 0.  1.
         11    1    1    2    0    0  0.29736469991E+02 -0.20739818407E+02 -0.24366550757E+02  0.43682107445E+02  0.00000000000E+00 0. -1.
<mgrwt>
<rscale>  0 0.11785100E+03</rscale>
<asrwt>0</asrwt>
<pdfrwt beam="2">  1        3 0.11959030E-01 0.12716910E+03</pdfrwt>
<pdfrwt beam="1">  1       -3 0.36063394E-01 0.12716910E+03</pdfrwt>
<totfact> 0.94606231E+02</totfact>
</mgrwt>
</event>
<event>
 6    1  0.7270761E-006  0.1258000E+03  0.7546771E-02  0.1249662E+00
          1   -1    0    0  501    0  0.00000000000E+00  0.00000000000E+00  0.17888018739E+03  0.17888018739E+03  0.00000000000E+00 0. -1.
         -1   -1    0    0    0  501 -0.00000000000E+00 -0.00000000000E+00 -0.66900844384E+02  0.66900844384E+02  0.00000000000E+00 0.  1.
          5    1    1    2  502    0  0.19093160439E+02  0.22813152982E+02  0.82710124858E+02  0.88022971312E+02  0.47000000000E+01 0. -1.
         -5    1    1    2    0  502 -0.85709897933E+01 -0.32216601066E+02 -0.33093199445E+02  0.47208273638E+02  0.47000000000E+01 0. -1.
        -11    1    1    2    0    0 -0.36155955796E+02 -0.45282780244E+01  0.71270343168E+02  0.80045113883E+02  0.00000000000E+00 0. -1.
         11    1    1    2    0    0  0.25633785150E+02  0.13931726109E+02 -0.89079255709E+01  0.30504672944E+02  0.00000000000E+00 0.  1.
<mgrwt>
<rscale>  0 0.11610621E+03</rscale>
<asrwt>0</asrwt>
<pdfrwt beam="1">  1        1 0.27520029E-01 0.12580004E+03</pdfrwt>
<pdfrwt beam="2">  1       -1 0.10292438E-01 0.12580004E+03</pdfrwt>
<totfact> 0.92425390E+03</totfact>
</mgrwt>
</event>
<event>
 6    1  0.7270761E-006  0.2935080E+03  0.7546771E-02  0.1088532E+00
          1   -1    0    0  501    0  0.00000000000E+00  0.00000000000E+00  0.98703278917E+02  0.98703278917E+02  0.00000000000E+00 0. -1.
         -1   -1    0    0    0  501 -0.00000000000E+00 -0.00000000000E+00 -0.21819675342E+03  0.21819675342E+03  0.00000000000E+00 0.  1.
          5    1    1    2  502    0 -0.19308623696E+02 -0.76996213526E+01 -0.12915988451E+03  0.13090635159E+03  0.47000000000E+01 0. -1.
         -5    1    1    2    0  502  0.66785738623E+02  0.20696373039E+02 -0.27018567899E+02  0.75105044782E+02  0.47000000000E+01 0. -1.
        -11    1    1    2    0    0 -0.31714682661E+01 -0.33228303693E+02  0.50252263452E+02  0.60328006426E+02  0.00000000000E+00 0. -1.
         11    1    1    2    0    0 -0.44305646661E+02  0.20231552006E+02 -0.13567285538E+02  0.50560629540E+02  0.00000000000E+00 0.  1.
<mgrwt>
<rscale>  0 0.29350799E+03</rscale>
<asrwt>0</asrwt>
<pdfrwt beam="1">  1        1 0.15185120E-01 0.29350799E+03</pdfrwt>
<pdfrwt beam="2">  1       -1 0.33568731E-01 0.29350799E+03</pdfrwt>
<totfact> 0.30780238E+03</totfact>
</mgrwt>
</event>
<event>
 6    1  0.7270761E-006  0.1304939E+03  0.7546771E-02  0.1241046E+00
          1   -1    0    0  501    0  0.00000000000E+00  0.00000000000E+00  0.45844316020E+02  0.45844316020E+02  0.00000000000E+00 0. -1.
         -1   -1    0    0    0  501 -0.00000000000E+00 -0.00000000000E+00 -0.61634822951E+03  0.61634822951E+03  0.00000000000E+00 0.  1.
          5    1    1    2  502    0  0.12286476115E+02 -0.47206043796E+02 -0.23055522365E+03  0.23570568347E+03  0.47000000000E+01 0.  1.
         -5    1    1    2    0  502 -0.43160537351E+02  0.68363496672E+02 -0.31613473777E+03  0.32634285972E+03  0.47000000000E+01 0.  1.
        -11    1    1    2    0    0  0.27827256392E+02 -0.55492659518E+02 -0.94211572221E+01  0.62789725769E+02  0.00000000000E+00 0.  1.
         11    1    1    2    0    0  0.30468048446E+01  0.34335206643E+02 -0.14392794842E+02  0.37354276573E+02  0.00000000000E+00 0. -1.
<mgrwt>
<rscale>  0 0.12125198E+03</rscale>
<asrwt>0</asrwt>
<pdfrwt beam="1">  1        1 0.70529722E-02 0.13049387E+03</pdfrwt>
<pdfrwt beam="2">  1       -1 0.94822797E-01 0.13049387E+03</pdfrwt>
<totfact> 0.11492235E+03</totfact>
</mgrwt>
</event>
<event>
 6    1  0.7270761E-006  0.1474826E+03  0.7546771E-02  0.1213066E+00
         -3   -1    0    0    0  501 -0.00000000000E+00  0.00000000000E+00  0.40958340846E+03  0.40958340846E+03  0.00000000000E+00 0.  1.
          3   -1    0    0  501    0  0.00000000000E+00 -0.00000000000E+00 -0.45611113809E+02  0.45611113809E+02  0.00000000000E+00 0. -1.
          5    1    1    2  502    0  0.49291624292E+02  0.60864825719E+02  0.12320470212E+03  0.14606738123E+03  0.47000000000E+01 0. -1.
         -5    1    1    2    0  502 -0.66929317864E+02  0.15395454817E+02  0.12144749968E+03  0.13959992406E+03  0.47000000000E+01 0. -1.
        -11    1    1    2    0    0  0.20495015559E+02 -0.34839890030E+02  0.12140390240E+03  0.12795612967E+03  0.00000000000E+00 0.  1.
         11    1    1    2    0    0 -0.28573219864E+01 -0.41420390506E+02 -0.20838095468E+01  0.41571087318E+02  0.00000000000E+00 0. -1.
<mgrwt>
<rscale>  0 0.14019571E+03</rscale>
<asrwt>0</asrwt>
<pdfrwt beam="2">  1        3 0.70170947E-02 0.14748257E+03</pdfrwt>
<pdfrwt beam="1">  1       -3 0.63012830E-01 0.14748257E+03</pdfrwt>
<totfact> 0.76857370E+02</totfact>
</mgrwt>
</event>
<event>
 6    1  0.7270761E-006  0.1292557E+03  0.7546771E-02  0.1247431E+00
          1   -1    0    0  501    0  0.00000000000E+00  0.00000000000E+00  0.67858901352E+02  0.67858901352E+02  0.00000000000E+00 0. -1.
         -1   -1    0    0    0  501 -0.00000000000E+00 -0.00000000000E+00 -0.19256047956E+03  0.19256047956E+03  0.00000000000E+00 0.  1.
          5    1    1    2  502    0  0.18183459330E+02  0.43587231764E+02 -0.20721812855E+01  0.47506514304E+02  0.47000000000E+01 0. -1.
         -5    1    1    2    0  502  0.12983917682E+02 -0.54124160177E+02 -0.11084951085E+03  0.12412780063E+03  0.47000000000E+01 0. -1.
        -11    1    1    2    0    0 -0.53555258320E+02 -0.12951193372E+02 -0.11743098770E+02  0.56336484379E+02  0.00000000000E+00 0. -1.
         11    1    1    2    0    0  0.22387881308E+02  0.23488121784E+02 -0.36787300203E-01  0.32448581598E+02  0.00000000000E+00 0.  1.
<mgrwt>
<rscale>  0 0.11741080E+03</rscale>
<asrwt>0</asrwt>
<pdfrwt beam="1">  1        1 0.10439831E-01 0.12925567E+03</pdfrwt>
<pdfrwt beam="2">  1       -1 0.29624689E-01 0.12925567E+03</pdfrwt>
<totfact> 0.59835847E+03</totfact>
</mgrwt>
</event>
<event>
 6    1  0.7270761E-006  0.2406845E+03  0.7546771E-02  0.1122315E+00
         -2   -1    0    0    0  501 -0.00000000000E+00  0.00000000000E+00  0.18595430659E+03  0.18595430659E+03  0.00000000000E+00 0. -1.
          2   -1    0    0  501    0  0.00000000000E+00 -0.00000000000E+00 -0.29207466837E+03  0.29207466837E+03  0.00000000000E+00 0.  1.
          5    1    1    2  502    0  0.25120135773E+02 -0.47336929965E+02  0.12104072840E+02  0.55139865244E+02  0.47000000000E+01 0.  1.
         -5    1    1    2    0  502 -0.12536437136E+03 -0.13226116652E+03 -0.45149749243E+02  0.18780264011E+03  0.47000000000E+01 0.  1.
        -11    1    1    2    0    0  0.11278856792E+03  0.13186149244E+03 -0.49845334201E+02  0.18053606726E+03  0.00000000000E+00 0.  1.
         11    1    1    2    0    0 -0.12544332327E+02  0.47736604048E+02 -0.23229351175E+02  0.54550402341E+02  0.00000000000E+00 0. -1.
<mgrwt>
<rscale>  0 0.23625266E+03</rscale>
<asrwt>0</asrwt>
<pdfrwt beam="2">  1        2 0.44934564E-01 0.24068453E+03</pdfrwt>
<pdfrwt beam="1">  1       -2 0.28608355E-01 0.24068453E+03</pdfrwt>
<totfact> 0.12529871E+03</totfact>
</mgrwt>
</event>
<event>
 6    1  0.7270761E-006  0.1302529E+03  0.7546771E-02  0.1233040E+00
          2   -1    0    0  501    0  0.00000000000E+00  0.00000000000E+00  0.75852089522E+02  0.75852089522E+02  0.00000000000E+00 0. -1.
         -2   -1    0    0    0  501 -0.00000000000E+00 -0.00000000000E+00 -0.31386664266E+03  0.31386664266E+03  0.00000000000E+00 0.  1.
          5    1    1    2  502    0  0.18633872050E+02 -0.30058265182E+02 -0.18137872760E+03  0.18485414066E+03  0.47000000000E+01 0.  1.
         -5    1    1    2    0  502 -0.95307035951E+01  0.65520146751E+02 -0.60236386801E+02  0.89633901154E+02  0.47000000000E+01 0.  1.
        -11    1    1    2    0    0 -0.12118274011E+02 -0.70475231342E+02  0.22963976741E+02  0.75106291518E+02  0.00000000000E+00 0. -1.
         11    1    1    2    0    0  0.30151055563E+01  0.35013349774E+02 -0.19363415471E+02  0.40124398844E+02  0.00000000000E+00 0.  1.
<mgrwt>
<rscale>  0 0.12630763E+03</rscale>
<asrwt>0</asrwt>
<pdfrwt beam="1">  1        2 0.11669552E-01 0.13025291E+03</pdfrwt>
<pdfrwt beam="2">  1       -2 0.48287176E-01 0.13025291E+03</pdfrwt>
<totfact> 0.21007880E+03</totfact>
</mgrwt>
</event>
<event>
 6    1  0.7270761E-006  0.1658985E+03  0.7546771E-02  0.1192217E+00
         -2   -1    0    0    0  501 -0.00000000000E+00  0.00000000000E+00  0.26152305765E+02  0.26152305765E+02  0.00000000000E+00 0.  1.
          2   -1    0    0  501    0  0.00000000000E+00 -0.00000000000E+00 -0.93285297325E+03  0.93285297325E+03  0.00000000000E+00 0. -1.
          5    1    1    2  502    0  0.12998362934E+03 -0.67220757982E+01 -0.26239014756E+03  0.29293618714E+03  0.47000000000E+01 0.  1.
         -5    1    1    2    0  502 -0.22528142066E+02  0.25435530409E+02 -0.97297307020E+02  0.10316656118E+03  0.47000000000E+01 0.  1.
        -11    1    1    2    0    0 -0.11624188756E+03 -0.10289755280E+02 -0.52433643476E+03  0.53716547944E+03  0.00000000000E+00 0.  1.
         11    1    1    2    0    0  0.87864002778E+01 -0.84236993306E+01 -0.22676778150E+02  0.25737051259E+02  0.00000000000E+00 0. -1.
<mgrwt>
<rscale>  0 0.15692109E+03</rscale>
<asrwt>0</asrwt>
<pdfrwt beam="2">  1        2 0.14351581E+00 0.16589853E+03</pdfrwt>
<pdfrwt beam="1">  1       -2 0.40234325E-02 0.16589853E+03</pdfrwt>
<totfact> 0.77001919E+03</totfact>
</mgrwt>
</event>
<event>
 6    1  0.7270761E-006  0.1304269E+03  0.7546771E-02  0.1239702E+00
         -2   -1    0    0    0  501 -0.00000000000E+00  0.00000000000E+00  0.32412846207E+03  0.32412846207E+03  0.00000000000E+00 0.  1.
          2   -1    0    0  501    0  0.00000000000E+00 -0.00000000000E+00 -0.57319855179E+02  0.57319855179E+02  0.00000000000E+00 0. -1.
          5    1    1    2  502    0 -0.55729750924E+02  0.55656317812E+02  0.10836028429E+03  0.13404279936E+03  0.47000000000E+01 0. -1.
         -5    1    1    2    0  502  0.24384775953E+02 -0.35579951315E+02  0.13874391069E+03  0.14537026171E+03  0.47000000000E+01 0. -1.
        -11    1    1    2    0    0  0.15340370091E+02 -0.47013347363E+02 -0.18344484772E+02  0.52745634002E+02  0.00000000000E+00 0.  1.
         11    1    1    2    0    0  0.16004604880E+02  0.26936980866E+02  0.38048896680E+02  0.49289622175E+02  0.00000000000E+00 0. -1.
<mgrwt>
<rscale>  0 0.12208146E+03</rscale>
<asrwt>0</asrwt>
<pdfrwt beam="2">  1        2 0.88184394E-02 0.13042690E+03</pdfrwt>
<pdfrwt beam="1">  1       -2 0.49865916E-01 0.13042690E+03</pdfrwt>
<totfact> 0.27780722E+03</totfact>
</mgrwt>
</event>
<event>
 6    1  0.7270761E-006  0.3053057E+03  0.7546771E-02  0.1082618E+00
         -1   -1    0    0    0  501 -0.00000000000E+00  0.00000000000E+00  0.25789896872E+02  0.25789896872E+02  0.00000000000E+00 0.  1.
          1   -1    0    0  501    0  0.00000000000E+00 -0.00000000000E+00 -0.90356654747E+03  0.90356654747E+03  0.00000000000E+00 0. -1.
          5    1    1    2  502    0  0.45794939024E+02  0.84263193306E+02 -0.12408470671E+03  0.15689667500E+03  0.47000000000E+01 0.  1.
         -5    1    1    2    0  502 -0.56546490862E+01  0.99668738851E+01 -0.25363674314E+03  0.25393897122E+03  0.47000000000E+01 0.  1.
        -11    1    1    2    0    0  0.15416714836E+02 -0.54087059311E+02 -0.12249075902E+03  0.13478527786E+03  0.00000000000E+00 0. -1.
         11    1    1    2    0    0 -0.55557004774E+02 -0.40143007880E+02 -0.37756444173E+03  0.38373552027E+03  0.00000000000E+00 0.  1.
<mgrwt>
<rscale>  0 0.30530567E+03</rscale>
<asrwt>0</asrwt>
<pdfrwt beam="2">  1        1 0.13901024E+00 0.30530567E+03</pdfrwt>
<pdfrwt beam="1">  1       -1 0.39676763E-02 0.30530567E+03</pdfrwt>
<totfact> 0.47301819E+03</totfact>
</mgrwt>
</event>
<event>
 6    1  0.7270761E-006  0.2021919E+03  0.7546771E-02  0.1151866E+00
         -2   -1    0    0    0  501 -0.00000000000E+00  0.00000000000E+00  0.53830902183E+02  0.53830902183E+02  0.00000000000E+00 0.  1.
          2   -1    0    0  501    0  0.00000000000E+00 -0.00000000000E+00 -0.80316695244E+03  0.80316695244E+03  0.00000000000E+00 0. -1.
          5    1    1    2  502    0 -0.70549403946E+02 -0.80695805082E+02 -0.21835231934E+03  0.24328760083E+03  0.47000000000E+01 0.  1.
         -5    1    1    2    0  502 -0.61976045577E+02 -0.70183457946E+01 -0.12852010435E+02  0.63855709027E+02  0.47000000000E+01 0.  1.
        -11    1    1    2    0    0  0.74235506059E+02  0.21698428616E+02 -0.12510242720E+03  0.14707939848E+03  0.00000000000E+00 0.  1.
         11    1    1    2    0    0  0.58289943464E+02  0.66015722260E+02 -0.39302929328E+03  0.40277514630E+03  0.00000000000E+00 0. -1.
<mgrwt>
<rscale>  0 0.19749906E+03</rscale>
<asrwt>0</asrwt>
<pdfrwt beam="2">  1        2 0.12356414E+00 0.20219192E+03</pdfrwt>
<pdfrwt beam="1">  1       -2 0.82816777E-02 0.20219192E+03</pdfrwt>
<totfact> 0.31322086E+03</totfact>
</mgrwt>
</event>
<event>
 6    1  0.7270761E-006  0.1351453E+03  0.7546771E-02  0.1232355E+00
         -2   -1    0    0    0  501 -0.00000000000E+00  0.00000000000E+00  0.26563616919E+03  0.26563616919E+03  0.00000000000E+00 0.  1.
          2   -1    0    0  501    0  0.00000000000E+00 -0.00000000000E+00 -0.54423690580E+02  0.54423690580E+02  0.00000000000E+00 0. -1.
          5    1    1    2  502    0 -0.23659738918E+02 -0.33998002633E+02  0.29909276955E+02  0.51305967262E+02  0.47000000000E+01 0. -1.
         -5    1    1    2    0  502  0.42372502980E+02  0.81861106632E+02  0.10162601204E+03  0.13728294181E+03  0.47000000000E+01 0. -1.
        -11    1    1    2    0    0 -0.45427229935E+02 -0.49303806285E+02  0.26777448334E+02  0.72190929299E+02  0.00000000000E+00 0. -1.
         11    1    1    2    0    0  0.26714465872E+02  0.14407022859E+01  0.52899741287E+02  0.59280021408E+02  0.00000000000E+00 0.  1.
<mgrwt>
<rscale>  0 0.12675314E+03</rscale>
<asrwt>0</asrwt>
<pdfrwt beam="2">  1        2 0.83728756E-02 0.13514527E+03</pdfrwt>
<pdfrwt beam="1">  1       -2 0.40867102E-01 0.13514527E+03</pdfrwt>
<totfact> 0.43670743E+03</totfact>
</mgrwt>
</event>
<event>
 6    1  0.7270761E-006  0.2768485E+03  0.7546771E-02  0.1099408E+00
         -2   -1    0    0    0  501 -0.00000000000E+00  0.00000000000E+00  0.25790141930E+03  0.25790141930E+03  0.00000000000E+00 0.  1.
          2   -1    0    0  501    0  0.00000000000E+00 -0.00000000000E+00 -0.28819144057E+03  0.28819144057E+03  0.00000000000E+00 0. -1.
          5    1    1    2  502    0  0.85649010874E+02  0.10693190698E+03 -0.10273539398E+02  0.13746934715E+03  0.47000000000E+01 0. -1.
         -5    1    1    2    0  502  0.13622183115E+03  0.16664248102E+01  0.33387443700E+02  0.14034235159E+03  0.47000000000E+01 0. -1.
        -11    1    1    2    0    0 -0.16294336752E+03 -0.11593869898E+03 -0.22228845623E+02  0.20121243629E+03  0.00000000000E+00 0.  1.
         11    1    1    2    0    0 -0.58927474507E+02  0.73403671939E+01 -0.31175079947E+02  0.67068724842E+02  0.00000000000E+00 0. -1.
<mgrwt>
<rscale>  0 0.27329664E+03</rscale>
<asrwt>0</asrwt>
<pdfrwt beam="2">  1        2 0.44337145E-01 0.27684849E+03</pdfrwt>
<pdfrwt beam="1">  1       -2 0.39677141E-01 0.27684849E+03</pdfrwt>
<totfact> 0.69329734E+02</totfact>
</mgrwt>
</event>
<event>
 6    1  0.7270761E-006  0.2615289E+03  0.7546771E-02  0.1108404E+00
         -2   -1    0    0    0  501 -0.00000000000E+00  0.00000000000E+00  0.18494236724E+03  0.18494236724E+03  0.00000000000E+00 0.  1.
          2   -1    0    0  501    0  0.00000000000E+00 -0.00000000000E+00 -0.35161597286E+03  0.35161597286E+03  0.00000000000E+00 0. -1.
          5    1    1    2  502    0  0.17876177513E+02 -0.11776559620E+02 -0.43733047208E+01  0.22348621280E+02  0.47000000000E+01 0.  1.
         -5    1    1    2    0  502 -0.21333358136E+03 -0.10890970783E+03 -0.63449592122E+02  0.24783156001E+03  0.47000000000E+01 0.  1.
        -11    1    1    2    0    0  0.11175319427E+03  0.11889287510E+03 -0.72998802503E+02  0.17875434916E+03  0.00000000000E+00 0.  1.
         11    1    1    2    0    0  0.83704209586E+02  0.17933923483E+01 -0.25851906273E+02  0.87623809643E+02  0.00000000000E+00 0. -1.
<mgrwt>
<rscale>  0 0.25791179E+03</rscale>
<asrwt>0</asrwt>
<pdfrwt beam="2">  1        2 0.54094764E-01 0.26152894E+03</pdfrwt>
<pdfrwt beam="1">  1       -2 0.28452672E-01 0.26152894E+03</pdfrwt>
<totfact> 0.10365868E+03</totfact>
</mgrwt>
</event>
<event>
 6    1  0.7270761E-006  0.1553114E+03  0.7546771E-02  0.1202963E+00
         -1   -1    0    0    0  501 -0.00000000000E+00  0.00000000000E+00  0.84676716512E+02  0.84676716512E+02  0.00000000000E+00 0.  1.
          1   -1    0    0  501    0  0.00000000000E+00 -0.00000000000E+00 -0.23889731342E+03  0.23889731342E+03  0.00000000000E+00 0. -1.
          5    1    1    2  502    0 -0.44680109612E+02  0.13510384416E+02 -0.19243408443E+02  0.50707410213E+02  0.47000000000E+01 0.  1.
         -5    1    1    2    0  502  0.81841802914E+02  0.70843707647E+02 -0.51025520704E+02  0.11976061698E+03  0.47000000000E+01 0.  1.
        -11    1    1    2    0    0  0.23485074302E+02 -0.16526991589E+01 -0.26908852937E+02  0.35754251437E+02  0.00000000000E+00 0.  1.
         11    1    1    2    0    0 -0.60646767604E+02 -0.82701392905E+02 -0.57042814824E+02  0.11735175130E+03  0.00000000000E+00 0. -1.
<mgrwt>
<rscale>  0 0.14799146E+03</rscale>
<asrwt>0</asrwt>
<pdfrwt beam="2">  1        1 0.36753433E-01 0.15531138E+03</pdfrwt>
<pdfrwt beam="1">  1       -1 0.13027187E-01 0.15531138E+03</pdfrwt>
<totfact> 0.45500220E+03</totfact>
</mgrwt>
</event>
<event>
 6    1  0.7270761E-006  0.1476513E+03  0.7546771E-02  0.1212313E+00
         -2   -1    0    0    0  501 -0.00000000000E+00  0.00000000000E+00  0.12956433939E+03  0.12956433939E+03  0.00000000000E+00 0.  1.
          2   -1    0    0  501    0  0.00000000000E+00 -0.00000000000E+00 -0.14877139029E+03  0.14877139029E+03  0.00000000000E+00 0. -1.
          5    1    1    2  502    0 -0.76587938919E+01  0.98760254453E+02  0.61151382241E-01  0.99168234445E+02  0.47000000000E+01 0. -1.
         -5    1    1    2    0  502 -0.32070632701E+02 -0.30960838375E+02  0.22643022583E+02  0.50218477340E+02  0.47000000000E+01 0. -1.
        -11    1    1    2    0    0  0.18068306434E+02 -0.76104123667E+01  0.28004619054E+02  0.34185388138E+02  0.00000000000E+00 0.  1.
         11    1    1    2    0    0  0.21661120159E+02 -0.60189003711E+02 -0.69915843918E+02  0.94763629758E+02  0.00000000000E+00 0. -1.
<mgrwt>
<rscale>  0 0.14075752E+03</rscale>
<asrwt>0</asrwt>
<pdfrwt beam="2">  1        2 0.22887906E-01 0.14765131E+03</pdfrwt>
<pdfrwt beam="1">  1       -2 0.19932975E-01 0.14765131E+03</pdfrwt>
<totfact> 0.48276525E+03</totfact>
</mgrwt>
</event>
<event>
 6    1  0.7270761E-006  0.1429978E+03  0.7546771E-02  0.1220389E+00
          3   -1    0    0  501    0  0.00000000000E+00  0.00000000000E+00  0.33658487256E+02  0.33658487256E+02  0.00000000000E+00 0. -1.
         -3   -1    0    0    0  501 -0.00000000000E+00 -0.00000000000E+00 -0.50849540195E+03  0.50849540195E+03  0.00000000000E+00 0.  1.
          5    1    1    2  502    0  0.78246095620E+00  0.18487081839E+02  0.62921105983E+01  0.20101370496E+02  0.47000000000E+01 0.  1.
         -5    1    1    2    0  502  0.24873573798E+02  0.46049512833E+02 -0.32494479715E+03  0.32916631587E+03  0.47000000000E+01 0.  1.
        -11    1    1    2    0    0 -0.57124153128E+02 -0.56024270677E+02 -0.11947046093E+03  0.14378831250E+03  0.00000000000E+00 0.  1.
         11    1    1    2    0    0  0.31468118374E+02 -0.85123239938E+01 -0.36713767208E+02  0.49097890345E+02  0.00000000000E+00 0. -1.
<mgrwt>
<rscale>  0 0.13487996E+03</rscale>
<asrwt>0</asrwt>
<pdfrwt beam="1">  1        3 0.51782289E-02 0.14299784E+03</pdfrwt>
<pdfrwt beam="2">  1       -3 0.78230060E-01 0.14299784E+03</pdfrwt>
<totfact> 0.78633871E+02</totfact>
</mgrwt>
</event>
<event>
 6    1  0.7270761E-006  0.1389567E+03  0.7546771E-02  0.1226568E+00
          1   -1    0    0  501    0  0.00000000000E+00  0.00000000000E+00  0.36114302409E+02  0.36114302409E+02  0.00000000000E+00 0. -1.
         -1   -1    0    0    0  501 -0.00000000000E+00 -0.00000000000E+00 -0.52959179433E+03  0.52959179433E+03  0.00000000000E+00 0.  1.
          5    1    1    2  502    0 -0.43503931051E+02 -0.61336126234E+02 -0.33473749835E+03  0.34311221955E+03  0.47000000000E+01 0.  1.
         -5    1    1    2    0  502 -0.14513467677E+02  0.43518992524E+02 -0.62096962223E+02  0.77347696615E+02  0.47000000000E+01 0.  1.
        -11    1    1    2    0    0  0.24834445938E+02 -0.34994232186E+02 -0.22816127526E+02  0.48599605622E+02  0.00000000000E+00 0. -1.
         11    1    1    2    0    0  0.33182952790E+02  0.52811365896E+02 -0.73826903823E+02  0.96646574961E+02  0.00000000000E+00 0.  1.
<mgrwt>
<rscale>  0 0.13060044E+03</rscale>
<asrwt>0</asrwt>
<pdfrwt beam="1">  1        1 0.55560471E-02 0.13895666E+03</pdfrwt>
<pdfrwt beam="2">  1       -1 0.81475653E-01 0.13895666E+03</pdfrwt>
<totfact> 0.21909590E+03</totfact>
</mgrwt>
</event>
<event>
 6    1  0.7270761E-006  0.1399558E+03  0.7546771E-02  0.1231080E+00
         -1   -1    0    0    0  501 -0.00000000000E+00  0.00000000000E+00  0.31852418060E+02  0.31852418060E+02  0.00000000000E+00 0.  1.
          1   -1    0    0  501    0  0.00000000000E+00 -0.00000000000E+00 -0.66406619163E+03  0.66406619163E+03  0.00000000000E+00 0. -1.
          5    1    1    2  502    0 -0.27047580887E+02 -0.32933060887E+02 -0.10529755568E+03  0.11369179110E+03  0.47000000000E+01 0. -1.
         -5    1    1    2    0  502  0.40967424361E+02  0.69646399837E+02 -0.48961666418E+02  0.94595378573E+02  0.47000000000E+01 0.  1.
        -11    1    1    2    0    0  0.34477905055E+02 -0.32769988259E+02 -0.26224529142E+03  0.26652427833E+03  0.00000000000E+00 0. -1.
         11    1    1    2    0    0 -0.48397748529E+02 -0.39433506907E+01 -0.21570926005E+03  0.22110716169E+03  0.00000000000E+00 0.  1.
<mgrwt>
<rscale>  0 0.12758779E+03</rscale>
<asrwt>0</asrwt>
<pdfrwt beam="2">  1        1 0.10216402E+00 0.13995584E+03</pdfrwt>
<pdfrwt beam="1">  1       -1 0.49003724E-02 0.13995584E+03</pdfrwt>
<totfact> 0.53505782E+03</totfact>
</mgrwt>
</event>
<event>
 6    1  0.7270761E-006  0.1309013E+03  0.7546771E-02  0.1239165E+00
          1   -1    0    0  501    0  0.00000000000E+00  0.00000000000E+00  0.46871347712E+02  0.46871347712E+02  0.00000000000E+00 0. -1.
         -1   -1    0    0    0  501 -0.00000000000E+00 -0.00000000000E+00 -0.28824741226E+03  0.28824741226E+03  0.00000000000E+00 0.  1.
          5    1    1    2  502    0 -0.71859796344E+02  0.40358726031E+02 -0.76559887414E+02  0.11258846947E+03  0.47000000000E+01 0. -1.
         -5    1    1    2    0  502  0.41370046407E+02 -0.16258628607E+02 -0.78531633572E+02  0.90361115617E+02  0.47000000000E+01 0. -1.
        -11    1    1    2    0    0  0.19357569028E+02 -0.14144721018E+02 -0.10529738705E+03  0.10799226051E+03  0.00000000000E+00 0.  1.
         11    1    1    2    0    0  0.11132180909E+02 -0.99553764063E+01  0.19012843485E+02  0.24176914372E+02  0.00000000000E+00 0. -1.
<mgrwt>
<rscale>  0 0.12241548E+03</rscale>
<asrwt>0</asrwt>
<pdfrwt beam="1">  1        1 0.72109765E-02 0.13090131E+03</pdfrwt>
<pdfrwt beam="2">  1       -1 0.44345756E-01 0.13090131E+03</pdfrwt>
<totfact> 0.48915458E+03</totfact>
</mgrwt>
</event>
<event>
 6    1  0.7270761E-006  0.1873915E+03  0.7546771E-02  0.1166283E+00
         -2   -1    0    0    0  501 -0.00000000000E+00  0.00000000000E+00  0.15651876552E+03  0.15651876552E+03  0.00000000000E+00 0.  1.
          2   -1    0    0  501    0  0.00000000000E+00 -0.00000000000E+00 -0.20591022039E+03  0.20591022039E+03  0.00000000000E+00 0. -1.
          5    1    1    2  502    0  0.41446325518E+02 -0.87577868838E+01 -0.25967820353E+02  0.49909061541E+02  0.47000000000E+01 0. -1.
         -5    1    1    2    0  502 -0.28451259525E+02 -0.13025542383E+03  0.33906127565E+02  0.13765051795E+03  0.47000000000E+01 0. -1.
        -11    1    1    2    0    0  0.10971375907E+02  0.91431616973E+02 -0.74972452473E+02  0.11874754861E+03  0.00000000000E+00 0. -1.
         11    1    1    2    0    0 -0.23966441900E+02  0.47581593740E+02  0.17642690389E+02  0.56121857813E+02  0.00000000000E+00 0.  1.
<mgrwt>
<rscale>  0 0.18158002E+03</rscale>
<asrwt>0</asrwt>
<pdfrwt beam="2">  1        2 0.31678495E-01 0.18739151E+03</pdfrwt>
<pdfrwt beam="1">  1       -2 0.24079810E-01 0.18739151E+03</pdfrwt>
<totfact> 0.24665561E+03</totfact>
</mgrwt>
</event>
<event>
 6    1  0.7270761E-006  0.1445922E+03  0.7546771E-02  0.1220757E+00
         -2   -1    0    0    0  501 -0.00000000000E+00  0.00000000000E+00  0.74406833363E+02  0.74406833363E+02  0.00000000000E+00 0.  1.
          2   -1    0    0  501    0  0.00000000000E+00 -0.00000000000E+00 -0.50341303927E+03  0.50341303927E+03  0.00000000000E+00 0. -1.
          5    1    1    2  502    0 -0.44068591535E+01  0.38365840669E+02 -0.63252852143E+02  0.74258813901E+02  0.47000000000E+01 0. -1.
         -5    1    1    2    0  502 -0.45763293429E+02 -0.63763180634E+01  0.53275214474E+02  0.70677258965E+02  0.47000000000E+01 0.  1.
        -11    1    1    2    0    0 -0.15844813772E+02  0.14556736377E+02 -0.40795716050E+02  0.46122089561E+02  0.00000000000E+00 0.  1.
         11    1    1    2    0    0  0.66014966354E+02 -0.46546258983E+02 -0.37823285218E+03  0.38676171020E+03  0.00000000000E+00 0. -1.
<mgrwt>
<rscale>  0 0.13462007E+03</rscale>
<asrwt>0</asrwt>
<pdfrwt beam="2">  1        2 0.77448159E-01 0.14459223E+03</pdfrwt>
<pdfrwt beam="1">  1       -2 0.11447205E-01 0.14459223E+03</pdfrwt>
<totfact> 0.32148799E+03</totfact>
</mgrwt>
</event>
<event>
 6    1  0.7270761E-006  0.1586886E+03  0.7546771E-02  0.1197690E+00
         -1   -1    0    0    0  501 -0.00000000000E+00  0.00000000000E+00  0.34365109471E+02  0.34365109471E+02  0.00000000000E+00 0.  1.
          1   -1    0    0  501    0  0.00000000000E+00 -0.00000000000E+00 -0.66744347629E+03  0.66744347629E+03  0.00000000000E+00 0. -1.
          5    1    1    2  502    0  0.19286930486E+02  0.82838487204E+02 -0.60688775179E+02  0.10459167310E+03  0.47000000000E+01 0. -1.
         -5    1    1    2    0  502 -0.20075553566E+02  0.14920797798E+02 -0.19279059566E+03  0.19446326603E+03  0.47000000000E+01 0. -1.
        -11    1    1    2    0    0 -0.41071939858E+02 -0.20562562704E+02 -0.15251312589E+03  0.15927955550E+03  0.00000000000E+00 0.  1.
         11    1    1    2    0    0  0.41860562939E+02 -0.77196722298E+02 -0.22708587008E+03  0.24347409113E+03  0.00000000000E+00 0. -1.
<mgrwt>
<rscale>  0 0.15228753E+03</rscale>
<asrwt>0</asrwt>
<pdfrwt beam="2">  1        1 0.10268361E+00 0.15868858E+03</pdfrwt>
<pdfrwt beam="1">  1       -1 0.52869400E-02 0.15868858E+03</pdfrwt>
<totfact> 0.47740324E+03</totfact>
</mgrwt>
</event>
<event>
 6    1  0.7270761E-006  0.1359221E+03  0.7546771E-02  0.1230850E+00
          1   -1    0    0  501    0  0.00000000000E+00  0.00000000000E+00  0.10089082361E+03  0.10089082361E+03  0.00000000000E+00 0. -1.
         -1   -1    0    0    0  501 -0.00000000000E+00 -0.00000000000E+00 -0.17036668691E+03  0.17036668691E+03  0.00000000000E+00 0.  1.
          5    1    1    2  502    0  0.88950040754E+02 -0.19438578559E+02 -0.80013960697E+02  0.12130248140E+03  0.47000000000E+01 0.  1.
         -5    1    1    2    0  502 -0.40261719509E+02 -0.24196594543E+01 -0.10313991580E+02  0.41896649413E+02  0.47000000000E+01 0.  1.
        -11    1    1    2    0    0 -0.59727033584E+02  0.25085171091E+02  0.46638776417E+02  0.79823303709E+02  0.00000000000E+00 0. -1.
         11    1    1    2    0    0  0.11038712338E+02 -0.32269330777E+01 -0.25786687441E+02  0.28235075993E+02  0.00000000000E+00 0.  1.
<mgrwt>
<rscale>  0 0.12773857E+03</rscale>
<asrwt>0</asrwt>
<pdfrwt beam="1">  1        1 0.15521665E-01 0.13592210E+03</pdfrwt>
<pdfrwt beam="2">  1       -1 0.26210259E-01 0.13592210E+03</pdfrwt>
<totfact> 0.43835239E+03</totfact>
</mgrwt>
</event>
<event>
 6    1  0.7270761E-006  0.1489845E+03  0.7546771E-02  0.1205466E+00
          2   -1    0    0  501    0  0.00000000000E+00  0.00000000000E+00  0.47128465872E+03  0.47128465872E+03  0.00000000000E+00 0. -1.
         -2   -1    0    0    0  501 -0.00000000000E+00 -0.00000000000E+00 -0.43518302931E+02  0.43518302931E+02  0.00000000000E+00 0.  1.
          5    1    1    2  502    0 -0.66469449497E+02  0.52323688175E+02  0.20912026962E+03  0.22563096690E+03  0.47000000000E+01 0. -1.
         -5    1    1    2    0  502 -0.29152686051E+02 -0.25424438143E+02  0.11582934666E+02  0.40651390313E+02  0.47000000000E+01 0.  1.
        -11    1    1    2    0    0  0.67075363256E+02 -0.30329643004E+02  0.50336001836E+02  0.89177938312E+02  0.00000000000E+00 0. -1.
         11    1    1    2    0    0  0.28546772292E+02  0.34303929720E+01  0.15672714967E+03  0.15934266613E+03  0.00000000000E+00 0.  1.
<mgrwt>
<rscale>  0 0.14600819E+03</rscale>
<asrwt>0</asrwt>
<pdfrwt beam="1">  1        2 0.72505329E-01 0.14898453E+03</pdfrwt>
<pdfrwt beam="2">  1       -2 0.66951238E-02 0.14898453E+03</pdfrwt>
<totfact> 0.79860006E+03</totfact>
</mgrwt>
</event>
<event>
 6    1  0.7270761E-006  0.1343660E+03  0.7546771E-02  0.1232078E+00
         -1   -1    0    0    0  501 -0.00000000000E+00  0.00000000000E+00  0.90112679420E+02  0.90112679420E+02  0.00000000000E+00 0.  1.
          1   -1    0    0  501    0  0.00000000000E+00 -0.00000000000E+00 -0.16576781264E+03  0.16576781264E+03  0.00000000000E+00 0. -1.
          5    1    1    2  502    0  0.35238355436E+02 -0.42139046432E+02 -0.25796597616E+02  0.60868673196E+02  0.47000000000E+01 0.  1.
         -5    1    1    2    0  502 -0.74095547351E+02  0.11824410574E+02  0.38461975156E+01  0.75278483367E+02  0.47000000000E+01 0.  1.
        -11    1    1    2    0    0 -0.21074642358E+02  0.99421603869E+01  0.13889430655E+02  0.27127539284E+02  0.00000000000E+00 0.  1.
         11    1    1    2    0    0  0.59931834273E+02  0.20372475471E+02 -0.67594163777E+02  0.92605796216E+02  0.00000000000E+00 0. -1.
<mgrwt>
<rscale>  0 0.12693362E+03</rscale>
<asrwt>0</asrwt>
<pdfrwt beam="2">  1        1 0.25502740E-01 0.13436602E+03</pdfrwt>
<pdfrwt beam="1">  1       -1 0.13863489E-01 0.13436602E+03</pdfrwt>
<totfact> 0.64550116E+03</totfact>
</mgrwt>
</event>
<event>
 6    1  0.7270761E-006  0.1310529E+03  0.7546771E-02  0.1244797E+00
         -2   -1    0    0    0  501 -0.00000000000E+00  0.00000000000E+00  0.57196008650E+02  0.57196008650E+02  0.00000000000E+00 0.  1.
          2   -1    0    0  501    0  0.00000000000E+00 -0.00000000000E+00 -0.25182283726E+03  0.25182283726E+03  0.00000000000E+00 0. -1.
          5    1    1    2  502    0 -0.53631618068E+02  0.22425745838E+02 -0.45766471963E+02  0.74134502689E+02  0.47000000000E+01 0. -1.
         -5    1    1    2    0  502  0.64660369407E+02  0.15358158030E+02 -0.64456965550E+01  0.66936338367E+02  0.47000000000E+01 0. -1.
        -11    1    1    2    0    0 -0.42989379227E+02 -0.36675242740E+02 -0.81895620389E+02  0.99499009016E+02  0.00000000000E+00 0.  1.
         11    1    1    2    0    0  0.31960627889E+02 -0.11086611277E+01 -0.60519039708E+02  0.68448995842E+02  0.00000000000E+00 0. -1.
<mgrwt>
<rscale>  0 0.11897541E+03</rscale>
<asrwt>0</asrwt>
<pdfrwt beam="2">  1        2 0.38741975E-01 0.13105293E+03</pdfrwt>
<pdfrwt beam="1">  1       -2 0.87993860E-02 0.13105293E+03</pdfrwt>
<totfact> 0.10139330E+04</totfact>
</mgrwt>
</event>
<event>
 6    1  0.7270761E-006  0.2971202E+03  0.7546771E-02  0.1125282E+00
         -2   -1    0    0    0  501 -0.00000000000E+00  0.00000000000E+00  0.26596945650E+03  0.26596945650E+03  0.00000000000E+00 0.  1.
          2   -1    0    0  501    0  0.00000000000E+00 -0.00000000000E+00 -0.16630133841E+03  0.16630133841E+03  0.00000000000E+00 0. -1.
          5    1    1    2  502    0  0.63595973411E+02 -0.15980282545E+03  0.28525850164E+02  0.17440528943E+03  0.47000000000E+01 0. -1.
         -5    1    1    2    0  502 -0.21350827887E+02  0.11192667327E+03  0.90825414063E+02  0.14579020502E+03  0.47000000000E+01 0.  1.
        -11    1    1    2    0    0 -0.35744925482E+02  0.74238094723E+02 -0.20515555350E+02  0.84911026476E+02  0.00000000000E+00 0.  1.
         11    1    1    2    0    0 -0.65002200422E+01 -0.26361942546E+02  0.83240921310E+00  0.27164273973E+02  0.00000000000E+00 0. -1.
<mgrwt>
<rscale>  0 0.23194011E+03</rscale>
<asrwt>0</asrwt>
<pdfrwt beam="2">  1        2 0.25584821E-01 0.29712023E+03</pdfrwt>
<pdfrwt beam="1">  1       -2 0.40918378E-01 0.29712023E+03</pdfrwt>
<totfact> 0.11968666E+03</totfact>
</mgrwt>
</event>
<event>
 6    1  0.7270761E-006  0.1387126E+03  0.7546771E-02  0.1235381E+00
         -3   -1    0    0    0  501 -0.00000000000E+00  0.00000000000E+00  0.51703665821E+03  0.51703665821E+03  0.00000000000E+00 0.  1.
          3   -1    0    0  501    0  0.00000000000E+00 -0.00000000000E+00 -0.25573089471E+02  0.25573089471E+02  0.00000000000E+00 0. -1.
          5    1    1    2  502    0  0.31192230259E+02 -0.72926552401E+02  0.10160485649E+03  0.12898400729E+03  0.47000000000E+01 0.  1.
         -5    1    1    2    0  502 -0.26218304471E+02  0.13013819823E+02  0.21024179480E+03  0.21232159870E+03  0.47000000000E+01 0.  1.
        -11    1    1    2    0    0  0.16227499608E+02  0.39576785734E+02  0.16085798990E+03  0.16644802981E+03  0.00000000000E+00 0.  1.
         11    1    1    2    0    0 -0.21201425396E+02  0.20335946845E+02  0.18758927560E+02  0.34856111890E+02  0.00000000000E+00 0. -1.
<mgrwt>
<rscale>  0 0.12480063E+03</rscale>
<asrwt>0</asrwt>
<pdfrwt beam="2">  1        3 0.39343218E-02 0.13871259E+03</pdfrwt>
<pdfrwt beam="1">  1       -3 0.79544093E-01 0.13871259E+03</pdfrwt>
<totfact> 0.11636859E+03</totfact>
</mgrwt>
</event>
<event>
 6    1  0.7270761E-006  0.1285839E+03  0.7546771E-02  0.1243770E+00
         -4   -1    0    0    0  501 -0.00000000000E+00  0.00000000000E+00  0.43507191588E+03  0.43507191588E+03  0.00000000000E+00 0.  1.
          4   -1    0    0  501    0  0.00000000000E+00 -0.00000000000E+00 -0.29042810948E+02  0.29042810948E+02  0.00000000000E+00 0. -1.
          5    1    1    2  502    0  0.60190620425E+02  0.27884721142E+02  0.13631973192E+03  0.15167606196E+03  0.47000000000E+01 0. -1.
         -5    1    1    2    0  502 -0.61131470869E+02  0.22546082041E+01  0.98534650325E+02  0.11607457647E+03  0.47000000000E+01 0. -1.
        -11    1    1    2    0    0  0.30803549720E+01 -0.54954871216E+02  0.55977209001E+02  0.78504613779E+02  0.00000000000E+00 0. -1.
         11    1    1    2    0    0 -0.21395045284E+01  0.24815541870E+02  0.11519751369E+03  0.11785947462E+03  0.00000000000E+00 0.  1.
<mgrwt>
<rscale>  0 0.11959280E+03</rscale>
<asrwt>0</asrwt>
<pdfrwt beam="2">  1        4 0.44681251E-02 0.12858392E+03</pdfrwt>
<pdfrwt beam="1">  1       -4 0.66934136E-01 0.12858392E+03</pdfrwt>
<totfact> 0.98307455E+02</totfact>
</mgrwt>
</event>
<event>
 6    1  0.7270761E-006  0.1477788E+03  0.7546771E-02  0.1212954E+00
         -2   -1    0    0    0  501 -0.00000000000E+00  0.00000000000E+00  0.10338498025E+04  0.10338498025E+04  0.00000000000E+00 0.  1.
          2   -1    0    0  501    0  0.00000000000E+00 -0.00000000000E+00 -0.17350060624E+02  0.17350060624E+02  0.00000000000E+00 0. -1.
          5    1    1    2  502    0 -0.14035145521E+02 -0.50098220375E+02  0.67138765360E+02  0.85067742468E+02  0.47000000000E+01 0.  1.
         -5    1    1    2    0  502 -0.13932671240E+02 -0.23601254253E+02  0.50775335254E+03  0.50851420388E+03  0.47000000000E+01 0.  1.
        -11    1    1    2    0    0  0.44842690474E+02  0.69701392156E+02  0.42692383213E+03  0.43489436579E+03  0.00000000000E+00 0.  1.
         11    1    1    2    0    0 -0.16874873713E+02  0.39980824728E+01  0.14683791838E+02  0.22723550978E+02  0.00000000000E+00 0. -1.
<mgrwt>
<rscale>  0 0.14027899E+03</rscale>
<asrwt>0</asrwt>
<pdfrwt beam="2">  1        2 0.26692409E-02 0.14777882E+03</pdfrwt>
<pdfrwt beam="1">  1       -2 0.15905377E+00 0.14777882E+03</pdfrwt>
<totfact> 0.97267835E+02</totfact>
</mgrwt>
</event>
<event>
 6    1  0.7270761E-006  0.4728417E+03  0.7546771E-02  0.1063561E+00
         -2   -1    0    0    0  501 -0.00000000000E+00  0.00000000000E+00  0.17869792733E+03  0.17869792733E+03  0.00000000000E+00 0.  1.
          2   -1    0    0  501    0  0.00000000000E+00 -0.00000000000E+00 -0.52813966662E+03  0.52813966662E+03  0.00000000000E+00 0. -1.
          5    1    1    2  502    0 -0.17764400785E+03 -0.72744941902E+02 -0.33617567301E+03  0.38715034963E+03  0.47000000000E+01 0. -1.
         -5    1    1    2    0  502  0.73832032552E+02  0.72832357910E+02  0.97581760422E+02  0.14247810834E+03  0.47000000000E+01 0.  1.
        -11    1    1    2    0    0  0.46909512756E+02 -0.44212350809E+02 -0.38237697910E+02  0.74949021958E+02  0.00000000000E+00 0.  1.
         11    1    1    2    0    0  0.56902462540E+02  0.44124934801E+02 -0.72610128793E+02  0.10226011401E+03  0.00000000000E+00 0. -1.
<mgrwt>
<rscale>  0 0.34770503E+03</rscale>
<asrwt>0</asrwt>
<pdfrwt beam="2">  1        2 0.81252254E-01 0.47284167E+03</pdfrwt>
<pdfrwt beam="1">  1       -2 0.27491990E-01 0.47284167E+03</pdfrwt>
<totfact> 0.70147710E+02</totfact>
</mgrwt>
</event>
<event>
 6    1  0.7270761E-006  0.2401886E+03  0.7546771E-02  0.1122268E+00
          1   -1    0    0  501    0  0.00000000000E+00  0.00000000000E+00  0.94452200581E+03  0.94452200581E+03  0.00000000000E+00 0. -1.
         -1   -1    0    0    0  501 -0.00000000000E+00 -0.00000000000E+00 -0.62890040416E+02  0.62890040416E+02  0.00000000000E+00 0.  1.
          5    1    1    2  502    0  0.68387759807E+01  0.49578810798E+02  0.13592542670E+03  0.14492287245E+03  0.47000000000E+01 0. -1.
         -5    1    1    2    0  502  0.16056476998E+03  0.68914260821E+02  0.16782267764E+03  0.24231541807E+03  0.47000000000E+01 0. -1.
        -11    1    1    2    0    0 -0.11892747984E+03 -0.12021919176E+03  0.50553781518E+03  0.53307117921E+03  0.00000000000E+00 0.  1.
         11    1    1    2    0    0 -0.48476066126E+02  0.17261201374E+01  0.72346045879E+02  0.87102576495E+02  0.00000000000E+00 0. -1.
<mgrwt>
<rscale>  0 0.23632172E+03</rscale>
<asrwt>0</asrwt>
<pdfrwt beam="1">  1        1 0.14531107E+00 0.24018864E+03</pdfrwt>
<pdfrwt beam="2">  1       -1 0.96753915E-02 0.24018864E+03</pdfrwt>
<totfact> 0.11329645E+03</totfact>
</mgrwt>
</event>
<event>
 6    1  0.7270761E-006  0.1709931E+03  0.7546771E-02  0.1185414E+00
          1   -1    0    0  501    0  0.00000000000E+00  0.00000000000E+00  0.51394368353E+03  0.51394368353E+03  0.00000000000E+00 0. -1.
         -1   -1    0    0    0  501 -0.00000000000E+00 -0.00000000000E+00 -0.48337733412E+02  0.48337733412E+02  0.00000000000E+00 0.  1.
          5    1    1    2  502    0  0.99587504725E+01 -0.37445047112E+02  0.20230001914E+03  0.20603081325E+03  0.47000000000E+01 0. -1.
         -5    1    1    2    0  502  0.97584799468E+02 -0.78217504434E+01  0.92482699629E+02  0.13475575163E+03  0.47000000000E+01 0. -1.
        -11    1    1    2    0    0 -0.41626659932E+02  0.59206837967E+01  0.12547965466E+03  0.13233660509E+03  0.00000000000E+00 0. -1.
         11    1    1    2    0    0 -0.65916890009E+02  0.39346113758E+02  0.45343576696E+02  0.89158246977E+02  0.00000000000E+00 0.  1.
<mgrwt>
<rscale>  0 0.16294246E+03</rscale>
<asrwt>0</asrwt>
<pdfrwt beam="1">  1        1 0.79068255E-01 0.17099307E+03</pdfrwt>
<pdfrwt beam="2">  1       -1 0.74365747E-02 0.17099307E+03</pdfrwt>
<totfact> 0.41006338E+03</totfact>
</mgrwt>
</event>
<event>
 6    1  0.7270761E-006  0.1694802E+03  0.7546771E-02  0.1185031E+00
          2   -1    0    0  501    0  0.00000000000E+00  0.00000000000E+00  0.17900676655E+03  0.17900676655E+03  0.00000000000E+00 0. -1.
         -2   -1    0    0    0  501 -0.00000000000E+00 -0.00000000000E+00 -0.13938809285E+03  0.13938809285E+03  0.00000000000E+00 0.  1.
          5    1    1    2  502    0  0.37270423720E+02 -0.70974861849E+02  0.78044070460E+02  0.11197983047E+03  0.47000000000E+01 0.  1.
         -5    1    1    2    0  502  0.20248936009E+02 -0.27998730815E+02 -0.48826369276E+02  0.60000438944E+02  0.47000000000E+01 0.  1.
        -11    1    1    2    0    0 -0.80406818546E+02  0.72434450656E+02 -0.45404827651E+01  0.10831722898E+03  0.00000000000E+00 0. -1.
         11    1    1    2    0    0  0.22887458817E+02  0.26539142008E+02  0.14941455281E+02  0.38097361004E+02  0.00000000000E+00 0.  1.
<mgrwt>
<rscale>  0 0.16329041E+03</rscale>
<asrwt>0</asrwt>
<pdfrwt beam="1">  1        2 0.27539503E-01 0.16948020E+03</pdfrwt>
<pdfrwt beam="2">  1       -2 0.21444322E-01 0.16948020E+03</pdfrwt>
<totfact> 0.34984556E+03</totfact>
</mgrwt>
</event>
<event>
 6    1  0.7270761E-006  0.1325066E+03  0.7546771E-02  0.1239179E+00
          2   -1    0    0  501    0  0.00000000000E+00  0.00000000000E+00  0.46135049026E+02  0.46135049026E+02  0.00000000000E+00 0. -1.
         -2   -1    0    0    0  501 -0.00000000000E+00 -0.00000000000E+00 -0.28723783373E+03  0.28723783373E+03  0.00000000000E+00 0.  1.
          5    1    1    2  502    0  0.31842095381E+02  0.41793325887E+02 -0.17327667444E+03  0.18112839930E+03  0.47000000000E+01 0.  1.
         -5    1    1    2    0  502 -0.15976619083E+02 -0.81217517836E+00  0.16966786221E+02  0.23788102500E+02  0.47000000000E+01 0.  1.
        -11    1    1    2    0    0 -0.33068262959E+02  0.15745540580E+02 -0.25603947772E+02  0.44687741102E+02  0.00000000000E+00 0. -1.
         11    1    1    2    0    0  0.17202786662E+02 -0.56726691289E+02 -0.59188948709E+02  0.83768639853E+02  0.00000000000E+00 0.  1.
<mgrwt>
<rscale>  0 0.12240631E+03</rscale>
<asrwt>0</asrwt>
<pdfrwt beam="1">  1        2 0.70976997E-02 0.13250657E+03</pdfrwt>
<pdfrwt beam="2">  1       -2 0.44190437E-01 0.13250657E+03</pdfrwt>
<totfact> 0.46233322E+03</totfact>
</mgrwt>
</event>
<event>
 6    1  0.7270761E-006  0.2252565E+03  0.7546771E-02  0.1130024E+00
         -2   -1    0    0    0  501 -0.00000000000E+00  0.00000000000E+00  0.37280299218E+02  0.37280299218E+02  0.00000000000E+00 0.  1.
          2   -1    0    0  501    0  0.00000000000E+00 -0.00000000000E+00 -0.34026332982E+03  0.34026332982E+03  0.00000000000E+00 0. -1.
          5    1    1    2  502    0 -0.31483161969E+02 -0.50043599205E+02 -0.15011744908E+03  0.16140907603E+03  0.47000000000E+01 0. -1.
         -5    1    1    2    0  502  0.20131392187E+02  0.30601606089E+01  0.12171107370E+02  0.24183948994E+02  0.47000000000E+01 0.  1.
        -11    1    1    2    0    0  0.40556699277E+02  0.19752107674E+02 -0.38642766670E+02  0.59399116405E+02  0.00000000000E+00 0. -1.
         11    1    1    2    0    0 -0.29204929496E+02  0.27231330922E+02 -0.12639392223E+03  0.13255148761E+03  0.00000000000E+00 0.  1.
<mgrwt>
<rscale>  0 0.22525646E+03</rscale>
<asrwt>0</asrwt>
<pdfrwt beam="2">  1        2 0.52348203E-01 0.22525646E+03</pdfrwt>
<pdfrwt beam="1">  1       -2 0.57354308E-02 0.22525646E+03</pdfrwt>
<totfact> 0.14795784E+04</totfact>
</mgrwt>
</event>
<event>
 6    1  0.7270761E-006  0.2671519E+03  0.7546771E-02  0.1102921E+00
          1   -1    0    0  501    0  0.00000000000E+00  0.00000000000E+00  0.89571327647E+03  0.89571327647E+03  0.00000000000E+00 0. -1.
         -1   -1    0    0    0  501 -0.00000000000E+00 -0.00000000000E+00 -0.19919916873E+02  0.19919916873E+02  0.00000000000E+00 0.  1.
          5    1    1    2  502    0  0.21135267250E+02 -0.60821703386E+02  0.88822800619E+02  0.10980691706E+03  0.47000000000E+01 0.  1.
         -5    1    1    2    0  502  0.11982550789E+02 -0.92340511529E+01  0.40895954677E+03  0.40926623379E+03  0.47000000000E+01 0.  1.
        -11    1    1    2    0    0 -0.61579924484E+02  0.43464408173E+02  0.30054747598E+03  0.30985484859E+03  0.00000000000E+00 0. -1.
         11    1    1    2    0    0  0.28462106445E+02  0.26591346366E+02  0.77463536219E+02  0.86705193895E+02  0.00000000000E+00 0.  1.
<mgrwt>
<rscale>  0 0.26715190E+03</rscale>
<asrwt>0</asrwt>
<pdfrwt beam="1">  1        1 0.13780201E+00 0.26715190E+03</pdfrwt>
<pdfrwt beam="2">  1       -1 0.30646033E-02 0.26715190E+03</pdfrwt>
<totfact> 0.70185091E+03</totfact>
</mgrwt>
</event>
<event>
 6    1  0.7270761E-006  0.1329681E+03  0.7546771E-02  0.1235222E+00
          2   -1    0    0  501    0  0.00000000000E+00  0.00000000000E+00  0.37364299142E+03  0.37364299142E+03  0.00000000000E+00 0. -1.
         -2   -1    0    0    0  501 -0.00000000000E+00 -0.00000000000E+00 -0.39705209615E+02  0.39705209615E+02  0.00000000000E+00 0.  1.
          5    1    1    2  502    0 -0.10343048640E+02 -0.44095869166E+02 -0.34957834807E+01  0.45669846013E+02  0.47000000000E+01 0. -1.
         -5    1    1    2    0  502  0.35618879802E+02  0.64483774300E+01  0.14084644344E+03  0.14549947353E+03  0.47000000000E+01 0. -1.
        -11    1    1    2    0    0  0.22774897430E+01 -0.29573398445E+02  0.73381076800E+02  0.79148943691E+02  0.00000000000E+00 0. -1.
         11    1    1    2    0    0 -0.27553320906E+02  0.67220890181E+02  0.12320604505E+03  0.14302993780E+03  0.00000000000E+00 0.  1.
<mgrwt>
<rscale>  0 0.12490201E+03</rscale>
<asrwt>0</asrwt>
<pdfrwt beam="1">  1        2 0.57483535E-01 0.13296806E+03</pdfrwt>
<pdfrwt beam="2">  1       -2 0.61084940E-02 0.13296806E+03</pdfrwt>
<totfact> 0.11696726E+04</totfact>
</mgrwt>
</event>
<event>
 6    1  0.7270761E-006  0.2247358E+03  0.7546771E-02  0.1182505E+00
         -2   -1    0    0    0  501 -0.00000000000E+00  0.00000000000E+00  0.58892552109E+02  0.58892552109E+02  0.00000000000E+00 0.  1.
          2   -1    0    0  501    0  0.00000000000E+00 -0.00000000000E+00 -0.57599070639E+03  0.57599070639E+03  0.00000000000E+00 0. -1.
          5    1    1    2  502    0 -0.39724021970E+02 -0.73607188120E+02 -0.12827226934E+03  0.15320535613E+03  0.47000000000E+01 0. -1.
         -5    1    1    2    0  502  0.95668855388E+02  0.75303457516E+02 -0.42457743843E+02  0.12902670505E+03  0.47000000000E+01 0.  1.
        -11    1    1    2    0    0 -0.62949990078E+01 -0.13739625572E+02 -0.72495383993E+02  0.74053933208E+02  0.00000000000E+00 0.  1.
         11    1    1    2    0    0 -0.49649834410E+02  0.12043356175E+02 -0.27387275711E+03  0.27859726411E+03  0.00000000000E+00 0. -1.
<mgrwt>
<rscale>  0 0.16561008E+03</rscale>
<asrwt>0</asrwt>
<pdfrwt beam="2">  1        2 0.88613955E-01 0.22473584E+03</pdfrwt>
<pdfrwt beam="1">  1       -2 0.90603926E-02 0.22473584E+03</pdfrwt>
<totfact> 0.40681635E+03</totfact>
</mgrwt>
</event>
<event>
 6    1  0.7270761E-006  0.1259371E+03  0.7546771E-02  0.1248373E+00
          1   -1    0    0  501    0  0.00000000000E+00  0.00000000000E+00  0.40091504172E+02  0.40091504172E+02  0.00000000000E+00 0. -1.
         -1   -1    0    0    0  501 -0.00000000000E+00 -0.00000000000E+00 -0.29989492724E+03  0.29989492724E+03  0.00000000000E+00 0.  1.
          5    1    1    2  502    0  0.31131088220E+01  0.17412642485E+02  0.17362686325E+02  0.25227850508E+02  0.47000000000E+01 0. -1.
         -5    1    1    2    0  502 -0.31498195867E+01 -0.32805113093E+02 -0.16730822857E+03  0.17058789569E+03  0.47000000000E+01 0. -1.
        -11    1    1    2    0    0 -0.12684918757E+02 -0.24696157507E+02 -0.95928477986E+02  0.99865310534E+02  0.00000000000E+00 0.  1.
         11    1    1    2    0    0  0.12721629521E+02  0.40088628114E+02 -0.13929402830E+02  0.44305374673E+02  0.00000000000E+00 0. -1.
<mgrwt>
<rscale>  0 0.11685774E+03</rscale>
<asrwt>0</asrwt>
<pdfrwt beam="1">  1        1 0.61679236E-02 0.12593705E+03</pdfrwt>
<pdfrwt beam="2">  1       -1 0.46137682E-01 0.12593705E+03</pdfrwt>
<totfact> 0.56113746E+03</totfact>
</mgrwt>
</event>
<event>
 6    1  0.7270761E-006  0.2098641E+03  0.7546771E-02  0.1145621E+00
         -2   -1    0    0    0  501 -0.00000000000E+00  0.00000000000E+00  0.52022114039E+02  0.52022114039E+02  0.00000000000E+00 0.  1.
          2   -1    0    0  501    0  0.00000000000E+00 -0.00000000000E+00 -0.77347248709E+03  0.77347248709E+03  0.00000000000E+00 0. -1.
          5    1    1    2  502    0  0.71670013858E+02 -0.32499487482E+02 -0.26467761071E+03  0.27616867162E+03  0.47000000000E+01 0. -1.
         -5    1    1    2    0  502  0.37585631190E+02 -0.95876075271E+02 -0.94613686308E+02  0.13992405482E+03  0.47000000000E+01 0. -1.
        -11    1    1    2    0    0 -0.96097678905E+02  0.45961082410E+02 -0.18271666151E+03  0.21150074085E+03  0.00000000000E+00 0.  1.
         11    1    1    2    0    0 -0.13157966142E+02  0.82414480343E+02 -0.17944241452E+03  0.19790113383E+03  0.00000000000E+00 0. -1.
<mgrwt>
<rscale>  0 0.20495890E+03</rscale>
<asrwt>0</asrwt>
<pdfrwt beam="2">  1        2 0.11899576E+00 0.20986405E+03</pdfrwt>
<pdfrwt beam="1">  1       -2 0.80034026E-02 0.20986405E+03</pdfrwt>
<totfact> 0.34675679E+03</totfact>
</mgrwt>
</event>
<event>
 6    1  0.7270761E-006  0.3820469E+03  0.7546771E-02  0.1051068E+00
          2   -1    0    0  501    0  0.00000000000E+00  0.00000000000E+00  0.61798020123E+03  0.61798020123E+03  0.00000000000E+00 0. -1.
         -2   -1    0    0    0  501 -0.00000000000E+00 -0.00000000000E+00 -0.23051979572E+03  0.23051979572E+03  0.00000000000E+00 0.  1.
          5    1    1    2  502    0  0.25704393985E+03 -0.25662356001E+03  0.16756070994E+03  0.40003239879E+03  0.47000000000E+01 0.  1.
         -5    1    1    2    0  502 -0.13668364599E+02 -0.10049494477E+02  0.16146752860E+02  0.23887740747E+02  0.47000000000E+01 0.  1.
        -11    1    1    2    0    0 -0.10616385345E+03  0.10393771839E+03  0.13539597508E+03  0.20101214678E+03  0.00000000000E+00 0. -1.
         11    1    1    2    0    0 -0.13721172180E+03  0.16273533610E+03  0.68356967636E+02  0.22356771063E+03  0.00000000000E+00 0.  1.
<mgrwt>
<rscale>  0 0.37963631E+03</rscale>
<asrwt>0</asrwt>
<pdfrwt beam="1">  1        2 0.95073876E-01 0.38204692E+03</pdfrwt>
<pdfrwt beam="2">  1       -2 0.35464584E-01 0.38204692E+03</pdfrwt>
<totfact> 0.36527114E+02</totfact>
</mgrwt>
</event>
<event>
 6    1  0.7270761E-006  0.1450546E+03  0.7546771E-02  0.1218918E+00
         -1   -1    0    0    0  501 -0.00000000000E+00  0.00000000000E+00  0.60853926299E+02  0.60853926299E+02  0.00000000000E+00 0.  1.
          1   -1    0    0  501    0  0.00000000000E+00 -0.00000000000E+00 -0.39861245941E+03  0.39861245941E+03  0.00000000000E+00 0. -1.
          5    1    1    2  502    0 -0.44627058346E+02 -0.11394988465E+02 -0.93072854854E+02  0.10395223138E+03  0.47000000000E+01 0. -1.
         -5    1    1    2    0  502 -0.17438307068E+02 -0.28159170764E+02  0.38522448584E+02  0.51020608546E+02  0.47000000000E+01 0. -1.
        -11    1    1    2    0    0  0.29760457634E+02  0.77072092785E+01 -0.18400024874E+02  0.35828017372E+02  0.00000000000E+00 0.  1.
         11    1    1    2    0    0  0.32304907780E+02  0.31846949950E+02 -0.26480810196E+03  0.26866552841E+03  0.00000000000E+00 0. -1.
<mgrwt>
<rscale>  0 0.13592630E+03</rscale>
<asrwt>0</asrwt>
<pdfrwt beam="2">  1        1 0.61324990E-01 0.14505459E+03</pdfrwt>
<pdfrwt beam="1">  1       -1 0.93621431E-02 0.14505459E+03</pdfrwt>
<totfact> 0.39831767E+03</totfact>
</mgrwt>
</event>
<event>
 6    1  0.7270761E-006  0.2862270E+03  0.7546771E-02  0.1098704E+00
          1   -1    0    0  501    0  0.00000000000E+00  0.00000000000E+00  0.11402961266E+04  0.11402961266E+04  0.00000000000E+00 0. -1.
         -1   -1    0    0    0  501 -0.00000000000E+00 -0.00000000000E+00 -0.98520288713E+02  0.98520288713E+02  0.00000000000E+00 0.  1.
          5    1    1    2  502    0  0.28430814392E+02  0.91107198956E+02  0.17566165095E+03  0.19996984403E+03  0.47000000000E+01 0. -1.
         -5    1    1    2    0  502  0.21795257344E+01  0.13137110428E+03 -0.80547561738E+01  0.13171972696E+03  0.47000000000E+01 0.  1.
        -11    1    1    2    0    0 -0.63252731587E+02 -0.14203529173E+03  0.56169686628E+03  0.58281927022E+03  0.00000000000E+00 0. -1.
         11    1    1    2    0    0  0.32642391460E+02 -0.80443011509E+02  0.31247207685E+03  0.32430757412E+03  0.00000000000E+00 0.  1.
<mgrwt>
<rscale>  0 0.27454903E+03</rscale>
<asrwt>0</asrwt>
<pdfrwt beam="1">  1        1 0.17543016E+00 0.28622701E+03</pdfrwt>
<pdfrwt beam="2">  1       -1 0.15156968E-01 0.28622701E+03</pdfrwt>
<totfact> 0.40027759E+02</totfact>
</mgrwt>
</event>
<event>
 6    1  0.7270761E-006  0.1388955E+03  0.7546771E-02  0.1226530E+00
          2   -1    0    0  501    0  0.00000000000E+00  0.00000000000E+00  0.18286502278E+03  0.18286502278E+03  0.00000000000E+00 0. -1.
         -2   -1    0    0    0  501 -0.00000000000E+00 -0.00000000000E+00 -0.84416553039E+02  0.84416553039E+02  0.00000000000E+00 0.  1.
          5    1    1    2  502    0 -0.44302431490E+01 -0.57730998748E+02 -0.20081783706E+02  0.61464325487E+02  0.47000000000E+01 0. -1.
         -5    1    1    2    0  502 -0.30840482713E+02  0.85079372881E+01  0.86793613179E+02  0.92621496746E+02  0.47000000000E+01 0. -1.
        -11    1    1    2    0    0 -0.64450190300E+01  0.52596074960E+02 -0.10184416732E+02  0.53959315375E+02  0.00000000000E+00 0.  1.
         11    1    1    2    0    0  0.41715744892E+02 -0.33730135004E+01  0.41921056998E+02  0.59236438210E+02  0.00000000000E+00 0. -1.
<mgrwt>
<rscale>  0 0.13062593E+03</rscale>
<asrwt>0</asrwt>
<pdfrwt beam="1">  1        2 0.28133080E-01 0.13889555E+03</pdfrwt>
<pdfrwt beam="2">  1       -2 0.12987162E-01 0.13889555E+03</pdfrwt>
<totfact> 0.77649345E+03</totfact>
</mgrwt>
</event>
<event>
 6    1  0.7270761E-006  0.4075486E+03  0.7546771E-02  0.1041197E+00
          2   -1    0    0  501    0  0.00000000000E+00  0.00000000000E+00  0.53346909520E+02  0.53346909520E+02  0.00000000000E+00 0. -1.
         -2   -1    0    0    0  501 -0.00000000000E+00 -0.00000000000E+00 -0.77837612713E+03  0.77837612713E+03  0.00000000000E+00 0.  1.
          5    1    1    2  502    0  0.10247444720E+02 -0.28374074785E+02 -0.25727011191E+03  0.25907546917E+03  0.47000000000E+01 0. -1.
         -5    1    1    2    0  502 -0.12776370801E+03  0.10383117279E+02 -0.37647202773E+03  0.39772434157E+03  0.47000000000E+01 0. -1.
        -11    1    1    2    0    0  0.73070908248E+02  0.50225151333E+02 -0.32374526261E+02  0.94392973304E+02  0.00000000000E+00 0. -1.
         11    1    1    2    0    0  0.44445355046E+02 -0.32234193826E+02 -0.58912551712E+02  0.80530252613E+02  0.00000000000E+00 0.  1.
<mgrwt>
<rscale>  0 0.40754858E+03</rscale>
<asrwt>0</asrwt>
<pdfrwt beam="1">  1        2 0.82072171E-02 0.40754858E+03</pdfrwt>
<pdfrwt beam="2">  1       -2 0.11975017E+00 0.40754858E+03</pdfrwt>
<totfact> 0.46169280E+02</totfact>
</mgrwt>
</event>
<event>
 6    1  0.7270761E-006  0.1318206E+03  0.7546771E-02  0.1237045E+00
         -1   -1    0    0    0  501 -0.00000000000E+00  0.00000000000E+00  0.17378432082E+03  0.17378432082E+03  0.00000000000E+00 0.  1.
          1   -1    0    0  501    0  0.00000000000E+00 -0.00000000000E+00 -0.89931862878E+02  0.89931862878E+02  0.00000000000E+00 0. -1.
          5    1    1    2  502    0  0.72122462166E+01 -0.64572623277E+02  0.26697335122E+02  0.70402257599E+02  0.47000000000E+01 0. -1.
         -5    1    1    2    0  502  0.32944511597E+02  0.52719546820E+02  0.65725788043E+02  0.90590621342E+02  0.47000000000E+01 0. -1.
        -11    1    1    2    0    0 -0.15983895889E+02  0.21171953023E+02  0.39812266394E+02  0.47840914268E+02  0.00000000000E+00 0.  1.
         11    1    1    2    0    0 -0.24172861924E+02 -0.93188765649E+01 -0.48382931617E+02  0.54882390490E+02  0.00000000000E+00 0. -1.
<mgrwt>
<rscale>  0 0.12374439E+03</rscale>
<asrwt>0</asrwt>
<pdfrwt beam="2">  1        1 0.13835671E-01 0.13182061E+03</pdfrwt>
<pdfrwt beam="1">  1       -1 0.26736049E-01 0.13182061E+03</pdfrwt>
<totfact> 0.49141907E+03</totfact>
</mgrwt>
</event>
<event>
 6    1  0.7270761E-006  0.1493722E+03  0.7546771E-02  0.1210178E+00
         -1   -1    0    0    0  501 -0.00000000000E+00  0.00000000000E+00  0.11634158696E+03  0.11634158696E+03  0.00000000000E+00 0.  1.
          1   -1    0    0  501    0  0.00000000000E+00 -0.00000000000E+00 -0.16104999493E+03  0.16104999493E+03  0.00000000000E+00 0. -1.
          5    1    1    2  502    0 -0.34436384034E+02  0.16169330490E+02  0.55107840732E+02  0.67128800853E+02  0.47000000000E+01 0.  1.
         -5    1    1    2    0  502 -0.22277552127E+02  0.42742915625E+02 -0.67062957549E+02  0.82721076154E+02  0.47000000000E+01 0.  1.
        -11    1    1    2    0    0  0.28135111331E+02 -0.74499696393E+02  0.23464331353E+01  0.79669912770E+02  0.00000000000E+00 0.  1.
         11    1    1    2    0    0  0.28578824830E+02  0.15587450278E+02 -0.35099724285E+02  0.47871792108E+02  0.00000000000E+00 0. -1.
<mgrwt>
<rscale>  0 0.14236780E+03</rscale>
<asrwt>0</asrwt>
<pdfrwt beam="2">  1        1 0.24776922E-01 0.14937222E+03</pdfrwt>
<pdfrwt beam="1">  1       -1 0.17898706E-01 0.14937222E+03</pdfrwt>
<totfact> 0.45056666E+03</totfact>
</mgrwt>
</event>
<event>
 6    1  0.7270761E-006  0.2947098E+03  0.7546771E-02  0.1087915E+00
         -3   -1    0    0    0  501 -0.00000000000E+00  0.00000000000E+00  0.10937718232E+03  0.10937718232E+03  0.00000000000E+00 0.  1.
          3   -1    0    0  501    0  0.00000000000E+00 -0.00000000000E+00 -0.19851915306E+03  0.19851915306E+03  0.00000000000E+00 0. -1.
          5    1    1    2  502    0 -0.12352815102E+02 -0.92018157598E+01 -0.37704634468E+02  0.40999937983E+02  0.47000000000E+01 0. -1.
         -5    1    1    2    0  502  0.66355406070E+02 -0.76753777581E+01  0.76333148366E+02  0.10154206457E+03  0.47000000000E+01 0. -1.
        -11    1    1    2    0    0 -0.24169114197E+02 -0.30790842663E+02 -0.88485799155E+02  0.96757215364E+02  0.00000000000E+00 0. -1.
         11    1    1    2    0    0 -0.29833476772E+02  0.47668036181E+02 -0.39284685480E+02  0.68597117453E+02  0.00000000000E+00 0.  1.
<mgrwt>
<rscale>  0 0.29470979E+03</rscale>
<asrwt>0</asrwt>
<pdfrwt beam="2">  1        3 0.30541408E-01 0.29470979E+03</pdfrwt>
<pdfrwt beam="1">  1       -3 0.16827259E-01 0.29470979E+03</pdfrwt>
<totfact> 0.80829691E+02</totfact>
</mgrwt>
</event>
<event>
 6    1  0.7270761E-006  0.1462106E+03  0.7546771E-02  0.1223336E+00
          2   -1    0    0  501    0  0.00000000000E+00  0.00000000000E+00  0.11747306325E+03  0.11747306325E+03  0.00000000000E+00 0. -1.
         -2   -1    0    0    0  501 -0.00000000000E+00 -0.00000000000E+00 -0.22454351606E+03  0.22454351606E+03  0.00000000000E+00 0.  1.
          5    1    1    2  502    0  0.70913616225E+02 -0.28931668467E+02 -0.63499773091E+02  0.99599666611E+02  0.47000000000E+01 0. -1.
         -5    1    1    2    0  502 -0.38304088793E+02  0.51961707085E+02 -0.10651032004E+03  0.12463450765E+03  0.47000000000E+01 0.  1.
        -11    1    1    2    0    0 -0.17030241600E+02 -0.58016994840E+02  0.45647375219E+02  0.75760700126E+02  0.00000000000E+00 0. -1.
         11    1    1    2    0    0 -0.15579285833E+02  0.34986956222E+02  0.17292265100E+02  0.42021704928E+02  0.00000000000E+00 0.  1.
<mgrwt>
<rscale>  0 0.13281600E+03</rscale>
<asrwt>0</asrwt>
<pdfrwt beam="1">  1        2 0.18072779E-01 0.14621058E+03</pdfrwt>
<pdfrwt beam="2">  1       -2 0.34545156E-01 0.14621058E+03</pdfrwt>
<totfact> 0.23880201E+03</totfact>
</mgrwt>
</event>
<event>
 6    1  0.7270761E-006  0.1642208E+03  0.7546771E-02  0.1191064E+00
          1   -1    0    0  501    0  0.00000000000E+00  0.00000000000E+00  0.24157430225E+02  0.24157430225E+02  0.00000000000E+00 0. -1.
         -1   -1    0    0    0  501 -0.00000000000E+00 -0.00000000000E+00 -0.97662849121E+03  0.97662849121E+03  0.00000000000E+00 0.  1.
          5    1    1    2  502    0  0.30510890505E+02 -0.17203844281E+02 -0.24432580088E+03  0.24686853521E+03  0.47000000000E+01 0.  1.
         -5    1    1    2    0  502 -0.99027763085E+02 -0.64335454478E+02 -0.33254932633E+03  0.35292590300E+03  0.47000000000E+01 0.  1.
        -11    1    1    2    0    0  0.38321134710E+02 -0.29804611137E+01 -0.20138212694E+03  0.20501744698E+03  0.00000000000E+00 0.  1.
         11    1    1    2    0    0  0.30195737870E+02  0.84519759873E+02 -0.17421380682E+03  0.19597403624E+03  0.00000000000E+00 0. -1.
<mgrwt>
<rscale>  0 0.15792087E+03</rscale>
<asrwt>0</asrwt>
<pdfrwt beam="1">  1        1 0.37165275E-02 0.16422075E+03</pdfrwt>
<pdfrwt beam="2">  1       -1 0.15025055E+00 0.16422075E+03</pdfrwt>
<totfact> 0.93804071E+02</totfact>
</mgrwt>
</event>
<event>
 6    1  0.7270761E-006  0.1285563E+03  0.7546771E-02  0.1245988E+00
         -2   -1    0    0    0  501 -0.00000000000E+00  0.00000000000E+00  0.94599088385E+02  0.94599088385E+02  0.00000000000E+00 0.  1.
          2   -1    0    0  501    0  0.00000000000E+00 -0.00000000000E+00 -0.12908513652E+03  0.12908513652E+03  0.00000000000E+00 0. -1.
          5    1    1    2  502    0  0.41422273798E+02 -0.13976964613E+02 -0.65261697402E+02  0.78691419190E+02  0.47000000000E+01 0.  1.
         -5    1    1    2    0  502 -0.32099345920E+02 -0.14586350570E+02  0.38717939563E+02  0.52576596271E+02  0.47000000000E+01 0.  1.
        -11    1    1    2    0    0 -0.44146135450E+02  0.33897444975E+02  0.23674441941E+01  0.55709270710E+02  0.00000000000E+00 0. -1.
         11    1    1    2    0    0  0.34823207571E+02 -0.53341297922E+01 -0.10309734495E+02  0.36706938738E+02  0.00000000000E+00 0.  1.
<mgrwt>
<rscale>  0 0.11826456E+03</rscale>
<asrwt>0</asrwt>
<pdfrwt beam="2">  1        2 0.19859252E-01 0.12855629E+03</pdfrwt>
<pdfrwt beam="1">  1       -2 0.14553706E-01 0.12855629E+03</pdfrwt>
<totfact> 0.94483012E+03</totfact>
</mgrwt>
</event>
<event>
 6    1  0.7270761E-006  0.3164694E+03  0.7546771E-02  0.1077286E+00
          2   -1    0    0  501    0  0.00000000000E+00  0.00000000000E+00  0.53095773545E+03  0.53095773545E+03  0.00000000000E+00 0. -1.
         -2   -1    0    0    0  501 -0.00000000000E+00 -0.00000000000E+00 -0.47156704680E+02  0.47156704680E+02  0.00000000000E+00 0.  1.
          5    1    1    2  502    0  0.45551715884E+02  0.85034389560E+02  0.18670961483E+03  0.21021031492E+03  0.47000000000E+01 0. -1.
         -5    1    1    2    0  502 -0.66131518798E+01  0.10800883257E+02 -0.18890925296E+02  0.23223908273E+02  0.47000000000E+01 0. -1.
        -11    1    1    2    0    0 -0.39345113696E+02 -0.84645599730E+01  0.47067460605E+02  0.61927639993E+02  0.00000000000E+00 0.  1.
         11    1    1    2    0    0  0.40654969236E+00 -0.87370712844E+02  0.26891488063E+03  0.28275257694E+03  0.00000000000E+00 0. -1.
<mgrwt>
<rscale>  0 0.31646938E+03</rscale>
<asrwt>0</asrwt>
<pdfrwt beam="1">  1        2 0.81685801E-01 0.31646938E+03</pdfrwt>
<pdfrwt beam="2">  1       -2 0.72548780E-02 0.31646938E+03</pdfrwt>
<totfact> 0.64124694E+03</totfact>
</mgrwt>
</event>
<event>
 6    1  0.7270761E-006  0.1469611E+03  0.7546771E-02  0.1222531E+00
         -1   -1    0    0    0  501 -0.00000000000E+00  0.00000000000E+00  0.51200302142E+02  0.51200302142E+02  0.00000000000E+00 0.  1.
          1   -1    0    0  501    0  0.00000000000E+00 -0.00000000000E+00 -0.38469410640E+03  0.38469410640E+03  0.00000000000E+00 0. -1.
          5    1    1    2  502    0 -0.33715454958E+02  0.40440028375E+02 -0.22056558549E+02  0.57277478759E+02  0.47000000000E+01 0. -1.
         -5    1    1    2    0  502  0.55123572616E+02 -0.74680282283E+02 -0.66835868772E+02  0.11447653111E+03  0.47000000000E+01 0.  1.
        -11    1    1    2    0    0 -0.12761104179E+01 -0.19401090553E+02 -0.85582866923E+01  0.21243235242E+02  0.00000000000E+00 0.  1.
         11    1    1    2    0    0 -0.20132007240E+02  0.53641344461E+02 -0.23604309025E+03  0.24289716344E+03  0.00000000000E+00 0. -1.
<mgrwt>
<rscale>  0 0.13337576E+03</rscale>
<asrwt>0</asrwt>
<pdfrwt beam="2">  1        1 0.59183712E-01 0.14696114E+03</pdfrwt>
<pdfrwt beam="1">  1       -1 0.78769691E-02 0.14696114E+03</pdfrwt>
<totfact> 0.54170356E+03</totfact>
</mgrwt>
</event>
<event>
 6    1  0.8579440E-006  0.3107339E+03  0.7546771E-02  0.1081221E+00
          1   -1    0    0  501    0  0.00000000000E+00  0.00000000000E+00  0.24188257648E+03  0.24188257648E+03  0.00000000000E+00 0. -1.
         -1   -1    0    0    0  501 -0.00000000000E+00 -0.00000000000E+00 -0.40007529172E+03  0.40007529172E+03  0.00000000000E+00 0.  1.
          5    1    1    2  502    0  0.13836506129E+03 -0.13444779894E+03 -0.27688414081E+02  0.19496112202E+03  0.47000000000E+01 0. -1.
         -5    1    1    2    0  502  0.51237330284E+02 -0.77640695303E+02 -0.11216187432E+03  0.14579340737E+03  0.47000000000E+01 0. -1.
        -11    1    1    2    0    0 -0.16161769992E+03  0.11918102630E+03  0.69530789684E+01  0.20092969731E+03  0.00000000000E+00 0.  1.
         11    1    1    2    0    0 -0.27984691655E+02  0.92907467944E+02 -0.25295505808E+02  0.10027364151E+03  0.00000000000E+00 0. -1.
<mgrwt>
<rscale>  0 0.30818018E+03</rscale>
<asrwt>0</asrwt>
<pdfrwt beam="1">  1        1 0.37212705E-01 0.31073388E+03</pdfrwt>
<pdfrwt beam="2">  1       -1 0.61550044E-01 0.31073388E+03</pdfrwt>
<totfact> 0.31966037E+02</totfact>
</mgrwt>
</event>
<event>
 6    1  0.7270761E-006  0.1691575E+03  0.7546771E-02  0.1185309E+00
         -2   -1    0    0    0  501 -0.00000000000E+00  0.00000000000E+00  0.44974326294E+02  0.44974326294E+02  0.00000000000E+00 0.  1.
          2   -1    0    0  501    0  0.00000000000E+00 -0.00000000000E+00 -0.55491647159E+03  0.55491647159E+03  0.00000000000E+00 0. -1.
          5    1    1    2  502    0 -0.32802951913E+02 -0.83869416445E+02 -0.18961653589E+03  0.20996817224E+03  0.47000000000E+01 0.  1.
         -5    1    1    2    0  502  0.72611664276E+02 -0.22932761922E+02 -0.10557331573E+03  0.13025429111E+03  0.47000000000E+01 0.  1.
        -11    1    1    2    0    0 -0.27273688930E+01  0.94049816246E+02 -0.95202809521E+02  0.13385208784E+03  0.00000000000E+00 0.  1.
         11    1    1    2    0    0 -0.37081343470E+02  0.12752362121E+02 -0.11954948416E+03  0.12581624671E+03  0.00000000000E+00 0. -1.
<mgrwt>
<rscale>  0 0.16303812E+03</rscale>
<asrwt>0</asrwt>
<pdfrwt beam="2">  1        2 0.85371772E-01 0.16915755E+03</pdfrwt>
<pdfrwt beam="1">  1       -2 0.69191266E-02 0.16915755E+03</pdfrwt>
<totfact> 0.63802969E+03</totfact>
</mgrwt>
</event>
<event>
 6    1  0.7270761E-006  0.1329010E+03  0.7546771E-02  0.1236417E+00
          2   -1    0    0  501    0  0.00000000000E+00  0.00000000000E+00  0.24271832163E+03  0.24271832163E+03  0.00000000000E+00 0. -1.
         -2   -1    0    0    0  501 -0.00000000000E+00 -0.00000000000E+00 -0.86794415344E+02  0.86794415344E+02  0.00000000000E+00 0.  1.
          5    1    1    2  502    0  0.10980579268E+02  0.56636461147E+02 -0.58619380050E+02  0.82380723290E+02  0.47000000000E+01 0. -1.
         -5    1    1    2    0  502  0.10924040139E+02 -0.17169131076E+02  0.46596399622E+02  0.51062982410E+02  0.47000000000E+01 0. -1.
        -11    1    1    2    0    0  0.24588404881E+02  0.13217892593E+02  0.28361123521E+02  0.39795171397E+02  0.00000000000E+00 0.  1.
         11    1    1    2    0    0 -0.46493024288E+02 -0.52685222664E+02  0.13958576319E+03  0.15627385988E+03  0.00000000000E+00 0. -1.
<mgrwt>
<rscale>  0 0.12414157E+03</rscale>
<asrwt>0</asrwt>
<pdfrwt beam="1">  1        2 0.37341280E-01 0.13290098E+03</pdfrwt>
<pdfrwt beam="2">  1       -2 0.13352987E-01 0.13290098E+03</pdfrwt>
<totfact> 0.54573277E+03</totfact>
</mgrwt>
</event>
<event>
 6    1  0.7270761E-006  0.1831223E+03  0.7546771E-02  0.1186045E+00
         -3   -1    0    0    0  501 -0.00000000000E+00  0.00000000000E+00  0.31364904594E+03  0.31364904594E+03  0.00000000000E+00 0.  1.
          3   -1    0    0  501    0  0.00000000000E+00 -0.00000000000E+00 -0.12094233010E+03  0.12094233010E+03  0.00000000000E+00 0. -1.
          5    1    1    2  502    0 -0.67504611497E+02 -0.55060240633E+02  0.10095709555E+03  0.13342761264E+03  0.47000000000E+01 0. -1.
         -5    1    1    2    0  502  0.94263074224E+02 -0.64326617992E+01  0.14731145675E+03  0.17507044750E+03  0.47000000000E+01 0.  1.
        -11    1    1    2    0    0 -0.28873059642E+02  0.73088185039E+02 -0.71517889545E+02  0.10625603461E+03  0.00000000000E+00 0. -1.
         11    1    1    2    0    0  0.21145969145E+01 -0.11595282607E+02  0.15956053089E+02  0.19837281291E+02  0.00000000000E+00 0.  1.
<mgrwt>
<rscale>  0 0.16237149E+03</rscale>
<asrwt>0</asrwt>
<pdfrwt beam="2">  1        3 0.18606512E-01 0.18312231E+03</pdfrwt>
<pdfrwt beam="1">  1       -3 0.48253699E-01 0.18312231E+03</pdfrwt>
<totfact> 0.26455504E+02</totfact>
</mgrwt>
</event>
<event>
 6    1  0.7270761E-006  0.1585159E+03  0.7546771E-02  0.1198022E+00
         -2   -1    0    0    0  501 -0.00000000000E+00  0.00000000000E+00  0.30638151113E+02  0.30638151113E+02  0.00000000000E+00 0.  1.
          2   -1    0    0  501    0  0.00000000000E+00 -0.00000000000E+00 -0.72142040820E+03  0.72142040820E+03  0.00000000000E+00 0. -1.
          5    1    1    2  502    0  0.22890562991E+02  0.12599715062E+02 -0.13110648030E+03  0.13376744697E+03  0.47000000000E+01 0. -1.
         -5    1    1    2    0  502 -0.51964873613E+02 -0.10564834210E+03 -0.17541152823E+03  0.21131307227E+03  0.47000000000E+01 0. -1.
        -11    1    1    2    0    0 -0.22720692847E+02 -0.49151422871E+01 -0.66260722468E+02  0.70220166969E+02  0.00000000000E+00 0. -1.
         11    1    1    2    0    0  0.51795003470E+02  0.97963769326E+02 -0.31800352610E+03  0.33675787310E+03  0.00000000000E+00 0.  1.
<mgrwt>
<rscale>  0 0.15201254E+03</rscale>
<asrwt>0</asrwt>
<pdfrwt beam="2">  1        2 0.11098775E+00 0.15851585E+03</pdfrwt>
<pdfrwt beam="1">  1       -2 0.47135618E-02 0.15851585E+03</pdfrwt>
<totfact> 0.83956011E+03</totfact>
</mgrwt>
</event>
<event>
 6    1  0.7270761E-006  0.1372880E+03  0.7546771E-02  0.1228080E+00
         -1   -1    0    0    0  501 -0.00000000000E+00  0.00000000000E+00  0.49182001031E+02  0.49182001031E+02  0.00000000000E+00 0.  1.
          1   -1    0    0  501    0  0.00000000000E+00 -0.00000000000E+00 -0.31303174533E+03  0.31303174533E+03  0.00000000000E+00 0. -1.
          5    1    1    2  502    0  0.46824706789E+02  0.42913707748E+02 -0.56856643696E+01  0.63941819319E+02  0.47000000000E+01 0.  1.
         -5    1    1    2    0  502  0.64985049615E+01 -0.23419954069E+02 -0.11889624074E+03  0.12144599984E+03  0.47000000000E+01 0.  1.
        -11    1    1    2    0    0 -0.99355479895E+01  0.35620989321E+02 -0.64183146808E+02  0.74074599751E+02  0.00000000000E+00 0. -1.
         11    1    1    2    0    0 -0.43387663761E+02 -0.55114743000E+02 -0.75084692382E+02  0.10275132745E+03  0.00000000000E+00 0.  1.
<mgrwt>
<rscale>  0 0.12958041E+03</rscale>
<asrwt>0</asrwt>
<pdfrwt beam="2">  1        1 0.48158732E-01 0.13728799E+03</pdfrwt>
<pdfrwt beam="1">  1       -1 0.75664615E-02 0.13728799E+03</pdfrwt>
<totfact> 0.74149873E+03</totfact>
</mgrwt>
</event>
<event>
 6    1  0.7270761E-006  0.1411011E+03  0.7546771E-02  0.1220165E+00
          2   -1    0    0  501    0  0.00000000000E+00  0.00000000000E+00  0.43833337689E+02  0.43833337689E+02  0.00000000000E+00 0. -1.
         -2   -1    0    0    0  501 -0.00000000000E+00 -0.00000000000E+00 -0.38741289349E+03  0.38741289349E+03  0.00000000000E+00 0.  1.
          5    1    1    2  502    0 -0.62967678874E+02  0.82870491761E+01 -0.79932114462E+02  0.10219998380E+03  0.47000000000E+01 0.  1.
         -5    1    1    2    0  502  0.36273799473E+02 -0.68081051694E+02 -0.86564673912E+02  0.11604460736E+03  0.47000000000E+01 0.  1.
        -11    1    1    2    0    0  0.50390326161E+02  0.74893087985E+02 -0.13582891737E+03  0.16308787322E+03  0.00000000000E+00 0. -1.
         11    1    1    2    0    0 -0.23696446760E+02 -0.15099085467E+02 -0.41253850064E+02  0.49913766799E+02  0.00000000000E+00 0.  1.
<mgrwt>
<rscale>  0 0.13503861E+03</rscale>
<asrwt>0</asrwt>
<pdfrwt beam="1">  1        2 0.67435904E-02 0.14110110E+03</pdfrwt>
<pdfrwt beam="2">  1       -2 0.59601984E-01 0.14110110E+03</pdfrwt>
<totfact> 0.27327634E+03</totfact>
</mgrwt>
</event>
<event>
 6    1  0.7270761E-006  0.2362590E+03  0.7546771E-02  0.1122310E+00
          3   -1    0    0  501    0  0.00000000000E+00  0.00000000000E+00  0.79356500890E+02  0.79356500890E+02  0.00000000000E+00 0. -1.
         -3   -1    0    0    0  501 -0.00000000000E+00 -0.00000000000E+00 -0.17584664397E+03  0.17584664397E+03  0.00000000000E+00 0.  1.
          5    1    1    2  502    0  0.92793580536E+01 -0.13209934758E+02  0.28031927068E+02  0.32687731603E+02  0.47000000000E+01 0. -1.
         -5    1    1    2    0  502 -0.44708615811E+02  0.70152608856E+01 -0.11528724343E+03  0.12394076291E+03  0.47000000000E+01 0. -1.
        -11    1    1    2    0    0  0.25261328101E+02  0.38123600435E+02  0.23769340558E+02  0.51541489677E+02  0.00000000000E+00 0. -1.
         11    1    1    2    0    0  0.10167929656E+02 -0.31928926563E+02 -0.33004167274E+02  0.47033160668E+02  0.00000000000E+00 0.  1.
<mgrwt>
<rscale>  0 0.23625896E+03</rscale>
<asrwt>0</asrwt>
<pdfrwt beam="1">  1        3 0.12208692E-01 0.23625896E+03</pdfrwt>
<pdfrwt beam="2">  1       -3 0.27053330E-01 0.23625896E+03</pdfrwt>
<totfact> 0.17153194E+03</totfact>
</mgrwt>
</event>
<event>
 6    1  0.7270761E-006  0.1292862E+03  0.7546771E-02  0.1242953E+00
         -2   -1    0    0    0  501 -0.00000000000E+00  0.00000000000E+00  0.46971780044E+03  0.46971780044E+03  0.00000000000E+00 0.  1.
          2   -1    0    0  501    0  0.00000000000E+00 -0.00000000000E+00 -0.22068194227E+03  0.22068194227E+03  0.00000000000E+00 0. -1.
          5    1    1    2  502    0  0.27547959137E+02  0.11728374323E+02  0.23252383577E+02  0.38199583229E+02  0.47000000000E+01 0. -1.
         -5    1    1    2    0  502 -0.27852058989E+02 -0.44736589353E+02  0.42641390870E+03  0.42968361750E+03  0.47000000000E+01 0. -1.
        -11    1    1    2    0    0 -0.31522488641E+01 -0.12136690884E+02  0.38234086221E+01  0.13109324621E+02  0.00000000000E+00 0.  1.
         11    1    1    2    0    0  0.34563487162E+01  0.45144905914E+02 -0.20445384272E+03  0.20940721736E+03  0.00000000000E+00 0. -1.
<mgrwt>
<rscale>  0 0.12008715E+03</rscale>
<asrwt>0</asrwt>
<pdfrwt beam="2">  1        2 0.33951068E-01 0.12928618E+03</pdfrwt>
<pdfrwt beam="1">  1       -2 0.72264277E-01 0.12928618E+03</pdfrwt>
<totfact> 0.27456849E+02</totfact>
</mgrwt>
</event>
<event>
 6    1  0.7270761E-006  0.1528486E+03  0.7546771E-02  0.1205647E+00
          2   -1    0    0  501    0  0.00000000000E+00  0.00000000000E+00  0.61641255023E+02  0.61641255023E+02  0.00000000000E+00 0. -1.
         -2   -1    0    0    0  501 -0.00000000000E+00 -0.00000000000E+00 -0.32329331530E+03  0.32329331530E+03  0.00000000000E+00 0.  1.
          5    1    1    2  502    0  0.60196065324E+02  0.32888725958E+01 -0.71112364564E+01  0.60885487987E+02  0.47000000000E+01 0.  1.
         -5    1    1    2    0  502  0.18593469202E+02  0.35842234544E+02 -0.16218591296E+03  0.16720270104E+03  0.47000000000E+01 0.  1.
        -11    1    1    2    0    0 -0.96679326520E+02 -0.37223267732E+02 -0.92456521391E+02  0.13885486014E+03  0.00000000000E+00 0.  1.
         11    1    1    2    0    0  0.17889791995E+02 -0.19078394075E+01  0.10161052437E+00  0.17991521156E+02  0.00000000000E+00 0. -1.
<mgrwt>
<rscale>  0 0.14586553E+03</rscale>
<asrwt>0</asrwt>
<pdfrwt beam="1">  1        2 0.94832701E-02 0.15284861E+03</pdfrwt>
<pdfrwt beam="2">  1       -2 0.49737433E-01 0.15284861E+03</pdfrwt>
<totfact> 0.25750585E+03</totfact>
</mgrwt>
</event>
<event>
 6    1  0.7270761E-006  0.1429522E+03  0.7546771E-02  0.1219968E+00
         -1   -1    0    0    0  501 -0.00000000000E+00  0.00000000000E+00  0.27440850822E+02  0.27440850822E+02  0.00000000000E+00 0.  1.
          1   -1    0    0  501    0  0.00000000000E+00 -0.00000000000E+00 -0.60524008917E+03  0.60524008917E+03  0.00000000000E+00 0. -1.
          5    1    1    2  502    0 -0.57303969269E+02 -0.81683895324E+02 -0.20194069193E+03  0.22529566508E+03  0.47000000000E+01 0.  1.
         -5    1    1    2    0  502  0.48651588097E-01  0.42559116697E+02 -0.99617305759E+02  0.10842960107E+03  0.47000000000E+01 0.  1.
        -11    1    1    2    0    0  0.74893801228E+01  0.37452595280E+02 -0.32409563032E+02  0.50091590948E+02  0.00000000000E+00 0.  1.
         11    1    1    2    0    0  0.49765937558E+02  0.16721833465E+01 -0.24383167763E+03  0.24886408290E+03  0.00000000000E+00 0. -1.
<mgrwt>
<rscale>  0 0.13517859E+03</rscale>
<asrwt>0</asrwt>
<pdfrwt beam="2">  1        1 0.93113865E-01 0.14295219E+03</pdfrwt>
<pdfrwt beam="1">  1       -1 0.42216691E-02 0.14295219E+03</pdfrwt>
<totfact> 0.75907187E+03</totfact>
</mgrwt>
</event>
<event>
 6    1  0.7270761E-006  0.1748630E+03  0.7546771E-02  0.1179317E+00
         -1   -1    0    0    0  501 -0.00000000000E+00  0.00000000000E+00  0.98991194871E+02  0.98991194871E+02  0.00000000000E+00 0.  1.
          1   -1    0    0  501    0  0.00000000000E+00 -0.00000000000E+00 -0.26841314848E+03  0.26841314848E+03  0.00000000000E+00 0. -1.
          5    1    1    2  502    0  0.53994653578E+02 -0.62054453335E+02 -0.50150658025E+01  0.82543435104E+02  0.47000000000E+01 0. -1.
         -5    1    1    2    0  502 -0.44518889592E+02 -0.59854244461E+02 -0.88209728227E+02  0.11561794093E+03  0.47000000000E+01 0. -1.
        -11    1    1    2    0    0 -0.76309519371E+01  0.12055561746E+02 -0.55675017186E+02  0.57474129268E+02  0.00000000000E+00 0.  1.
         11    1    1    2    0    0 -0.18448120489E+01  0.10985313605E+03 -0.20522142395E+02  0.11176883805E+03  0.00000000000E+00 0. -1.
<mgrwt>
<rscale>  0 0.16859851E+03</rscale>
<asrwt>0</asrwt>
<pdfrwt beam="2">  1        1 0.41294331E-01 0.17486300E+03</pdfrwt>
<pdfrwt beam="1">  1       -1 0.15229415E-01 0.17486300E+03</pdfrwt>
<totfact> 0.30987193E+03</totfact>
</mgrwt>
</event>
<event>
 6    1  0.7270761E-006  0.3648016E+03  0.7546771E-02  0.1056699E+00
         -1   -1    0    0    0  501 -0.00000000000E+00  0.00000000000E+00  0.94664474981E+02  0.94664474981E+02  0.00000000000E+00 0.  1.
          1   -1    0    0  501    0  0.00000000000E+00 -0.00000000000E+00 -0.35145232521E+03  0.35145232521E+03  0.00000000000E+00 0. -1.
          5    1    1    2  502    0 -0.23959049030E+02  0.94133196834E+01 -0.59556868245E+02  0.65051957488E+02  0.47000000000E+01 0. -1.
         -5    1    1    2    0  502  0.13207253220E+03  0.13877534680E+02  0.22655997926E+01  0.13290207927E+03  0.47000000000E+01 0.  1.
        -11    1    1    2    0    0 -0.56724166290E+02 -0.61188263739E+02 -0.12094750033E+03  0.14693513023E+03  0.00000000000E+00 0. -1.
         11    1    1    2    0    0 -0.51389316885E+02  0.37897409376E+02 -0.78549081451E+02  0.10122763320E+03  0.00000000000E+00 0.  1.
<mgrwt>
<rscale>  0 0.36480159E+03</rscale>
<asrwt>0</asrwt>
<pdfrwt beam="2">  1        1 0.54069589E-01 0.36480159E+03</pdfrwt>
<pdfrwt beam="1">  1       -1 0.14563765E-01 0.36480159E+03</pdfrwt>
<totfact> 0.24210472E+03</totfact>
</mgrwt>
</event>
<event>
 6    1  0.7270761E-006  0.1323845E+03  0.7546771E-02  0.1237029E+00
          1   -1    0    0  501    0  0.00000000000E+00  0.00000000000E+00  0.12314263931E+03  0.12314263931E+03  0.00000000000E+00 0. -1.
         -1   -1    0    0    0  501 -0.00000000000E+00 -0.00000000000E+00 -0.11696311566E+03  0.11696311566E+03  0.00000000000E+00 0.  1.
          5    1    1    2  502    0 -0.11943350357E+02 -0.55223174211E+02  0.16530058646E+02  0.59055697664E+02  0.47000000000E+01 0. -1.
         -5    1    1    2    0  502  0.51560333221E+02  0.36986480547E+02 -0.40659154459E+02  0.75509764577E+02  0.47000000000E+01 0. -1.
        -11    1    1    2    0    0  0.11391938013E+02  0.57994627237E+01 -0.25741292170E+02  0.28740635730E+02  0.00000000000E+00 0.  1.
         11    1    1    2    0    0 -0.51008920877E+02  0.12437230940E+02  0.56049911633E+02  0.76799657008E+02  0.00000000000E+00 0. -1.
<mgrwt>
<rscale>  0 0.12375419E+03</rscale>
<asrwt>0</asrwt>
<pdfrwt beam="1">  1        1 0.18945021E-01 0.13238448E+03</pdfrwt>
<pdfrwt beam="2">  1       -1 0.17994325E-01 0.13238448E+03</pdfrwt>
<totfact> 0.62292202E+03</totfact>
</mgrwt>
</event>
<event>
 6    1  0.7270761E-006  0.1327643E+03  0.7546771E-02  0.1236968E+00
         -1   -1    0    0    0  501 -0.00000000000E+00  0.00000000000E+00  0.66211543880E+03  0.66211543880E+03  0.00000000000E+00 0.  1.
          1   -1    0    0  501    0  0.00000000000E+00 -0.00000000000E+00 -0.28580862937E+02  0.28580862937E+02  0.00000000000E+00 0. -1.
          5    1    1    2  502    0 -0.26583736808E+02 -0.32816995873E+01  0.26810163697E+02  0.38188211431E+02  0.47000000000E+01 0.  1.
         -5    1    1    2    0  502  0.67840962844E+02  0.20476313226E+02  0.50371220136E+03  0.50869415904E+03  0.47000000000E+01 0.  1.
        -11    1    1    2    0    0 -0.67839840441E+02  0.10767067504E+01  0.64992722656E+02  0.93954548834E+02  0.00000000000E+00 0. -1.
         11    1    1    2    0    0  0.26582614404E+02 -0.18271320389E+02  0.38019488158E+02  0.49859382438E+02  0.00000000000E+00 0.  1.
<mgrwt>
<rscale>  0 0.12379257E+03</rscale>
<asrwt>0</asrwt>
<pdfrwt beam="2">  1        1 0.43970563E-02 0.13276425E+03</pdfrwt>
<pdfrwt beam="1">  1       -1 0.10186390E+00 0.13276425E+03</pdfrwt>
<totfact> 0.18701511E+03</totfact>
</mgrwt>
</event>
<event>
 6    1  0.7270761E-006  0.1341889E+03  0.7546771E-02  0.1227904E+00
         -1   -1    0    0    0  501 -0.00000000000E+00  0.00000000000E+00  0.90105699106E+03  0.90105699106E+03  0.00000000000E+00 0.  1.
          1   -1    0    0  501    0  0.00000000000E+00 -0.00000000000E+00 -0.26280831290E+02  0.26280831290E+02  0.00000000000E+00 0. -1.
          5    1    1    2  502    0 -0.89964811709E+02  0.24565252300E+00  0.38085465316E+03  0.39136438842E+03  0.47000000000E+01 0. -1.
         -5    1    1    2    0  502  0.19996702597E+02  0.28759740709E+02  0.34362996943E+03  0.34544266774E+03  0.47000000000E+01 0.  1.
        -11    1    1    2    0    0  0.85618740440E+02 -0.35695574981E+02  0.14600223462E+03  0.17297801970E+03  0.00000000000E+00 0.  1.
         11    1    1    2    0    0 -0.15650631328E+02  0.66901817487E+01  0.42893025596E+01  0.17552746488E+02  0.00000000000E+00 0. -1.
<mgrwt>
<rscale>  0 0.12969843E+03</rscale>
<asrwt>0</asrwt>
<pdfrwt beam="2">  1        1 0.40432055E-02 0.13418893E+03</pdfrwt>
<pdfrwt beam="1">  1       -1 0.13862413E+00 0.13418893E+03</pdfrwt>
<totfact> 0.10193475E+03</totfact>
</mgrwt>
</event>
<event>
 6    1  0.7270761E-006  0.1409985E+03  0.7546771E-02  0.1222009E+00
          1   -1    0    0  501    0  0.00000000000E+00  0.00000000000E+00  0.53312088797E+02  0.53312088797E+02  0.00000000000E+00 0. -1.
         -1   -1    0    0    0  501 -0.00000000000E+00 -0.00000000000E+00 -0.69455448197E+03  0.69455448197E+03  0.00000000000E+00 0.  1.
          5    1    1    2  502    0  0.15374990358E+02  0.38876260767E+02 -0.10096455424E+03  0.10937863225E+03  0.47000000000E+01 0. -1.
         -5    1    1    2    0  502 -0.84759601618E+02 -0.24644063365E+02 -0.51376949661E+03  0.52131823829E+03  0.47000000000E+01 0.  1.
        -11    1    1    2    0    0 -0.17797908295E+02 -0.17553791177E+02 -0.15039331104E+02  0.29173320078E+02  0.00000000000E+00 0.  1.
         11    1    1    2    0    0  0.87182519554E+02  0.33215937751E+01 -0.11469011217E+02  0.87996380149E+02  0.00000000000E+00 0. -1.
<mgrwt>
<rscale>  0 0.13374038E+03</rscale>
<asrwt>0</asrwt>
<pdfrwt beam="1">  1        1 0.82018604E-02 0.14099854E+03</pdfrwt>
<pdfrwt beam="2">  1       -1 0.10685453E+00 0.14099854E+03</pdfrwt>
<totfact> 0.72236015E+02</totfact>
</mgrwt>
</event>
<event>
 6    1  0.7270761E-006  0.1641556E+03  0.7546771E-02  0.1191077E+00
         -2   -1    0    0    0  501 -0.00000000000E+00  0.00000000000E+00  0.25736345252E+02  0.25736345252E+02  0.00000000000E+00 0.  1.
          2   -1    0    0  501    0  0.00000000000E+00 -0.00000000000E+00 -0.10016824799E+04  0.10016824799E+04  0.00000000000E+00 0. -1.
          5    1    1    2  502    0 -0.63149329255E+02 -0.26527910911E+01 -0.63172330568E+03  0.63489471570E+03  0.47000000000E+01 0.  1.
         -5    1    1    2    0  502 -0.42212528505E+02 -0.12190614350E+02 -0.51908158349E+02  0.68169315269E+02  0.47000000000E+01 0.  1.
        -11    1    1    2    0    0  0.11387356071E+03  0.31649539619E+02 -0.27243176073E+03  0.29696455250E+03  0.00000000000E+00 0.  1.
         11    1    1    2    0    0 -0.85117029497E+01 -0.16806134178E+02 -0.19882909849E+02  0.27390241642E+02  0.00000000000E+00 0. -1.
<mgrwt>
<rscale>  0 0.15791015E+03</rscale>
<asrwt>0</asrwt>
<pdfrwt beam="2">  1        2 0.15410498E+00 0.16415558E+03</pdfrwt>
<pdfrwt beam="1">  1       -2 0.39594382E-02 0.16415558E+03</pdfrwt>
<totfact> 0.71537915E+03</totfact>
</mgrwt>
</event>
<event>
 6    1  0.7270761E-006  0.2598660E+03  0.7546771E-02  0.1107224E+00
          3   -1    0    0  501    0  0.00000000000E+00  0.00000000000E+00  0.31832368598E+02  0.31832368598E+02  0.00000000000E+00 0. -1.
         -3   -1    0    0    0  501 -0.00000000000E+00 -0.00000000000E+00 -0.53035908909E+03  0.53035908909E+03  0.00000000000E+00 0.  1.
          5    1    1    2  502    0 -0.12428633312E+02 -0.42343132579E+02 -0.39859687947E+03  0.40105981365E+03  0.47000000000E+01 0.  1.
         -5    1    1    2    0  502  0.82266154872E+01  0.33170484838E+01  0.67576971117E+01  0.12101094301E+02  0.47000000000E+01 0.  1.
        -11    1    1    2    0    0 -0.39795441102E+02  0.35563764050E+02 -0.83703006298E+02  0.99270598413E+02  0.00000000000E+00 0.  1.
         11    1    1    2    0    0  0.43997458928E+02  0.34623200452E+01 -0.22984531840E+02  0.49759951327E+02  0.00000000000E+00 0. -1.
<mgrwt>
<rscale>  0 0.25986601E+03</rscale>
<asrwt>0</asrwt>
<pdfrwt beam="1">  1        3 0.48972878E-02 0.25986601E+03</pdfrwt>
<pdfrwt beam="2">  1       -3 0.81593701E-01 0.25986601E+03</pdfrwt>
<totfact> 0.84962174E+02</totfact>
</mgrwt>
</event>
<event>
 6    1  0.7270761E-006  0.1710979E+03  0.7546771E-02  0.1182238E+00
          1   -1    0    0  501    0  0.00000000000E+00  0.00000000000E+00  0.67666523534E+03  0.67666523534E+03  0.00000000000E+00 0. -1.
         -1   -1    0    0    0  501 -0.00000000000E+00 -0.00000000000E+00 -0.45112309376E+02  0.45112309376E+02  0.00000000000E+00 0.  1.
          5    1    1    2  502    0 -0.63243338716E+02  0.58389133097E+02  0.50230427586E+02  0.99770720209E+02  0.47000000000E+01 0.  1.
         -5    1    1    2    0  502  0.38633941820E+02  0.55821605731E+02  0.14272444457E+03  0.15811701428E+03  0.47000000000E+01 0.  1.
        -11    1    1    2    0    0 -0.16892045932E+02 -0.87850052658E+02  0.36184849224E+03  0.37274294669E+03  0.00000000000E+00 0. -1.
         11    1    1    2    0    0  0.41501442828E+02 -0.26360686170E+02  0.76749561567E+02  0.91146863539E+02  0.00000000000E+00 0.  1.
<mgrwt>
<rscale>  0 0.16585788E+03</rscale>
<asrwt>0</asrwt>
<pdfrwt beam="1">  1        1 0.10410234E+00 0.17109793E+03</pdfrwt>
<pdfrwt beam="2">  1       -1 0.69403558E-02 0.17109793E+03</pdfrwt>
<totfact> 0.31234714E+03</totfact>
</mgrwt>
</event>
<event>
 6    1  0.7270761E-006  0.1258989E+03  0.7546771E-02  0.1248936E+00
          3   -1    0    0  501    0  0.00000000000E+00  0.00000000000E+00  0.24799759267E+03  0.24799759267E+03  0.00000000000E+00 0. -1.
         -3   -1    0    0    0  501 -0.00000000000E+00 -0.00000000000E+00 -0.51745031641E+02  0.51745031641E+02  0.00000000000E+00 0.  1.
          5    1    1    2  502    0 -0.22993374991E+02  0.58254709652E+02  0.72112171706E+02  0.95627202188E+02  0.47000000000E+01 0.  1.
         -5    1    1    2    0  502  0.24034154949E+02 -0.43156728371E+02  0.32255152671E+00  0.49621949249E+02  0.47000000000E+01 0.  1.
        -11    1    1    2    0    0  0.52391709416E+01 -0.48532056013E+02  0.37010540604E+02  0.61258383008E+02  0.00000000000E+00 0.  1.
         11    1    1    2    0    0 -0.62799508996E+01  0.33434074732E+02  0.86807297195E+02  0.93235089869E+02  0.00000000000E+00 0. -1.
<mgrwt>
<rscale>  0 0.11652844E+03</rscale>
<asrwt>0</asrwt>
<pdfrwt beam="1">  1        3 0.38153475E-01 0.12589888E+03</pdfrwt>
<pdfrwt beam="2">  1       -3 0.79607743E-02 0.12589888E+03</pdfrwt>
<totfact> 0.16593251E+03</totfact>
</mgrwt>
</event>
<event>
 6    1  0.7270761E-006  0.1304884E+03  0.7546771E-02  0.1237229E+00
         -2   -1    0    0    0  501 -0.00000000000E+00  0.00000000000E+00  0.91643773973E+02  0.91643773973E+02  0.00000000000E+00 0.  1.
          2   -1    0    0  501    0  0.00000000000E+00 -0.00000000000E+00 -0.16614888870E+03  0.16614888870E+03  0.00000000000E+00 0. -1.
          5    1    1    2  502    0 -0.45893565675E+02 -0.23269207529E+02 -0.29935318007E+02  0.59715062200E+02  0.47000000000E+01 0. -1.
         -5    1    1    2    0  502  0.30752542046E+02  0.57511024127E+02  0.27160904055E+02  0.70802835025E+02  0.47000000000E+01 0. -1.
        -11    1    1    2    0    0 -0.72619713954E+01  0.33236596017E+02 -0.22207754887E+02  0.40627477407E+02  0.00000000000E+00 0. -1.
         11    1    1    2    0    0  0.22402995025E+02 -0.67478412615E+02 -0.49522945884E+02  0.86647288037E+02  0.00000000000E+00 0.  1.
<mgrwt>
<rscale>  0 0.12362798E+03</rscale>
<asrwt>0</asrwt>
<pdfrwt beam="2">  1        2 0.25561367E-01 0.13048841E+03</pdfrwt>
<pdfrwt beam="1">  1       -2 0.14099042E-01 0.13048841E+03</pdfrwt>
<totfact> 0.75183593E+03</totfact>
</mgrwt>
</event>
<event>
 6    1  0.7270761E-006  0.2982486E+03  0.7546771E-02  0.1086119E+00
          2   -1    0    0  501    0  0.00000000000E+00  0.00000000000E+00  0.60613770819E+02  0.60613770819E+02  0.00000000000E+00 0. -1.
         -2   -1    0    0    0  501 -0.00000000000E+00 -0.00000000000E+00 -0.36688131521E+03  0.36688131521E+03  0.00000000000E+00 0.  1.
          5    1    1    2  502    0 -0.28595443147E+01 -0.10230140646E+03 -0.11789118059E+03  0.15618634773E+03  0.47000000000E+01 0. -1.
         -5    1    1    2    0  502 -0.36577090167E+02  0.21974261080E+02 -0.11614410820E+03  0.12382364695E+03  0.47000000000E+01 0. -1.
        -11    1    1    2    0    0  0.51402633216E+02  0.22565794215E+02 -0.25607507031E+01  0.56196113871E+02  0.00000000000E+00 0. -1.
         11    1    1    2    0    0 -0.11965998734E+02  0.57761351160E+02 -0.69671504899E+02  0.91288977475E+02  0.00000000000E+00 0.  1.
<mgrwt>
<rscale>  0 0.29824862E+03</rscale>
<asrwt>0</asrwt>
<pdfrwt beam="1">  1        2 0.93251956E-02 0.29824862E+03</pdfrwt>
<pdfrwt beam="2">  1       -2 0.56443279E-01 0.29824862E+03</pdfrwt>
<totfact> 0.21010456E+03</totfact>
</mgrwt>
</event>
<event>
 6    1  0.7270761E-006  0.1595544E+03  0.7546771E-02  0.1202184E+00
         -1   -1    0    0    0  501 -0.00000000000E+00  0.00000000000E+00  0.14469113442E+03  0.14469113442E+03  0.00000000000E+00 0.  1.
          1   -1    0    0  501    0  0.00000000000E+00 -0.00000000000E+00 -0.13513645061E+03  0.13513645061E+03  0.00000000000E+00 0. -1.
          5    1    1    2  502    0 -0.23357983453E+02  0.40374256356E+02 -0.10351021374E+02  0.48009474177E+02  0.47000000000E+01 0. -1.
         -5    1    1    2    0  502  0.90807346820E+02 -0.62557662852E+02  0.17107196974E+02  0.11168787582E+03  0.47000000000E+01 0.  1.
        -11    1    1    2    0    0 -0.39652622878E+01 -0.12898408860E+02  0.37405251189E+02  0.39764872346E+02  0.00000000000E+00 0.  1.
         11    1    1    2    0    0 -0.63484101079E+02  0.35081815356E+02 -0.34606742977E+02  0.80365362676E+02  0.00000000000E+00 0. -1.
<mgrwt>
<rscale>  0 0.14861586E+03</rscale>
<asrwt>0</asrwt>
<pdfrwt beam="2">  1        1 0.20790223E-01 0.15955437E+03</pdfrwt>
<pdfrwt beam="1">  1       -1 0.22260175E-01 0.15955437E+03</pdfrwt>
<totfact> 0.39746861E+03</totfact>
</mgrwt>
</event>
<event>
 6    1  0.7270761E-006  0.1328182E+03  0.7546771E-02  0.1233484E+00
          1   -1    0    0  501    0  0.00000000000E+00  0.00000000000E+00  0.54162982340E+03  0.54162982340E+03  0.00000000000E+00 0. -1.
         -1   -1    0    0    0  501 -0.00000000000E+00 -0.00000000000E+00 -0.26876979977E+02  0.26876979977E+02  0.00000000000E+00 0.  1.
          5    1    1    2  502    0  0.41123840171E+02 -0.92979017362E+01  0.24815617307E+02  0.49148001683E+02  0.47000000000E+01 0. -1.
         -5    1    1    2    0  502 -0.29059012550E+02  0.52553847533E+02  0.23564806162E+03  0.24322506459E+03  0.47000000000E+01 0. -1.
        -11    1    1    2    0    0  0.20041568350E+02  0.22095417177E+02  0.40605080431E+02  0.50384962825E+02  0.00000000000E+00 0.  1.
         11    1    1    2    0    0 -0.32106395971E+02 -0.65351362973E+02  0.21368408406E+03  0.22574877428E+03  0.00000000000E+00 0. -1.
<mgrwt>
<rscale>  0 0.12601986E+03</rscale>
<asrwt>0</asrwt>
<pdfrwt beam="1">  1        1 0.83327657E-01 0.13281823E+03</pdfrwt>
<pdfrwt beam="2">  1       -1 0.41349204E-02 0.13281823E+03</pdfrwt>
<totfact> 0.90458661E+03</totfact>
</mgrwt>
</event>
<event>
 6    1  0.7270761E-006  0.1259515E+03  0.7546771E-02  0.1248885E+00
         -3   -1    0    0    0  501 -0.00000000000E+00  0.00000000000E+00  0.50352514607E+03  0.50352514607E+03  0.00000000000E+00 0.  1.
          3   -1    0    0  501    0  0.00000000000E+00 -0.00000000000E+00 -0.30057235813E+02  0.30057235813E+02  0.00000000000E+00 0. -1.
          5    1    1    2  502    0  0.47489900704E+02 -0.26402243310E+02  0.33998797584E+03  0.34433455075E+03  0.47000000000E+01 0. -1.
         -5    1    1    2    0  502 -0.38194608734E+02  0.15493133155E+02  0.47276040213E+02  0.62896576135E+02  0.47000000000E+01 0. -1.
        -11    1    1    2    0    0 -0.38618675370E+02  0.33375317907E+02  0.68396433719E+02  0.85342756449E+02  0.00000000000E+00 0. -1.
         11    1    1    2    0    0  0.29323383399E+02 -0.22466207753E+02  0.17807460486E+02  0.41008498555E+02  0.00000000000E+00 0.  1.
<mgrwt>
<rscale>  0 0.11655838E+03</rscale>
<asrwt>0</asrwt>
<pdfrwt beam="2">  1        3 0.46241905E-02 0.12595147E+03</pdfrwt>
<pdfrwt beam="1">  1       -3 0.77465401E-01 0.12595147E+03</pdfrwt>
<totfact> 0.94159608E+02</totfact>
</mgrwt>
</event>
<event>
 6    1  0.7270761E-006  0.1307382E+03  0.7546771E-02  0.1239729E+00
          1   -1    0    0  501    0  0.00000000000E+00  0.00000000000E+00  0.42958750835E+02  0.42958750835E+02  0.00000000000E+00 0. -1.
         -1   -1    0    0    0  501 -0.00000000000E+00 -0.00000000000E+00 -0.36114470752E+03  0.36114470752E+03  0.00000000000E+00 0.  1.
          5    1    1    2  502    0  0.52158921355E+02 -0.28109095632E+02 -0.14511693195E+03  0.15681737236E+03  0.47000000000E+01 0.  1.
         -5    1    1    2    0  502 -0.32186844842E+02  0.60785781374E+02 -0.10932597829E+03  0.12924845735E+03  0.47000000000E+01 0.  1.
        -11    1    1    2    0    0  0.18772161211E+02 -0.52543579528E+02 -0.35003750656E+02  0.65867171991E+02  0.00000000000E+00 0. -1.
         11    1    1    2    0    0 -0.38744237724E+02  0.19866893787E+02 -0.28739295790E+02  0.52170456659E+02  0.00000000000E+00 0.  1.
<mgrwt>
<rscale>  0 0.12206461E+03</rscale>
<asrwt>0</asrwt>
<pdfrwt beam="1">  1        1 0.66090385E-02 0.13073815E+03</pdfrwt>
<pdfrwt beam="2">  1       -1 0.55560725E-01 0.13073815E+03</pdfrwt>
<totfact> 0.36481982E+03</totfact>
</mgrwt>
</event>
<event>
 6    1  0.7270761E-006  0.1304328E+03  0.7546771E-02  0.1241013E+00
         -2   -1    0    0    0  501 -0.00000000000E+00  0.00000000000E+00  0.47495371188E+02  0.47495371188E+02  0.00000000000E+00 0.  1.
          2   -1    0    0  501    0  0.00000000000E+00 -0.00000000000E+00 -0.27427232984E+03  0.27427232984E+03  0.00000000000E+00 0. -1.
          5    1    1    2  502    0  0.13922377077E+01  0.44868575763E+02 -0.23359155878E+02  0.50821920272E+02  0.47000000000E+01 0.  1.
         -5    1    1    2    0  502  0.82969978926E+01 -0.80829981654E+02 -0.97393661915E+02  0.12692494431E+03  0.47000000000E+01 0.  1.
        -11    1    1    2    0    0 -0.47817851608E+01  0.62232869317E+02 -0.43658546621E+02  0.76169969055E+02  0.00000000000E+00 0.  1.
         11    1    1    2    0    0 -0.49074504395E+01 -0.26271463425E+02 -0.62365594236E+02  0.67850867384E+02  0.00000000000E+00 0. -1.
<mgrwt>
<rscale>  0 0.12127199E+03</rscale>
<asrwt>0</asrwt>
<pdfrwt beam="2">  1        2 0.42195743E-01 0.13043276E+03</pdfrwt>
<pdfrwt beam="1">  1       -2 0.73069802E-02 0.13043276E+03</pdfrwt>
<totfact> 0.12332456E+04</totfact>
</mgrwt>
</event>
<event>
 6    1  0.7270761E-006  0.1561506E+03  0.7546771E-02  0.1201819E+00
         -2   -1    0    0    0  501 -0.00000000000E+00  0.00000000000E+00  0.78326253973E+02  0.78326253973E+02  0.00000000000E+00 0.  1.
          2   -1    0    0  501    0  0.00000000000E+00 -0.00000000000E+00 -0.28068594268E+03  0.28068594268E+03  0.00000000000E+00 0. -1.
          5    1    1    2  502    0  0.60779215709E+01  0.10021165901E+03 -0.31399414648E+02  0.10529639582E+03  0.47000000000E+01 0.  1.
         -5    1    1    2    0  502 -0.51455921886E+02 -0.18368549347E+02 -0.29860951334E+02  0.62441027512E+02  0.47000000000E+01 0.  1.
        -11    1    1    2    0    0  0.59029288790E+02 -0.25342826296E+02 -0.10424772592E+03  0.12245123168E+03  0.00000000000E+00 0. -1.
         11    1    1    2    0    0 -0.13651288475E+02 -0.56500283368E+02 -0.36851596806E+02  0.68823541647E+02  0.00000000000E+00 0.  1.
<mgrwt>
<rscale>  0 0.14890955E+03</rscale>
<asrwt>0</asrwt>
<pdfrwt beam="2">  1        2 0.43182452E-01 0.15615060E+03</pdfrwt>
<pdfrwt beam="1">  1       -2 0.12050193E-01 0.15615060E+03</pdfrwt>
<totfact> 0.55667717E+03</totfact>
</mgrwt>
</event>
<event>
 6    1  0.7270761E-006  0.2486887E+03  0.7546771E-02  0.1114136E+00
         -2   -1    0    0    0  501 -0.00000000000E+00  0.00000000000E+00  0.62480628692E+02  0.62480628692E+02  0.00000000000E+00 0.  1.
          2   -1    0    0  501    0  0.00000000000E+00 -0.00000000000E+00 -0.24746104292E+03  0.24746104292E+03  0.00000000000E+00 0. -1.
          5    1    1    2  502    0 -0.13309180668E+02 -0.20991340309E+02 -0.85358910491E+02  0.89028109371E+02  0.47000000000E+01 0. -1.
         -5    1    1    2    0  502  0.18233798139E+01  0.79195959661E+02 -0.12239138067E+02  0.80294528089E+02  0.47000000000E+01 0. -1.
        -11    1    1    2    0    0 -0.10034650922E+02 -0.30652933592E+02 -0.98728651486E+02  0.10386357967E+03  0.00000000000E+00 0. -1.
         11    1    1    2    0    0  0.21520451777E+02 -0.27551685760E+02  0.11346285812E+02  0.36755454488E+02  0.00000000000E+00 0.  1.
<mgrwt>
<rscale>  0 0.24868873E+03</rscale>
<asrwt>0</asrwt>
<pdfrwt beam="2">  1        2 0.38070929E-01 0.24868873E+03</pdfrwt>
<pdfrwt beam="1">  1       -2 0.96124046E-02 0.24868873E+03</pdfrwt>
<totfact> 0.93951491E+03</totfact>
</mgrwt>
</event>
<event>
 6    1  0.7270761E-006  0.1317474E+03  0.7546771E-02  0.1237919E+00
          1   -1    0    0  501    0  0.00000000000E+00  0.00000000000E+00  0.60592119364E+02  0.60592119364E+02  0.00000000000E+00 0. -1.
         -1   -1    0    0    0  501 -0.00000000000E+00 -0.00000000000E+00 -0.22329896253E+03  0.22329896253E+03  0.00000000000E+00 0.  1.
          5    1    1    2  502    0  0.43716423132E+02  0.41539305353E+02 -0.10349180030E+03  0.11987194113E+03  0.47000000000E+01 0.  1.
         -5    1    1    2    0  502 -0.33747464282E+02 -0.11495198607E+01  0.16630533570E+02  0.37932537329E+02  0.47000000000E+01 0.  1.
        -11    1    1    2    0    0  0.24263600171E+02 -0.54183037895E+02 -0.27942329295E+02  0.65614767051E+02  0.00000000000E+00 0. -1.
         11    1    1    2    0    0 -0.34232559022E+02  0.13793252402E+02 -0.47903247143E+02  0.60471836385E+02  0.00000000000E+00 0.  1.
<mgrwt>
<rscale>  0 0.12319399E+03</rscale>
<asrwt>0</asrwt>
<pdfrwt beam="1">  1        1 0.93218647E-02 0.13174739E+03</pdfrwt>
<pdfrwt beam="2">  1       -1 0.34353686E-01 0.13174739E+03</pdfrwt>
<totfact> 0.54188855E+03</totfact>
</mgrwt>
</event>
<event>
 6    1  0.7270761E-006  0.3484974E+03  0.7546771E-02  0.1063233E+00
         -1   -1    0    0    0  501 -0.00000000000E+00  0.00000000000E+00  0.27125627065E+02  0.27125627065E+02  0.00000000000E+00 0.  1.
          1   -1    0    0  501    0  0.00000000000E+00 -0.00000000000E+00 -0.11193327902E+04  0.11193327902E+04  0.00000000000E+00 0. -1.
          5    1    1    2  502    0  0.40577981407E+02 -0.18136128934E+02 -0.49363786413E+02  0.66591029102E+02  0.47000000000E+01 0. -1.
         -5    1    1    2    0  502  0.58832917597E+02  0.89328812324E+02 -0.44793719321E+03  0.46055484795E+03  0.47000000000E+01 0. -1.
        -11    1    1    2    0    0  0.53060064363E+01 -0.54047173812E+02 -0.10690341370E+03  0.11990659099E+03  0.00000000000E+00 0. -1.
         11    1    1    2    0    0 -0.10471690544E+03 -0.17145509577E+02 -0.48800276984E+03  0.49940594926E+03  0.00000000000E+00 0.  1.
<mgrwt>
<rscale>  0 0.34849737E+03</rscale>
<asrwt>0</asrwt>
<pdfrwt beam="2">  1        1 0.17220504E+00 0.34849737E+03</pdfrwt>
<pdfrwt beam="1">  1       -1 0.41731734E-02 0.34849737E+03</pdfrwt>
<totfact> 0.30228970E+03</totfact>
</mgrwt>
</event>
<event>
 6    1  0.7270761E-006  0.1288761E+03  0.7546771E-02  0.1317398E+00
         -2   -1    0    0    0  501 -0.00000000000E+00  0.00000000000E+00  0.14354384603E+03  0.14354384603E+03  0.00000000000E+00 0.  1.
          2   -1    0    0  501    0  0.00000000000E+00 -0.00000000000E+00 -0.43439820330E+02  0.43439820330E+02  0.00000000000E+00 0. -1.
          5    1    1    2  502    0  0.42818544779E+02  0.44110403859E+02  0.36236598506E+02  0.71514589958E+02  0.47000000000E+01 0. -1.
         -5    1    1    2    0  502 -0.26512651607E+02 -0.59944809778E+02  0.64278608147E+02  0.91924590724E+02  0.47000000000E+01 0.  1.
        -11    1    1    2    0    0 -0.10380841807E+02  0.64209886380E+01 -0.17889742628E+01  0.12336587884E+02  0.00000000000E+00 0.  1.
         11    1    1    2    0    0 -0.59250513655E+01  0.94134172809E+01  0.13777933128E+01  0.11207897796E+02  0.00000000000E+00 0. -1.
<mgrwt>
<rscale>  0 0.84252952E+02</rscale>
<asrwt>0</asrwt>
<pdfrwt beam="2">  1        2 0.66830494E-02 0.12887614E+03</pdfrwt>
<pdfrwt beam="1">  1       -2 0.22083668E-01 0.12887614E+03</pdfrwt>
<totfact> 0.17506138E+04</totfact>
</mgrwt>
</event>
<event>
 6    1  0.7270761E-006  0.1491510E+03  0.7546771E-02  0.1210978E+00
         -2   -1    0    0    0  501 -0.00000000000E+00  0.00000000000E+00  0.20411884953E+03  0.20411884953E+03  0.00000000000E+00 0.  1.
          2   -1    0    0  501    0  0.00000000000E+00 -0.00000000000E+00 -0.13178661407E+03  0.13178661407E+03  0.00000000000E+00 0. -1.
          5    1    1    2  502    0  0.10379154787E+03  0.80429285240E+01  0.14049958249E+03  0.17492740433E+03  0.47000000000E+01 0. -1.
         -5    1    1    2    0  502 -0.23167187415E+02  0.28931840937E+01 -0.74391142335E+01  0.24950340829E+02  0.47000000000E+01 0. -1.
        -11    1    1    2    0    0 -0.79642502421E+02  0.11305689540E+02 -0.74672737795E+02  0.10975775407E+03  0.00000000000E+00 0.  1.
         11    1    1    2    0    0 -0.98185802946E+00 -0.22241802157E+02  0.13944505001E+02  0.26269964372E+02  0.00000000000E+00 0. -1.
<mgrwt>
<rscale>  0 0.14176194E+03</rscale>
<asrwt>0</asrwt>
<pdfrwt beam="2">  1        2 0.20274864E-01 0.14915101E+03</pdfrwt>
<pdfrwt beam="1">  1       -2 0.31402900E-01 0.14915101E+03</pdfrwt>
<totfact> 0.24966254E+03</totfact>
</mgrwt>
</event>
<event>
 6    1  0.7270761E-006  0.1405789E+03  0.7546771E-02  0.1223202E+00
          2   -1    0    0  501    0  0.00000000000E+00  0.00000000000E+00  0.10859274045E+03  0.10859274045E+03  0.00000000000E+00 0. -1.
         -2   -1    0    0    0  501 -0.00000000000E+00 -0.00000000000E+00 -0.17022714289E+03  0.17022714289E+03  0.00000000000E+00 0.  1.
          5    1    1    2  502    0  0.36345468234E+02  0.69178809941E+02 -0.68788410008E+02  0.10421437596E+03  0.47000000000E+01 0.  1.
         -5    1    1    2    0  502  0.25538240187E+02 -0.51603720885E+02 -0.15955401846E+02  0.59931715886E+02  0.47000000000E+01 0.  1.
        -11    1    1    2    0    0 -0.47304483081E+02 -0.44131537432E+02  0.43676047795E+02  0.78057055201E+02  0.00000000000E+00 0. -1.
         11    1    1    2    0    0 -0.14579225340E+02  0.26556448376E+02 -0.20566638378E+02  0.36616736283E+02  0.00000000000E+00 0.  1.
<mgrwt>
<rscale>  0 0.13290932E+03</rscale>
<asrwt>0</asrwt>
<pdfrwt beam="1">  1        2 0.16706575E-01 0.14057890E+03</pdfrwt>
<pdfrwt beam="2">  1       -2 0.26188791E-01 0.14057890E+03</pdfrwt>
<totfact> 0.42965072E+03</totfact>
</mgrwt>
</event>
<event>
 6    1  0.7270761E-006  0.2167114E+03  0.7546771E-02  0.1139661E+00
          1   -1    0    0  501    0  0.00000000000E+00  0.00000000000E+00  0.60544115737E+02  0.60544115737E+02  0.00000000000E+00 0. -1.
         -1   -1    0    0    0  501 -0.00000000000E+00 -0.00000000000E+00 -0.72005823862E+03  0.72005823862E+03  0.00000000000E+00 0.  1.
          5    1    1    2  502    0 -0.49470964366E+02  0.14004977458E+00 -0.22798328903E+03  0.23333637952E+03  0.47000000000E+01 0. -1.
         -5    1    1    2    0  502 -0.11124303118E+03  0.74102762378E+02 -0.13928844682E+03  0.19310513405E+03  0.47000000000E+01 0. -1.
        -11    1    1    2    0    0  0.16016045096E+02 -0.18989725787E+02 -0.11989321397E+03  0.12243980620E+03  0.00000000000E+00 0.  1.
         11    1    1    2    0    0  0.14469795045E+03 -0.55253086366E+02 -0.17234917306E+03  0.23172103459E+03  0.00000000000E+00 0. -1.
<mgrwt>
<rscale>  0 0.21242312E+03</rscale>
<asrwt>0</asrwt>
<pdfrwt beam="1">  1        1 0.93144788E-02 0.21671141E+03</pdfrwt>
<pdfrwt beam="2">  1       -1 0.11077820E+00 0.21671141E+03</pdfrwt>
<totfact> 0.56360890E+02</totfact>
</mgrwt>
</event>
<event>
 6    1  0.7270761E-006  0.1723327E+03  0.7546771E-02  0.1181914E+00
          4   -1    0    0  501    0  0.00000000000E+00  0.00000000000E+00  0.18550629812E+03  0.18550629812E+03  0.00000000000E+00 0. -1.
         -4   -1    0    0    0  501 -0.00000000000E+00 -0.00000000000E+00 -0.14225288230E+03  0.14225288230E+03  0.00000000000E+00 0.  1.
          5    1    1    2  502    0 -0.78076543394E+01  0.13026564507E+03  0.29558782762E+02  0.13388767452E+03  0.47000000000E+01 0.  1.
         -5    1    1    2    0  502 -0.17446085122E+02 -0.14354687387E+02 -0.30754237988E+02  0.38449136405E+02  0.47000000000E+01 0.  1.
        -11    1    1    2    0    0  0.82845486841E+00 -0.27154194142E+02 -0.27446395819E+02  0.38617887571E+02  0.00000000000E+00 0.  1.
         11    1    1    2    0    0  0.24425284593E+02 -0.88756763536E+02  0.71895266856E+02  0.11680448192E+03  0.00000000000E+00 0. -1.
<mgrwt>
<rscale>  0 0.16615825E+03</rscale>
<asrwt>0</asrwt>
<pdfrwt beam="1">  1        4 0.28539431E-01 0.17233266E+03</pdfrwt>
<pdfrwt beam="2">  1       -4 0.21885059E-01 0.17233266E+03</pdfrwt>
<totfact> 0.38833972E+02</totfact>
</mgrwt>
</event>
<event>
 6    1  0.7270761E-006  0.1251003E+03  0.7546771E-02  0.1249670E+00
         -2   -1    0    0    0  501 -0.00000000000E+00  0.00000000000E+00  0.80058484888E+02  0.80058484888E+02  0.00000000000E+00 0. -1.
          2   -1    0    0  501    0  0.00000000000E+00 -0.00000000000E+00 -0.15059936198E+03  0.15059936198E+03  0.00000000000E+00 0.  1.
          5    1    1    2  502    0 -0.71064526066E+01  0.49531678776E+02 -0.50117530509E+02  0.70977078943E+02  0.47000000000E+01 0. -1.
         -5    1    1    2    0  502  0.12089843883E+02 -0.49938597059E+02  0.23865781839E+02  0.56847984521E+02  0.47000000000E+01 0. -1.
        -11    1    1    2    0    0  0.26154255655E+02  0.13891575292E+02 -0.58871077198E+02  0.65900111406E+02  0.00000000000E+00 0.  1.
         11    1    1    2    0    0 -0.31137646930E+02 -0.13484657009E+02  0.14581948773E+02  0.36932672000E+02  0.00000000000E+00 0. -1.
<mgrwt>
<rscale>  0 0.11610168E+03</rscale>
<asrwt>0</asrwt>
<pdfrwt beam="2">  1        2 0.23169132E-01 0.12510033E+03</pdfrwt>
<pdfrwt beam="1">  1       -2 0.12316690E-01 0.12510033E+03</pdfrwt>
<totfact> 0.10381499E+04</totfact>
</mgrwt>
</event>
<event>
 6    1  0.7270761E-006  0.1334430E+03  0.7546771E-02  0.1235508E+00
          2   -1    0    0  501    0  0.00000000000E+00  0.00000000000E+00  0.29320886271E+02  0.29320886271E+02  0.00000000000E+00 0. -1.
         -2   -1    0    0    0  501 -0.00000000000E+00 -0.00000000000E+00 -0.57797402464E+03  0.57797402464E+03  0.00000000000E+00 0.  1.
          5    1    1    2  502    0 -0.54229787500E+02  0.62601538354E+02 -0.28998431690E+03  0.30161700301E+03  0.47000000000E+01 0.  1.
         -5    1    1    2    0  502  0.46893880619E+02 -0.16526301079E+02 -0.14354276923E+03  0.15198279924E+03  0.47000000000E+01 0.  1.
        -11    1    1    2    0    0  0.13967002068E+02 -0.21710105564E+02  0.87608677302E+01  0.27260936039E+02  0.00000000000E+00 0. -1.
         11    1    1    2    0    0 -0.66310951862E+01 -0.24365131712E+02 -0.12388691997E+03  0.12643417262E+03  0.00000000000E+00 0.  1.
<mgrwt>
<rscale>  0 0.12471962E+03</rscale>
<asrwt>0</asrwt>
<pdfrwt beam="1">  1        2 0.45109062E-02 0.13344304E+03</pdfrwt>
<pdfrwt beam="2">  1       -2 0.88919069E-01 0.13344304E+03</pdfrwt>
<totfact> 0.19455523E+03</totfact>
</mgrwt>
</event>
<event>
 6    1  0.7270761E-006  0.1298418E+03  0.7546771E-02  0.1240622E+00
         -2   -1    0    0    0  501 -0.00000000000E+00  0.00000000000E+00  0.32432157798E+03  0.32432157798E+03  0.00000000000E+00 0.  1.
          2   -1    0    0  501    0  0.00000000000E+00 -0.00000000000E+00 -0.43237642112E+02  0.43237642112E+02  0.00000000000E+00 0. -1.
          5    1    1    2  502    0  0.98158673558E+01  0.40596007520E+02  0.17672693212E+02  0.45593871999E+02  0.47000000000E+01 0.  1.
         -5    1    1    2    0  502  0.20609558457E+02 -0.58090406044E+02  0.18545717067E+03  0.19548836622E+03  0.47000000000E+01 0.  1.
        -11    1    1    2    0    0 -0.23744023518E+02  0.52021834117E+02  0.70058436803E+02  0.90433591353E+02  0.00000000000E+00 0.  1.
         11    1    1    2    0    0 -0.66814022949E+01 -0.34527435593E+02  0.78956351828E+01  0.36043390520E+02  0.00000000000E+00 0. -1.
<mgrwt>
<rscale>  0 0.12151299E+03</rscale>
<asrwt>0</asrwt>
<pdfrwt beam="2">  1        2 0.66519452E-02 0.12984184E+03</pdfrwt>
<pdfrwt beam="1">  1       -2 0.49895626E-01 0.12984184E+03</pdfrwt>
<totfact> 0.39556902E+03</totfact>
</mgrwt>
</event>
<event>
 6    1  0.7270761E-006  0.1308876E+03  0.7546771E-02  0.1241400E+00
          2   -1    0    0  501    0  0.00000000000E+00  0.00000000000E+00  0.78264143362E+02  0.78264143362E+02  0.00000000000E+00 0. -1.
         -2   -1    0    0    0  501 -0.00000000000E+00 -0.00000000000E+00 -0.22607550066E+03  0.22607550066E+03  0.00000000000E+00 0.  1.
          5    1    1    2  502    0  0.41854203844E-01 -0.34022881454E+02 -0.15791373973E+03  0.16160568496E+03  0.47000000000E+01 0.  1.
         -5    1    1    2    0  502  0.37998526658E+02  0.25433071971E+02 -0.33460184548E+01  0.46087037414E+02  0.47000000000E+01 0.  1.
        -11    1    1    2    0    0 -0.37179479836E+02 -0.25149997456E+01  0.47757176713E+02  0.60575464276E+02  0.00000000000E+00 0. -1.
         11    1    1    2    0    0 -0.86090102601E+00  0.11104809229E+02 -0.34308775830E+02  0.36071457380E+02  0.00000000000E+00 0.  1.
<mgrwt>
<rscale>  0 0.12103455E+03</rscale>
<asrwt>0</asrwt>
<pdfrwt beam="1">  1        2 0.12040637E-01 0.13088758E+03</pdfrwt>
<pdfrwt beam="2">  1       -2 0.34780846E-01 0.13088758E+03</pdfrwt>
<totfact> 0.37754752E+03</totfact>
</mgrwt>
</event>
<event>
 6    1  0.7270761E-006  0.1551666E+03  0.7546771E-02  0.1202839E+00
          1   -1    0    0  501    0  0.00000000000E+00  0.00000000000E+00  0.58570841738E+03  0.58570841738E+03  0.00000000000E+00 0. -1.
         -1   -1    0    0    0  501 -0.00000000000E+00 -0.00000000000E+00 -0.42997153004E+02  0.42997153004E+02  0.00000000000E+00 0.  1.
          5    1    1    2  502    0 -0.49935732571E+02  0.13646316407E+02  0.89749269555E+02  0.10371509401E+03  0.47000000000E+01 0.  1.
         -5    1    1    2    0  502  0.53711906122E+02  0.77991666552E+02  0.61773839364E+02  0.11316256510E+03  0.47000000000E+01 0.  1.
        -11    1    1    2    0    0  0.26716641460E+02 -0.48521239110E+02  0.31044864689E+03  0.31535131510E+03  0.00000000000E+00 0. -1.
         11    1    1    2    0    0 -0.30492815010E+02 -0.43116743849E+02  0.80739508562E+02  0.96476596179E+02  0.00000000000E+00 0.  1.
<mgrwt>
<rscale>  0 0.14809051E+03</rscale>
<asrwt>0</asrwt>
<pdfrwt beam="1">  1        1 0.90108981E-01 0.15516658E+03</pdfrwt>
<pdfrwt beam="2">  1       -1 0.66149471E-02 0.15516658E+03</pdfrwt>
<totfact> 0.40892255E+03</totfact>
</mgrwt>
</event>
<event>
 6    1  0.7270761E-006  0.1788804E+03  0.7546771E-02  0.1174834E+00
          2   -1    0    0  501    0  0.00000000000E+00  0.00000000000E+00  0.91703836921E+03  0.91703836921E+03  0.00000000000E+00 0. -1.
         -2   -1    0    0    0  501 -0.00000000000E+00 -0.00000000000E+00 -0.30656960880E+02  0.30656960880E+02  0.00000000000E+00 0.  1.
          5    1    1    2  502    0  0.18901571826E+02  0.69674358211E+02  0.18833251092E+03  0.20174987058E+03  0.47000000000E+01 0. -1.
         -5    1    1    2    0  502  0.46548400864E+02 -0.95541893857E+02  0.30296090743E+03  0.32109563767E+03  0.47000000000E+01 0.  1.
        -11    1    1    2    0    0  0.37254144300E+02 -0.19153126228E+02  0.78318621136E+02  0.88817340247E+02  0.00000000000E+00 0. -1.
         11    1    1    2    0    0 -0.10270411699E+03  0.45020661875E+02  0.31676936885E+03  0.33603248159E+03  0.00000000000E+00 0.  1.
<mgrwt>
<rscale>  0 0.17292276E+03</rscale>
<asrwt>0</asrwt>
<pdfrwt beam="1">  1        2 0.14108281E+00 0.17888041E+03</pdfrwt>
<pdfrwt beam="2">  1       -2 0.47164562E-02 0.17888041E+03</pdfrwt>
<totfact> 0.62266679E+03</totfact>
</mgrwt>
</event>
<event>
 6    1  0.7270761E-006  0.2989278E+03  0.7546771E-02  0.1085778E+00
         -2   -1    0    0    0  501 -0.00000000000E+00  0.00000000000E+00  0.14234635424E+04  0.14234635424E+04  0.00000000000E+00 0. -1.
          2   -1    0    0  501    0  0.00000000000E+00 -0.00000000000E+00 -0.15693731298E+02  0.15693731298E+02  0.00000000000E+00 0.  1.
          5    1    1    2  502    0 -0.21252535652E+02 -0.25099243378E+01  0.44889542901E+02  0.49951286807E+02  0.47000000000E+01 0.  1.
         -5    1    1    2    0  502  0.11428192738E+03  0.19998370321E+02  0.97978060537E+03  0.98663692329E+03  0.47000000000E+01 0.  1.
        -11    1    1    2    0    0 -0.30062101481E+02  0.16694853954E+02  0.43275427346E+02  0.55273960470E+02  0.00000000000E+00 0.  1.
         11    1    1    2    0    0 -0.62967290246E+02 -0.34183299937E+02  0.33982423548E+03  0.34729510313E+03  0.00000000000E+00 0. -1.
<mgrwt>
<rscale>  0 0.29892778E+03</rscale>
<asrwt>0</asrwt>
<pdfrwt beam="2">  1        2 0.24144213E-02 0.29892778E+03</pdfrwt>
<pdfrwt beam="1">  1       -2 0.21899429E+00 0.29892778E+03</pdfrwt>
<totfact> 0.46439124E+02</totfact>
</mgrwt>
</event>
<event>
 6    1  0.7270761E-006  0.2582029E+03  0.7546771E-02  0.1140958E+00
         -2   -1    0    0    0  501 -0.00000000000E+00  0.00000000000E+00  0.23454132130E+04  0.23454132130E+04  0.00000000000E+00 0.  1.
          2   -1    0    0  501    0  0.00000000000E+00 -0.00000000000E+00 -0.15977692148E+02  0.15977692148E+02  0.00000000000E+00 0. -1.
          5    1    1    2  502    0  0.26084086140E+02  0.55049092454E+02  0.13919461523E+03  0.15201320022E+03  0.47000000000E+01 0. -1.
         -5    1    1    2    0  502 -0.62106897662E+02 -0.11422957632E+03  0.17368795418E+04  0.17417457609E+04  0.47000000000E+01 0.  1.
        -11    1    1    2    0    0  0.65448335096E+02  0.48102540534E+02  0.28446280202E+03  0.29583175067E+03  0.00000000000E+00 0.  1.
         11    1    1    2    0    0 -0.29425523574E+02  0.11077943332E+02  0.16889856183E+03  0.17180019341E+03  0.00000000000E+00 0. -1.
<mgrwt>
<rscale>  0 0.21076969E+03</rscale>
<asrwt>0</asrwt>
<pdfrwt beam="2">  1        2 0.24581083E-02 0.25820294E+03</pdfrwt>
<pdfrwt beam="1">  1       -2 0.36083253E+00 0.25820294E+03</pdfrwt>
<totfact> 0.65288848E+01</totfact>
</mgrwt>
</event>
<event>
 6    1  0.7270761E-006  0.1303766E+03  0.7546771E-02  0.1251786E+00
          2   -1    0    0  501    0  0.00000000000E+00  0.00000000000E+00  0.69925492379E+03  0.69925492379E+03  0.00000000000E+00 0. -1.
         -2   -1    0    0    0  501 -0.00000000000E+00 -0.00000000000E+00 -0.16652233643E+02  0.16652233643E+02  0.00000000000E+00 0.  1.
          5    1    1    2  502    0  0.18059781448E+02  0.43631315123E+02  0.11064749336E+03  0.12039437343E+03  0.47000000000E+01 0.  1.
         -5    1    1    2    0  502 -0.44813182927E+02 -0.69277436715E+02  0.22314969813E+03  0.23796105223E+03  0.47000000000E+01 0.  1.
        -11    1    1    2    0    0  0.48647618384E+02  0.27179420497E+02  0.22374919906E+03  0.23058407524E+03  0.00000000000E+00 0. -1.
         11    1    1    2    0    0 -0.21894216905E+02 -0.15332989054E+01  0.12505629959E+03  0.12696765654E+03  0.00000000000E+00 0.  1.
<mgrwt>
<rscale>  0 0.11488288E+03</rscale>
<asrwt>0</asrwt>
<pdfrwt beam="1">  1        2 0.10757766E+00 0.13037655E+03</pdfrwt>
<pdfrwt beam="2">  1       -2 0.25618826E-02 0.13037655E+03</pdfrwt>
<totfact> 0.21203158E+04</totfact>
</mgrwt>
</event>
<event>
 6    1  0.7270761E-006  0.1274271E+03  0.7546771E-02  0.1246601E+00
          1   -1    0    0  501    0  0.00000000000E+00  0.00000000000E+00  0.13303970330E+02  0.13303970330E+02  0.00000000000E+00 0. -1.
         -1   -1    0    0    0  501 -0.00000000000E+00 -0.00000000000E+00 -0.11922315672E+04  0.11922315672E+04  0.00000000000E+00 0.  1.
          5    1    1    2  502    0  0.63882465467E+02 -0.72650449397E+00 -0.67156218732E+03  0.67461052367E+03  0.47000000000E+01 0. -1.
         -5    1    1    2    0  502 -0.51211369224E+02 -0.20141043928E+02 -0.27508891762E+03  0.28057845354E+03  0.47000000000E+01 0. -1.
        -11    1    1    2    0    0  0.24574381701E+02  0.14434822844E+02 -0.20211313208E+02  0.34939397936E+02  0.00000000000E+00 0. -1.
         11    1    1    2    0    0 -0.37245477943E+02  0.64327255778E+01 -0.21206517869E+03  0.21540716236E+03  0.00000000000E+00 0.  1.
<mgrwt>
<rscale>  0 0.11790096E+03</rscale>
<asrwt>0</asrwt>
<pdfrwt beam="1">  1        1 0.20467638E-02 0.12742711E+03</pdfrwt>
<pdfrwt beam="2">  1       -1 0.18342032E+00 0.12742711E+03</pdfrwt>
<totfact> 0.12356895E+03</totfact>
</mgrwt>
</event>
<event>
 6    1  0.7270761E-006  0.3492333E+03  0.7546771E-02  0.1062930E+00
         -4   -1    0    0    0  501 -0.00000000000E+00  0.00000000000E+00  0.64554366013E+02  0.64554366013E+02  0.00000000000E+00 0.  1.
          4   -1    0    0  501    0  0.00000000000E+00 -0.00000000000E+00 -0.47233023550E+03  0.47233023550E+03  0.00000000000E+00 0. -1.
          5    1    1    2  502    0 -0.74863955006E+01  0.56392083677E+01  0.10545008110E+02  0.14870574456E+02  0.47000000000E+01 0.  1.
         -5    1    1    2    0  502  0.13789862689E+03  0.29260455091E+02 -0.25066250421E+03  0.28762125538E+03  0.47000000000E+01 0.  1.
        -11    1    1    2    0    0 -0.77848357091E+02  0.27166106415E+02 -0.82814159170E+02  0.11686123822E+03  0.00000000000E+00 0.  1.
         11    1    1    2    0    0 -0.52563874294E+02 -0.62065769874E+02 -0.84844214220E+02  0.11753153346E+03  0.00000000000E+00 0. -1.
<mgrwt>
<rscale>  0 0.34923333E+03</rscale>
<asrwt>0</asrwt>
<pdfrwt beam="2">  1        4 0.72666193E-01 0.34923333E+03</pdfrwt>
<pdfrwt beam="1">  1       -4 0.99314405E-02 0.34923333E+03</pdfrwt>
<totfact> 0.25890324E+02</totfact>
</mgrwt>
</event>
<event>
 6    1  0.7270761E-006  0.1694262E+03  0.7546771E-02  0.1185018E+00
         -1   -1    0    0    0  501 -0.00000000000E+00  0.00000000000E+00  0.32878715509E+02  0.32878715509E+02  0.00000000000E+00 0.  1.
          1   -1    0    0  501    0  0.00000000000E+00 -0.00000000000E+00 -0.77449780175E+03  0.77449780175E+03  0.00000000000E+00 0. -1.
          5    1    1    2  502    0  0.49077530988E+02 -0.27602128149E+02 -0.13955086696E+03  0.15055569068E+03  0.47000000000E+01 0. -1.
         -5    1    1    2    0  502  0.34430939351E+02  0.10573888831E+03 -0.19846804459E+03  0.22754748254E+03  0.47000000000E+01 0. -1.
        -11    1    1    2    0    0 -0.84990199739E+02 -0.44081795647E+02 -0.36689517236E+03  0.37918149514E+03  0.00000000000E+00 0. -1.
         11    1    1    2    0    0  0.14817294007E+01 -0.34054964513E+02 -0.36705002329E+02  0.50091848897E+02  0.00000000000E+00 0.  1.
<mgrwt>
<rscale>  0 0.16330244E+03</rscale>
<asrwt>0</asrwt>
<pdfrwt beam="2">  1        1 0.11915351E+00 0.16942616E+03</pdfrwt>
<pdfrwt beam="1">  1       -1 0.50582640E-02 0.16942616E+03</pdfrwt>
<totfact> 0.41173263E+03</totfact>
</mgrwt>
</event>
<event>
 6    1  0.7270761E-006  0.1257289E+03  0.7546771E-02  0.1249271E+00
         -1   -1    0    0    0  501 -0.00000000000E+00  0.00000000000E+00  0.45433868533E+03  0.45433868533E+03  0.00000000000E+00 0.  1.
          1   -1    0    0  501    0  0.00000000000E+00 -0.00000000000E+00 -0.31928000010E+02  0.31928000010E+02  0.00000000000E+00 0. -1.
          5    1    1    2  502    0 -0.31059266457E+02 -0.57106486896E+02  0.12964643259E+03  0.14510725813E+03  0.47000000000E+01 0.  1.
         -5    1    1    2    0  502  0.19059265151E+02  0.51186507360E+02  0.21085458919E+03  0.21786477895E+03  0.47000000000E+01 0.  1.
        -11    1    1    2    0    0  0.38976395999E+02  0.17306869416E+02  0.83721666981E+02  0.93957462163E+02  0.00000000000E+00 0.  1.
         11    1    1    2    0    0 -0.26976394693E+02 -0.11386889880E+02 -0.18120034403E+01  0.29337186100E+02  0.00000000000E+00 0. -1.
<mgrwt>
<rscale>  0 0.11633355E+03</rscale>
<asrwt>0</asrwt>
<pdfrwt beam="2">  1        1 0.49120003E-02 0.12572889E+03</pdfrwt>
<pdfrwt beam="1">  1       -1 0.69898255E-01 0.12572889E+03</pdfrwt>
<totfact> 0.35087580E+03</totfact>
</mgrwt>
</event>
<event>
 6    1  0.7270761E-006  0.1389342E+03  0.7546771E-02  0.1225605E+00
          1   -1    0    0  501    0  0.00000000000E+00  0.00000000000E+00  0.18382344390E+03  0.18382344390E+03  0.00000000000E+00 0. -1.
         -1   -1    0    0    0  501 -0.00000000000E+00 -0.00000000000E+00 -0.91030294924E+02  0.91030294924E+02  0.00000000000E+00 0.  1.
          5    1    1    2  502    0 -0.42177409055E+02  0.58612715577E+02 -0.34775220259E+02  0.80285678710E+02  0.47000000000E+01 0. -1.
         -5    1    1    2    0  502  0.31672290871E+02  0.11126938284E+01  0.50131219435E+02  0.59494548142E+02  0.47000000000E+01 0. -1.
        -11    1    1    2    0    0  0.23535113406E+02 -0.47304207281E+01 -0.13844326089E+02  0.27711799078E+02  0.00000000000E+00 0.  1.
         11    1    1    2    0    0 -0.13029995222E+02 -0.54994988677E+02  0.91281475889E+02  0.10736171289E+03  0.00000000000E+00 0. -1.
<mgrwt>
<rscale>  0 0.13125519E+03</rscale>
<asrwt>0</asrwt>
<pdfrwt beam="1">  1        1 0.28280530E-01 0.13893418E+03</pdfrwt>
<pdfrwt beam="2">  1       -1 0.14004661E-01 0.13893418E+03</pdfrwt>
<totfact> 0.55952223E+03</totfact>
</mgrwt>
</event>
<event>
 6    1  0.7270761E-006  0.1277199E+03  0.7546771E-02  0.1246235E+00
         -2   -1    0    0    0  501 -0.00000000000E+00  0.00000000000E+00  0.90054207668E+02  0.90054207668E+02  0.00000000000E+00 0.  1.
          2   -1    0    0  501    0  0.00000000000E+00 -0.00000000000E+00 -0.35961820810E+03  0.35961820810E+03  0.00000000000E+00 0. -1.
          5    1    1    2  502    0 -0.48174085310E+02 -0.38192468038E+01  0.30851018378E+02  0.57525685364E+02  0.47000000000E+01 0.  1.
         -5    1    1    2    0  502  0.74353732764E+02  0.28321505415E+01  0.30567439074E+01  0.74618579026E+02  0.47000000000E+01 0.  1.
        -11    1    1    2    0    0 -0.57884914296E+02 -0.37429324271E+01 -0.23293828900E+03  0.24005190965E+03  0.00000000000E+00 0. -1.
         11    1    1    2    0    0  0.31705266842E+02  0.47300286894E+01 -0.70533473722E+02  0.77476241727E+02  0.00000000000E+00 0.  1.
<mgrwt>
<rscale>  0 0.11811759E+03</rscale>
<asrwt>0</asrwt>
<pdfrwt beam="2">  1        2 0.55325877E-01 0.12771989E+03</pdfrwt>
<pdfrwt beam="1">  1       -2 0.13854494E-01 0.12771989E+03</pdfrwt>
<totfact> 0.33819799E+03</totfact>
</mgrwt>
</event>
<event>
 6    1  0.7270761E-006  0.3307914E+03  0.7546771E-02  0.1070787E+00
          1   -1    0    0  501    0  0.00000000000E+00  0.00000000000E+00  0.11733671887E+03  0.11733671887E+03  0.00000000000E+00 0. -1.
         -1   -1    0    0    0  501 -0.00000000000E+00 -0.00000000000E+00 -0.23313882785E+03  0.23313882785E+03  0.00000000000E+00 0.  1.
          5    1    1    2  502    0  0.10307099783E+02  0.30329927311E+02  0.16882227286E+01  0.32420377737E+02  0.47000000000E+01 0. -1.
         -5    1    1    2    0  502  0.72646732062E+02 -0.46858031360E+02 -0.16438131757E+03  0.18578624908E+03  0.47000000000E+01 0.  1.
        -11    1    1    2    0    0 -0.45905048378E+02  0.17622550519E+02  0.72224193489E+02  0.87373690997E+02  0.00000000000E+00 0. -1.
         11    1    1    2    0    0 -0.37048783467E+02 -0.10944464697E+01 -0.25333207625E+02  0.44895228901E+02  0.00000000000E+00 0.  1.
<mgrwt>
<rscale>  0 0.33079145E+03</rscale>
<asrwt>0</asrwt>
<pdfrwt beam="1">  1        1 0.18051803E-01 0.33079145E+03</pdfrwt>
<pdfrwt beam="2">  1       -1 0.35867512E-01 0.33079145E+03</pdfrwt>
<totfact> 0.21920559E+03</totfact>
</mgrwt>
</event>
<event>
 6    1  0.7270761E-006  0.1479986E+03  0.7546771E-02  0.1212757E+00
         -2   -1    0    0    0  501 -0.00000000000E+00  0.00000000000E+00  0.18631436792E+03  0.18631436792E+03  0.00000000000E+00 0.  1.
          2   -1    0    0  501    0  0.00000000000E+00 -0.00000000000E+00 -0.98158372774E+02  0.98158372774E+02  0.00000000000E+00 0. -1.
          5    1    1    2  502    0  0.29561364679E+01 -0.10536856676E+03  0.40330875150E+02  0.11295991809E+03  0.47000000000E+01 0.  1.
         -5    1    1    2    0  502  0.26392969745E+02  0.31765333863E+02  0.27522780156E+02  0.49851968015E+02  0.47000000000E+01 0.  1.
        -11    1    1    2    0    0  0.28883786551E+02  0.13508026575E+02  0.20632083865E+02  0.37979241594E+02  0.00000000000E+00 0.  1.
         11    1    1    2    0    0 -0.58232892764E+02  0.60095206325E+02 -0.32974402029E+00  0.83681612999E+02  0.00000000000E+00 0. -1.
<mgrwt>
<rscale>  0 0.14042607E+03</rscale>
<asrwt>0</asrwt>
<pdfrwt beam="2">  1        2 0.15101288E-01 0.14799862E+03</pdfrwt>
<pdfrwt beam="1">  1       -2 0.28663749E-01 0.14799862E+03</pdfrwt>
<totfact> 0.41304878E+03</totfact>
</mgrwt>
</event>
<event>
 6    1  0.7270761E-006  0.1427849E+03  0.7546771E-02  0.1219975E+00
          2   -1    0    0  501    0  0.00000000000E+00  0.00000000000E+00  0.64563154265E+03  0.64563154265E+03  0.00000000000E+00 0. -1.
         -2   -1    0    0    0  501 -0.00000000000E+00 -0.00000000000E+00 -0.40821774372E+02  0.40821774372E+02  0.00000000000E+00 0.  1.
          5    1    1    2  502    0  0.27202652014E+02  0.45149337005E+02  0.40514586937E+02  0.66648095721E+02  0.47000000000E+01 0.  1.
         -5    1    1    2    0  502 -0.88647465936E+02 -0.13720167472E+02  0.74316501572E+02  0.11658322614E+03  0.47000000000E+01 0.  1.
        -11    1    1    2    0    0  0.38103514130E+01  0.28848488080E+02  0.17433230018E+03  0.17674417933E+03  0.00000000000E+00 0. -1.
         11    1    1    2    0    0  0.57634462509E+02 -0.60277657614E+02  0.31564637959E+03  0.32647781583E+03  0.00000000000E+00 0.  1.
<mgrwt>
<rscale>  0 0.13517333E+03</rscale>
<asrwt>0</asrwt>
<pdfrwt beam="1">  1        2 0.99327922E-01 0.14278494E+03</pdfrwt>
<pdfrwt beam="2">  1       -2 0.62802735E-02 0.14278494E+03</pdfrwt>
<totfact> 0.61690195E+03</totfact>
</mgrwt>
</event>
<event>
 6    1  0.7270761E-006  0.3960233E+03  0.7546771E-02  0.1045165E+00
          2   -1    0    0  501    0  0.00000000000E+00  0.00000000000E+00  0.11104076695E+04  0.11104076695E+04  0.00000000000E+00 0. -1.
         -2   -1    0    0    0  501 -0.00000000000E+00 -0.00000000000E+00 -0.35310112684E+02  0.35310112684E+02  0.00000000000E+00 0.  1.
          5    1    1    2  502    0  0.52560626023E+01  0.31154135922E+02  0.78586056261E+01  0.32894590155E+02  0.47000000000E+01 0. -1.
         -5    1    1    2    0  502 -0.89431593438E+02 -0.29936536996E+02  0.23079033877E+03  0.24936013439E+03  0.47000000000E+01 0. -1.
        -11    1    1    2    0    0 -0.57553280034E+01 -0.87578060098E+02  0.40248911749E+03  0.41194724190E+03  0.00000000000E+00 0. -1.
         11    1    1    2    0    0  0.89930858840E+02  0.86360461172E+02  0.43395949495E+03  0.45151581576E+03  0.00000000000E+00 0.  1.
<mgrwt>
<rscale>  0 0.39602333E+03</rscale>
<asrwt>0</asrwt>
<pdfrwt beam="1">  1        2 0.17083192E+00 0.39602333E+03</pdfrwt>
<pdfrwt beam="2">  1       -2 0.54323259E-02 0.39602333E+03</pdfrwt>
<totfact> 0.38992821E+03</totfact>
</mgrwt>
</event>
<event>
 6    1  0.7270761E-006  0.1532023E+03  0.7546771E-02  0.1204027E+00
          2   -1    0    0  501    0  0.00000000000E+00  0.00000000000E+00  0.28671395320E+03  0.28671395320E+03  0.00000000000E+00 0. -1.
         -2   -1    0    0    0  501 -0.00000000000E+00 -0.00000000000E+00 -0.72557724856E+02  0.72557724856E+02  0.00000000000E+00 0.  1.
          5    1    1    2  502    0 -0.47528312705E+02  0.14271677014E+02 -0.13038362506E+02  0.51523879611E+02  0.47000000000E+01 0. -1.
         -5    1    1    2    0  502  0.26489670055E+02  0.71730179511E+02  0.95600393559E+02  0.12250896506E+03  0.47000000000E+01 0. -1.
        -11    1    1    2    0    0  0.36745762862E+02 -0.68917652512E+02  0.34451993145E+02  0.85362953016E+02  0.00000000000E+00 0.  1.
         11    1    1    2    0    0 -0.15707120212E+02 -0.17084204013E+02  0.97142204147E+02  0.99875880365E+02  0.00000000000E+00 0. -1.
<mgrwt>
<rscale>  0 0.14714433E+03</rscale>
<asrwt>0</asrwt>
<pdfrwt beam="1">  1        2 0.44109838E-01 0.15320229E+03</pdfrwt>
<pdfrwt beam="2">  1       -2 0.11162727E-01 0.15320229E+03</pdfrwt>
<totfact> 0.61422965E+03</totfact>
</mgrwt>
</event>
<event>
 6    1  0.7270761E-006  0.3476103E+03  0.7546771E-02  0.1063600E+00
          1   -1    0    0  501    0  0.00000000000E+00  0.00000000000E+00  0.82351559855E+03  0.82351559855E+03  0.00000000000E+00 0. -1.
         -1   -1    0    0    0  501 -0.00000000000E+00 -0.00000000000E+00 -0.36682039466E+02  0.36682039466E+02  0.00000000000E+00 0.  1.
          5    1    1    2  502    0  0.19670635068E+02 -0.26504219271E+01  0.82730269007E+01  0.22011169766E+02  0.47000000000E+01 0. -1.
         -5    1    1    2    0  502 -0.14389466645E+03  0.31812750025E+02  0.30005198012E+03  0.33432171163E+03  0.47000000000E+01 0. -1.
        -11    1    1    2    0    0  0.68765205717E+02 -0.60042030181E+02  0.32920538583E+03  0.34162828478E+03  0.00000000000E+00 0. -1.
         11    1    1    2    0    0  0.55458825663E+02  0.30879702083E+02  0.14930316623E+03  0.16223647183E+03  0.00000000000E+00 0.  1.
<mgrwt>
<rscale>  0 0.34761031E+03</rscale>
<asrwt>0</asrwt>
<pdfrwt beam="1">  1        1 0.12669469E+00 0.34761031E+03</pdfrwt>
<pdfrwt beam="2">  1       -1 0.56433913E-02 0.34761031E+03</pdfrwt>
<totfact> 0.32380078E+03</totfact>
</mgrwt>
</event>
<event>
 6    1  0.7270761E-006  0.2467194E+03  0.7546771E-02  0.1130394E+00
          2   -1    0    0  501    0  0.00000000000E+00  0.00000000000E+00  0.80550577440E+03  0.80550577440E+03  0.00000000000E+00 0. -1.
         -2   -1    0    0    0  501 -0.00000000000E+00 -0.00000000000E+00 -0.55257123066E+02  0.55257123066E+02  0.00000000000E+00 0.  1.
          5    1    1    2  502    0  0.32970029208E+02  0.42860739302E+01  0.27931496264E+03  0.28132602370E+03  0.47000000000E+01 0. -1.
         -5    1    1    2    0  502  0.24819819252E+02 -0.13534604891E+03  0.96104589070E+02  0.16790699337E+03  0.47000000000E+01 0.  1.
        -11    1    1    2    0    0 -0.28523440363E+02  0.12029345899E+03  0.35143514464E+03  0.37254632438E+03  0.00000000000E+00 0. -1.
         11    1    1    2    0    0 -0.29266408097E+02  0.10766515989E+02  0.23393954981E+02  0.38983556009E+02  0.00000000000E+00 0.  1.
<mgrwt>
<rscale>  0 0.22474472E+03</rscale>
<asrwt>0</asrwt>
<pdfrwt beam="1">  1        2 0.12392396E+00 0.24671940E+03</pdfrwt>
<pdfrwt beam="2">  1       -2 0.85010964E-02 0.24671940E+03</pdfrwt>
<totfact> 0.30086117E+03</totfact>
</mgrwt>
</event>
<event>
 6    1  0.7270761E-006  0.1307798E+03  0.7546771E-02  0.1247909E+00
          2   -1    0    0  501    0  0.00000000000E+00  0.00000000000E+00  0.68801517335E+03  0.68801517335E+03  0.00000000000E+00 0. -1.
         -2   -1    0    0    0  501 -0.00000000000E+00 -0.00000000000E+00 -0.16796133057E+02  0.16796133057E+02  0.00000000000E+00 0.  1.
          5    1    1    2  502    0  0.25166521347E+02 -0.20425729791E+02  0.32269672703E+03  0.32435448490E+03  0.47000000000E+01 0. -1.
         -5    1    1    2    0  502 -0.11307243727E+02  0.56311003932E+02  0.76883402556E+02  0.96082935598E+02  0.47000000000E+01 0. -1.
        -11    1    1    2    0    0  0.27332182022E+02  0.11281482107E+01  0.11582442746E+03  0.11901100323E+03  0.00000000000E+00 0.  1.
         11    1    1    2    0    0 -0.41191459642E+02 -0.37013422352E+02  0.15581448324E+03  0.16536288268E+03  0.00000000000E+00 0. -1.
<mgrwt>
<rscale>  0 0.11712936E+03</rscale>
<asrwt>0</asrwt>
<pdfrwt beam="1">  1        2 0.10584847E+00 0.13077976E+03</pdfrwt>
<pdfrwt beam="2">  1       -2 0.25840210E-02 0.13077976E+03</pdfrwt>
<totfact> 0.21348793E+04</totfact>
</mgrwt>
</event>
<event>
 6    1  0.7270761E-006  0.1479901E+03  0.7546771E-02  0.1211645E+00
          4   -1    0    0  501    0  0.00000000000E+00  0.00000000000E+00  0.51500584965E+02  0.51500584965E+02  0.00000000000E+00 0.  1.
         -4   -1    0    0    0  501 -0.00000000000E+00 -0.00000000000E+00 -0.46014417809E+03  0.46014417809E+03  0.00000000000E+00 0. -1.
          5    1    1    2  502    0 -0.37926595175E+02 -0.31629320887E+02 -0.32703519259E+02  0.59417596158E+02  0.47000000000E+01 0.  1.
         -5    1    1    2    0  502 -0.41228556347E+02  0.28318785199E+02 -0.30755190600E+03  0.31162800313E+03  0.47000000000E+01 0.  1.
        -11    1    1    2    0    0  0.18023343752E+02 -0.41580087555E+02 -0.37050941794E+02  0.58536457776E+02  0.00000000000E+00 0. -1.
         11    1    1    2    0    0  0.61131807770E+02  0.44890623242E+02 -0.31337226077E+02  0.82062705991E+02  0.00000000000E+00 0.  1.
<mgrwt>
<rscale>  0 0.14125863E+03</rscale>
<asrwt>0</asrwt>
<pdfrwt beam="1">  1        4 0.79231672E-02 0.14799014E+03</pdfrwt>
<pdfrwt beam="2">  1       -4 0.70791410E-01 0.14799014E+03</pdfrwt>
<totfact> 0.35299242E+02</totfact>
</mgrwt>
</event>
<event>
 6    1  0.7270761E-006  0.1469654E+03  0.7546771E-02  0.1214361E+00
         -2   -1    0    0    0  501 -0.00000000000E+00  0.00000000000E+00  0.88820206218E+02  0.88820206218E+02  0.00000000000E+00 0.  1.
          2   -1    0    0  501    0  0.00000000000E+00 -0.00000000000E+00 -0.20136532587E+03  0.20136532587E+03  0.00000000000E+00 0. -1.
          5    1    1    2  502    0  0.39291055677E+02 -0.26514837562E+02 -0.79202703322E+01  0.48287103343E+02  0.47000000000E+01 0.  1.
         -5    1    1    2    0  502 -0.10166622451E+02  0.98090299583E+02 -0.36252393924E+02  0.10517315793E+03  0.47000000000E+01 0.  1.
        -11    1    1    2    0    0  0.43790464054E+01 -0.18886547454E+02  0.20432593793E+02  0.28166799805E+02  0.00000000000E+00 0.  1.
         11    1    1    2    0    0 -0.33503479632E+02 -0.52688914568E+02 -0.88805049185E+02  0.10855847100E+03  0.00000000000E+00 0. -1.
<mgrwt>
<rscale>  0 0.13923582E+03</rscale>
<asrwt>0</asrwt>
<pdfrwt beam="2">  1        2 0.30979281E-01 0.14696540E+03</pdfrwt>
<pdfrwt beam="1">  1       -2 0.13664647E-01 0.14696540E+03</pdfrwt>
<totfact> 0.64663771E+03</totfact>
</mgrwt>
</event>
<event>
 6    1  0.7270761E-006  0.1268416E+03  0.7546771E-02  0.1246836E+00
          2   -1    0    0  501    0  0.00000000000E+00  0.00000000000E+00  0.47289917878E+03  0.47289917878E+03  0.00000000000E+00 0.  1.
         -2   -1    0    0    0  501 -0.00000000000E+00 -0.00000000000E+00 -0.41889923723E+02  0.41889923723E+02  0.00000000000E+00 0. -1.
          5    1    1    2  502    0  0.24319167673E+01 -0.33183928220E+02  0.10692980368E+03  0.11208550408E+03  0.47000000000E+01 0.  1.
         -5    1    1    2    0  502 -0.13211607190E+02  0.14507520745E+02 -0.30080173597E+02  0.36220457843E+02  0.47000000000E+01 0.  1.
        -11    1    1    2    0    0 -0.39376959883E+02  0.74668006452E+01  0.20018941308E+03  0.20416194354E+03  0.00000000000E+00 0.  1.
         11    1    1    2    0    0  0.50156650306E+02  0.11209606830E+02  0.15397021190E+03  0.16232119704E+03  0.00000000000E+00 0. -1.
<mgrwt>
<rscale>  0 0.11776145E+03</rscale>
<asrwt>0</asrwt>
<pdfrwt beam="1">  1        2 0.72753716E-01 0.12684160E+03</pdfrwt>
<pdfrwt beam="2">  1       -2 0.64446040E-02 0.12684160E+03</pdfrwt>
<totfact> 0.83462056E+03</totfact>
</mgrwt>
</event>
<event>
 6    1  0.7270761E-006  0.1447349E+03  0.7546771E-02  0.1216591E+00
         -2   -1    0    0    0  501 -0.00000000000E+00  0.00000000000E+00  0.55744349670E+02  0.55744349670E+02  0.00000000000E+00 0.  1.
          2   -1    0    0  501    0  0.00000000000E+00 -0.00000000000E+00 -0.60883517013E+03  0.60883517013E+03  0.00000000000E+00 0. -1.
          5    1    1    2  502    0  0.87316068264E+01 -0.34537927316E+02 -0.45765456587E+02  0.58186565439E+02  0.47000000000E+01 0. -1.
         -5    1    1    2    0  502 -0.77835720560E+02  0.57890069532E+02 -0.12835796800E+02  0.97961764097E+02  0.47000000000E+01 0. -1.
        -11    1    1    2    0    0  0.75880649806E+02  0.11287074097E+02 -0.40558454137E+03  0.41277607883E+03  0.00000000000E+00 0. -1.
         11    1    1    2    0    0 -0.67765360720E+01 -0.34639216314E+02 -0.88905025700E+02  0.95655111430E+02  0.00000000000E+00 0.  1.
<mgrwt>
<rscale>  0 0.13760286E+03</rscale>
<asrwt>0</asrwt>
<pdfrwt beam="2">  1        2 0.93666950E-01 0.14473491E+03</pdfrwt>
<pdfrwt beam="1">  1       -2 0.85760537E-02 0.14473491E+03</pdfrwt>
<totfact> 0.40907992E+03</totfact>
</mgrwt>
</event>
<event>
 6    1  0.7270761E-006  0.2015558E+03  0.7546771E-02  0.1152557E+00
         -2   -1    0    0    0  501 -0.00000000000E+00  0.00000000000E+00  0.64819059276E+02  0.64819059276E+02  0.00000000000E+00 0.  1.
          2   -1    0    0  501    0  0.00000000000E+00 -0.00000000000E+00 -0.57092399932E+03  0.57092399932E+03  0.00000000000E+00 0. -1.
          5    1    1    2  502    0 -0.60650487041E+02  0.81938555280E+02 -0.24503251556E+03  0.26543442147E+03  0.47000000000E+01 0.  1.
         -5    1    1    2    0  502 -0.33264757601E+02  0.45246321397E+02 -0.62572579089E+01  0.56701119695E+02  0.47000000000E+01 0.  1.
        -11    1    1    2    0    0  0.45612001112E+02 -0.57360295267E+02 -0.41967402041E+02  0.84450701315E+02  0.00000000000E+00 0.  1.
         11    1    1    2    0    0  0.48303243529E+02 -0.69824581410E+02 -0.21284776453E+03  0.22915681611E+03  0.00000000000E+00 0. -1.
<mgrwt>
<rscale>  0 0.19669602E+03</rscale>
<asrwt>0</asrwt>
<pdfrwt beam="2">  1        2 0.87834462E-01 0.20155584E+03</pdfrwt>
<pdfrwt beam="1">  1       -2 0.99721629E-02 0.20155584E+03</pdfrwt>
<totfact> 0.35182225E+03</totfact>
</mgrwt>
</event>
<event>
 6    1  0.7270761E-006  0.1281188E+03  0.7546771E-02  0.1246845E+00
         -1   -1    0    0    0  501 -0.00000000000E+00  0.00000000000E+00  0.15813760711E+02  0.15813760711E+02  0.00000000000E+00 0.  1.
          1   -1    0    0  501    0  0.00000000000E+00 -0.00000000000E+00 -0.76261100694E+03  0.76261100694E+03  0.00000000000E+00 0. -1.
          5    1    1    2  502    0  0.28367135686E+02 -0.66471936692E+01 -0.18851246688E+02  0.35019124381E+02  0.47000000000E+01 0. -1.
         -5    1    1    2    0  502 -0.20829958443E+02  0.33724149962E+02 -0.42738767670E+03  0.42924762277E+03  0.47000000000E+01 0. -1.
        -11    1    1    2    0    0  0.18370366008E+02  0.14449470356E+02 -0.24754023498E+02  0.34044371343E+02  0.00000000000E+00 0.  1.
         11    1    1    2    0    0 -0.25907543251E+02 -0.41526426649E+02 -0.27580429934E+03  0.28011364916E+03  0.00000000000E+00 0. -1.
<mgrwt>
<rscale>  0 0.11775659E+03</rscale>
<asrwt>0</asrwt>
<pdfrwt beam="2">  1        1 0.11732475E+00 0.12811883E+03</pdfrwt>
<pdfrwt beam="1">  1       -1 0.24328866E-02 0.12811883E+03</pdfrwt>
<totfact> 0.12141944E+04</totfact>
</mgrwt>
</event>
<event>
 6    1  0.7270761E-006  0.1395045E+03  0.7546771E-02  0.1225334E+00
          1   -1    0    0  501    0  0.00000000000E+00  0.00000000000E+00  0.13688846862E+03  0.13688846862E+03  0.00000000000E+00 0. -1.
         -1   -1    0    0    0  501 -0.00000000000E+00 -0.00000000000E+00 -0.11874978274E+03  0.11874978274E+03  0.00000000000E+00 0.  1.
          5    1    1    2  502    0  0.57500445424E+02  0.15318849997E+02  0.17337154442E+02  0.62158147602E+02  0.47000000000E+01 0. -1.
         -5    1    1    2    0  502 -0.53101646056E+02  0.46469291353E+02 -0.33584857613E+02  0.78289287349E+02  0.47000000000E+01 0. -1.
        -11    1    1    2    0    0 -0.29346001725E+02 -0.20286921367E+02  0.52514555619E+02  0.63486420183E+02  0.00000000000E+00 0. -1.
         11    1    1    2    0    0  0.24947202358E+02 -0.41501219983E+02 -0.18128166575E+02  0.51704396224E+02  0.00000000000E+00 0.  1.
<mgrwt>
<rscale>  0 0.13144033E+03</rscale>
<asrwt>0</asrwt>
<pdfrwt beam="1">  1        1 0.21059764E-01 0.13950446E+03</pdfrwt>
<pdfrwt beam="2">  1       -1 0.18269197E-01 0.13950446E+03</pdfrwt>
<totfact> 0.53334876E+03</totfact>
</mgrwt>
</event>
<event>
 6    1  0.7270761E-006  0.1432430E+03  0.7546771E-02  0.1220957E+00
         -4   -1    0    0    0  501 -0.00000000000E+00  0.00000000000E+00  0.62539597774E+02  0.62539597774E+02  0.00000000000E+00 0.  1.
          4   -1    0    0  501    0  0.00000000000E+00 -0.00000000000E+00 -0.30185625922E+03  0.30185625922E+03  0.00000000000E+00 0. -1.
          5    1    1    2  502    0  0.11956364988E+02  0.27785226065E+02  0.11990831954E+02  0.32876184422E+02  0.47000000000E+01 0.  1.
         -5    1    1    2    0  502 -0.69260251949E+01 -0.97560180969E+02 -0.76321672878E+02  0.12414929112E+03  0.47000000000E+01 0.  1.
        -11    1    1    2    0    0 -0.17993149708E+01  0.83414908431E+02 -0.96172401024E+02  0.12732012882E+03  0.00000000000E+00 0.  1.
         11    1    1    2    0    0 -0.32310248223E+01 -0.13639953527E+02 -0.78813419497E+02  0.80050252632E+02  0.00000000000E+00 0. -1.
<mgrwt>
<rscale>  0 0.13447938E+03</rscale>
<asrwt>0</asrwt>
<pdfrwt beam="2">  1        4 0.46439424E-01 0.14324295E+03</pdfrwt>
<pdfrwt beam="1">  1       -4 0.96214766E-02 0.14324295E+03</pdfrwt>
<totfact> 0.61176437E+02</totfact>
</mgrwt>
</event>
<event>
 6    1  0.7270761E-006  0.2113040E+03  0.7546771E-02  0.1144264E+00
         -2   -1    0    0    0  501 -0.00000000000E+00  0.00000000000E+00  0.55254932889E+02  0.55254932889E+02  0.00000000000E+00 0.  1.
          2   -1    0    0  501    0  0.00000000000E+00 -0.00000000000E+00 -0.80876034624E+03  0.80876034624E+03  0.00000000000E+00 0. -1.
          5    1    1    2  502    0  0.24379556840E+02 -0.14456545754E+03 -0.12816290232E+03  0.19478540458E+03  0.47000000000E+01 0.  1.
         -5    1    1    2    0  502  0.42458970728E+02 -0.12164497676E+02 -0.13849825739E+03  0.14544619796E+03  0.47000000000E+01 0.  1.
        -11    1    1    2    0    0 -0.19477315919E+01  0.39669602741E+02 -0.36396484072E+02  0.53871839516E+02  0.00000000000E+00 0.  1.
         11    1    1    2    0    0 -0.64890795976E+02  0.11706035247E+03 -0.45044776956E+03  0.46991183708E+03  0.00000000000E+00 0. -1.
<mgrwt>
<rscale>  0 0.20662883E+03</rscale>
<asrwt>0</asrwt>
<pdfrwt beam="2">  1        2 0.12442467E+00 0.21130397E+03</pdfrwt>
<pdfrwt beam="1">  1       -2 0.85007591E-02 0.21130397E+03</pdfrwt>
<totfact> 0.29834642E+03</totfact>
</mgrwt>
</event>
<event>
 6    1  0.7270761E-006  0.1357143E+03  0.7546771E-02  0.1235713E+00
          2   -1    0    0  501    0  0.00000000000E+00  0.00000000000E+00  0.14175910900E+03  0.14175910900E+03  0.00000000000E+00 0.  1.
         -2   -1    0    0    0  501 -0.00000000000E+00 -0.00000000000E+00 -0.19329143508E+03  0.19329143508E+03  0.00000000000E+00 0. -1.
          5    1    1    2  502    0  0.71428987651E+02  0.38493541634E+02 -0.14065606919E+03  0.16245021645E+03  0.47000000000E+01 0. -1.
         -5    1    1    2    0  502 -0.36483846185E+02  0.11607122339E+01 -0.58675775913E+01  0.37268441772E+02  0.47000000000E+01 0. -1.
        -11    1    1    2    0    0 -0.29194922198E+02  0.15885152257E+02  0.62347634662E+02  0.70653443599E+02  0.00000000000E+00 0.  1.
         11    1    1    2    0    0 -0.57502192679E+01 -0.55539406125E+02  0.32643686046E+02  0.64678442259E+02  0.00000000000E+00 0. -1.
<mgrwt>
<rscale>  0 0.12458883E+03</rscale>
<asrwt>0</asrwt>
<pdfrwt beam="1">  1        2 0.21809094E-01 0.13571427E+03</pdfrwt>
<pdfrwt beam="2">  1       -2 0.29737144E-01 0.13571427E+03</pdfrwt>
<totfact> 0.25263630E+03</totfact>
</mgrwt>
</event>
<event>
 6    1  0.7270761E-006  0.1294060E+03  0.7546771E-02  0.1239675E+00
         -1   -1    0    0    0  501 -0.00000000000E+00  0.00000000000E+00  0.49390893345E+03  0.49390893345E+03  0.00000000000E+00 0.  1.
          1   -1    0    0  501    0  0.00000000000E+00 -0.00000000000E+00 -0.28876255569E+02  0.28876255569E+02  0.00000000000E+00 0. -1.
          5    1    1    2  502    0  0.46516079346E+02  0.11574247756E+02  0.78232636466E+02  0.91870257741E+02  0.47000000000E+01 0.  1.
         -5    1    1    2    0  502 -0.63836450183E+02 -0.40217247777E+02  0.24157468284E+03  0.25312632573E+03  0.47000000000E+01 0.  1.
        -11    1    1    2    0    0  0.55837299582E+02  0.10903615740E+02  0.60525878965E+02  0.83066689384E+02  0.00000000000E+00 0. -1.
         11    1    1    2    0    0 -0.38516928745E+02  0.17739384282E+02  0.84699479617E+02  0.94721916165E+02  0.00000000000E+00 0.  1.
<mgrwt>
<rscale>  0 0.12209827E+03</rscale>
<asrwt>0</asrwt>
<pdfrwt beam="2">  1        1 0.44425012E-02 0.12940603E+03</pdfrwt>
<pdfrwt beam="1">  1       -1 0.75985984E-01 0.12940603E+03</pdfrwt>
<totfact> 0.34149829E+03</totfact>
</mgrwt>
</event>
<event>
 6    1  0.7270761E-006  0.1451596E+03  0.7546771E-02  0.1228014E+00
         -4   -1    0    0    0  501 -0.00000000000E+00  0.00000000000E+00  0.15502530015E+03  0.15502530015E+03  0.00000000000E+00 0.  1.
          4   -1    0    0  501    0  0.00000000000E+00 -0.00000000000E+00 -0.11843728947E+03  0.11843728947E+03  0.00000000000E+00 0. -1.
          5    1    1    2  502    0 -0.29955777367E+01 -0.28286050704E+02  0.54478778163E+02  0.61636851157E+02  0.47000000000E+01 0.  1.
         -5    1    1    2    0  502  0.10749011571E+02  0.10167694522E+03  0.31565843259E+02  0.10710851926E+03  0.47000000000E+01 0.  1.
        -11    1    1    2    0    0 -0.76470741780E+01 -0.21256640175E+02  0.10798587892E+02  0.25038610095E+02  0.00000000000E+00 0.  1.
         11    1    1    2    0    0 -0.10635965665E+00 -0.52134254336E+02 -0.60255198632E+02  0.79678609110E+02  0.00000000000E+00 0. -1.
<mgrwt>
<rscale>  0 0.12962469E+03</rscale>
<asrwt>0</asrwt>
<pdfrwt beam="2">  1        4 0.18221121E-01 0.14515965E+03</pdfrwt>
<pdfrwt beam="1">  1       -4 0.23850046E-01 0.14515965E+03</pdfrwt>
<totfact> 0.73149163E+02</totfact>
</mgrwt>
</event>
<event>
 6    1  0.7270761E-006  0.1291129E+03  0.7546771E-02  0.1242761E+00
          3   -1    0    0  501    0  0.00000000000E+00  0.00000000000E+00  0.28153537919E+03  0.28153537919E+03  0.00000000000E+00 0. -1.
         -3   -1    0    0    0  501 -0.00000000000E+00 -0.00000000000E+00 -0.45610797507E+02  0.45610797507E+02  0.00000000000E+00 0.  1.
          5    1    1    2  502    0 -0.66766565192E+02 -0.38460089175E+02  0.87274484743E+02  0.11651557138E+03  0.47000000000E+01 0. -1.
         -5    1    1    2    0  502  0.34424414840E+02  0.38578866991E+02  0.58372284184E+02  0.78120310268E+02  0.47000000000E+01 0. -1.
        -11    1    1    2    0    0  0.34006334610E+02 -0.22802687497E+02  0.16139842829E+01  0.40975581704E+02  0.00000000000E+00 0.  1.
         11    1    1    2    0    0 -0.16641842586E+01  0.22683909681E+02  0.88663828472E+02  0.91534713344E+02  0.00000000000E+00 0. -1.
<mgrwt>
<rscale>  0 0.12020419E+03</rscale>
<asrwt>0</asrwt>
<pdfrwt beam="1">  1        3 0.43313134E-01 0.12911292E+03</pdfrwt>
<pdfrwt beam="2">  1       -3 0.70170459E-02 0.12911292E+03</pdfrwt>
<totfact> 0.16005550E+03</totfact>
</mgrwt>
</event>
<event>
 6    1  0.7270761E-006  0.1280106E+03  0.7546771E-02  0.1245292E+00
          2   -1    0    0  501    0  0.00000000000E+00  0.00000000000E+00  0.67932387489E+02  0.67932387489E+02  0.00000000000E+00 0. -1.
         -2   -1    0    0    0  501 -0.00000000000E+00 -0.00000000000E+00 -0.18383093784E+03  0.18383093784E+03  0.00000000000E+00 0.  1.
          5    1    1    2  502    0  0.37420680684E+02 -0.56448718565E+02 -0.48971264293E+02  0.83708063512E+02  0.47000000000E+01 0.  1.
         -5    1    1    2    0  502 -0.49991514474E+02  0.31876531172E+02 -0.28876261588E+02  0.66115000131E+02  0.47000000000E+01 0.  1.
        -11    1    1    2    0    0  0.36029772371E+02  0.26203508164E+02  0.12428736874E+02  0.46251938743E+02  0.00000000000E+00 0. -1.
         11    1    1    2    0    0 -0.23458938581E+02 -0.16313207715E+01 -0.50479761345E+02  0.55688322943E+02  0.00000000000E+00 0.  1.
<mgrwt>
<rscale>  0 0.11867945E+03</rscale>
<asrwt>0</asrwt>
<pdfrwt beam="1">  1        2 0.10451137E-01 0.12801060E+03</pdfrwt>
<pdfrwt beam="2">  1       -2 0.28281682E-01 0.12801060E+03</pdfrwt>
<totfact> 0.65052981E+03</totfact>
</mgrwt>
</event>
<event>
 6    1  0.7270761E-006  0.2144156E+03  0.7546771E-02  0.1141630E+00
         -2   -1    0    0    0  501 -0.00000000000E+00  0.00000000000E+00  0.21785693617E+03  0.21785693617E+03  0.00000000000E+00 0.  1.
          2   -1    0    0  501    0  0.00000000000E+00 -0.00000000000E+00 -0.20923079840E+03  0.20923079840E+03  0.00000000000E+00 0. -1.
          5    1    1    2  502    0 -0.41586742322E+02 -0.12492624313E+03  0.61201218606E+02  0.14527113449E+03  0.47000000000E+01 0.  1.
         -5    1    1    2    0  502 -0.77652303394E+02 -0.20817842389E+01  0.41958977534E+00  0.77823390466E+02  0.47000000000E+01 0.  1.
        -11    1    1    2    0    0  0.99738372513E+02  0.10991627678E+03 -0.39032833022E+01  0.14847412728E+03  0.00000000000E+00 0.  1.
         11    1    1    2    0    0  0.19500673203E+02  0.17091750587E+02 -0.49091387310E+02  0.55519082319E+02  0.00000000000E+00 0. -1.
<mgrwt>
<rscale>  0 0.20991957E+03</rscale>
<asrwt>0</asrwt>
<pdfrwt beam="2">  1        2 0.32189353E-01 0.21441558E+03</pdfrwt>
<pdfrwt beam="1">  1       -2 0.33516452E-01 0.21441558E+03</pdfrwt>
<totfact> 0.13434319E+03</totfact>
</mgrwt>
</event>
<event>
 6    1  0.7270761E-006  0.1503432E+03  0.7546771E-02  0.1211117E+00
         -3   -1    0    0    0  501 -0.00000000000E+00  0.00000000000E+00  0.42557606118E+03  0.42557606118E+03  0.00000000000E+00 0.  1.
          3   -1    0    0  501    0  0.00000000000E+00 -0.00000000000E+00 -0.10915932759E+03  0.10915932759E+03  0.00000000000E+00 0. -1.
          5    1    1    2  502    0  0.62264039698E+02 -0.70598429529E+02  0.16203231323E+03  0.18745001847E+03  0.47000000000E+01 0.  1.
         -5    1    1    2    0  502 -0.38228051640E+02 -0.93382940069E+01  0.21189634958E+03  0.21557073232E+03  0.47000000000E+01 0.  1.
        -11    1    1    2    0    0  0.50915049171E+01  0.64088835859E+02  0.11817507994E+01  0.64301623922E+02  0.00000000000E+00 0.  1.
         11    1    1    2    0    0 -0.29127492975E+02  0.15847887677E+02 -0.58693680023E+02  0.67413014066E+02  0.00000000000E+00 0. -1.
<mgrwt>
<rscale>  0 0.14165702E+03</rscale>
<asrwt>0</asrwt>
<pdfrwt beam="2">  1        3 0.16793743E-01 0.15034321E+03</pdfrwt>
<pdfrwt beam="1">  1       -3 0.65473239E-01 0.15034321E+03</pdfrwt>
<totfact> 0.16575797E+02</totfact>
</mgrwt>
</event>
<event>
 6    1  0.7270761E-006  0.1397770E+03  0.7546771E-02  0.1224479E+00
         -2   -1    0    0    0  501 -0.00000000000E+00  0.00000000000E+00  0.32914695917E+03  0.32914695917E+03  0.00000000000E+00 0. -1.
          2   -1    0    0  501    0  0.00000000000E+00 -0.00000000000E+00 -0.47997736002E+02  0.47997736002E+02  0.00000000000E+00 0.  1.
          5    1    1    2  502    0  0.11525943038E+02 -0.74742961954E+00  0.14879079381E+03  0.14931241187E+03  0.47000000000E+01 0. -1.
         -5    1    1    2    0  502  0.39448327591E+02 -0.35480075752E+02 -0.21054071635E+01  0.53305994639E+02  0.47000000000E+01 0. -1.
        -11    1    1    2    0    0 -0.77321041169E+01  0.16234988695E+02 -0.11257382270E+02  0.21215299846E+02  0.00000000000E+00 0.  1.
         11    1    1    2    0    0 -0.43242166513E+02  0.19992516677E+02  0.14572121879E+03  0.15331098882E+03  0.00000000000E+00 0. -1.
<mgrwt>
<rscale>  0 0.13202680E+03</rscale>
<asrwt>0</asrwt>
<pdfrwt beam="2">  1        2 0.73842673E-02 0.13977702E+03</pdfrwt>
<pdfrwt beam="1">  1       -2 0.50637992E-01 0.13977702E+03</pdfrwt>
<totfact> 0.33811866E+03</totfact>
</mgrwt>
</event>
<event>
 6    1  0.7270761E-006  0.1711038E+03  0.7546771E-02  0.1183055E+00
          2   -1    0    0  501    0  0.00000000000E+00  0.00000000000E+00  0.21762170173E+03  0.21762170173E+03  0.00000000000E+00 0. -1.
         -2   -1    0    0    0  501 -0.00000000000E+00 -0.00000000000E+00 -0.13830070587E+03  0.13830070587E+03  0.00000000000E+00 0.  1.
          5    1    1    2  502    0  0.42831889071E+02  0.30731709998E+02 -0.19113444724E+02  0.56270973779E+02  0.47000000000E+01 0. -1.
         -5    1    1    2    0  502  0.45284069030E+02 -0.10746186202E+03 -0.81618758779E+01  0.11699318320E+03  0.47000000000E+01 0. -1.
        -11    1    1    2    0    0 -0.72504725488E+02  0.88460198934E+02  0.53862412796E+02  0.12642508266E+03  0.00000000000E+00 0.  1.
         11    1    1    2    0    0 -0.15611232614E+02 -0.11730046912E+02  0.52733903658E+02  0.56233167964E+02  0.00000000000E+00 0. -1.
<mgrwt>
<rscale>  0 0.16510141E+03</rscale>
<asrwt>0</asrwt>
<pdfrwt beam="1">  1        2 0.33480262E-01 0.17110384E+03</pdfrwt>
<pdfrwt beam="2">  1       -2 0.21277032E-01 0.17110384E+03</pdfrwt>
<totfact> 0.28672612E+03</totfact>
</mgrwt>
</event>
<event>
 6    1  0.7270761E-006  0.3773287E+03  0.7546771E-02  0.1051926E+00
          1   -1    0    0  501    0  0.00000000000E+00  0.00000000000E+00  0.79990857158E+02  0.79990857158E+02  0.00000000000E+00 0. -1.
         -1   -1    0    0    0  501 -0.00000000000E+00 -0.00000000000E+00 -0.44497883316E+03  0.44497883316E+03  0.00000000000E+00 0.  1.
          5    1    1    2  502    0 -0.13570650309E+03 -0.90250503419E+02 -0.26928442783E+03  0.31479771508E+03  0.47000000000E+01 0.  1.
         -5    1    1    2    0  502  0.17578505512E+02  0.80352497614E+01 -0.74531833595E+01  0.21241681594E+02  0.47000000000E+01 0.  1.
        -11    1    1    2    0    0  0.41817150160E+02  0.75413538645E+02 -0.67634821379E+02  0.10959171922E+03  0.00000000000E+00 0.  1.
         11    1    1    2    0    0  0.76310847420E+02  0.68017150128E+01 -0.20615543440E+02  0.79338574428E+02  0.00000000000E+00 0. -1.
<mgrwt>
<rscale>  0 0.37732871E+03</rscale>
<asrwt>0</asrwt>
<pdfrwt beam="1">  1        1 0.12306286E-01 0.37732871E+03</pdfrwt>
<pdfrwt beam="2">  1       -1 0.68458283E-01 0.37732871E+03</pdfrwt>
<totfact> 0.10915177E+03</totfact>
</mgrwt>
</event>
<event>
 6    1  0.7270761E-006  0.2204689E+03  0.7546771E-02  0.1133534E+00
         -1   -1    0    0    0  501 -0.00000000000E+00  0.00000000000E+00  0.52898061437E+02  0.52898061437E+02  0.00000000000E+00 0.  1.
          1   -1    0    0  501    0  0.00000000000E+00 -0.00000000000E+00 -0.22971794730E+03  0.22971794730E+03  0.00000000000E+00 0. -1.
          5    1    1    2  502    0 -0.29053852109E+02 -0.51328833853E+02 -0.12788268038E+03  0.14090722284E+03  0.47000000000E+01 0. -1.
         -5    1    1    2    0  502  0.15133898816E+02  0.14568956262E+02  0.12221164383E+02  0.24753509626E+02  0.47000000000E+01 0.  1.
        -11    1    1    2    0    0 -0.12114557497E+02  0.60863061366E+02 -0.26901540997E+02  0.67637028691E+02  0.00000000000E+00 0.  1.
         11    1    1    2    0    0  0.26034510790E+02 -0.24103183775E+02 -0.34256828868E+02  0.49318247579E+02  0.00000000000E+00 0. -1.
<mgrwt>
<rscale>  0 0.22046890E+03</rscale>
<asrwt>0</asrwt>
<pdfrwt beam="2">  1        1 0.35341223E-01 0.22046890E+03</pdfrwt>
<pdfrwt beam="1">  1       -1 0.81381633E-02 0.22046890E+03</pdfrwt>
<totfact> 0.10074458E+04</totfact>
</mgrwt>
</event>
<event>
 6    1  0.7270761E-006  0.1346510E+03  0.7546771E-02  0.1232850E+00
         -2   -1    0    0    0  501 -0.00000000000E+00  0.00000000000E+00  0.27632977966E+03  0.27632977966E+03  0.00000000000E+00 0.  1.
          2   -1    0    0  501    0  0.00000000000E+00 -0.00000000000E+00 -0.53277806562E+02  0.53277806562E+02  0.00000000000E+00 0. -1.
          5    1    1    2  502    0  0.30888278382E+02  0.44740769839E+01 -0.10546929564E+02  0.33278083321E+02  0.47000000000E+01 0.  1.
         -5    1    1    2    0  502 -0.65447720955E+01 -0.48206597710E+02  0.16278486815E+03  0.16996385911E+03  0.47000000000E+01 0.  1.
        -11    1    1    2    0    0  0.30954371091E+02  0.21895904180E+02  0.59550846250E+01  0.38380551617E+02  0.00000000000E+00 0. -1.
         11    1    1    2    0    0 -0.55297877378E+02  0.21836616546E+02  0.64858949886E+02  0.87985092175E+02  0.00000000000E+00 0.  1.
<mgrwt>
<rscale>  0 0.12643057E+03</rscale>
<asrwt>0</asrwt>
<pdfrwt beam="2">  1        2 0.81965858E-02 0.13465102E+03</pdfrwt>
<pdfrwt beam="1">  1       -2 0.42512273E-01 0.13465102E+03</pdfrwt>
<totfact> 0.41586544E+03</totfact>
</mgrwt>
</event>
<event>
 6    1  0.7270761E-006  0.1308349E+03  0.7546771E-02  0.1239690E+00
          1   -1    0    0  501    0  0.00000000000E+00  0.00000000000E+00  0.44629525166E+03  0.44629525166E+03  0.00000000000E+00 0. -1.
         -1   -1    0    0    0  501 -0.00000000000E+00 -0.00000000000E+00 -0.29974696204E+02  0.29974696204E+02  0.00000000000E+00 0.  1.
          5    1    1    2  502    0 -0.12808397434E+02 -0.79416003403E+02  0.14697381219E+03  0.16761368713E+03  0.47000000000E+01 0.  1.
         -5    1    1    2    0  502 -0.95929469801E+01  0.47938296443E+02  0.64682527553E+02  0.81215911423E+02  0.47000000000E+01 0.  1.
        -11    1    1    2    0    0  0.27051144593E+02 -0.22269249629E+02  0.13418448364E+03  0.13868366722E+03  0.00000000000E+00 0. -1.
         11    1    1    2    0    0 -0.46498001782E+01  0.53746956589E+02  0.70479732064E+02  0.88756682092E+02  0.00000000000E+00 0.  1.
<mgrwt>
<rscale>  0 0.12208892E+03</rscale>
<asrwt>0</asrwt>
<pdfrwt beam="1">  1        1 0.68660803E-01 0.13083487E+03</pdfrwt>
<pdfrwt beam="2">  1       -1 0.46114920E-02 0.13083487E+03</pdfrwt>
<totfact> 0.98978211E+03</totfact>
</mgrwt>
</event>
<event>
 6    1  0.7270761E-006  0.3218567E+03  0.7546771E-02  0.1074798E+00
          1   -1    0    0  501    0  0.00000000000E+00  0.00000000000E+00  0.51542388293E+03  0.51542388293E+03  0.00000000000E+00 0. -1.
         -1   -1    0    0    0  501 -0.00000000000E+00 -0.00000000000E+00 -0.50245892975E+02  0.50245892975E+02  0.00000000000E+00 0.  1.
          5    1    1    2  502    0  0.23794190243E+02 -0.12818974553E+02 -0.71738049559E+01  0.28355653324E+02  0.47000000000E+01 0.  1.
         -5    1    1    2    0  502 -0.12028312237E+02  0.11087372503E+03  0.14006826464E+03  0.17910575635E+03  0.47000000000E+01 0.  1.
        -11    1    1    2    0    0 -0.45082957079E+02 -0.49228221598E+02  0.23571837615E+03  0.24498784394E+03  0.00000000000E+00 0.  1.
         11    1    1    2    0    0  0.33317079072E+02 -0.48826528875E+02  0.96565154113E+02  0.11322052230E+03  0.00000000000E+00 0. -1.
<mgrwt>
<rscale>  0 0.32185670E+03</rscale>
<asrwt>0</asrwt>
<pdfrwt beam="1">  1        1 0.79295978E-01 0.32185670E+03</pdfrwt>
<pdfrwt beam="2">  1       -1 0.77301377E-02 0.32185670E+03</pdfrwt>
<totfact> 0.39385655E+03</totfact>
</mgrwt>
</event>
<event>
 6    1  0.7270761E-006  0.1267476E+03  0.7546771E-02  0.1247452E+00
          1   -1    0    0  501    0  0.00000000000E+00  0.00000000000E+00  0.85553622153E+02  0.85553622153E+02  0.00000000000E+00 0. -1.
         -1   -1    0    0    0  501 -0.00000000000E+00 -0.00000000000E+00 -0.14154182170E+03  0.14154182170E+03  0.00000000000E+00 0.  1.
          5    1    1    2  502    0 -0.32307766543E+01  0.42834131784E+02 -0.69353535237E+02  0.81714157974E+02  0.47000000000E+01 0.  1.
         -5    1    1    2    0  502 -0.14744126408E+02 -0.32023277292E+02  0.34695525176E+02  0.49686507417E+02  0.47000000000E+01 0.  1.
        -11    1    1    2    0    0 -0.30957308418E+02 -0.25467504469E+02 -0.19509640419E+02  0.44582225131E+02  0.00000000000E+00 0. -1.
         11    1    1    2    0    0  0.48932211481E+02  0.14656649976E+02 -0.18205490653E+01  0.51112553329E+02  0.00000000000E+00 0.  1.
<mgrwt>
<rscale>  0 0.11739793E+03</rscale>
<asrwt>0</asrwt>
<pdfrwt beam="1">  1        1 0.13162096E-01 0.12674761E+03</pdfrwt>
<pdfrwt beam="2">  1       -1 0.21775665E-01 0.12674761E+03</pdfrwt>
<totfact> 0.73130900E+03</totfact>
</mgrwt>
</event>
<event>
 6    1  0.7270761E-006  0.2951647E+03  0.7546771E-02  0.1087683E+00
         -4   -1    0    0    0  501 -0.00000000000E+00  0.00000000000E+00  0.20763203693E+03  0.20763203693E+03  0.00000000000E+00 0. -1.
          4   -1    0    0  501    0  0.00000000000E+00 -0.00000000000E+00 -0.10489972426E+03  0.10489972426E+03  0.00000000000E+00 0.  1.
          5    1    1    2  502    0 -0.60547708734E+02  0.24769555824E+02  0.33845786924E+02  0.73805035202E+02  0.47000000000E+01 0. -1.
         -5    1    1    2    0  502  0.10034842413E+02 -0.77149389837E+02  0.19358948998E+02  0.80309310299E+02  0.47000000000E+01 0. -1.
        -11    1    1    2    0    0  0.24165737412E+02  0.20593552055E+02 -0.45111684055E+02  0.55164674287E+02  0.00000000000E+00 0.  1.
         11    1    1    2    0    0  0.26347128910E+02  0.31786281958E+02  0.94639260804E+02  0.10325274141E+03  0.00000000000E+00 0. -1.
<mgrwt>
<rscale>  0 0.29516466E+03</rscale>
<asrwt>0</asrwt>
<pdfrwt beam="2">  1        4 0.16138419E-01 0.29516466E+03</pdfrwt>
<pdfrwt beam="1">  1       -4 0.31943390E-01 0.29516466E+03</pdfrwt>
<totfact> 0.59094015E+02</totfact>
</mgrwt>
</event>
<event>
 6    1  0.7270761E-006  0.3223542E+03  0.7546771E-02  0.1074571E+00
         -2   -1    0    0    0  501 -0.00000000000E+00  0.00000000000E+00  0.10794559462E+03  0.10794559462E+03  0.00000000000E+00 0.  1.
          2   -1    0    0  501    0  0.00000000000E+00 -0.00000000000E+00 -0.24065876247E+03  0.24065876247E+03  0.00000000000E+00 0. -1.
          5    1    1    2  502    0  0.65303368374E+02 -0.10825866248E+03 -0.17585712705E+02  0.12773337549E+03  0.47000000000E+01 0.  1.
         -5    1    1    2    0  502 -0.14576931185E+02  0.22480975511E+02  0.17100468593E+02  0.32130938499E+02  0.47000000000E+01 0.  1.
        -11    1    1    2    0    0 -0.30298801084E+01  0.49768156404E+02 -0.11683033824E+03  0.12702510578E+03  0.00000000000E+00 0.  1.
         11    1    1    2    0    0 -0.47696557080E+02  0.36009530566E+02 -0.15397585507E+02  0.61714937319E+02  0.00000000000E+00 0. -1.
<mgrwt>
<rscale>  0 0.32235417E+03</rscale>
<asrwt>0</asrwt>
<pdfrwt beam="2">  1        2 0.37024425E-01 0.32235417E+03</pdfrwt>
<pdfrwt beam="1">  1       -2 0.16607015E-01 0.32235417E+03</pdfrwt>
<totfact> 0.40163712E+03</totfact>
</mgrwt>
</event>
<event>
 6    1  0.7270761E-006  0.1694487E+03  0.7546771E-02  0.1184790E+00
          2   -1    0    0  501    0  0.00000000000E+00  0.00000000000E+00  0.21596131462E+03  0.21596131462E+03  0.00000000000E+00 0. -1.
         -2   -1    0    0    0  501 -0.00000000000E+00 -0.00000000000E+00 -0.14528745128E+03  0.14528745128E+03  0.00000000000E+00 0.  1.
          5    1    1    2  502    0  0.84963384987E+01  0.14156503122E+02  0.41619836667E+02  0.45021052328E+02  0.47000000000E+01 0. -1.
         -5    1    1    2    0  502  0.52257386678E+02  0.82775701312E+02 -0.85400227723E+02  0.12999207701E+03  0.47000000000E+01 0. -1.
        -11    1    1    2    0    0 -0.83134088606E+02 -0.85420099421E+02  0.79944742735E+02  0.14352362859E+03  0.00000000000E+00 0.  1.
         11    1    1    2    0    0  0.22380363430E+02 -0.11512105012E+02  0.34509511662E+02  0.42712007963E+02  0.00000000000E+00 0. -1.
<mgrwt>
<rscale>  0 0.16351028E+03</rscale>
<asrwt>0</asrwt>
<pdfrwt beam="1">  1        2 0.33224817E-01 0.16944873E+03</pdfrwt>
<pdfrwt beam="2">  1       -2 0.22351916E-01 0.16944873E+03</pdfrwt>
<totfact> 0.26549607E+03</totfact>
</mgrwt>
</event>
<event>
 6    1  0.7270761E-006  0.2009602E+03  0.7546771E-02  0.1169756E+00
          1   -1    0    0  501    0  0.00000000000E+00  0.00000000000E+00  0.41751597440E+03  0.41751597440E+03  0.00000000000E+00 0. -1.
         -1   -1    0    0    0  501 -0.00000000000E+00 -0.00000000000E+00 -0.64115274735E+02  0.64115274735E+02  0.00000000000E+00 0.  1.
          5    1    1    2  502    0 -0.25712334634E+02  0.67106233540E+02  0.18073710118E+03  0.19455683097E+03  0.47000000000E+01 0. -1.
         -5    1    1    2    0  502  0.97712438765E+02 -0.37523841578E+02  0.66690837737E+02  0.12419950569E+03  0.47000000000E+01 0.  1.
        -11    1    1    2    0    0 -0.20683759675E+02  0.34292004977E+02  0.47962045645E+02  0.62482936407E+02  0.00000000000E+00 0.  1.
         11    1    1    2    0    0 -0.51316344455E+02 -0.63874396939E+02  0.58010715105E+02  0.10039197607E+03  0.00000000000E+00 0. -1.
<mgrwt>
<rscale>  0 0.17799671E+03</rscale>
<asrwt>0</asrwt>
<pdfrwt beam="1">  1        1 0.64233225E-01 0.20096024E+03</pdfrwt>
<pdfrwt beam="2">  1       -1 0.98638887E-02 0.20096024E+03</pdfrwt>
<totfact> 0.35147952E+03</totfact>
</mgrwt>
</event>
<event>
 6    1  0.7270761E-006  0.2076706E+03  0.7546771E-02  0.1147363E+00
         -2   -1    0    0    0  501 -0.00000000000E+00  0.00000000000E+00  0.18432983497E+03  0.18432983497E+03  0.00000000000E+00 0. -1.
          2   -1    0    0  501    0  0.00000000000E+00 -0.00000000000E+00 -0.21873359857E+03  0.21873359857E+03  0.00000000000E+00 0.  1.
          5    1    1    2  502    0  0.55412817991E+02 -0.38193182564E+01  0.60296468032E+02  0.82115294840E+02  0.47000000000E+01 0.  1.
         -5    1    1    2    0  502  0.92245936184E+02 -0.71678346327E+02 -0.46935485792E+02  0.12598463359E+03  0.47000000000E+01 0.  1.
        -11    1    1    2    0    0 -0.10168425108E+03  0.15118554384E+01 -0.21036884166E+02  0.10384855858E+03  0.00000000000E+00 0. -1.
         11    1    1    2    0    0 -0.45974503098E+02  0.73985809145E+02 -0.26727861678E+02  0.91114946523E+02  0.00000000000E+00 0.  1.
<mgrwt>
<rscale>  0 0.20284265E+03</rscale>
<asrwt>0</asrwt>
<pdfrwt beam="2">  1        2 0.33651323E-01 0.20767057E+03</pdfrwt>
<pdfrwt beam="1">  1       -2 0.28358436E-01 0.20767057E+03</pdfrwt>
<totfact> 0.17343531E+03</totfact>
</mgrwt>
</event>
<event>
 6    1  0.7270761E-006  0.4526113E+03  0.7546771E-02  0.1026946E+00
         -2   -1    0    0    0  501 -0.00000000000E+00  0.00000000000E+00  0.43915368072E+03  0.43915368072E+03  0.00000000000E+00 0. -1.
          2   -1    0    0  501    0  0.00000000000E+00 -0.00000000000E+00 -0.11662032335E+03  0.11662032335E+03  0.00000000000E+00 0.  1.
          5    1    1    2  502    0  0.28709528152E+02  0.17192705311E+03  0.18574050964E+03  0.25476415667E+03  0.47000000000E+01 0.  1.
         -5    1    1    2    0  502  0.44534616610E+02  0.30090925895E+01  0.12149465676E+02  0.46498239010E+02  0.47000000000E+01 0.  1.
        -11    1    1    2    0    0 -0.10381691022E+03 -0.12068725683E+03  0.82328830793E+02  0.17922444361E+03  0.00000000000E+00 0. -1.
         11    1    1    2    0    0  0.30572765460E+02 -0.54248888875E+02  0.42314551265E+02  0.75287164781E+02  0.00000000000E+00 0.  1.
<mgrwt>
<rscale>  0 0.45261129E+03</rscale>
<asrwt>0</asrwt>
<pdfrwt beam="2">  1        2 0.17941588E-01 0.45261129E+03</pdfrwt>
<pdfrwt beam="1">  1       -2 0.67562104E-01 0.45261129E+03</pdfrwt>
<totfact> 0.65280842E+02</totfact>
</mgrwt>
</event>
<event>
 6    1  0.7270761E-006  0.1252936E+03  0.7546771E-02  0.1249772E+00
         -1   -1    0    0    0  501 -0.00000000000E+00  0.00000000000E+00  0.36499464382E+02  0.36499464382E+02  0.00000000000E+00 0.  1.
          1   -1    0    0  501    0  0.00000000000E+00 -0.00000000000E+00 -0.46732928680E+03  0.46732928680E+03  0.00000000000E+00 0. -1.
          5    1    1    2  502    0  0.22477868483E+02  0.46505379091E+02 -0.89401289226E+01  0.52630986701E+02  0.47000000000E+01 0.  1.
         -5    1    1    2    0  502 -0.30812110274E+02 -0.48404619615E+02 -0.90805298312E+02  0.10751783825E+03  0.47000000000E+01 0.  1.
        -11    1    1    2    0    0  0.16085968564E+02 -0.38353604264E+02 -0.90125901408E+02  0.99259435064E+02  0.00000000000E+00 0. -1.
         11    1    1    2    0    0 -0.77517267724E+01  0.40252844788E+02 -0.24095849378E+03  0.24442049117E+03  0.00000000000E+00 0.  1.
<mgrwt>
<rscale>  0 0.11604270E+03</rscale>
<asrwt>0</asrwt>
<pdfrwt beam="2">  1        1 0.71896814E-01 0.12529364E+03</pdfrwt>
<pdfrwt beam="1">  1       -1 0.56153022E-02 0.12529364E+03</pdfrwt>
<totfact> 0.69536598E+03</totfact>
</mgrwt>
</event>
<event>
 6    1  0.7270761E-006  0.1330208E+03  0.7546771E-02  0.1235867E+00
         -2   -1    0    0    0  501 -0.00000000000E+00  0.00000000000E+00  0.39195633486E+02  0.39195633486E+02  0.00000000000E+00 0.  1.
          2   -1    0    0  501    0  0.00000000000E+00 -0.00000000000E+00 -0.38472148219E+03  0.38472148219E+03  0.00000000000E+00 0. -1.
          5    1    1    2  502    0  0.66651150193E+01 -0.40083275233E+02  0.70480721593E+01  0.41507325050E+02  0.47000000000E+01 0. -1.
         -5    1    1    2    0  502 -0.41836521558E+02  0.11236112941E+02 -0.13975702916E+03  0.14639215133E+03  0.47000000000E+01 0. -1.
        -11    1    1    2    0    0  0.10588008728E+02 -0.25713374570E+02 -0.20341271623E+02  0.34453604918E+02  0.00000000000E+00 0.  1.
         11    1    1    2    0    0  0.24583397812E+02  0.54560536862E+02 -0.19247562008E+03  0.20156403438E+03  0.00000000000E+00 0. -1.
<mgrwt>
<rscale>  0 0.12449110E+03</rscale>
<asrwt>0</asrwt>
<pdfrwt beam="2">  1        2 0.59187923E-01 0.13302085E+03</pdfrwt>
<pdfrwt beam="1">  1       -2 0.60300972E-02 0.13302085E+03</pdfrwt>
<totfact> 0.11563321E+04</totfact>
</mgrwt>
</event>
<event>
 6    1  0.7270761E-006  0.1535574E+03  0.7546771E-02  0.1204660E+00
          4   -1    0    0  501    0  0.00000000000E+00  0.00000000000E+00  0.57353543870E+02  0.57353543870E+02  0.00000000000E+00 0. -1.
         -4   -1    0    0    0  501 -0.00000000000E+00 -0.00000000000E+00 -0.34785912021E+03  0.34785912021E+03  0.00000000000E+00 0.  1.
          5    1    1    2  502    0  0.73261357125E+02  0.19889910370E+02 -0.18851333577E+03  0.20327863327E+03  0.47000000000E+01 0.  1.
         -5    1    1    2    0  502  0.15833045692E+02 -0.24022224336E+02  0.11249351551E+02  0.31247248011E+02  0.47000000000E+01 0.  1.
        -11    1    1    2    0    0 -0.69706676518E+02  0.13404476937E+02 -0.12677134049E+03  0.14529168429E+03  0.00000000000E+00 0.  1.
         11    1    1    2    0    0 -0.19387726299E+02 -0.92721629704E+01  0.13529748372E+02  0.25395098508E+02  0.00000000000E+00 0. -1.
<mgrwt>
<rscale>  0 0.14664283E+03</rscale>
<asrwt>0</asrwt>
<pdfrwt beam="1">  1        4 0.88236222E-02 0.15355738E+03</pdfrwt>
<pdfrwt beam="2">  1       -4 0.53516787E-01 0.15355738E+03</pdfrwt>
<totfact> 0.53674057E+02</totfact>
</mgrwt>
</event>
<event>
 6    1  0.7270761E-006  0.1264873E+03  0.7546771E-02  0.1251610E+00
         -2   -1    0    0    0  501 -0.00000000000E+00  0.00000000000E+00  0.27884844124E+03  0.27884844124E+03  0.00000000000E+00 0.  1.
          2   -1    0    0  501    0  0.00000000000E+00 -0.00000000000E+00 -0.43081522124E+02  0.43081522124E+02  0.00000000000E+00 0. -1.
          5    1    1    2  502    0  0.50922541456E+02 -0.27498254059E+02  0.87440591874E+02  0.10496288064E+03  0.47000000000E+01 0. -1.
         -5    1    1    2    0  502 -0.67209483197E+02  0.10688756111E+02  0.89187472438E+02  0.11228472460E+03  0.47000000000E+01 0.  1.
        -11    1    1    2    0    0  0.48484824703E+02 -0.24108781659E+01  0.37896688161E+02  0.61585302902E+02  0.00000000000E+00 0. -1.
         11    1    1    2    0    0 -0.32197882962E+02  0.19220376114E+02  0.21242166645E+02  0.43097055224E+02  0.00000000000E+00 0.  1.
<mgrwt>
<rscale>  0 0.11498333E+03</rscale>
<asrwt>0</asrwt>
<pdfrwt beam="2">  1        2 0.66279267E-02 0.12648735E+03</pdfrwt>
<pdfrwt beam="1">  1       -2 0.42899759E-01 0.12648735E+03</pdfrwt>
<totfact> 0.53204870E+03</totfact>
</mgrwt>
</event>
<event>
 6    1  0.7270761E-006  0.1267330E+03  0.7546771E-02  0.1246717E+00
         -1   -1    0    0    0  501 -0.00000000000E+00  0.00000000000E+00  0.16829323847E+03  0.16829323847E+03  0.00000000000E+00 0.  1.
          1   -1    0    0  501    0  0.00000000000E+00 -0.00000000000E+00 -0.72973507082E+02  0.72973507082E+02  0.00000000000E+00 0. -1.
          5    1    1    2  502    0 -0.63407619219E+02  0.12158488468E+02  0.58592229950E+02  0.87312624673E+02  0.47000000000E+01 0. -1.
         -5    1    1    2    0  502  0.46514479684E+02 -0.24372406200E+02  0.10010239947E+01  0.52732371967E+02  0.47000000000E+01 0. -1.
        -11    1    1    2    0    0 -0.22911204267E+02  0.13268587703E+02 -0.19681652903E+02  0.32990091870E+02  0.00000000000E+00 0. -1.
         11    1    1    2    0    0  0.39804343801E+02 -0.10546699716E+01  0.55408130346E+02  0.68231657042E+02  0.00000000000E+00 0.  1.
<mgrwt>
<rscale>  0 0.11783193E+03</rscale>
<asrwt>0</asrwt>
<pdfrwt beam="2">  1        1 0.11226693E-01 0.12673297E+03</pdfrwt>
<pdfrwt beam="1">  1       -1 0.25891267E-01 0.12673297E+03</pdfrwt>
<totfact> 0.67900913E+03</totfact>
</mgrwt>
</event>
<event>
 6    1  0.7270761E-006  0.1310000E+03  0.7546771E-02  0.1244838E+00
          1   -1    0    0  501    0  0.00000000000E+00  0.00000000000E+00  0.54219823066E+02  0.54219823066E+02  0.00000000000E+00 0. -1.
         -1   -1    0    0    0  501 -0.00000000000E+00 -0.00000000000E+00 -0.23835168439E+03  0.23835168439E+03  0.00000000000E+00 0.  1.
          5    1    1    2  502    0 -0.24917739303E+02 -0.38536830881E+02 -0.68385013767E+02  0.82489885285E+02  0.47000000000E+01 0.  1.
         -5    1    1    2    0  502  0.58561966461E+02  0.58525419801E+02 -0.76280382218E+02  0.11267437770E+03  0.47000000000E+01 0.  1.
        -11    1    1    2    0    0 -0.22465187815E+02  0.15982103338E+02 -0.51032555434E+02  0.58003741300E+02  0.00000000000E+00 0.  1.
         11    1    1    2    0    0 -0.11179039344E+02 -0.35970692259E+02  0.11566090094E+02  0.39403503173E+02  0.00000000000E+00 0. -1.
<mgrwt>
<rscale>  0 0.11895060E+03</rscale>
<asrwt>0</asrwt>
<pdfrwt beam="1">  1        1 0.83415111E-02 0.13100005E+03</pdfrwt>
<pdfrwt beam="2">  1       -1 0.36669490E-01 0.13100005E+03</pdfrwt>
<totfact> 0.56156265E+03</totfact>
</mgrwt>
</event>
<event>
 6    1  0.7270761E-006  0.1553038E+03  0.7546771E-02  0.1202649E+00
          2   -1    0    0  501    0  0.00000000000E+00  0.00000000000E+00  0.35632231426E+03  0.35632231426E+03  0.00000000000E+00 0. -1.
         -2   -1    0    0    0  501 -0.00000000000E+00 -0.00000000000E+00 -0.61781911898E+02  0.61781911898E+02  0.00000000000E+00 0.  1.
          5    1    1    2  502    0 -0.13258161826E+02  0.32856833728E+02  0.73565817915E+01  0.36490542244E+02  0.47000000000E+01 0. -1.
         -5    1    1    2    0  502  0.10352172914E+03 -0.51468178580E+02  0.92626876138E+02  0.14821454042E+03  0.47000000000E+01 0. -1.
        -11    1    1    2    0    0 -0.83921071528E+02  0.49462258589E+02  0.14522589307E+03  0.17487087033E+03  0.00000000000E+00 0.  1.
         11    1    1    2    0    0 -0.63424957816E+01 -0.30850913736E+02  0.49331051360E+02  0.58528273162E+02  0.00000000000E+00 0. -1.
<mgrwt>
<rscale>  0 0.14824310E+03</rscale>
<asrwt>0</asrwt>
<pdfrwt beam="1">  1        2 0.54818816E-01 0.15530382E+03</pdfrwt>
<pdfrwt beam="2">  1       -2 0.95049097E-02 0.15530382E+03</pdfrwt>
<totfact> 0.62877410E+03</totfact>
</mgrwt>
</event>
<event>
 6    1  0.7270761E-006  0.1930016E+03  0.7546771E-02  0.1161106E+00
          2   -1    0    0  501    0  0.00000000000E+00  0.00000000000E+00  0.10290701663E+03  0.10290701663E+03  0.00000000000E+00 0. -1.
         -2   -1    0    0    0  501 -0.00000000000E+00 -0.00000000000E+00 -0.32992830008E+03  0.32992830008E+03  0.00000000000E+00 0.  1.
          5    1    1    2  502    0 -0.63263777037E+02 -0.61292178794E+02 -0.16024121368E+02  0.89654331362E+02  0.47000000000E+01 0. -1.
         -5    1    1    2    0  502  0.32612147908E+01 -0.74115521422E+02 -0.14005512810E+03  0.15856000424E+03  0.47000000000E+01 0.  1.
        -11    1    1    2    0    0 -0.47310095337E+01  0.35425426945E+02 -0.53357466152E+02  0.64221199923E+02  0.00000000000E+00 0. -1.
         11    1    1    2    0    0  0.64733571780E+02  0.99982273271E+02 -0.17584567826E+02  0.12039978119E+03  0.00000000000E+00 0.  1.
<mgrwt>
<rscale>  0 0.18709749E+03</rscale>
<asrwt>0</asrwt>
<pdfrwt beam="1">  1        2 0.15831849E-01 0.19300162E+03</pdfrwt>
<pdfrwt beam="2">  1       -2 0.50758200E-01 0.19300162E+03</pdfrwt>
<totfact> 0.13460226E+03</totfact>
</mgrwt>
</event>
<event>
 6    1  0.7270761E-006  0.2788224E+03  0.7546771E-02  0.1096334E+00
          1   -1    0    0  501    0  0.00000000000E+00  0.00000000000E+00  0.83723613806E+02  0.83723613806E+02  0.00000000000E+00 0. -1.
         -1   -1    0    0    0  501 -0.00000000000E+00 -0.00000000000E+00 -0.23213855977E+03  0.23213855977E+03  0.00000000000E+00 0.  1.
          5    1    1    2  502    0 -0.45684698494E+02 -0.10171923363E+02 -0.36376761074E+02  0.59463589259E+02  0.47000000000E+01 0. -1.
         -5    1    1    2    0  502  0.70197841460E+02  0.31390080525E+02 -0.13051430896E+03  0.15155576183E+03  0.47000000000E+01 0. -1.
        -11    1    1    2    0    0 -0.43898205844E+02  0.25267309948E+02  0.19994990703E+02  0.54454467967E+02  0.00000000000E+00 0.  1.
         11    1    1    2    0    0  0.19385062879E+02 -0.46485467109E+02 -0.15188666339E+01  0.50388354518E+02  0.00000000000E+00 0. -1.
<mgrwt>
<rscale>  0 0.27882237E+03</rscale>
<asrwt>0</asrwt>
<pdfrwt beam="1">  1        1 0.12880556E-01 0.27882237E+03</pdfrwt>
<pdfrwt beam="2">  1       -1 0.35713624E-01 0.27882237E+03</pdfrwt>
<totfact> 0.34302956E+03</totfact>
</mgrwt>
</event>
<event>
 6    1  0.7270761E-006  0.1670601E+03  0.7546771E-02  0.1184094E+00
          2   -1    0    0  501    0  0.00000000000E+00  0.00000000000E+00  0.51547845447E+03  0.51547845447E+03  0.00000000000E+00 0. -1.
         -2   -1    0    0    0  501 -0.00000000000E+00 -0.00000000000E+00 -0.51902652349E+02  0.51902652349E+02  0.00000000000E+00 0.  1.
          5    1    1    2  502    0 -0.31052170087E+02 -0.70252066107E+02  0.17326307632E+03  0.18958315768E+03  0.47000000000E+01 0. -1.
         -5    1    1    2    0  502  0.32946336788E+02 -0.53369755414E+02  0.20271026974E+02  0.66081740559E+02  0.47000000000E+01 0.  1.
        -11    1    1    2    0    0 -0.11118214659E+02 -0.81512936846E+00 -0.29737000852E+01  0.11537851849E+02  0.00000000000E+00 0.  1.
         11    1    1    2    0    0  0.92240479576E+01  0.12443695089E+03  0.27301539892E+03  0.30017835674E+03  0.00000000000E+00 0. -1.
<mgrwt>
<rscale>  0 0.16414635E+03</rscale>
<asrwt>0</asrwt>
<pdfrwt beam="1">  1        2 0.79304374E-01 0.16706014E+03</pdfrwt>
<pdfrwt beam="2">  1       -2 0.79850238E-02 0.16706014E+03</pdfrwt>
<totfact> 0.55502488E+03</totfact>
</mgrwt>
</event>
<event>
 6    1  0.7270761E-006  0.1337909E+03  0.7546771E-02  0.1234699E+00
         -2   -1    0    0    0  501 -0.00000000000E+00  0.00000000000E+00  0.36094375782E+02  0.36094375782E+02  0.00000000000E+00 0.  1.
          2   -1    0    0  501    0  0.00000000000E+00 -0.00000000000E+00 -0.40523759028E+03  0.40523759028E+03  0.00000000000E+00 0. -1.
          5    1    1    2  502    0  0.17403855859E+02 -0.28004324869E+02 -0.39549250167E+01  0.33539049510E+02  0.47000000000E+01 0.  1.
         -5    1    1    2    0  502 -0.21961227408E+02  0.75481774096E+02 -0.15793813176E+03  0.17648324905E+03  0.47000000000E+01 0.  1.
        -11    1    1    2    0    0  0.36149371448E+02 -0.34313579315E+02 -0.50830129571E+02  0.71189190567E+02  0.00000000000E+00 0.  1.
         11    1    1    2    0    0 -0.31591999899E+02 -0.13163869911E+02 -0.15642002815E+03  0.16012047694E+03  0.00000000000E+00 0. -1.
<mgrwt>
<rscale>  0 0.12523750E+03</rscale>
<asrwt>0</asrwt>
<pdfrwt beam="2">  1        2 0.62344243E-01 0.13379090E+03</pdfrwt>
<pdfrwt beam="1">  1       -2 0.55529810E-02 0.13379090E+03</pdfrwt>
<totfact> 0.12397496E+04</totfact>
</mgrwt>
</event>
<event>
 6    1  0.7270761E-006  0.3721722E+03  0.7546771E-02  0.1053865E+00
          2   -1    0    0  501    0  0.00000000000E+00  0.00000000000E+00  0.37779020524E+03  0.37779020524E+03  0.00000000000E+00 0. -1.
         -2   -1    0    0    0  501 -0.00000000000E+00 -0.00000000000E+00 -0.91659451435E+02  0.91659451435E+02  0.00000000000E+00 0.  1.
          5    1    1    2  502    0 -0.25449121195E+02  0.17605062754E+02  0.70988608084E+01  0.32094856736E+02  0.47000000000E+01 0. -1.
         -5    1    1    2    0  502  0.12247633321E+03 -0.33346458348E+02 -0.13537399885E+01  0.12702897737E+03  0.47000000000E+01 0. -1.
        -11    1    1    2    0    0 -0.53739402200E+02  0.27300662428E+02  0.58624405889E+02  0.84083711167E+02  0.00000000000E+00 0.  1.
         11    1    1    2    0    0 -0.43287809810E+02 -0.11559266834E+02  0.22176122710E+03  0.22624211140E+03  0.00000000000E+00 0. -1.
<mgrwt>
<rscale>  0 0.37217223E+03</rscale>
<asrwt>0</asrwt>
<pdfrwt beam="1">  1        2 0.58121569E-01 0.37217223E+03</pdfrwt>
<pdfrwt beam="2">  1       -2 0.14101454E-01 0.37217223E+03</pdfrwt>
<totfact> 0.32403064E+03</totfact>
</mgrwt>
</event>
<event>
 6    1  0.7270761E-006  0.1756367E+03  0.7546771E-02  0.1178367E+00
          1   -1    0    0  501    0  0.00000000000E+00  0.00000000000E+00  0.42699184975E+02  0.42699184975E+02  0.00000000000E+00 0. -1.
         -1   -1    0    0    0  501 -0.00000000000E+00 -0.00000000000E+00 -0.69900161300E+03  0.69900161300E+03  0.00000000000E+00 0.  1.
          5    1    1    2  502    0 -0.45432696299E+02  0.46905443962E+02 -0.34724888375E+03  0.35336684597E+03  0.47000000000E+01 0.  1.
         -5    1    1    2    0  502  0.32216882159E+02  0.75765816023E+02 -0.11825388253E+03  0.14416815566E+03  0.47000000000E+01 0.  1.
        -11    1    1    2    0    0 -0.16091780532E+02 -0.70235947888E+02 -0.41307663899E+02  0.83056347579E+02  0.00000000000E+00 0. -1.
         11    1    1    2    0    0  0.29307594673E+02 -0.52435312097E+02 -0.14949199785E+03  0.16110944876E+03  0.00000000000E+00 0.  1.
<mgrwt>
<rscale>  0 0.16950266E+03</rscale>
<asrwt>0</asrwt>
<pdfrwt beam="1">  1        1 0.65691058E-02 0.17563671E+03</pdfrwt>
<pdfrwt beam="2">  1       -1 0.10753870E+00 0.17563671E+03</pdfrwt>
<totfact> 0.96555756E+02</totfact>
</mgrwt>
</event>
<event>
 6    1  0.7270761E-006  0.1413995E+03  0.7546771E-02  0.1222322E+00
          2   -1    0    0  501    0  0.00000000000E+00  0.00000000000E+00  0.32950211990E+03  0.32950211990E+03  0.00000000000E+00 0. -1.
         -2   -1    0    0    0  501 -0.00000000000E+00 -0.00000000000E+00 -0.48885890562E+02  0.48885890562E+02  0.00000000000E+00 0.  1.
          5    1    1    2  502    0 -0.10231020175E+03  0.63347613040E+01  0.97598322062E+02  0.14161577967E+03  0.47000000000E+01 0. -1.
         -5    1    1    2    0  502  0.36227387237E+02 -0.50057241644E+01  0.57076452181E+02  0.67950660438E+02  0.47000000000E+01 0. -1.
        -11    1    1    2    0    0  0.89634027259E+01  0.33186630345E+02  0.11329215463E+02  0.36194559606E+02  0.00000000000E+00 0.  1.
         11    1    1    2    0    0  0.57119411791E+02 -0.34515667484E+02  0.11461223963E+03  0.13262701074E+03  0.00000000000E+00 0. -1.
<mgrwt>
<rscale>  0 0.13352172E+03</rscale>
<asrwt>0</asrwt>
<pdfrwt beam="1">  1        2 0.50692632E-01 0.14139946E+03</pdfrwt>
<pdfrwt beam="2">  1       -2 0.75209065E-02 0.14139946E+03</pdfrwt>
<totfact> 0.97731174E+03</totfact>
</mgrwt>
</event>
<event>
 6    1  0.7270761E-006  0.3459470E+03  0.7546771E-02  0.1064291E+00
         -3   -1    0    0    0  501 -0.00000000000E+00  0.00000000000E+00  0.16682105339E+03  0.16682105339E+03  0.00000000000E+00 0.  1.
          3   -1    0    0  501    0  0.00000000000E+00 -0.00000000000E+00 -0.17935281741E+03  0.17935281741E+03  0.00000000000E+00 0. -1.
          5    1    1    2  502    0  0.32859296704E+02 -0.10283726362E+03  0.91373478367E+02  0.14151480035E+03  0.47000000000E+01 0. -1.
         -5    1    1    2    0  502  0.29921427571E+02  0.12852901755E+02 -0.21023717373E+02  0.39045814162E+02  0.47000000000E+01 0. -1.
        -11    1    1    2    0    0 -0.14872972793E+02  0.78368462783E+02 -0.14120692865E+02  0.81007501169E+02  0.00000000000E+00 0.  1.
         11    1    1    2    0    0 -0.47907751481E+02  0.11615899079E+02 -0.68760832142E+02  0.84605755125E+02  0.00000000000E+00 0. -1.
<mgrwt>
<rscale>  0 0.34594697E+03</rscale>
<asrwt>0</asrwt>
<pdfrwt beam="2">  1        3 0.27592741E-01 0.34594697E+03</pdfrwt>
<pdfrwt beam="1">  1       -3 0.25664778E-01 0.34594697E+03</pdfrwt>
<totfact> 0.46500723E+02</totfact>
</mgrwt>
</event>
<event>
 6    1  0.7270761E-006  0.1862141E+03  0.7546771E-02  0.1167369E+00
         -1   -1    0    0    0  501 -0.00000000000E+00  0.00000000000E+00  0.91323744051E+02  0.91323744051E+02  0.00000000000E+00 0.  1.
          1   -1    0    0  501    0  0.00000000000E+00 -0.00000000000E+00 -0.42872927575E+03  0.42872927575E+03  0.00000000000E+00 0. -1.
          5    1    1    2  502    0  0.18396883524E+02 -0.69513681680E+02 -0.26947475768E+03  0.27894324206E+03  0.47000000000E+01 0. -1.
         -5    1    1    2    0  502  0.22869571687E+02 -0.62195491777E+02 -0.28184772914E+02  0.72164866318E+02  0.47000000000E+01 0. -1.
        -11    1    1    2    0    0  0.84034289645E+01  0.82823688051E+02 -0.52041978939E+02  0.98177128154E+02  0.00000000000E+00 0. -1.
         11    1    1    2    0    0 -0.49669884175E+02  0.48885485406E+02  0.12295977838E+02  0.70767783266E+02  0.00000000000E+00 0.  1.
<mgrwt>
<rscale>  0 0.18044913E+03</rscale>
<asrwt>0</asrwt>
<pdfrwt beam="2">  1        1 0.65958350E-01 0.18621414E+03</pdfrwt>
<pdfrwt beam="1">  1       -1 0.14049807E-01 0.18621414E+03</pdfrwt>
<totfact> 0.19552371E+03</totfact>
</mgrwt>
</event>
<event>
 6    1  0.7270761E-006  0.3423600E+03  0.7546771E-02  0.1065795E+00
          1   -1    0    0  501    0  0.00000000000E+00  0.00000000000E+00  0.13135514776E+04  0.13135514776E+04  0.00000000000E+00 0. -1.
         -1   -1    0    0    0  501 -0.00000000000E+00 -0.00000000000E+00 -0.22307917333E+02  0.22307917333E+02  0.00000000000E+00 0.  1.
          5    1    1    2  502    0 -0.16096231282E+02 -0.35163653803E+02  0.58848186570E+02  0.70574572424E+02  0.47000000000E+01 0.  1.
         -5    1    1    2    0  502  0.12485506421E+03 -0.29435961346E+02  0.47959351013E+03  0.49647486124E+03  0.47000000000E+01 0.  1.
        -11    1    1    2    0    0 -0.95431096490E+02  0.99221229787E+01  0.55174591428E+03  0.56002597853E+03  0.00000000000E+00 0.  1.
         11    1    1    2    0    0 -0.13327736437E+02  0.54677492170E+02  0.20105594932E+03  0.20878398278E+03  0.00000000000E+00 0. -1.
<mgrwt>
<rscale>  0 0.34236003E+03</rscale>
<asrwt>0</asrwt>
<pdfrwt beam="1">  1        1 0.20208478E+00 0.34236003E+03</pdfrwt>
<pdfrwt beam="2">  1       -1 0.34319883E-02 0.34236003E+03</pdfrwt>
<totfact> 0.29562012E+03</totfact>
</mgrwt>
</event>
<event>
 6    1  0.7270761E-006  0.1740887E+03  0.7546771E-02  0.1179511E+00
         -2   -1    0    0    0  501 -0.00000000000E+00  0.00000000000E+00  0.96304448909E+02  0.96304448909E+02  0.00000000000E+00 0.  1.
          2   -1    0    0  501    0  0.00000000000E+00 -0.00000000000E+00 -0.27712666211E+03  0.27712666211E+03  0.00000000000E+00 0. -1.
          5    1    1    2  502    0 -0.40252059963E+02 -0.82122184292E+02 -0.74700037053E+02  0.11817980800E+03  0.47000000000E+01 0. -1.
         -5    1    1    2    0  502  0.67234127766E+02 -0.35999008522E+02 -0.15796668553E+02  0.78025516906E+02  0.47000000000E+01 0. -1.
        -11    1    1    2    0    0 -0.42043536720E+02  0.81949217935E+02 -0.10092479729E+03  0.13663509069E+03  0.00000000000E+00 0. -1.
         11    1    1    2    0    0  0.15061468916E+02  0.36171974878E+02  0.10599289695E+02  0.40590695418E+02  0.00000000000E+00 0.  1.
<mgrwt>
<rscale>  0 0.16841527E+03</rscale>
<asrwt>0</asrwt>
<pdfrwt beam="2">  1        2 0.42634871E-01 0.17408870E+03</pdfrwt>
<pdfrwt beam="1">  1       -2 0.14816069E-01 0.17408870E+03</pdfrwt>
<totfact> 0.40595640E+03</totfact>
</mgrwt>
</event>
<event>
 6    1  0.7270761E-006  0.1398233E+03  0.7546771E-02  0.1224665E+00
         -1   -1    0    0    0  501 -0.00000000000E+00  0.00000000000E+00  0.75498765522E+02  0.75498765522E+02  0.00000000000E+00 0.  1.
          1   -1    0    0  501    0  0.00000000000E+00 -0.00000000000E+00 -0.22239027129E+03  0.22239027129E+03  0.00000000000E+00 0. -1.
          5    1    1    2  502    0  0.34149310851E+02  0.89537403176E+02 -0.19233499857E+02  0.97852641844E+02  0.47000000000E+01 0.  1.
         -5    1    1    2    0  502 -0.31985834157E+02 -0.26914780631E+02 -0.24350414860E+02  0.48605881403E+02  0.47000000000E+01 0.  1.
        -11    1    1    2    0    0 -0.26604909256E+02 -0.56803213853E+02 -0.10891681857E+03  0.12568730909E+03  0.00000000000E+00 0. -1.
         11    1    1    2    0    0  0.24441432563E+02 -0.58194086930E+01  0.56092275135E+01  0.25743204474E+02  0.00000000000E+00 0.  1.
<mgrwt>
<rscale>  0 0.13189863E+03</rscale>
<asrwt>0</asrwt>
<pdfrwt beam="2">  1        1 0.34213887E-01 0.13982325E+03</pdfrwt>
<pdfrwt beam="1">  1       -1 0.11615195E-01 0.13982325E+03</pdfrwt>
<totfact> 0.59032669E+03</totfact>
</mgrwt>
</event>
<event>
 6    1  0.7270761E-006  0.1365523E+03  0.7546771E-02  0.1231503E+00
         -2   -1    0    0    0  501 -0.00000000000E+00  0.00000000000E+00  0.45853915697E+02  0.45853915697E+02  0.00000000000E+00 0.  1.
          2   -1    0    0  501    0  0.00000000000E+00 -0.00000000000E+00 -0.46154767697E+03  0.46154767697E+03  0.00000000000E+00 0. -1.
          5    1    1    2  502    0  0.42586168864E+02  0.59669496527E+01 -0.72544210071E+02  0.84462646664E+02  0.47000000000E+01 0. -1.
         -5    1    1    2    0  502 -0.66663541181E+02  0.34562752845E+02 -0.12123113535E+02  0.76208080207E+02  0.47000000000E+01 0.  1.
        -11    1    1    2    0    0 -0.35292541228E+02 -0.17736576236E+02 -0.12045294818E+03  0.12676380528E+03  0.00000000000E+00 0.  1.
         11    1    1    2    0    0  0.59369913545E+02 -0.22793126261E+02 -0.21057348949E+03  0.21996706052E+03  0.00000000000E+00 0. -1.
<mgrwt>
<rscale>  0 0.12730963E+03</rscale>
<asrwt>0</asrwt>
<pdfrwt beam="2">  1        2 0.71007337E-01 0.13655229E+03</pdfrwt>
<pdfrwt beam="1">  1       -2 0.70544484E-02 0.13655229E+03</pdfrwt>
<totfact> 0.75008350E+03</totfact>
</mgrwt>
</event>
<event>
 6    1  0.7270761E-006  0.1430457E+03  0.7546771E-02  0.1219700E+00
         -2   -1    0    0    0  501 -0.00000000000E+00  0.00000000000E+00  0.64897310521E+02  0.64897310521E+02  0.00000000000E+00 0.  1.
          2   -1    0    0  501    0  0.00000000000E+00 -0.00000000000E+00 -0.33591102552E+03  0.33591102552E+03  0.00000000000E+00 0. -1.
          5    1    1    2  502    0 -0.84511024403E+01  0.19146033967E+02  0.32196307972E+02  0.38687000351E+02  0.47000000000E+01 0. -1.
         -5    1    1    2    0  502  0.77058680809E+02 -0.77213407396E+01 -0.81729791069E+02  0.11269209439E+03  0.47000000000E+01 0. -1.
        -11    1    1    2    0    0  0.10575835631E+02 -0.29660921541E+02 -0.42757552863E+02  0.53102042265E+02  0.00000000000E+00 0.  1.
         11    1    1    2    0    0 -0.79183414000E+02  0.18236228313E+02 -0.17872267904E+03  0.19632719903E+03  0.00000000000E+00 0. -1.
<mgrwt>
<rscale>  0 0.13536894E+03</rscale>
<asrwt>0</asrwt>
<pdfrwt beam="2">  1        2 0.51678619E-01 0.14304567E+03</pdfrwt>
<pdfrwt beam="1">  1       -2 0.99842017E-02 0.14304567E+03</pdfrwt>
<totfact> 0.61671283E+03</totfact>
</mgrwt>
</event>
<event>
 6    1  0.7270761E-006  0.2820274E+03  0.7546771E-02  0.1094587E+00
          1   -1    0    0  501    0  0.00000000000E+00  0.00000000000E+00  0.11642354842E+03  0.11642354842E+03  0.00000000000E+00 0. -1.
         -1   -1    0    0    0  501 -0.00000000000E+00 -0.00000000000E+00 -0.17079755109E+03  0.17079755109E+03  0.00000000000E+00 0.  1.
          5    1    1    2  502    0  0.70728635524E+02  0.43418602872E+02 -0.97842537214E+02  0.12838600799E+03  0.47000000000E+01 0.  1.
         -5    1    1    2    0  502  0.45247820695E+00  0.28324547829E+00  0.34449547770E+02  0.34772781109E+02  0.47000000000E+01 0.  1.
        -11    1    1    2    0    0 -0.34807915423E+01 -0.41802418500E+02 -0.24412166969E+02  0.48533617199E+02  0.00000000000E+00 0.  1.
         11    1    1    2    0    0 -0.67700322189E+02 -0.18994298498E+01  0.33431153742E+02  0.75528693215E+02  0.00000000000E+00 0. -1.
<mgrwt>
<rscale>  0 0.28202735E+03</rscale>
<asrwt>0</asrwt>
<pdfrwt beam="1">  1        1 0.17911315E-01 0.28202735E+03</pdfrwt>
<pdfrwt beam="2">  1       -1 0.26276546E-01 0.28202735E+03</pdfrwt>
<totfact> 0.37597245E+03</totfact>
</mgrwt>
</event>
<event>
 6    1  0.7270761E-006  0.1276932E+03  0.7546771E-02  0.1245997E+00
          3   -1    0    0  501    0  0.00000000000E+00  0.00000000000E+00  0.42712301311E+03  0.42712301311E+03  0.00000000000E+00 0. -1.
         -3   -1    0    0    0  501 -0.00000000000E+00 -0.00000000000E+00 -0.38097275607E+02  0.38097275607E+02  0.00000000000E+00 0.  1.
          5    1    1    2  502    0  0.27204492708E+02  0.56024128064E+02  0.48421438263E+02  0.79028558333E+02  0.47000000000E+01 0. -1.
         -5    1    1    2    0  502 -0.26932910458E+01 -0.64979702942E+02  0.54245164748E+02  0.84818886514E+02  0.47000000000E+01 0. -1.
        -11    1    1    2    0    0 -0.15052418287E+02  0.48105981990E+02  0.19716958561E+03  0.20351070314E+03  0.00000000000E+00 0.  1.
         11    1    1    2    0    0 -0.94587833758E+01 -0.39150407112E+02  0.89189548883E+02  0.97862140739E+02  0.00000000000E+00 0. -1.
<mgrwt>
<rscale>  0 0.11825901E+03</rscale>
<asrwt>0</asrwt>
<pdfrwt beam="1">  1        3 0.65711229E-01 0.12769320E+03</pdfrwt>
<pdfrwt beam="2">  1       -3 0.58611196E-02 0.12769320E+03</pdfrwt>
<totfact> 0.92030225E+02</totfact>
</mgrwt>
</event>
<event>
 6    1  0.7270761E-006  0.2605038E+03  0.7546771E-02  0.1106841E+00
          2   -1    0    0  501    0  0.00000000000E+00  0.00000000000E+00  0.82221437077E+02  0.82221437077E+02  0.00000000000E+00 0. -1.
         -2   -1    0    0    0  501 -0.00000000000E+00 -0.00000000000E+00 -0.20633983536E+03  0.20633983536E+03  0.00000000000E+00 0.  1.
          5    1    1    2  502    0  0.25536623754E+02  0.62576368897E+01  0.16833853221E+02  0.31571281039E+02  0.47000000000E+01 0.  1.
         -5    1    1    2    0  502 -0.30289266019E+02 -0.70065877858E+02 -0.12155369902E+03  0.14361078867E+03  0.47000000000E+01 0.  1.
        -11    1    1    2    0    0  0.27463380652E+02  0.34452775915E+02 -0.49007126345E+02  0.65900906501E+02  0.00000000000E+00 0.  1.
         11    1    1    2    0    0 -0.22710738387E+02  0.29355465053E+02  0.29608573863E+02  0.47478296228E+02  0.00000000000E+00 0. -1.
<mgrwt>
<rscale>  0 0.26050380E+03</rscale>
<asrwt>0</asrwt>
<pdfrwt beam="1">  1        2 0.12649452E-01 0.26050380E+03</pdfrwt>
<pdfrwt beam="2">  1       -2 0.31744590E-01 0.26050380E+03</pdfrwt>
<totfact> 0.43761553E+03</totfact>
</mgrwt>
</event>
<event>
 6    1  0.7270761E-006  0.1358845E+03  0.7546771E-02  0.1231812E+00
         -2   -1    0    0    0  501 -0.00000000000E+00  0.00000000000E+00  0.33813955048E+03  0.33813955048E+03  0.00000000000E+00 0.  1.
          2   -1    0    0  501    0  0.00000000000E+00 -0.00000000000E+00 -0.42717644530E+02  0.42717644530E+02  0.00000000000E+00 0. -1.
          5    1    1    2  502    0 -0.61847933586E+02  0.53535920496E+02  0.90966931189E+02  0.12242685262E+03  0.47000000000E+01 0. -1.
         -5    1    1    2    0  502  0.85658144070E+01 -0.52999512158E+02  0.64704737030E+02  0.84208755243E+02  0.47000000000E+01 0. -1.
        -11    1    1    2    0    0  0.69792570779E+02 -0.11903062008E+02  0.13669908613E+03  0.15394585402E+03  0.00000000000E+00 0.  1.
         11    1    1    2    0    0 -0.16510451600E+02  0.11366653670E+02  0.30511515982E+01  0.20275733125E+02  0.00000000000E+00 0. -1.
<mgrwt>
<rscale>  0 0.12710749E+03</rscale>
<asrwt>0</asrwt>
<pdfrwt beam="2">  1        2 0.65719455E-02 0.13588453E+03</pdfrwt>
<pdfrwt beam="1">  1       -2 0.52021468E-01 0.13588453E+03</pdfrwt>
<totfact> 0.37098591E+03</totfact>
</mgrwt>
</event>
<event>
 6    1  0.7270761E-006  0.1705107E+03  0.7546771E-02  0.1183312E+00
          2   -1    0    0  501    0  0.00000000000E+00  0.00000000000E+00  0.28015353585E+03  0.28015353585E+03  0.00000000000E+00 0. -1.
         -2   -1    0    0    0  501 -0.00000000000E+00 -0.00000000000E+00 -0.16857170133E+03  0.16857170133E+03  0.00000000000E+00 0.  1.
          5    1    1    2  502    0  0.83002484178E+02  0.32996205002E+02 -0.38909857368E+02  0.97540908980E+02  0.47000000000E+01 0. -1.
         -5    1    1    2    0  502  0.24708853920E+02 -0.75972911060E+02 -0.55173645302E+02  0.97204073026E+02  0.47000000000E+01 0. -1.
        -11    1    1    2    0    0 -0.97590708622E+02  0.65775005794E+02  0.13528641664E+03  0.17931177408E+03  0.00000000000E+00 0. -1.
         11    1    1    2    0    0 -0.10120629475E+02 -0.22798299736E+02  0.70378920539E+02  0.74668481089E+02  0.00000000000E+00 0.  1.
<mgrwt>
<rscale>  0 0.16486436E+03</rscale>
<asrwt>0</asrwt>
<pdfrwt beam="1">  1        2 0.43100544E-01 0.17051071E+03</pdfrwt>
<pdfrwt beam="2">  1       -2 0.25934108E-01 0.17051071E+03</pdfrwt>
<totfact> 0.15491666E+03</totfact>
</mgrwt>
</event>
<event>
 6    1  0.7270761E-006  0.1304444E+03  0.7546771E-02  0.1240579E+00
         -1   -1    0    0    0  501 -0.00000000000E+00  0.00000000000E+00  0.26282718064E+02  0.26282718064E+02  0.00000000000E+00 0.  1.
          1   -1    0    0  501    0  0.00000000000E+00 -0.00000000000E+00 -0.67736141851E+03  0.67736141851E+03  0.00000000000E+00 0. -1.
          5    1    1    2  502    0 -0.24195144497E+02 -0.47823948619E+02 -0.79171084971E+02  0.95721918985E+02  0.47000000000E+01 0. -1.
         -5    1    1    2    0  502  0.61584446540E+02  0.45138665102E+02 -0.10012084223E+03  0.12600165155E+03  0.47000000000E+01 0. -1.
        -11    1    1    2    0    0  0.24680393310E+02 -0.16819651585E+02 -0.95855460607E+02  0.10040065648E+03  0.00000000000E+00 0.  1.
         11    1    1    2    0    0 -0.62069695353E+02  0.19504935103E+02 -0.37593131263E+03  0.38151990956E+03  0.00000000000E+00 0. -1.
<mgrwt>
<rscale>  0 0.12153952E+03</rscale>
<asrwt>0</asrwt>
<pdfrwt beam="2">  1        1 0.10420945E+00 0.13044442E+03</pdfrwt>
<pdfrwt beam="1">  1       -1 0.40434951E-02 0.13044442E+03</pdfrwt>
<totfact> 0.68810153E+03</totfact>
</mgrwt>
</event>
<event>
 6    1  0.7270761E-006  0.1250750E+03  0.7546771E-02  0.1250261E+00
          1   -1    0    0  501    0  0.00000000000E+00  0.00000000000E+00  0.43134874164E+03  0.43134874164E+03  0.00000000000E+00 0. -1.
         -1   -1    0    0    0  501 -0.00000000000E+00 -0.00000000000E+00 -0.31272405860E+02  0.31272405860E+02  0.00000000000E+00 0.  1.
          5    1    1    2  502    0 -0.35607746322E+02 -0.42369550263E+02  0.12249798076E+03  0.13450254897E+03  0.47000000000E+01 0.  1.
         -5    1    1    2    0  502  0.30541393171E+02  0.42142756127E+02  0.22249428202E+02  0.56797144701E+02  0.47000000000E+01 0.  1.
        -11    1    1    2    0    0  0.72118397425E+00  0.41911534178E+02  0.18288957170E+03  0.18763179965E+03  0.00000000000E+00 0. -1.
         11    1    1    2    0    0  0.43451691771E+01 -0.41684740042E+02  0.72439355117E+02  0.83689654183E+02  0.00000000000E+00 0.  1.
<mgrwt>
<rscale>  0 0.11575983E+03</rscale>
<asrwt>0</asrwt>
<pdfrwt beam="1">  1        1 0.66361341E-01 0.12507502E+03</pdfrwt>
<pdfrwt beam="2">  1       -1 0.48111397E-02 0.12507502E+03</pdfrwt>
<totfact> 0.96783514E+03</totfact>
</mgrwt>
</event>
<event>
 6    1  0.7270761E-006  0.1326716E+03  0.7546771E-02  0.1237114E+00
          1   -1    0    0  501    0  0.00000000000E+00  0.00000000000E+00  0.46946814122E+03  0.46946814122E+03  0.00000000000E+00 0. -1.
         -1   -1    0    0    0  501 -0.00000000000E+00 -0.00000000000E+00 -0.28935215453E+02  0.28935215453E+02  0.00000000000E+00 0.  1.
          5    1    1    2  502    0  0.14315859893E+02 -0.44152247122E+02  0.23544449974E+02  0.52257017662E+02  0.47000000000E+01 0. -1.
         -5    1    1    2    0  502  0.26837665042E+02  0.27672373189E+02  0.23659165091E+03  0.23975762716E+03  0.47000000000E+01 0. -1.
        -11    1    1    2    0    0 -0.13655273701E+02  0.33605323993E+02  0.17449762579E+02  0.40252683321E+02  0.00000000000E+00 0.  1.
         11    1    1    2    0    0 -0.27498251234E+02 -0.17125450060E+02  0.16294706231E+03  0.16613602853E+03  0.00000000000E+00 0. -1.
<mgrwt>
<rscale>  0 0.12370067E+03</rscale>
<asrwt>0</asrwt>
<pdfrwt beam="1">  1        1 0.72225863E-01 0.13267163E+03</pdfrwt>
<pdfrwt beam="2">  1       -1 0.44515719E-02 0.13267163E+03</pdfrwt>
<totfact> 0.97806199E+03</totfact>
</mgrwt>
</event>
<event>
 6    1  0.7270761E-006  0.1425382E+03  0.7546771E-02  0.1224195E+00
         -1   -1    0    0    0  501 -0.00000000000E+00  0.00000000000E+00  0.12242567780E+03  0.12242567780E+03  0.00000000000E+00 0.  1.
          1   -1    0    0  501    0  0.00000000000E+00 -0.00000000000E+00 -0.14101137273E+03  0.14101137273E+03  0.00000000000E+00 0. -1.
          5    1    1    2  502    0 -0.11969390854E+02 -0.10467160177E+02 -0.35025453763E+02  0.38751776358E+02  0.47000000000E+01 0. -1.
         -5    1    1    2    0  502  0.41650068988E+02  0.72317354535E+02  0.67502962436E+02  0.10743960141E+03  0.47000000000E+01 0. -1.
        -11    1    1    2    0    0 -0.50154430482E+02 -0.61249321490E+02 -0.54991388779E+02  0.96389828923E+02  0.00000000000E+00 0. -1.
         11    1    1    2    0    0  0.20473752348E+02 -0.60087286861E+00  0.39281851762E+01  0.20855843838E+02  0.00000000000E+00 0.  1.
<mgrwt>
<rscale>  0 0.13222228E+03</rscale>
<asrwt>0</asrwt>
<pdfrwt beam="2">  1        1 0.21694057E-01 0.14253817E+03</pdfrwt>
<pdfrwt beam="1">  1       -1 0.18834720E-01 0.14253817E+03</pdfrwt>
<totfact> 0.48991430E+03</totfact>
</mgrwt>
</event>
<event>
 6    1  0.7270761E-006  0.1707848E+03  0.7546771E-02  0.1183583E+00
          2   -1    0    0  501    0  0.00000000000E+00  0.00000000000E+00  0.54965974957E+03  0.54965974957E+03  0.00000000000E+00 0. -1.
         -2   -1    0    0    0  501 -0.00000000000E+00 -0.00000000000E+00 -0.57819955889E+02  0.57819955889E+02  0.00000000000E+00 0.  1.
          5    1    1    2  502    0 -0.12479344477E+02 -0.25040371154E+02  0.50550278791E+02  0.57967015724E+02  0.47000000000E+01 0.  1.
         -5    1    1    2    0  502  0.12774657107E+03  0.41046349018E+02  0.73013416199E+02  0.15283009564E+03  0.47000000000E+01 0.  1.
        -11    1    1    2    0    0 -0.12955239297E+03 -0.22879566644E+02  0.32890395153E+03  0.35423877036E+03  0.00000000000E+00 0.  1.
         11    1    1    2    0    0  0.14285166379E+02  0.68735887807E+01  0.39372147168E+02  0.42443823742E+02  0.00000000000E+00 0. -1.
<mgrwt>
<rscale>  0 0.16461477E+03</rscale>
<asrwt>0</asrwt>
<pdfrwt beam="1">  1        2 0.84563035E-01 0.17078476E+03</pdfrwt>
<pdfrwt beam="2">  1       -2 0.88953782E-02 0.17078476E+03</pdfrwt>
<totfact> 0.43699222E+03</totfact>
</mgrwt>
</event>
<event>
 6    1  0.7270761E-006  0.1472329E+03  0.7546771E-02  0.1213928E+00
         -1   -1    0    0    0  501 -0.00000000000E+00  0.00000000000E+00  0.61737283188E+02  0.61737283188E+02  0.00000000000E+00 0.  1.
          1   -1    0    0  501    0  0.00000000000E+00 -0.00000000000E+00 -0.35337323058E+03  0.35337323058E+03  0.00000000000E+00 0. -1.
          5    1    1    2  502    0 -0.16093830448E+01 -0.50736869602E+02 -0.28400974684E+02  0.58356879747E+02  0.47000000000E+01 0.  1.
         -5    1    1    2    0  502 -0.75785132143E+02  0.58740528824E+02 -0.40291195397E+02  0.10411198974E+03  0.47000000000E+01 0.  1.
        -11    1    1    2    0    0  0.43074366535E+02 -0.25582729229E+02 -0.20326944905E+03  0.20935220564E+03  0.00000000000E+00 0. -1.
         11    1    1    2    0    0  0.34320148653E+02  0.17579070007E+02 -0.19674328258E+02  0.43289438646E+02  0.00000000000E+00 0.  1.
<mgrwt>
<rscale>  0 0.13955578E+03</rscale>
<asrwt>0</asrwt>
<pdfrwt beam="2">  1        1 0.54365112E-01 0.14723287E+03</pdfrwt>
<pdfrwt beam="1">  1       -1 0.94980436E-02 0.14723287E+03</pdfrwt>
<totfact> 0.45369168E+03</totfact>
</mgrwt>
</event>
<event>
 6    1  0.7270761E-006  0.1610596E+03  0.7546771E-02  0.1197526E+00
          2   -1    0    0  501    0  0.00000000000E+00  0.00000000000E+00  0.43331914939E+03  0.43331914939E+03  0.00000000000E+00 0. -1.
         -2   -1    0    0    0  501 -0.00000000000E+00 -0.00000000000E+00 -0.63333181917E+02  0.63333181917E+02  0.00000000000E+00 0.  1.
          5    1    1    2  502    0  0.59121261088E+02  0.24608478146E+01  0.12098905381E+03  0.13476579843E+03  0.47000000000E+01 0. -1.
         -5    1    1    2    0  502  0.19237364931E+02  0.11275308579E+02 -0.39601115647E+02  0.45689683228E+02  0.47000000000E+01 0.  1.
        -11    1    1    2    0    0 -0.49899422786E+02 -0.56301533110E+02  0.20250847968E+03  0.21603124628E+03  0.00000000000E+00 0. -1.
         11    1    1    2    0    0 -0.28459203233E+02  0.42565376717E+02  0.86089549624E+02  0.10016560337E+03  0.00000000000E+00 0.  1.
<mgrwt>
<rscale>  0 0.15242360E+03</rscale>
<asrwt>0</asrwt>
<pdfrwt beam="1">  1        2 0.66664483E-01 0.16105957E+03</pdfrwt>
<pdfrwt beam="2">  1       -2 0.97435667E-02 0.16105957E+03</pdfrwt>
<totfact> 0.49109388E+03</totfact>
</mgrwt>
</event>
<event>
 6    1  0.7270761E-006  0.1423647E+03  0.7546771E-02  0.1220705E+00
         -2   -1    0    0    0  501 -0.00000000000E+00  0.00000000000E+00  0.16586694012E+02  0.16586694012E+02  0.00000000000E+00 0. -1.
          2   -1    0    0  501    0  0.00000000000E+00 -0.00000000000E+00 -0.99041715404E+03  0.99041715404E+03  0.00000000000E+00 0.  1.
          5    1    1    2  502    0  0.31622503544E+02  0.14849389739E+01 -0.31408170554E+02  0.44841397744E+02  0.47000000000E+01 0.  1.
         -5    1    1    2    0  502 -0.23086211096E+02  0.66115980986E+02 -0.51706755380E+03  0.52180958335E+03  0.47000000000E+01 0.  1.
        -11    1    1    2    0    0  0.36305535966E+02 -0.61219227099E+01 -0.11225056501E+03  0.11813449633E+03  0.00000000000E+00 0.  1.
         11    1    1    2    0    0 -0.44841828414E+02 -0.61478997250E+02 -0.31310417067E+03  0.32221837062E+03  0.00000000000E+00 0. -1.
<mgrwt>
<rscale>  0 0.13465666E+03</rscale>
<asrwt>0</asrwt>
<pdfrwt beam="2">  1        2 0.15237192E+00 0.14236472E+03</pdfrwt>
<pdfrwt beam="1">  1       -2 0.25517982E-02 0.14236472E+03</pdfrwt>
<totfact> 0.13801988E+04</totfact>
</mgrwt>
</event>
<event>
 6    1  0.7270761E-006  0.3281687E+03  0.7546771E-02  0.1071950E+00
         -2   -1    0    0    0  501 -0.00000000000E+00  0.00000000000E+00  0.48459834626E+02  0.48459834626E+02  0.00000000000E+00 0.  1.
          2   -1    0    0  501    0  0.00000000000E+00 -0.00000000000E+00 -0.55558741643E+03  0.55558741643E+03  0.00000000000E+00 0. -1.
          5    1    1    2  502    0  0.39412357110E+01  0.13121581782E+03 -0.13292658026E+03  0.18688148630E+03  0.47000000000E+01 0.  1.
         -5    1    1    2    0  502 -0.29529652641E+02 -0.20517084643E+02 -0.54158081208E+02  0.65177748561E+02  0.47000000000E+01 0.  1.
        -11    1    1    2    0    0 -0.10047689189E+02 -0.70631853351E+02 -0.26774012887E+03  0.27708228267E+03  0.00000000000E+00 0. -1.
         11    1    1    2    0    0  0.35636106120E+02 -0.40066879822E+02 -0.52302791468E+02  0.74905733515E+02  0.00000000000E+00 0.  1.
<mgrwt>
<rscale>  0 0.32816870E+03</rscale>
<asrwt>0</asrwt>
<pdfrwt beam="2">  1        2 0.85474992E-01 0.32816870E+03</pdfrwt>
<pdfrwt beam="1">  1       -2 0.74553587E-02 0.32816870E+03</pdfrwt>
<totfact> 0.58407131E+03</totfact>
</mgrwt>
</event>
<event>
 6    1  0.7270761E-006  0.1271276E+03  0.7546771E-02  0.1246506E+00
          3   -1    0    0  501    0  0.00000000000E+00  0.00000000000E+00  0.48768680853E+02  0.48768680853E+02  0.00000000000E+00 0. -1.
         -3   -1    0    0    0  501 -0.00000000000E+00 -0.00000000000E+00 -0.25125414764E+03  0.25125414764E+03  0.00000000000E+00 0.  1.
          5    1    1    2  502    0 -0.51044123397E+02  0.96432973561E+01 -0.10092366903E+01  0.52168997268E+02  0.47000000000E+01 0.  1.
         -5    1    1    2    0  502  0.30611296017E+02  0.97302335044E+00 -0.11789549962E+03  0.12189929060E+03  0.47000000000E+01 0.  1.
        -11    1    1    2    0    0  0.41936495129E+02 -0.35238100238E+02 -0.28109222458E+02  0.61567213022E+02  0.00000000000E+00 0. -1.
         11    1    1    2    0    0 -0.21503667749E+02  0.24621779532E+02 -0.55471508020E+02  0.64387327604E+02  0.00000000000E+00 0.  1.
<mgrwt>
<rscale>  0 0.11795715E+03</rscale>
<asrwt>0</asrwt>
<pdfrwt beam="1">  1        3 0.75028739E-02 0.12712762E+03</pdfrwt>
<pdfrwt beam="2">  1       -3 0.38654485E-01 0.12712762E+03</pdfrwt>
<totfact> 0.17840668E+03</totfact>
</mgrwt>
</event>
<event>
 6    1  0.7270761E-006  0.1555019E+03  0.7546771E-02  0.1211521E+00
         -1   -1    0    0    0  501 -0.00000000000E+00  0.00000000000E+00  0.71958694178E+02  0.71958694178E+02  0.00000000000E+00 0.  1.
          1   -1    0    0  501    0  0.00000000000E+00 -0.00000000000E+00 -0.30908297188E+03  0.30908297188E+03  0.00000000000E+00 0. -1.
          5    1    1    2  502    0 -0.37253224376E+02  0.76846641884E+02 -0.18785624698E+02  0.87568252184E+02  0.47000000000E+01 0. -1.
         -5    1    1    2    0  502  0.25612544342E+01 -0.69282231307E+02 -0.26800430972E+02  0.74477786618E+02  0.47000000000E+01 0.  1.
        -11    1    1    2    0    0  0.49661594739E+02 -0.32363314896E+02 -0.60139037107E+02  0.84441470423E+02  0.00000000000E+00 0.  1.
         11    1    1    2    0    0 -0.14969624797E+02  0.24798904319E+02 -0.13139918493E+03  0.13455415684E+03  0.00000000000E+00 0. -1.
<mgrwt>
<rscale>  0 0.14135226E+03</rscale>
<asrwt>0</asrwt>
<pdfrwt beam="2">  1        1 0.47551226E-01 0.15550187E+03</pdfrwt>
<pdfrwt beam="1">  1       -1 0.11070568E-01 0.15550187E+03</pdfrwt>
<totfact> 0.42517245E+03</totfact>
</mgrwt>
</event>
<event>
 6    1  0.7270761E-006  0.1406703E+03  0.7546771E-02  0.1223603E+00
         -1   -1    0    0    0  501 -0.00000000000E+00  0.00000000000E+00  0.82760369736E+03  0.82760369736E+03  0.00000000000E+00 0.  1.
          1   -1    0    0  501    0  0.00000000000E+00 -0.00000000000E+00 -0.20161668776E+02  0.20161668776E+02  0.00000000000E+00 0. -1.
          5    1    1    2  502    0 -0.58676510771E+01  0.74710026120E+02  0.29426129972E+03  0.30369033545E+03  0.47000000000E+01 0. -1.
         -5    1    1    2    0  502 -0.49471875596E+02 -0.42767758347E+02  0.24834341361E+03  0.25685227021E+03  0.47000000000E+01 0. -1.
        -11    1    1    2    0    0  0.61050078693E+02  0.14924736348E+02  0.17085861188E+03  0.18205088607E+03  0.00000000000E+00 0.  1.
         11    1    1    2    0    0 -0.57105520193E+01 -0.46867004121E+02  0.93978703377E+02  0.10517187442E+03  0.00000000000E+00 0. -1.
<mgrwt>
<rscale>  0 0.13263125E+03</rscale>
<asrwt>0</asrwt>
<pdfrwt beam="2">  1        1 0.31017958E-02 0.14067032E+03</pdfrwt>
<pdfrwt beam="1">  1       -1 0.12732362E+00 0.14067032E+03</pdfrwt>
<totfact> 0.18136056E+03</totfact>
</mgrwt>
</event>
<event>
 6    1  0.7270761E-006  0.2120434E+03  0.7546771E-02  0.1143596E+00
         -1   -1    0    0    0  501 -0.00000000000E+00  0.00000000000E+00  0.59052484681E+03  0.59052484681E+03  0.00000000000E+00 0.  1.
          1   -1    0    0  501    0  0.00000000000E+00 -0.00000000000E+00 -0.73851145631E+02  0.73851145631E+02  0.00000000000E+00 0. -1.
          5    1    1    2  502    0 -0.16603380146E+02  0.11777332894E+03  0.13913794762E+03  0.18310567361E+03  0.47000000000E+01 0. -1.
         -5    1    1    2    0  502  0.68768633822E+02  0.45368268036E+02  0.20668421174E+03  0.22254855229E+03  0.47000000000E+01 0. -1.
        -11    1    1    2    0    0 -0.43857411122E+02 -0.58462562768E+02  0.12355874039E+03  0.14355523704E+03  0.00000000000E+00 0.  1.
         11    1    1    2    0    0 -0.83078425539E+01 -0.10467903421E+03  0.47292801436E+02  0.11516652950E+03  0.00000000000E+00 0. -1.
<mgrwt>
<rscale>  0 0.20745714E+03</rscale>
<asrwt>0</asrwt>
<pdfrwt beam="2">  1        1 0.11361715E-01 0.21204336E+03</pdfrwt>
<pdfrwt beam="1">  1       -1 0.90849973E-01 0.21204336E+03</pdfrwt>
<totfact> 0.67137163E+02</totfact>
</mgrwt>
</event>
<event>
 6    1  0.7270761E-006  0.3034296E+03  0.7546771E-02  0.1083539E+00
          1   -1    0    0  501    0  0.00000000000E+00  0.00000000000E+00  0.57966825854E+03  0.57966825854E+03  0.00000000000E+00 0. -1.
         -1   -1    0    0    0  501 -0.00000000000E+00 -0.00000000000E+00 -0.39707854711E+02  0.39707854711E+02  0.00000000000E+00 0.  1.
          5    1    1    2  502    0  0.48969159550E+01 -0.33012627814E+02  0.45703383823E+02  0.56786465588E+02  0.47000000000E+01 0.  1.
         -5    1    1    2    0  502 -0.62486470567E+02  0.10249470032E+03  0.13277776156E+03  0.17905794191E+03  0.47000000000E+01 0.  1.
        -11    1    1    2    0    0  0.67295889807E+01 -0.60428376631E+02  0.10028082135E+03  0.11727369356E+03  0.00000000000E+00 0.  1.
         11    1    1    2    0    0  0.50859965631E+02 -0.90536958792E+01  0.26119843710E+03  0.26625801219E+03  0.00000000000E+00 0. -1.
<mgrwt>
<rscale>  0 0.30342962E+03</rscale>
<asrwt>0</asrwt>
<pdfrwt beam="1">  1        1 0.89179726E-01 0.30342962E+03</pdfrwt>
<pdfrwt beam="2">  1       -1 0.61089012E-02 0.30342962E+03</pdfrwt>
<totfact> 0.47969081E+03</totfact>
</mgrwt>
</event>
<event>
 6    1  0.7270761E-006  0.2558905E+03  0.7546771E-02  0.1109638E+00
         -2   -1    0    0    0  501 -0.00000000000E+00  0.00000000000E+00  0.28153576218E+02  0.28153576218E+02  0.00000000000E+00 0.  1.
          2   -1    0    0  501    0  0.00000000000E+00 -0.00000000000E+00 -0.58145342542E+03  0.58145342542E+03  0.00000000000E+00 0. -1.
          5    1    1    2  502    0 -0.46752835715E+02 -0.65225015687E+02 -0.93809290964E+02  0.12354110000E+03  0.47000000000E+01 0. -1.
         -5    1    1    2    0  502  0.32034458618E+02  0.24372071532E+02 -0.13312926884E+03  0.13916068637E+03  0.47000000000E+01 0. -1.
        -11    1    1    2    0    0  0.50185038859E+02 -0.10467195626E+02 -0.10384494010E+03  0.11580963645E+03  0.00000000000E+00 0.  1.
         11    1    1    2    0    0 -0.35466661762E+02  0.51320139781E+02 -0.22251634930E+03  0.23109557882E+03  0.00000000000E+00 0. -1.
<mgrwt>
<rscale>  0 0.25589055E+03</rscale>
<asrwt>0</asrwt>
<pdfrwt beam="2">  1        2 0.89454368E-01 0.25589055E+03</pdfrwt>
<pdfrwt beam="1">  1       -2 0.43313197E-02 0.25589055E+03</pdfrwt>
<totfact> 0.12636519E+04</totfact>
</mgrwt>
</event>
<event>
 6    1  0.7270761E-006  0.1595536E+03  0.7546771E-02  0.1197092E+00
         -2   -1    0    0    0  501 -0.00000000000E+00  0.00000000000E+00  0.63441770101E+02  0.63441770101E+02  0.00000000000E+00 0. -1.
          2   -1    0    0  501    0  0.00000000000E+00 -0.00000000000E+00 -0.40457287651E+03  0.40457287651E+03  0.00000000000E+00 0.  1.
          5    1    1    2  502    0 -0.39042787374E+02  0.30381479342E+02  0.94535000493E+01  0.50584900871E+02  0.47000000000E+01 0. -1.
         -5    1    1    2    0  502  0.56255780000E+02  0.67266601402E+02 -0.99171091145E+02  0.13246321665E+03  0.47000000000E+01 0. -1.
        -11    1    1    2    0    0 -0.12158743287E+02 -0.11486686169E+03 -0.20667505969E+03  0.23676319657E+03  0.00000000000E+00 0.  1.
         11    1    1    2    0    0 -0.50542493400E+01  0.17218780948E+02 -0.44738455626E+02  0.48203332515E+02  0.00000000000E+00 0. -1.
<mgrwt>
<rscale>  0 0.15278495E+03</rscale>
<asrwt>0</asrwt>
<pdfrwt beam="2">  1        2 0.62241982E-01 0.15955365E+03</pdfrwt>
<pdfrwt beam="1">  1       -2 0.97602722E-02 0.15955365E+03</pdfrwt>
<totfact> 0.52719797E+03</totfact>
</mgrwt>
</event>
<event>
 6    1  0.7270761E-006  0.3906016E+03  0.7546771E-02  0.1047083E+00
         -2   -1    0    0    0  501 -0.00000000000E+00  0.00000000000E+00  0.50527043003E+02  0.50527043003E+02  0.00000000000E+00 0.  1.
          2   -1    0    0  501    0  0.00000000000E+00 -0.00000000000E+00 -0.75489084844E+03  0.75489084844E+03  0.00000000000E+00 0. -1.
          5    1    1    2  502    0 -0.42284023152E+01 -0.37264870357E+02 -0.22475519670E+02  0.43974867064E+02  0.47000000000E+01 0. -1.
         -5    1    1    2    0  502  0.13590647535E+03  0.40210846589E+02 -0.15142115740E+03  0.20745587274E+03  0.47000000000E+01 0. -1.
        -11    1    1    2    0    0 -0.70798019191E+02 -0.36531251639E+02 -0.37958728998E+03  0.38785745137E+03  0.00000000000E+00 0. -1.
         11    1    1    2    0    0 -0.60880053846E+02  0.33585275407E+02 -0.15087983839E+03  0.16612970027E+03  0.00000000000E+00 0.  1.
<mgrwt>
<rscale>  0 0.39060160E+03</rscale>
<asrwt>0</asrwt>
<pdfrwt beam="2">  1        2 0.11613704E+00 0.39060160E+03</pdfrwt>
<pdfrwt beam="1">  1       -2 0.77733920E-02 0.39060160E+03</pdfrwt>
<totfact> 0.37975223E+03</totfact>
</mgrwt>
</event>
<event>
 6    1  0.7270761E-006  0.1250050E+03  0.7546771E-02  0.1250430E+00
          1   -1    0    0  501    0  0.00000000000E+00  0.00000000000E+00  0.20694853017E+02  0.20694853017E+02  0.00000000000E+00 0. -1.
         -1   -1    0    0    0  501 -0.00000000000E+00 -0.00000000000E+00 -0.57184266789E+03  0.57184266789E+03  0.00000000000E+00 0.  1.
          5    1    1    2  502    0 -0.54688124206E+02  0.28094092317E+02 -0.19632132783E+03  0.20577711903E+03  0.47000000000E+01 0. -1.
         -5    1    1    2    0  502  0.55649103291E+02 -0.27417877991E+02 -0.14863811050E+03  0.16113330079E+03  0.47000000000E+01 0. -1.
        -11    1    1    2    0    0 -0.28133182941E+02  0.14555122021E+02 -0.21388674787E+02  0.38220452229E+02  0.00000000000E+00 0. -1.
         11    1    1    2    0    0  0.27172203856E+02 -0.15231336348E+02 -0.18479970175E+03  0.18740664886E+03  0.00000000000E+00 0.  1.
<mgrwt>
<rscale>  0 0.11566213E+03</rscale>
<asrwt>0</asrwt>
<pdfrwt beam="1">  1        1 0.31838237E-02 0.12500497E+03</pdfrwt>
<pdfrwt beam="2">  1       -1 0.87975790E-01 0.12500497E+03</pdfrwt>
<totfact> 0.39858915E+03</totfact>
</mgrwt>
</event>
<event>
 6    1  0.7270761E-006  0.1467320E+03  0.7546771E-02  0.1214335E+00
         -1   -1    0    0    0  501 -0.00000000000E+00  0.00000000000E+00  0.22796988482E+02  0.22796988482E+02  0.00000000000E+00 0.  1.
          1   -1    0    0  501    0  0.00000000000E+00 -0.00000000000E+00 -0.93959523550E+03  0.93959523550E+03  0.00000000000E+00 0. -1.
          5    1    1    2  502    0  0.57167224985E+02 -0.57539519057E+00 -0.68444655948E+02  0.89303883566E+02  0.47000000000E+01 0. -1.
         -5    1    1    2    0  502 -0.31194337003E+02  0.72897152166E+02 -0.22857660031E+03  0.24198436657E+03  0.47000000000E+01 0. -1.
        -11    1    1    2    0    0 -0.10383987257E+00 -0.88281088145E+02 -0.43884663204E+03  0.44763816612E+03  0.00000000000E+00 0. -1.
         11    1    1    2    0    0 -0.25869048110E+02  0.15959331170E+02 -0.18093035871E+03  0.18346580773E+03  0.00000000000E+00 0.  1.
<mgrwt>
<rscale>  0 0.13925471E+03</rscale>
<asrwt>0</asrwt>
<pdfrwt beam="2">  1        1 0.14455312E+00 0.14673199E+03</pdfrwt>
<pdfrwt beam="1">  1       -1 0.35072288E-02 0.14673199E+03</pdfrwt>
<totfact> 0.51994253E+03</totfact>
</mgrwt>
</event>
<event>
 6    1  0.7270761E-006  0.1306415E+03  0.7546771E-02  0.1239217E+00
         -2   -1    0    0    0  501 -0.00000000000E+00  0.00000000000E+00  0.23245127202E+03  0.23245127202E+03  0.00000000000E+00 0.  1.
          2   -1    0    0  501    0  0.00000000000E+00 -0.00000000000E+00 -0.58604691564E+02  0.58604691564E+02  0.00000000000E+00 0. -1.
          5    1    1    2  502    0  0.29005937500E+02  0.12132797333E+02 -0.18499068911E+02  0.36781173608E+02  0.47000000000E+01 0.  1.
         -5    1    1    2    0  502 -0.15121328697E+02  0.23202963885E+02  0.13618362484E+03  0.13905071661E+03  0.47000000000E+01 0.  1.
        -11    1    1    2    0    0 -0.22181647761E+02  0.43258491112E+01  0.69089412352E+02  0.72691714569E+02  0.00000000000E+00 0.  1.
         11    1    1    2    0    0  0.82970389575E+01 -0.39661610329E+02 -0.12927387823E+02  0.42532358802E+02  0.00000000000E+00 0. -1.
<mgrwt>
<rscale>  0 0.12238307E+03</rscale>
<asrwt>0</asrwt>
<pdfrwt beam="2">  1        2 0.90161065E-02 0.13064149E+03</pdfrwt>
<pdfrwt beam="1">  1       -2 0.35761734E-01 0.13064149E+03</pdfrwt>
<totfact> 0.51033207E+03</totfact>
</mgrwt>
</event>
<event>
 6    1  0.7270761E-006  0.1276592E+03  0.7546771E-02  0.1244060E+00
         -1   -1    0    0    0  501 -0.00000000000E+00  0.00000000000E+00  0.16704269348E+02  0.16704269348E+02  0.00000000000E+00 0.  1.
          1   -1    0    0  501    0  0.00000000000E+00 -0.00000000000E+00 -0.76545459071E+03  0.76545459071E+03  0.00000000000E+00 0. -1.
          5    1    1    2  502    0 -0.67492368029E+02  0.19256524811E+02 -0.19825882169E+03  0.21036797253E+03  0.47000000000E+01 0.  1.
         -5    1    1    2    0  502  0.56436282353E+02  0.41969552963E+01 -0.19409159737E+03  0.20222835254E+03  0.47000000000E+01 0.  1.
        -11    1    1    2    0    0  0.52090877952E+02 -0.21297120076E+02 -0.22195479801E+03  0.22897807591E+03  0.00000000000E+00 0. -1.
         11    1    1    2    0    0 -0.41034792276E+02 -0.21563600311E+01 -0.13444510429E+03  0.14058445908E+03  0.00000000000E+00 0.  1.
<mgrwt>
<rscale>  0 0.11941840E+03</rscale>
<asrwt>0</asrwt>
<pdfrwt beam="2">  1        1 0.11776224E+00 0.12765922E+03</pdfrwt>
<pdfrwt beam="1">  1       -1 0.25698877E-02 0.12765922E+03</pdfrwt>
<totfact> 0.11152292E+04</totfact>
</mgrwt>
</event>
<event>
 6    1  0.7270761E-006  0.1411825E+03  0.7546771E-02  0.1222576E+00
         -1   -1    0    0    0  501 -0.00000000000E+00  0.00000000000E+00  0.49880720824E+02  0.49880720824E+02  0.00000000000E+00 0.  1.
          1   -1    0    0  501    0  0.00000000000E+00 -0.00000000000E+00 -0.33117530593E+03  0.33117530593E+03  0.00000000000E+00 0. -1.
          5    1    1    2  502    0 -0.29168444635E+02  0.66014826638E+01 -0.12604669234E+03  0.12963115515E+03  0.47000000000E+01 0.  1.
         -5    1    1    2    0  502  0.13714212008E+02  0.57085692494E+02  0.10889230901E+01  0.58907823352E+02  0.47000000000E+01 0.  1.
        -11    1    1    2    0    0 -0.19024747979E+02  0.12846789377E+02 -0.12924241005E+02  0.26344203129E+02  0.00000000000E+00 0.  1.
         11    1    1    2    0    0  0.34478980606E+02 -0.76533964535E+02 -0.14341257486E+03  0.16617284513E+03  0.00000000000E+00 0. -1.
<mgrwt>
<rscale>  0 0.13334448E+03</rscale>
<asrwt>0</asrwt>
<pdfrwt beam="2">  1        1 0.50950047E-01 0.14118251E+03</pdfrwt>
<pdfrwt beam="1">  1       -1 0.76739571E-02 0.14118251E+03</pdfrwt>
<totfact> 0.67805586E+03</totfact>
</mgrwt>
</event>
<event>
 6    1  0.7270761E-006  0.2898224E+03  0.7546771E-02  0.1092243E+00
          2   -1    0    0  501    0  0.00000000000E+00  0.00000000000E+00  0.95427482443E+03  0.95427482443E+03  0.00000000000E+00 0. -1.
         -2   -1    0    0    0  501 -0.00000000000E+00 -0.00000000000E+00 -0.91150986639E+02  0.91150986639E+02  0.00000000000E+00 0.  1.
          5    1    1    2  502    0 -0.13018896103E+03 -0.12460513112E+03  0.26637191394E+03  0.32163906916E+03  0.47000000000E+01 0.  1.
         -5    1    1    2    0  502 -0.82545758223E+02 -0.27462682240E+02  0.28120309846E+02  0.91546943926E+02  0.47000000000E+01 0.  1.
        -11    1    1    2    0    0  0.19797214830E+03  0.10789878321E+03  0.42291546661E+03  0.47926256981E+03  0.00000000000E+00 0.  1.
         11    1    1    2    0    0  0.14762570954E+02  0.44169030159E+02  0.14571614740E+03  0.15297722817E+03  0.00000000000E+00 0. -1.
<mgrwt>
<rscale>  0 0.28640139E+03</rscale>
<asrwt>0</asrwt>
<pdfrwt beam="1">  1        2 0.14681150E+00 0.28982238E+03</pdfrwt>
<pdfrwt beam="2">  1       -2 0.14023229E-01 0.28982238E+03</pdfrwt>
<totfact> 0.10745689E+03</totfact>
</mgrwt>
</event>
<event>
 6    1  0.7270761E-006  0.1675208E+03  0.7546771E-02  0.1187217E+00
         -1   -1    0    0    0  501 -0.00000000000E+00  0.00000000000E+00  0.19423518490E+03  0.19423518490E+03  0.00000000000E+00 0.  1.
          1   -1    0    0  501    0  0.00000000000E+00 -0.00000000000E+00 -0.32799375886E+03  0.32799375886E+03  0.00000000000E+00 0. -1.
          5    1    1    2  502    0  0.26339790660E+02 -0.43745033156E+02  0.39634775803E+02  0.64810631464E+02  0.47000000000E+01 0.  1.
         -5    1    1    2    0  502 -0.11307540435E+03 -0.26363453302E+02  0.96789325736E+02  0.15123274220E+03  0.47000000000E+01 0.  1.
        -11    1    1    2    0    0  0.45484786809E+02 -0.10507411256E+02 -0.14020374637E+03  0.14777131663E+03  0.00000000000E+00 0. -1.
         11    1    1    2    0    0  0.41250826877E+02  0.80615897714E+02 -0.12997892913E+03  0.15841425346E+03  0.00000000000E+00 0.  1.
<mgrwt>
<rscale>  0 0.16131738E+03</rscale>
<asrwt>0</asrwt>
<pdfrwt beam="2">  1        1 0.50460577E-01 0.16752076E+03</pdfrwt>
<pdfrwt beam="1">  1       -1 0.29882337E-01 0.16752076E+03</pdfrwt>
<totfact> 0.80484426E+02</totfact>
</mgrwt>
</event>
<event>
 6    1  0.7270761E-006  0.1267748E+03  0.7546771E-02  0.1247129E+00
          1   -1    0    0  501    0  0.00000000000E+00  0.00000000000E+00  0.28590257649E+03  0.28590257649E+03  0.00000000000E+00 0. -1.
         -1   -1    0    0    0  501 -0.00000000000E+00 -0.00000000000E+00 -0.46476390859E+02  0.46476390859E+02  0.00000000000E+00 0.  1.
          5    1    1    2  502    0 -0.35112291429E+02  0.46367225384E+02  0.19275569809E+02  0.61452666261E+02  0.47000000000E+01 0.  1.
         -5    1    1    2    0  502  0.18365047253E+02 -0.59436667379E+02  0.69038265053E+02  0.93050332784E+02  0.47000000000E+01 0.  1.
        -11    1    1    2    0    0 -0.75894089239E+01  0.46967187598E+02  0.10728081309E+03  0.11735709905E+03  0.00000000000E+00 0. -1.
         11    1    1    2    0    0  0.24336653100E+02 -0.33897745603E+02  0.43831537677E+02  0.60518869258E+02  0.00000000000E+00 0.  1.
<mgrwt>
<rscale>  0 0.11758862E+03</rscale>
<asrwt>0</asrwt>
<pdfrwt beam="1">  1        1 0.43985011E-01 0.12677477E+03</pdfrwt>
<pdfrwt beam="2">  1       -1 0.71502141E-02 0.12677477E+03</pdfrwt>
<totfact> 0.89792779E+03</totfact>
</mgrwt>
</event>
<event>
 6    1  0.7270761E-006  0.1410272E+03  0.7546771E-02  0.1223178E+00
          3   -1    0    0  501    0  0.00000000000E+00  0.00000000000E+00  0.68750104721E+03  0.68750104721E+03  0.00000000000E+00 0. -1.
         -3   -1    0    0    0  501 -0.00000000000E+00 -0.00000000000E+00 -0.23178547919E+02  0.23178547919E+02  0.00000000000E+00 0.  1.
          5    1    1    2  502    0 -0.65004936881E+02  0.50579091873E+02  0.23815952503E+03  0.25204351949E+03  0.47000000000E+01 0.  1.
         -5    1    1    2    0  502  0.55227326723E+02  0.14004210519E+02  0.12152341207E+03  0.13429893972E+03  0.47000000000E+01 0.  1.
        -11    1    1    2    0    0  0.37270853889E+02 -0.25657207877E+02  0.60275224492E+02  0.75369168452E+02  0.00000000000E+00 0. -1.
         11    1    1    2    0    0 -0.27493243731E+02 -0.38926094516E+02  0.24436433770E+03  0.24896796746E+03  0.00000000000E+00 0.  1.
<mgrwt>
<rscale>  0 0.13292545E+03</rscale>
<asrwt>0</asrwt>
<pdfrwt beam="1">  1        3 0.10576938E+00 0.14102723E+03</pdfrwt>
<pdfrwt beam="2">  1       -3 0.35659310E-02 0.14102723E+03</pdfrwt>
<totfact> 0.72161646E+02</totfact>
</mgrwt>
</event>
<event>
 6    1  0.7270761E-006  0.2730771E+03  0.7546771E-02  0.1099531E+00
         -2   -1    0    0    0  501 -0.00000000000E+00  0.00000000000E+00  0.53563506297E+02  0.53563506297E+02  0.00000000000E+00 0.  1.
          2   -1    0    0  501    0  0.00000000000E+00 -0.00000000000E+00 -0.34805002729E+03  0.34805002729E+03  0.00000000000E+00 0. -1.
          5    1    1    2  502    0 -0.27718673615E+02  0.50360035801E+01 -0.10102092292E+03  0.10498096526E+03  0.47000000000E+01 0. -1.
         -5    1    1    2    0  502  0.27149229781E+02 -0.90723760660E+02 -0.52662627287E+02  0.10845885735E+03  0.47000000000E+01 0.  1.
        -11    1    1    2    0    0 -0.34461108450E+02  0.66934381585E+02 -0.53816868058E+02  0.92542070008E+02  0.00000000000E+00 0. -1.
         11    1    1    2    0    0  0.35030552284E+02  0.18753375495E+02 -0.86986102723E+02  0.95631640960E+02  0.00000000000E+00 0.  1.
<mgrwt>
<rscale>  0 0.27307713E+03</rscale>
<asrwt>0</asrwt>
<pdfrwt beam="2">  1        2 0.53546158E-01 0.27307713E+03</pdfrwt>
<pdfrwt beam="1">  1       -2 0.82405394E-02 0.27307713E+03</pdfrwt>
<totfact> 0.83277197E+03</totfact>
</mgrwt>
</event>
<event>
 6    1  0.7270761E-006  0.1230152E+03  0.7546771E-02  0.1254131E+00
          3   -1    0    0  501    0  0.00000000000E+00  0.00000000000E+00  0.17530360699E+03  0.17530360699E+03  0.00000000000E+00 0. -1.
         -3   -1    0    0    0  501 -0.00000000000E+00 -0.00000000000E+00 -0.64361372058E+02  0.64361372058E+02  0.00000000000E+00 0.  1.
          5    1    1    2  502    0 -0.52082462078E+02 -0.75592878416E+01  0.69971461584E+02  0.87680220830E+02  0.47000000000E+01 0. -1.
         -5    1    1    2    0  502  0.47832137195E+02  0.56467919717E+01 -0.96228841153E+01  0.49340546277E+02  0.47000000000E+01 0.  1.
        -11    1    1    2    0    0 -0.46621685669E+01 -0.43092185004E+02  0.22318667053E+02  0.48752385820E+02  0.00000000000E+00 0.  1.
         11    1    1    2    0    0  0.89124934493E+01  0.45004680873E+02  0.28274990413E+02  0.53891826123E+02  0.00000000000E+00 0. -1.
<mgrwt>
<rscale>  0 0.11355154E+03</rscale>
<asrwt>0</asrwt>
<pdfrwt beam="1">  1        3 0.26969786E-01 0.12301520E+03</pdfrwt>
<pdfrwt beam="2">  1       -3 0.99017496E-02 0.12301520E+03</pdfrwt>
<totfact> 0.22070614E+03</totfact>
</mgrwt>
</event>
<event>
 6    1  0.7270761E-006  0.1380544E+03  0.7546771E-02  0.1227515E+00
         -1   -1    0    0    0  501 -0.00000000000E+00  0.00000000000E+00  0.58011002371E+03  0.58011002371E+03  0.00000000000E+00 0.  1.
          1   -1    0    0  501    0  0.00000000000E+00 -0.00000000000E+00 -0.26782081260E+02  0.26782081260E+02  0.00000000000E+00 0. -1.
          5    1    1    2  502    0 -0.28783886119E+02 -0.60763447350E+02  0.31914045797E+03  0.32618005848E+03  0.47000000000E+01 0. -1.
         -5    1    1    2    0  502  0.40695739257E+02  0.34158322628E+01  0.35254771042E+02  0.54155332008E+02  0.47000000000E+01 0. -1.
        -11    1    1    2    0    0 -0.35686691126E+02  0.60896754540E+02  0.18667548912E+03  0.19957377802E+03  0.00000000000E+00 0.  1.
         11    1    1    2    0    0  0.23774837988E+02 -0.35491394520E+01  0.12257224324E+02  0.26982936466E+02  0.00000000000E+00 0. -1.
<mgrwt>
<rscale>  0 0.12996001E+03</rscale>
<asrwt>0</asrwt>
<pdfrwt beam="2">  1        1 0.41203206E-02 0.13805445E+03</pdfrwt>
<pdfrwt beam="1">  1       -1 0.89247687E-01 0.13805445E+03</pdfrwt>
<totfact> 0.27270670E+03</totfact>
</mgrwt>
</event>
<event>
 6    1  0.7270761E-006  0.3511700E+03  0.7546771E-02  0.1062136E+00
          1   -1    0    0  501    0  0.00000000000E+00  0.00000000000E+00  0.24568314071E+03  0.24568314071E+03  0.00000000000E+00 0. -1.
         -1   -1    0    0    0  501 -0.00000000000E+00 -0.00000000000E+00 -0.12548724556E+03  0.12548724556E+03  0.00000000000E+00 0.  1.
          5    1    1    2  502    0 -0.68869053062E+02 -0.11805808282E+03  0.45315878517E+02  0.14407038639E+03  0.47000000000E+01 0.  1.
         -5    1    1    2    0  502 -0.10336749161E+02  0.15353716026E+02 -0.31235185444E+02  0.36610268897E+02  0.47000000000E+01 0.  1.
        -11    1    1    2    0    0 -0.35634611014E+01  0.29030023220E+02 -0.91050736909E+01  0.30632382703E+02  0.00000000000E+00 0.  1.
         11    1    1    2    0    0  0.82769263324E+02  0.73674343574E+02  0.11522027577E+03  0.15985734828E+03  0.00000000000E+00 0. -1.
<mgrwt>
<rscale>  0 0.35117005E+03</rscale>
<asrwt>0</asrwt>
<pdfrwt beam="1">  1        1 0.37797406E-01 0.35117005E+03</pdfrwt>
<pdfrwt beam="2">  1       -1 0.19305730E-01 0.35117005E+03</pdfrwt>
<totfact> 0.24201489E+03</totfact>
</mgrwt>
</event>
<event>
 6    1  0.7270761E-006  0.1282670E+03  0.7546771E-02  0.1242779E+00
          1   -1    0    0  501    0  0.00000000000E+00  0.00000000000E+00  0.11935150162E+03  0.11935150162E+03  0.00000000000E+00 0. -1.
         -1   -1    0    0    0  501 -0.00000000000E+00 -0.00000000000E+00 -0.11638735793E+03  0.11638735793E+03  0.00000000000E+00 0.  1.
          5    1    1    2  502    0  0.50077303749E+02  0.23469085884E+02 -0.65304438454E+02  0.85704690798E+02  0.47000000000E+01 0.  1.
         -5    1    1    2    0  502 -0.21783822397E+02 -0.18320171503E+02  0.35735034760E+02  0.45926531672E+02  0.47000000000E+01 0.  1.
        -11    1    1    2    0    0 -0.31989737903E+02 -0.34645460579E+02 -0.13732425972E+02  0.49114466229E+02  0.00000000000E+00 0.  1.
         11    1    1    2    0    0  0.36962565521E+01  0.29496546197E+02  0.46265973358E+02  0.54993170856E+02  0.00000000000E+00 0. -1.
<mgrwt>
<rscale>  0 0.12019280E+03</rscale>
<asrwt>0</asrwt>
<pdfrwt beam="1">  1        1 0.18361769E-01 0.12826702E+03</pdfrwt>
<pdfrwt beam="2">  1       -1 0.17905747E-01 0.12826702E+03</pdfrwt>
<totfact> 0.65188393E+03</totfact>
</mgrwt>
</event>
<event>
 6    1  0.7270761E-006  0.3171772E+03  0.7546771E-02  0.1078417E+00
         -1   -1    0    0    0  501 -0.00000000000E+00  0.00000000000E+00  0.81118343785E+02  0.81118343785E+02  0.00000000000E+00 0.  1.
          1   -1    0    0  501    0  0.00000000000E+00 -0.00000000000E+00 -0.11932536801E+04  0.11932536801E+04  0.00000000000E+00 0. -1.
          5    1    1    2  502    0  0.13290139367E+03 -0.16701327848E+03 -0.48091453017E+03  0.52617211153E+03  0.47000000000E+01 0. -1.
         -5    1    1    2    0  502  0.76356832779E+02 -0.35933856555E+02 -0.70975677807E+02  0.11036867671E+03  0.47000000000E+01 0. -1.
        -11    1    1    2    0    0 -0.13885956973E+03  0.72510256407E+02 -0.29047186867E+03  0.33002064159E+03  0.00000000000E+00 0.  1.
         11    1    1    2    0    0 -0.70398656718E+02  0.13043687863E+03 -0.26977325968E+03  0.30781059405E+03  0.00000000000E+00 0. -1.
<mgrwt>
<rscale>  0 0.31405812E+03</rscale>
<asrwt>0</asrwt>
<pdfrwt beam="2">  1        1 0.18357747E+00 0.31717720E+03</pdfrwt>
<pdfrwt beam="1">  1       -1 0.12479746E-01 0.31717720E+03</pdfrwt>
<totfact> 0.49808457E+02</totfact>
</mgrwt>
</event>
<event>
 6    1  0.7270761E-006  0.1272175E+03  0.7546771E-02  0.1245391E+00
         -1   -1    0    0    0  501 -0.00000000000E+00  0.00000000000E+00  0.12372771773E+02  0.12372771773E+02  0.00000000000E+00 0.  1.
          1   -1    0    0  501    0  0.00000000000E+00 -0.00000000000E+00 -0.10166790834E+04  0.10166790834E+04  0.00000000000E+00 0. -1.
          5    1    1    2  502    0  0.36162297237E+02 -0.23314568016E+02 -0.34999903256E+03  0.35266512957E+03  0.47000000000E+01 0. -1.
         -5    1    1    2    0  502 -0.73647802840E+02  0.13248460850E+02 -0.26790046818E+03  0.27819466463E+03  0.47000000000E+01 0.  1.
        -11    1    1    2    0    0 -0.27781250239E+02  0.91846346178E+01 -0.15588564248E+03  0.15860797240E+03  0.00000000000E+00 0.  1.
         11    1    1    2    0    0  0.65266755841E+02  0.88147254765E+00 -0.23052116845E+03  0.23958408861E+03  0.00000000000E+00 0. -1.
<mgrwt>
<rscale>  0 0.11862013E+03</rscale>
<asrwt>0</asrwt>
<pdfrwt beam="2">  1        1 0.15641220E+00 0.12721748E+03</pdfrwt>
<pdfrwt beam="1">  1       -1 0.19035029E-02 0.12721748E+03</pdfrwt>
<totfact> 0.10990137E+04</totfact>
</mgrwt>
</event>
<event>
 6    1  0.7270761E-006  0.2438609E+03  0.7546771E-02  0.1119865E+00
         -1   -1    0    0    0  501 -0.00000000000E+00  0.00000000000E+00  0.36816955583E+03  0.36816955583E+03  0.00000000000E+00 0.  1.
          1   -1    0    0  501    0  0.00000000000E+00 -0.00000000000E+00 -0.29270699983E+03  0.29270699983E+03  0.00000000000E+00 0. -1.
          5    1    1    2  502    0 -0.98586763287E+01 -0.18095432263E+03  0.22612237316E+03  0.28981904358E+03  0.47000000000E+01 0.  1.
         -5    1    1    2    0  502 -0.56278802028E+02 -0.17711213330E+02  0.41756732967E+02  0.72434145149E+02  0.47000000000E+01 0.  1.
        -11    1    1    2    0    0  0.80696213440E+02  0.16257905170E+03 -0.12368236902E+03  0.21963869268E+03  0.00000000000E+00 0.  1.
         11    1    1    2    0    0 -0.14558735083E+02  0.36086484261E+02 -0.68734181104E+02  0.78984674245E+02  0.00000000000E+00 0. -1.
<mgrwt>
<rscale>  0 0.23989176E+03</rscale>
<asrwt>0</asrwt>
<pdfrwt beam="2">  1        1 0.45031846E-01 0.24386094E+03</pdfrwt>
<pdfrwt beam="1">  1       -1 0.56641470E-01 0.24386094E+03</pdfrwt>
<totfact> 0.29616095E+02</totfact>
</mgrwt>
</event>
<event>
 6    1  0.7270761E-006  0.1557133E+03  0.7546771E-02  0.1203166E+00
         -2   -1    0    0    0  501 -0.00000000000E+00  0.00000000000E+00  0.52964241806E+03  0.52964241806E+03  0.00000000000E+00 0.  1.
          2   -1    0    0  501    0  0.00000000000E+00 -0.00000000000E+00 -0.37775664643E+02  0.37775664643E+02  0.00000000000E+00 0. -1.
          5    1    1    2  502    0 -0.72569630726E+01  0.11946020612E+03  0.19430273183E+03  0.22825215433E+03  0.47000000000E+01 0.  1.
         -5    1    1    2    0  502  0.16074662618E+02 -0.27027606849E+02  0.96683333548E+02  0.10177742036E+03  0.47000000000E+01 0.  1.
        -11    1    1    2    0    0 -0.20435896623E+02  0.74207608567E+01  0.16174533013E+02  0.27098137956E+02  0.00000000000E+00 0. -1.
         11    1    1    2    0    0  0.11618197078E+02 -0.99853360128E+02  0.18470615503E+03  0.21029037005E+03  0.00000000000E+00 0.  1.
<mgrwt>
<rscale>  0 0.14782917E+03</rscale>
<asrwt>0</asrwt>
<pdfrwt beam="2">  1        2 0.58116411E-02 0.15571329E+03</pdfrwt>
<pdfrwt beam="1">  1       -2 0.81483444E-01 0.15571329E+03</pdfrwt>
<totfact> 0.17118194E+03</totfact>
</mgrwt>
</event>
<event>
 6    1  0.7270761E-006  0.3447866E+03  0.7546771E-02  0.1066668E+00
          2   -1    0    0  501    0  0.00000000000E+00  0.00000000000E+00  0.92150319093E+03  0.92150319093E+03  0.00000000000E+00 0. -1.
         -2   -1    0    0    0  501 -0.00000000000E+00 -0.00000000000E+00 -0.12348824895E+03  0.12348824895E+03  0.00000000000E+00 0.  1.
          5    1    1    2  502    0 -0.32405252913E+03 -0.60445696081E+02  0.42365639523E+03  0.53681519635E+03  0.47000000000E+01 0.  1.
         -5    1    1    2    0  502  0.98847587119E+01 -0.70044945407E+01  0.32379472241E+02  0.34889706522E+02  0.47000000000E+01 0.  1.
        -11    1    1    2    0    0  0.22615885688E+02 -0.77207658842E+01  0.12542846825E+02  0.26989099981E+02  0.00000000000E+00 0.  1.
         11    1    1    2    0    0  0.29155188473E+03  0.75170956506E+02  0.32943622768E+03  0.44629743702E+03  0.00000000000E+00 0. -1.
<mgrwt>
<rscale>  0 0.34029951E+03</rscale>
<asrwt>0</asrwt>
<pdfrwt beam="1">  1        2 0.14176972E+00 0.34478658E+03</pdfrwt>
<pdfrwt beam="2">  1       -2 0.18998193E-01 0.34478658E+03</pdfrwt>
<totfact> 0.67547211E+02</totfact>
</mgrwt>
</event>
<event>
 6    1  0.8131606E-006  0.3503412E+03  0.7546771E-02  0.1062475E+00
         -3   -1    0    0    0  501 -0.00000000000E+00  0.00000000000E+00  0.91885778875E+02  0.91885778875E+02  0.00000000000E+00 0.  1.
          3   -1    0    0  501    0  0.00000000000E+00 -0.00000000000E+00 -0.33394432993E+03  0.33394432993E+03  0.00000000000E+00 0. -1.
          5    1    1    2  502    0 -0.12581965023E+03 -0.77225709703E+02 -0.85100341495E+02  0.17046569375E+03  0.47000000000E+01 0. -1.
         -5    1    1    2    0  502 -0.45630819985E+01  0.34212756434E+02 -0.41889740201E+02  0.54480957721E+02  0.47000000000E+01 0. -1.
        -11    1    1    2    0    0  0.72088790138E+02 -0.24961713524E+00 -0.94254314419E+01  0.72702783510E+02  0.00000000000E+00 0. -1.
         11    1    1    2    0    0  0.58293942087E+02  0.43262570405E+02 -0.10564303792E+03  0.12818067383E+03  0.00000000000E+00 0.  1.
<mgrwt>
<rscale>  0 0.35034118E+03</rscale>
<asrwt>0</asrwt>
<pdfrwt beam="2">  1        3 0.51376050E-01 0.35034118E+03</pdfrwt>
<pdfrwt beam="1">  1       -3 0.14136274E-01 0.35034118E+03</pdfrwt>
<totfact> 0.40280706E+02</totfact>
</mgrwt>
</event>
<event>
 6    1  0.7270761E-006  0.1277017E+03  0.7546771E-02  0.1246278E+00
          1   -1    0    0  501    0  0.00000000000E+00  0.00000000000E+00  0.80616316069E+02  0.80616316069E+02  0.00000000000E+00 0. -1.
         -1   -1    0    0    0  501 -0.00000000000E+00 -0.00000000000E+00 -0.15463975143E+03  0.15463975143E+03  0.00000000000E+00 0.  1.
          5    1    1    2  502    0 -0.27980955507E+02 -0.56197748008E+02 -0.69006994311E+02  0.93408650649E+02  0.47000000000E+01 0. -1.
         -5    1    1    2    0  502  0.40096115669E+01  0.45764776580E+02  0.10026045685E+02  0.47255722959E+02  0.47000000000E+01 0. -1.
        -11    1    1    2    0    0  0.82412225929E+01  0.88385118455E+01  0.37669055415E+02  0.39560014880E+02  0.00000000000E+00 0. -1.
         11    1    1    2    0    0  0.15730121347E+02  0.15944595829E+01 -0.52711542154E+02  0.55031679015E+02  0.00000000000E+00 0.  1.
<mgrwt>
<rscale>  0 0.11809191E+03</rscale>
<asrwt>0</asrwt>
<pdfrwt beam="1">  1        1 0.12402510E-01 0.12770166E+03</pdfrwt>
<pdfrwt beam="2">  1       -1 0.23790731E-01 0.12770166E+03</pdfrwt>
<totfact> 0.68490472E+03</totfact>
</mgrwt>
</event>
<event>
 6    1  0.7270761E-006  0.1283431E+03  0.7546771E-02  0.1244403E+00
          1   -1    0    0  501    0  0.00000000000E+00  0.00000000000E+00  0.43251785945E+03  0.43251785945E+03  0.00000000000E+00 0. -1.
         -1   -1    0    0    0  501 -0.00000000000E+00 -0.00000000000E+00 -0.29161777474E+02  0.29161777474E+02  0.00000000000E+00 0.  1.
          5    1    1    2  502    0  0.35355936528E+02 -0.54924724090E+02  0.60503236485E+02  0.89159964049E+02  0.47000000000E+01 0.  1.
         -5    1    1    2    0  502 -0.76428696898E+01  0.46093186178E+02  0.15204840358E+03  0.15913454151E+03  0.47000000000E+01 0.  1.
        -11    1    1    2    0    0  0.17178316205E+02 -0.10702919315E+02  0.44713132892E+01  0.20727751254E+02  0.00000000000E+00 0.  1.
         11    1    1    2    0    0 -0.44891383042E+02  0.19534457228E+02  0.18633312862E+03  0.19265738012E+03  0.00000000000E+00 0. -1.
<mgrwt>
<rscale>  0 0.11921195E+03</rscale>
<asrwt>0</asrwt>
<pdfrwt beam="1">  1        1 0.66541205E-01 0.12834314E+03</pdfrwt>
<pdfrwt beam="2">  1       -1 0.44864276E-02 0.12834314E+03</pdfrwt>
<totfact> 0.10711419E+04</totfact>
</mgrwt>
</event>
<event>
 6    1  0.7270761E-006  0.2906037E+03  0.7546771E-02  0.1090034E+00
         -2   -1    0    0    0  501 -0.00000000000E+00  0.00000000000E+00  0.32442376389E+02  0.32442376389E+02  0.00000000000E+00 0.  1.
          2   -1    0    0  501    0  0.00000000000E+00 -0.00000000000E+00 -0.65077331239E+03  0.65077331239E+03  0.00000000000E+00 0. -1.
          5    1    1    2  502    0 -0.12979513446E+02 -0.28191528481E+02 -0.21575704016E+02  0.38089776203E+02  0.47000000000E+01 0. -1.
         -5    1    1    2    0  502 -0.63647983165E+01  0.10179063773E+03 -0.14176930620E+03  0.17470681374E+03  0.47000000000E+01 0.  1.
        -11    1    1    2    0    0  0.54178238505E+02 -0.56781056898E+02 -0.25806003220E+03  0.26973014323E+03  0.00000000000E+00 0. -1.
         11    1    1    2    0    0 -0.34833926742E+02 -0.16818052347E+02 -0.19692589359E+03  0.20068895561E+03  0.00000000000E+00 0.  1.
<mgrwt>
<rscale>  0 0.29060374E+03</rscale>
<asrwt>0</asrwt>
<pdfrwt beam="2">  1        2 0.10011897E+00 0.29060374E+03</pdfrwt>
<pdfrwt beam="1">  1       -2 0.49911348E-02 0.29060374E+03</pdfrwt>
<totfact> 0.89802677E+03</totfact>
</mgrwt>
</event>
<event>
 6    1  0.7270761E-006  0.1471197E+03  0.7546771E-02  0.1213743E+00
         -1   -1    0    0    0  501 -0.00000000000E+00  0.00000000000E+00  0.27403631937E+03  0.27403631937E+03  0.00000000000E+00 0.  1.
          1   -1    0    0  501    0  0.00000000000E+00 -0.00000000000E+00 -0.73525835238E+02  0.73525835238E+02  0.00000000000E+00 0. -1.
          5    1    1    2  502    0  0.85544267757E+01 -0.55712671715E+02  0.29910820627E+02  0.63983022730E+02  0.47000000000E+01 0. -1.
         -5    1    1    2    0  502  0.67649884146E+02  0.41163697431E+02  0.13874680453E+03  0.15982403629E+03  0.47000000000E+01 0. -1.
        -11    1    1    2    0    0 -0.29280519477E+01  0.38857439968E+02 -0.29314452427E+01  0.39077711042E+02  0.00000000000E+00 0. -1.
         11    1    1    2    0    0 -0.73276258974E+02 -0.24308465683E+02  0.34784304225E+02  0.84677384546E+02  0.00000000000E+00 0.  1.
<mgrwt>
<rscale>  0 0.13969242E+03</rscale>
<asrwt>0</asrwt>
<pdfrwt beam="2">  1        1 0.11311667E-01 0.14711970E+03</pdfrwt>
<pdfrwt beam="1">  1       -1 0.42159433E-01 0.14711970E+03</pdfrwt>
<totfact> 0.29559357E+03</totfact>
</mgrwt>
</event>
<event>
 6    1  0.7270761E-006  0.3714374E+03  0.7546771E-02  0.1055134E+00
          2   -1    0    0  501    0  0.00000000000E+00  0.00000000000E+00  0.54941851151E+03  0.54941851151E+03  0.00000000000E+00 0. -1.
         -2   -1    0    0    0  501 -0.00000000000E+00 -0.00000000000E+00 -0.26768170826E+03  0.26768170826E+03  0.00000000000E+00 0.  1.
          5    1    1    2  502    0  0.15385827591E+02 -0.26554869765E+02  0.42056637266E+02  0.52275573043E+02  0.47000000000E+01 0. -1.
         -5    1    1    2    0  502  0.17417712151E+03 -0.26739426880E+03 -0.20293957990E+02  0.31979884205E+03  0.47000000000E+01 0. -1.
        -11    1    1    2    0    0 -0.87512949054E+02  0.15341334807E+03  0.76772169892E+02  0.19258280736E+03  0.00000000000E+00 0.  1.
         11    1    1    2    0    0 -0.10205000005E+03  0.14053579049E+03  0.18320195408E+03  0.25244299732E+03  0.00000000000E+00 0. -1.
<mgrwt>
<rscale>  0 0.36884976E+03</rscale>
<asrwt>0</asrwt>
<pdfrwt beam="1">  1        2 0.84525925E-01 0.37143742E+03</pdfrwt>
<pdfrwt beam="2">  1       -2 0.41181801E-01 0.37143742E+03</pdfrwt>
<totfact> 0.31524066E+02</totfact>
</mgrwt>
</event>
<event>
 6    1  0.7270761E-006  0.1355088E+03  0.7546771E-02  0.1225001E+00
         -1   -1    0    0    0  501 -0.00000000000E+00  0.00000000000E+00  0.27599804121E+02  0.27599804121E+02  0.00000000000E+00 0.  1.
          1   -1    0    0  501    0  0.00000000000E+00 -0.00000000000E+00 -0.71842925812E+03  0.71842925812E+03  0.00000000000E+00 0. -1.
          5    1    1    2  502    0 -0.41639337776E+02 -0.13390043810E+02 -0.19311849879E+03  0.19806557575E+03  0.47000000000E+01 0. -1.
         -5    1    1    2    0  502  0.29097559193E+02 -0.37386859355E+02 -0.14327048782E+02  0.49717195518E+02  0.47000000000E+01 0. -1.
        -11    1    1    2    0    0 -0.48272037226E+02  0.24539165791E+02 -0.23782246839E+03  0.24390958716E+03  0.00000000000E+00 0. -1.
         11    1    1    2    0    0  0.60813815809E+02  0.26237737373E+02 -0.24556143803E+03  0.25433670381E+03  0.00000000000E+00 0.  1.
<mgrwt>
<rscale>  0 0.13166801E+03</rscale>
<asrwt>0</asrwt>
<pdfrwt beam="2">  1        1 0.11052758E+00 0.13550884E+03</pdfrwt>
<pdfrwt beam="1">  1       -1 0.42461238E-02 0.13550884E+03</pdfrwt>
<totfact> 0.59003164E+03</totfact>
</mgrwt>
</event>
<event>
 6    1  0.7270761E-006  0.1652925E+03  0.7546771E-02  0.1189650E+00
         -1   -1    0    0    0  501 -0.00000000000E+00  0.00000000000E+00  0.17634887466E+03  0.17634887466E+03  0.00000000000E+00 0.  1.
          1   -1    0    0  501    0  0.00000000000E+00 -0.00000000000E+00 -0.13463110638E+03  0.13463110638E+03  0.00000000000E+00 0. -1.
          5    1    1    2  502    0  0.30479751016E+02  0.14703039138E+02  0.68850972982E+02  0.76861830986E+02  0.47000000000E+01 0.  1.
         -5    1    1    2    0  502  0.15620009529E+02  0.83129671793E+02 -0.35344697546E+02  0.91792508816E+02  0.47000000000E+01 0.  1.
        -11    1    1    2    0    0 -0.63953654768E+02 -0.44953178558E+02 -0.18679820213E+02  0.80372843074E+02  0.00000000000E+00 0. -1.
         11    1    1    2    0    0  0.17853894223E+02 -0.52879532373E+02  0.26891313057E+02  0.61952798168E+02  0.00000000000E+00 0.  1.
<mgrwt>
<rscale>  0 0.15915844E+03</rscale>
<asrwt>0</asrwt>
<pdfrwt beam="2">  1        1 0.20712478E-01 0.16529252E+03</pdfrwt>
<pdfrwt beam="1">  1       -1 0.27130596E-01 0.16529252E+03</pdfrwt>
<totfact> 0.28877490E+03</totfact>
</mgrwt>
</event>
<event>
 6    1  0.7270761E-006  0.2333084E+03  0.7546771E-02  0.1127261E+00
         -2   -1    0    0    0  501 -0.00000000000E+00  0.00000000000E+00  0.10005655141E+03  0.10005655141E+03  0.00000000000E+00 0. -1.
          2   -1    0    0  501    0  0.00000000000E+00 -0.00000000000E+00 -0.51065836075E+03  0.51065836075E+03  0.00000000000E+00 0.  1.
          5    1    1    2  502    0 -0.43768491783E+02 -0.36648244022E+02 -0.11492929202E+03  0.12841186405E+03  0.47000000000E+01 0.  1.
         -5    1    1    2    0  502 -0.15267589470E+03  0.21929777332E+02 -0.70725080926E+02  0.16974973057E+03  0.47000000000E+01 0.  1.
        -11    1    1    2    0    0  0.66916846051E+02  0.22659687108E+02 -0.14181379886E+03  0.15843761944E+03  0.00000000000E+00 0.  1.
         11    1    1    2    0    0  0.12952754043E+03 -0.79412204184E+01 -0.83133637534E+02  0.15411569810E+03  0.00000000000E+00 0. -1.
<mgrwt>
<rscale>  0 0.22911935E+03</rscale>
<asrwt>0</asrwt>
<pdfrwt beam="2">  1        2 0.78562824E-01 0.23330836E+03</pdfrwt>
<pdfrwt beam="1">  1       -2 0.15393316E-01 0.23330836E+03</pdfrwt>
<totfact> 0.19835768E+03</totfact>
</mgrwt>
</event>
<event>
 6    1  0.7270761E-006  0.1584679E+03  0.7546771E-02  0.1209525E+00
         -2   -1    0    0    0  501 -0.00000000000E+00  0.00000000000E+00  0.36432569454E+03  0.36432569454E+03  0.00000000000E+00 0.  1.
          2   -1    0    0  501    0  0.00000000000E+00 -0.00000000000E+00 -0.14083474531E+03  0.14083474531E+03  0.00000000000E+00 0. -1.
          5    1    1    2  502    0  0.21616232850E+02 -0.30945605111E+02  0.13232317048E+02  0.40275007297E+02  0.47000000000E+01 0. -1.
         -5    1    1    2    0  502 -0.74055083504E+02  0.24357141909E+02  0.31036531116E+03  0.32004084446E+03  0.47000000000E+01 0.  1.
        -11    1    1    2    0    0  0.65676283779E+02 -0.23610237996E+02 -0.54411734422E+02  0.88495505152E+02  0.00000000000E+00 0. -1.
         11    1    1    2    0    0 -0.13237433125E+02  0.30198701198E+02 -0.45694944557E+02  0.56349082938E+02  0.00000000000E+00 0.  1.
<mgrwt>
<rscale>  0 0.14286488E+03</rscale>
<asrwt>0</asrwt>
<pdfrwt beam="2">  1        2 0.21666884E-01 0.15846794E+03</pdfrwt>
<pdfrwt beam="1">  1       -2 0.56050106E-01 0.15846794E+03</pdfrwt>
<totfact> 0.76439823E+02</totfact>
</mgrwt>
</event>
<event>
 6    1  0.7270761E-006  0.1222612E+03  0.7546771E-02  0.1250616E+00
         -4   -1    0    0    0  501 -0.00000000000E+00  0.00000000000E+00  0.91426792527E+02  0.91426792527E+02  0.00000000000E+00 0.  1.
          4   -1    0    0  501    0  0.00000000000E+00 -0.00000000000E+00 -0.23427081566E+03  0.23427081566E+03  0.00000000000E+00 0. -1.
          5    1    1    2  502    0 -0.42280913920E+02 -0.15711080004E+02 -0.52817654438E+01  0.45656333219E+02  0.47000000000E+01 0. -1.
         -5    1    1    2    0  502  0.71501435474E+02  0.43220277495E+01  0.36476285147E+02  0.80521702521E+02  0.47000000000E+01 0.  1.
        -11    1    1    2    0    0 -0.45424842559E+02 -0.12106764865E+02 -0.37798053450E+02  0.60321496347E+02  0.00000000000E+00 0.  1.
         11    1    1    2    0    0  0.16204321005E+02  0.23495817119E+02 -0.13624048939E+03  0.13919807610E+03  0.00000000000E+00 0. -1.
<mgrwt>
<rscale>  0 0.11555490E+03</rscale>
<asrwt>0</asrwt>
<pdfrwt beam="2">  1        4 0.36041664E-01 0.12226119E+03</pdfrwt>
<pdfrwt beam="1">  1       -4 0.14065661E-01 0.12226119E+03</pdfrwt>
<totfact> 0.51151499E+02</totfact>
</mgrwt>
</event>
<event>
 6    1  0.7270761E-006  0.1474017E+03  0.7546771E-02  0.1212766E+00
          2   -1    0    0  501    0  0.00000000000E+00  0.00000000000E+00  0.11215462435E+04  0.11215462435E+04  0.00000000000E+00 0. -1.
         -2   -1    0    0    0  501 -0.00000000000E+00 -0.00000000000E+00 -0.16148724736E+02  0.16148724736E+02  0.00000000000E+00 0.  1.
          5    1    1    2  502    0  0.77459983785E+02  0.22387567525E-01  0.18438768186E+03  0.20005238517E+03  0.47000000000E+01 0.  1.
         -5    1    1    2    0  502 -0.13769061698E+02 -0.45300224048E+02  0.39232188563E+03  0.39519646924E+03  0.47000000000E+01 0.  1.
        -11    1    1    2    0    0 -0.83127254653E+02  0.19482491224E+02  0.43629284904E+03  0.44456850772E+03  0.00000000000E+00 0. -1.
         11    1    1    2    0    0  0.19436332566E+02  0.25795345256E+02  0.92395102238E+02  0.97877606111E+02  0.00000000000E+00 0.  1.
<mgrwt>
<rscale>  0 0.14041952E+03</rscale>
<asrwt>0</asrwt>
<pdfrwt beam="1">  1        2 0.17254551E+00 0.14740174E+03</pdfrwt>
<pdfrwt beam="2">  1       -2 0.24844201E-02 0.14740174E+03</pdfrwt>
<totfact> 0.12055042E+04</totfact>
</mgrwt>
</event>
<event>
 6    1  0.7270761E-006  0.1417036E+03  0.7546771E-02  0.1225505E+00
          1   -1    0    0  501    0  0.00000000000E+00  0.00000000000E+00  0.21709010480E+02  0.21709010480E+02  0.00000000000E+00 0. -1.
         -1   -1    0    0    0  501 -0.00000000000E+00 -0.00000000000E+00 -0.69822004089E+03  0.69822004089E+03  0.00000000000E+00 0.  1.
          5    1    1    2  502    0 -0.25578052807E+02  0.42328461800E+02 -0.79328678264E+02  0.93600559073E+02  0.47000000000E+01 0. -1.
         -5    1    1    2    0  502  0.73928184770E+02 -0.35216324016E+02 -0.31173067379E+03  0.32234092040E+03  0.47000000000E+01 0.  1.
        -11    1    1    2    0    0 -0.74917623231E+02 -0.12612932777E+02 -0.23061001243E+03  0.24280180019E+03  0.00000000000E+00 0.  1.
         11    1    1    2    0    0  0.26567491268E+02  0.55007949921E+01 -0.54841665924E+02  0.61185771705E+02  0.00000000000E+00 0. -1.
<mgrwt>
<rscale>  0 0.13132340E+03</rscale>
<asrwt>0</asrwt>
<pdfrwt beam="1">  1        1 0.33398475E-02 0.14170356E+03</pdfrwt>
<pdfrwt beam="2">  1       -1 0.10741848E+00 0.14170356E+03</pdfrwt>
<totfact> 0.24336342E+03</totfact>
</mgrwt>
</event>
<event>
 6    1  0.7270761E-006  0.1535637E+03  0.7546771E-02  0.1205460E+00
          2   -1    0    0  501    0  0.00000000000E+00  0.00000000000E+00  0.16794491780E+03  0.16794491780E+03  0.00000000000E+00 0.  1.
         -2   -1    0    0    0  501 -0.00000000000E+00 -0.00000000000E+00 -0.12364961291E+03  0.12364961291E+03  0.00000000000E+00 0. -1.
          5    1    1    2  502    0  0.45589358840E+02 -0.84132347986E+01  0.26696000275E+02  0.53702314568E+02  0.47000000000E+01 0. -1.
         -5    1    1    2    0  502 -0.73630150779E+02 -0.76236804357E+02  0.33773795539E+02  0.11133826255E+03  0.47000000000E+01 0. -1.
        -11    1    1    2    0    0  0.45969636791E+02  0.40929896952E+02 -0.40228051816E+02  0.73530674715E+02  0.00000000000E+00 0.  1.
         11    1    1    2    0    0 -0.17928844852E+02  0.43720142203E+02  0.24053560886E+02  0.53023278881E+02  0.00000000000E+00 0. -1.
<mgrwt>
<rscale>  0 0.14601288E+03</rscale>
<asrwt>0</asrwt>
<pdfrwt beam="1">  1        2 0.25837680E-01 0.15356365E+03</pdfrwt>
<pdfrwt beam="2">  1       -2 0.19023017E-01 0.15356365E+03</pdfrwt>
<totfact> 0.45775076E+03</totfact>
</mgrwt>
</event>
<event>
 6    1  0.7270761E-006  0.5141181E+03  0.7546771E-02  0.1010158E+00
         -1   -1    0    0    0  501 -0.00000000000E+00  0.00000000000E+00  0.14473983232E+03  0.14473983232E+03  0.00000000000E+00 0.  1.
          1   -1    0    0  501    0  0.00000000000E+00 -0.00000000000E+00 -0.45653887204E+03  0.45653887204E+03  0.00000000000E+00 0. -1.
          5    1    1    2  502    0 -0.19470728679E+01  0.22489874340E+02 -0.22151456148E+02  0.31974404608E+02  0.47000000000E+01 0. -1.
         -5    1    1    2    0  502  0.92454775396E+01 -0.57971488509E+00  0.13444976701E+03  0.13485045337E+03  0.47000000000E+01 0.  1.
        -11    1    1    2    0    0  0.40698743512E+02 -0.18288644067E+02 -0.16517122138E+03  0.17109177244E+03  0.00000000000E+00 0.  1.
         11    1    1    2    0    0 -0.47997148184E+02 -0.36215153881E+01 -0.25892612921E+03  0.26336207395E+03  0.00000000000E+00 0. -1.
<mgrwt>
<rscale>  0 0.51411812E+03</rscale>
<asrwt>0</asrwt>
<pdfrwt beam="2">  1        1 0.70236750E-01 0.51411812E+03</pdfrwt>
<pdfrwt beam="1">  1       -1 0.22267666E-01 0.51411812E+03</pdfrwt>
<totfact> 0.86126641E+02</totfact>
</mgrwt>
</event>
<event>
 6    1  0.1086110E-005  0.1529358E+03  0.7546771E-02  0.1206335E+00
         -1   -1    0    0    0  501 -0.00000000000E+00  0.00000000000E+00  0.26505631193E+02  0.26505631193E+02  0.00000000000E+00 0.  1.
          1   -1    0    0  501    0  0.00000000000E+00 -0.00000000000E+00 -0.78780821670E+03  0.78780821670E+03  0.00000000000E+00 0. -1.
          5    1    1    2  502    0 -0.39483293973E+02  0.16489069125E+02 -0.79643522907E+02  0.90531765942E+02  0.47000000000E+01 0.  1.
         -5    1    1    2    0  502  0.97855357048E+02  0.49517105125E+02 -0.22418506506E+03  0.24961700262E+03  0.47000000000E+01 0.  1.
        -11    1    1    2    0    0 -0.28255295879E+02  0.34752728382E+01 -0.35770850596E+02  0.45716441450E+02  0.00000000000E+00 0.  1.
         11    1    1    2    0    0 -0.30116767196E+02 -0.69481447088E+02 -0.42170314694E+03  0.42844863787E+03  0.00000000000E+00 0. -1.
<mgrwt>
<rscale>  0 0.14532773E+03</rscale>
<asrwt>0</asrwt>
<pdfrwt beam="2">  1        1 0.12120125E+00 0.15293585E+03</pdfrwt>
<pdfrwt beam="1">  1       -1 0.40777899E-02 0.15293585E+03</pdfrwt>
<totfact> 0.54991987E+03</totfact>
</mgrwt>
</event>
<event>
 6    1  0.7270761E-006  0.1459292E+03  0.7546771E-02  0.1216161E+00
          1   -1    0    0  501    0  0.00000000000E+00  0.00000000000E+00  0.27721467976E+03  0.27721467976E+03  0.00000000000E+00 0. -1.
         -1   -1    0    0    0  501 -0.00000000000E+00 -0.00000000000E+00 -0.62139146770E+02  0.62139146770E+02  0.00000000000E+00 0.  1.
          5    1    1    2  502    0 -0.82587950617E+01 -0.35867915087E+02  0.10583068173E+03  0.11214694924E+03  0.47000000000E+01 0. -1.
         -5    1    1    2    0  502  0.72348471079E+02 -0.36723768033E+01  0.82088129841E+01  0.73056568695E+02  0.47000000000E+01 0. -1.
        -11    1    1    2    0    0  0.15238826525E+02  0.15737814694E+02 -0.19491029751E+01  0.21993172750E+02  0.00000000000E+00 0.  1.
         11    1    1    2    0    0 -0.79328502542E+02  0.23802477197E+02  0.10298514125E+03  0.13215713585E+03  0.00000000000E+00 0. -1.
<mgrwt>
<rscale>  0 0.13791620E+03</rscale>
<asrwt>0</asrwt>
<pdfrwt beam="1">  1        1 0.42648411E-01 0.14592922E+03</pdfrwt>
<pdfrwt beam="2">  1       -1 0.95598689E-02 0.14592922E+03</pdfrwt>
<totfact> 0.60720657E+03</totfact>
</mgrwt>
</event>
<event>
 6    1  0.7270761E-006  0.1286075E+03  0.7546771E-02  0.1243405E+00
          1   -1    0    0  501    0  0.00000000000E+00  0.00000000000E+00  0.54511029617E+03  0.54511029617E+03  0.00000000000E+00 0. -1.
         -1   -1    0    0    0  501 -0.00000000000E+00 -0.00000000000E+00 -0.24324089561E+02  0.24324089561E+02  0.00000000000E+00 0.  1.
          5    1    1    2  502    0 -0.26856483937E+02  0.18337017555E+02  0.10424607513E+02  0.34471428518E+02  0.47000000000E+01 0.  1.
         -5    1    1    2    0  502  0.47769663337E+02 -0.40250732977E+02  0.22774333180E+03  0.23620156100E+03  0.47000000000E+01 0.  1.
        -11    1    1    2    0    0 -0.23146039640E+02 -0.23514104457E+02  0.39696704380E+02  0.51618607091E+02  0.00000000000E+00 0.  1.
         11    1    1    2    0    0  0.22328602394E+01  0.45427819879E+02  0.24292156292E+03  0.24714278913E+03  0.00000000000E+00 0. -1.
<mgrwt>
<rscale>  0 0.11981350E+03</rscale>
<asrwt>0</asrwt>
<pdfrwt beam="1">  1        1 0.83863113E-01 0.12860754E+03</pdfrwt>
<pdfrwt beam="2">  1       -1 0.37421680E-02 0.12860754E+03</pdfrwt>
<totfact> 0.10359129E+04</totfact>
</mgrwt>
</event>
<event>
 6    1  0.7270761E-006  0.1259617E+03  0.7546771E-02  0.1249533E+00
          3   -1    0    0  501    0  0.00000000000E+00  0.00000000000E+00  0.15314230962E+03  0.15314230962E+03  0.00000000000E+00 0. -1.
         -3   -1    0    0    0  501 -0.00000000000E+00 -0.00000000000E+00 -0.80823507381E+02  0.80823507381E+02  0.00000000000E+00 0.  1.
          5    1    1    2  502    0 -0.93502313772E+00 -0.60017229619E+02 -0.23728756612E+02  0.64715423276E+02  0.47000000000E+01 0.  1.
         -5    1    1    2    0  502 -0.73524653174E+01  0.46846616503E+02  0.40150416539E+02  0.62312199226E+02  0.47000000000E+01 0.  1.
        -11    1    1    2    0    0  0.23917428658E+02  0.33428582554E+02  0.67352489682E+02  0.78904191216E+02  0.00000000000E+00 0. -1.
         11    1    1    2    0    0 -0.15629940203E+02 -0.20257969438E+02 -0.11455347374E+02  0.28034003281E+02  0.00000000000E+00 0.  1.
<mgrwt>
<rscale>  0 0.11618161E+03</rscale>
<asrwt>0</asrwt>
<pdfrwt beam="1">  1        3 0.23560355E-01 0.12596168E+03</pdfrwt>
<pdfrwt beam="2">  1       -3 0.12434386E-01 0.12596168E+03</pdfrwt>
<totfact> 0.19369846E+03</totfact>
</mgrwt>
</event>
<event>
 6    1  0.7270761E-006  0.1276917E+03  0.7546771E-02  0.1244680E+00
         -2   -1    0    0    0  501 -0.00000000000E+00  0.00000000000E+00  0.58431252002E+03  0.58431252002E+03  0.00000000000E+00 0. -1.
          2   -1    0    0  501    0  0.00000000000E+00 -0.00000000000E+00 -0.23485084945E+02  0.23485084945E+02  0.00000000000E+00 0.  1.
          5    1    1    2  502    0  0.20488438904E+01  0.43179169520E+02  0.46030447649E+02  0.63320854010E+02  0.47000000000E+01 0.  1.
         -5    1    1    2    0  502  0.22604043269E+02 -0.34691783005E+02  0.35775811777E+03  0.36017693348E+03  0.47000000000E+01 0.  1.
        -11    1    1    2    0    0  0.19694520560E+02 -0.17560695310E+02  0.66015917893E+01  0.27199874522E+02  0.00000000000E+00 0.  1.
         11    1    1    2    0    0 -0.44347407719E+02  0.90733087951E+01  0.15043727786E+03  0.15709994295E+03  0.00000000000E+00 0. -1.
<mgrwt>
<rscale>  0 0.11904545E+03</rscale>
<asrwt>0</asrwt>
<pdfrwt beam="2">  1        2 0.36130904E-02 0.12769170E+03</pdfrwt>
<pdfrwt beam="1">  1       -2 0.89894223E-01 0.12769170E+03</pdfrwt>
<totfact> 0.25382313E+03</totfact>
</mgrwt>
</event>
<event>
 6    1  0.7270761E-006  0.1588901E+03  0.7546771E-02  0.1200522E+00
          1   -1    0    0  501    0  0.00000000000E+00  0.00000000000E+00  0.62173863098E+03  0.62173863098E+03  0.00000000000E+00 0. -1.
         -1   -1    0    0    0  501 -0.00000000000E+00 -0.00000000000E+00 -0.35358805243E+02  0.35358805243E+02  0.00000000000E+00 0.  1.
          5    1    1    2  502    0  0.18827211301E+02 -0.36980861919E+02  0.12728070697E+03  0.13395714389E+03  0.47000000000E+01 0. -1.
         -5    1    1    2    0  502  0.71561048612E+02  0.75075818383E+02  0.10673347894E+03  0.14890093254E+03  0.47000000000E+01 0. -1.
        -11    1    1    2    0    0 -0.94704826840E+01 -0.42979932086E+02  0.10239693962E+03  0.11145446536E+03  0.00000000000E+00 0.  1.
         11    1    1    2    0    0 -0.80917777229E+02  0.48849756227E+01  0.24996870021E+03  0.26278489443E+03  0.00000000000E+00 0. -1.
<mgrwt>
<rscale>  0 0.14995991E+03</rscale>
<asrwt>0</asrwt>
<pdfrwt beam="1">  1        1 0.95652089E-01 0.15889006E+03</pdfrwt>
<pdfrwt beam="2">  1       -1 0.54398167E-02 0.15889006E+03</pdfrwt>
<totfact> 0.50531308E+03</totfact>
</mgrwt>
</event>
<event>
 6    1  0.7270761E-006  0.1282737E+03  0.7546771E-02  0.1244398E+00
         -2   -1    0    0    0  501 -0.00000000000E+00  0.00000000000E+00  0.20974005067E+03  0.20974005067E+03  0.00000000000E+00 0. -1.
          2   -1    0    0  501    0  0.00000000000E+00 -0.00000000000E+00 -0.87544167171E+02  0.87544167171E+02  0.00000000000E+00 0.  1.
          5    1    1    2  502    0  0.64425109091E+02  0.52147457251E+01  0.29183701592E+02  0.71074374376E+02  0.47000000000E+01 0.  1.
         -5    1    1    2    0  502 -0.36306974528E+02  0.91393929784E+00  0.12106565773E+03  0.12648326041E+03  0.47000000000E+01 0.  1.
        -11    1    1    2    0    0 -0.36319182980E+02 -0.42149663700E+02 -0.42967110957E+01  0.55804470507E+02  0.00000000000E+00 0. -1.
         11    1    1    2    0    0  0.82010484172E+01  0.36020978677E+02 -0.23756764724E+02  0.43922112542E+02  0.00000000000E+00 0.  1.
<mgrwt>
<rscale>  0 0.11921494E+03</rscale>
<asrwt>0</asrwt>
<pdfrwt beam="2">  1        2 0.13468333E-01 0.12827373E+03</pdfrwt>
<pdfrwt beam="1">  1       -2 0.32267700E-01 0.12827373E+03</pdfrwt>
<totfact> 0.37845395E+03</totfact>
</mgrwt>
</event>
<event>
 6    1  0.7270761E-006  0.2514385E+03  0.7546771E-02  0.1112399E+00
         -2   -1    0    0    0  501 -0.00000000000E+00  0.00000000000E+00  0.12431103883E+03  0.12431103883E+03  0.00000000000E+00 0.  1.
          2   -1    0    0  501    0  0.00000000000E+00 -0.00000000000E+00 -0.12714340547E+03  0.12714340547E+03  0.00000000000E+00 0. -1.
          5    1    1    2  502    0  0.16970203781E+01 -0.17612056359E+01 -0.40315047392E+02  0.40661711347E+02  0.47000000000E+01 0. -1.
         -5    1    1    2    0  502  0.29022775161E+02  0.38942488399E+02  0.82370000731E+02  0.95737902114E+02  0.47000000000E+01 0.  1.
        -11    1    1    2    0    0 -0.63725540084E+02 -0.16878247289E+02 -0.36696127241E+02  0.75448163960E+02  0.00000000000E+00 0. -1.
         11    1    1    2    0    0  0.33005744545E+02 -0.20303035474E+02 -0.81911927392E+01  0.39606666874E+02  0.00000000000E+00 0.  1.
<mgrwt>
<rscale>  0 0.25143849E+03</rscale>
<asrwt>0</asrwt>
<pdfrwt beam="2">  1        2 0.19560524E-01 0.25143849E+03</pdfrwt>
<pdfrwt beam="1">  1       -2 0.19124775E-01 0.25143849E+03</pdfrwt>
<totfact> 0.63849193E+03</totfact>
</mgrwt>
</event>
<event>
 6    1  0.7270761E-006  0.1490876E+03  0.7546771E-02  0.1211005E+00
         -2   -1    0    0    0  501 -0.00000000000E+00  0.00000000000E+00  0.23502812463E+03  0.23502812463E+03  0.00000000000E+00 0.  1.
          2   -1    0    0  501    0  0.00000000000E+00 -0.00000000000E+00 -0.78151259024E+02  0.78151259024E+02  0.00000000000E+00 0. -1.
          5    1    1    2  502    0 -0.52075523600E+02  0.21619030868E+02  0.11227530976E+03  0.12572620187E+03  0.47000000000E+01 0.  1.
         -5    1    1    2    0  502  0.46783819830E+01  0.44381616243E+02 -0.20510135857E+02  0.49339343238E+02  0.47000000000E+01 0.  1.
        -11    1    1    2    0    0  0.72942047338E+02 -0.49935720271E+02  0.61578208760E+02  0.10773112003E+03  0.00000000000E+00 0.  1.
         11    1    1    2    0    0 -0.25544905721E+02 -0.16064926840E+02  0.35334829372E+01  0.30382718515E+02  0.00000000000E+00 0. -1.
<mgrwt>
<rscale>  0 0.14174093E+03</rscale>
<asrwt>0</asrwt>
<pdfrwt beam="2">  1        2 0.12023271E-01 0.14908755E+03</pdfrwt>
<pdfrwt beam="1">  1       -2 0.36158173E-01 0.14908755E+03</pdfrwt>
<totfact> 0.35475439E+03</totfact>
</mgrwt>
</event>
<event>
 6    1  0.7270761E-006  0.2804913E+03  0.7546771E-02  0.1097313E+00
          1   -1    0    0  501    0  0.00000000000E+00  0.00000000000E+00  0.28945821912E+03  0.28945821912E+03  0.00000000000E+00 0. -1.
         -1   -1    0    0    0  501 -0.00000000000E+00 -0.00000000000E+00 -0.32025974487E+03  0.32025974487E+03  0.00000000000E+00 0.  1.
          5    1    1    2  502    0 -0.11893254324E+03  0.11822279454E+02 -0.12916529882E+02  0.12030645401E+03  0.47000000000E+01 0.  1.
         -5    1    1    2    0  502 -0.11036932621E+03  0.90510144669E+02 -0.13625078715E+03  0.19738247505E+03  0.47000000000E+01 0.  1.
        -11    1    1    2    0    0  0.49803905033E+02  0.90662900615E+01  0.46908748280E+02  0.69014905906E+02  0.00000000000E+00 0. -1.
         11    1    1    2    0    0  0.17949796441E+03 -0.11139871419E+03  0.71457043006E+02  0.22301412903E+03  0.00000000000E+00 0.  1.
<mgrwt>
<rscale>  0 0.27704688E+03</rscale>
<asrwt>0</asrwt>
<pdfrwt beam="1">  1        1 0.44532034E-01 0.28049130E+03</pdfrwt>
<pdfrwt beam="2">  1       -1 0.49270730E-01 0.28049130E+03</pdfrwt>
<totfact> 0.38919730E+02</totfact>
</mgrwt>
</event>
<event>
 6    1  0.7270761E-006  0.3049998E+03  0.7546771E-02  0.1082768E+00
         -2   -1    0    0    0  501 -0.00000000000E+00  0.00000000000E+00  0.29345344950E+02  0.29345344950E+02  0.00000000000E+00 0.  1.
          2   -1    0    0  501    0  0.00000000000E+00 -0.00000000000E+00 -0.79250108805E+03  0.79250108805E+03  0.00000000000E+00 0. -1.
          5    1    1    2  502    0  0.15405379960E+02  0.23867653476E+02 -0.39651525547E+02  0.49003306954E+02  0.47000000000E+01 0.  1.
         -5    1    1    2    0  502 -0.97179530993E+02 -0.88506196827E+02 -0.30459170480E+03  0.33177613650E+03  0.47000000000E+01 0.  1.
        -11    1    1    2    0    0  0.43155263520E+02 -0.16154219796E+02 -0.10575965412E+03  0.11536221230E+03  0.00000000000E+00 0. -1.
         11    1    1    2    0    0  0.38618887513E+02  0.80792763147E+02 -0.31315285864E+03  0.32570477725E+03  0.00000000000E+00 0.  1.
<mgrwt>
<rscale>  0 0.30499979E+03</rscale>
<asrwt>0</asrwt>
<pdfrwt beam="2">  1        2 0.12192324E+00 0.30499979E+03</pdfrwt>
<pdfrwt beam="1">  1       -2 0.45146685E-02 0.30499979E+03</pdfrwt>
<totfact> 0.82210297E+03</totfact>
</mgrwt>
</event>
<event>
 6    1  0.7270761E-006  0.1307832E+03  0.7546771E-02  0.1239584E+00
          1   -1    0    0  501    0  0.00000000000E+00  0.00000000000E+00  0.65052140681E+03  0.65052140681E+03  0.00000000000E+00 0. -1.
         -1   -1    0    0    0  501 -0.00000000000E+00 -0.00000000000E+00 -0.21214868570E+02  0.21214868570E+02  0.00000000000E+00 0.  1.
          5    1    1    2  502    0  0.27775313997E+02 -0.29778312559E+02  0.19031170140E+02  0.45193931046E+02  0.47000000000E+01 0. -1.
         -5    1    1    2    0  502 -0.31272833739E+02 -0.85136327550E+01  0.27086335021E+03  0.27283606169E+03  0.47000000000E+01 0. -1.
        -11    1    1    2    0    0 -0.44015547892E+02  0.17681398184E+02  0.17628090464E+03  0.18255124661E+03  0.00000000000E+00 0.  1.
         11    1    1    2    0    0  0.47513067634E+02  0.20610547131E+02  0.16313111325E+03  0.17115503604E+03  0.00000000000E+00 0. -1.
<mgrwt>
<rscale>  0 0.12215468E+03</rscale>
<asrwt>0</asrwt>
<pdfrwt beam="1">  1        1 0.10008020E+00 0.13078319E+03</pdfrwt>
<pdfrwt beam="2">  1       -1 0.32638264E-02 0.13078319E+03</pdfrwt>
<totfact> 0.99631339E+03</totfact>
</mgrwt>
</event>
<event>
 6    1  0.7270761E-006  0.1254970E+03  0.7546771E-02  0.1245134E+00
         -1   -1    0    0    0  501 -0.00000000000E+00  0.00000000000E+00  0.29596712233E+03  0.29596712233E+03  0.00000000000E+00 0.  1.
          1   -1    0    0  501    0  0.00000000000E+00 -0.00000000000E+00 -0.10181452858E+03  0.10181452858E+03  0.00000000000E+00 0. -1.
          5    1    1    2  502    0 -0.55861983186E+02  0.17704114858E+02  0.77610720761E+02  0.97362779467E+02  0.47000000000E+01 0. -1.
         -5    1    1    2    0  502  0.30573137032E+02 -0.50433661563E+02  0.17448865789E+03  0.18424617406E+03  0.47000000000E+01 0.  1.
        -11    1    1    2    0    0  0.24642953717E+02 -0.28801255539E+02 -0.13389687104E+02  0.40200388173E+02  0.00000000000E+00 0.  1.
         11    1    1    2    0    0  0.64589243777E+00  0.61530802245E+02 -0.44557097792E+02  0.75972309202E+02  0.00000000000E+00 0. -1.
<mgrwt>
<rscale>  0 0.11877377E+03</rscale>
<asrwt>0</asrwt>
<pdfrwt beam="2">  1        1 0.15663774E-01 0.12549704E+03</pdfrwt>
<pdfrwt beam="1">  1       -1 0.45533403E-01 0.12549704E+03</pdfrwt>
<totfact> 0.16741735E+03</totfact>
</mgrwt>
</event>
<event>
 6    1  0.1193843E-005  0.2748058E+03  0.7546771E-02  0.1100527E+00
         -1   -1    0    0    0  501 -0.00000000000E+00  0.00000000000E+00  0.16872801249E+03  0.16872801249E+03  0.00000000000E+00 0.  1.
          1   -1    0    0  501    0  0.00000000000E+00 -0.00000000000E+00 -0.42675792054E+03  0.42675792054E+03  0.00000000000E+00 0. -1.
          5    1    1    2  502    0 -0.88275078106E+02 -0.19640057508E+03 -0.49971260975E+02  0.22109928139E+03  0.47000000000E+01 0.  1.
         -5    1    1    2    0  502 -0.36599764481E+02 -0.14071551998E+02 -0.66557750855E+02  0.77392348036E+02  0.47000000000E+01 0.  1.
        -11    1    1    2    0    0  0.14971512204E+02  0.59898758085E+02 -0.79243403782E+02  0.10045657988E+03  0.00000000000E+00 0. -1.
         11    1    1    2    0    0  0.10990333038E+03  0.15057336900E+03 -0.62257492440E+02  0.19653772372E+03  0.00000000000E+00 0.  1.
<mgrwt>
<rscale>  0 0.27131828E+03</rscale>
<asrwt>0</asrwt>
<pdfrwt beam="2">  1        1 0.65655064E-01 0.27480583E+03</pdfrwt>
<pdfrwt beam="1">  1       -1 0.25958156E-01 0.27480583E+03</pdfrwt>
<totfact> 0.73027737E+02</totfact>
</mgrwt>
</event>
<event>
 6    1  0.7270761E-006  0.1436614E+03  0.7546771E-02  0.1218750E+00
         -2   -1    0    0    0  501 -0.00000000000E+00  0.00000000000E+00  0.11634607065E+03  0.11634607065E+03  0.00000000000E+00 0.  1.
          2   -1    0    0  501    0  0.00000000000E+00 -0.00000000000E+00 -0.15135416909E+03  0.15135416909E+03  0.00000000000E+00 0. -1.
          5    1    1    2  502    0  0.46186884632E+02 -0.36358493561E+02 -0.49068639912E+02  0.76713687103E+02  0.47000000000E+01 0. -1.
         -5    1    1    2    0  502  0.23421715135E+02  0.23367311067E+02  0.58357134547E+02  0.67247699729E+02  0.47000000000E+01 0. -1.
        -11    1    1    2    0    0 -0.16738431518E+02  0.15548935254E+02  0.26726769121E+02  0.35160555526E+02  0.00000000000E+00 0.  1.
         11    1    1    2    0    0 -0.52870168249E+02 -0.25577527603E+01 -0.71023362198E+02  0.88578297386E+02  0.00000000000E+00 0. -1.
<mgrwt>
<rscale>  0 0.13604628E+03</rscale>
<asrwt>0</asrwt>
<pdfrwt beam="2">  1        2 0.23285257E-01 0.14366142E+03</pdfrwt>
<pdfrwt beam="1">  1       -2 0.17899396E-01 0.14366142E+03</pdfrwt>
<totfact> 0.56659677E+03</totfact>
</mgrwt>
</event>
<event>
 6    1  0.7270761E-006  0.2852717E+03  0.7546771E-02  0.1126524E+00
         -1   -1    0    0    0  501 -0.00000000000E+00  0.00000000000E+00  0.90467705675E+02  0.90467705675E+02  0.00000000000E+00 0.  1.
          1   -1    0    0  501    0  0.00000000000E+00 -0.00000000000E+00 -0.52733279313E+03  0.52733279313E+03  0.00000000000E+00 0. -1.
          5    1    1    2  502    0 -0.63034812266E+02  0.26467218251E+01 -0.19465003979E+03  0.20467320460E+03  0.47000000000E+01 0. -1.
         -5    1    1    2    0  502  0.13068673305E+03 -0.43149890503E+02  0.51514153062E+01  0.13780262089E+03  0.47000000000E+01 0.  1.
        -11    1    1    2    0    0 -0.22467384093E+02 -0.19388736212E+02 -0.19712894835E+02  0.35627302208E+02  0.00000000000E+00 0.  1.
         11    1    1    2    0    0 -0.45184536686E+02  0.59891904890E+02 -0.22765356814E+03  0.23969737110E+03  0.00000000000E+00 0. -1.
<mgrwt>
<rscale>  0 0.23016452E+03</rscale>
<asrwt>0</asrwt>
<pdfrwt beam="2">  1        1 0.81128123E-01 0.28527173E+03</pdfrwt>
<pdfrwt beam="1">  1       -1 0.13918108E-01 0.28527173E+03</pdfrwt>
<totfact> 0.15223954E+03</totfact>
</mgrwt>
</event>
<event>
 6    1  0.7270761E-006  0.1279851E+03  0.7546771E-02  0.1244864E+00
         -1   -1    0    0    0  501 -0.00000000000E+00  0.00000000000E+00  0.11365024327E+03  0.11365024327E+03  0.00000000000E+00 0.  1.
          1   -1    0    0  501    0  0.00000000000E+00 -0.00000000000E+00 -0.12526309441E+03  0.12526309441E+03  0.00000000000E+00 0. -1.
          5    1    1    2  502    0 -0.16275192192E+02 -0.66813840683E+02  0.39763434579E+02  0.79575070953E+02  0.47000000000E+01 0. -1.
         -5    1    1    2    0  502  0.30198736966E+02  0.43176857873E+02 -0.47534966961E+01  0.53112056079E+02  0.47000000000E+01 0. -1.
        -11    1    1    2    0    0  0.11898967773E+02  0.22977044441E+02 -0.67961909865E+02  0.72721050583E+02  0.00000000000E+00 0. -1.
         11    1    1    2    0    0 -0.25822512548E+02  0.65993836950E+00  0.21339120844E+02  0.33505160070E+02  0.00000000000E+00 0.  1.
<mgrwt>
<rscale>  0 0.11893542E+03</rscale>
<asrwt>0</asrwt>
<pdfrwt beam="2">  1        1 0.19271245E-01 0.12798507E+03</pdfrwt>
<pdfrwt beam="1">  1       -1 0.17484653E-01 0.12798507E+03</pdfrwt>
<totfact> 0.63641923E+03</totfact>
</mgrwt>
</event>
<event>
 6    1  0.7270761E-006  0.1396244E+03  0.7546771E-02  0.1224827E+00
          1   -1    0    0  501    0  0.00000000000E+00  0.00000000000E+00  0.17845170765E+03  0.17845170765E+03  0.00000000000E+00 0. -1.
         -1   -1    0    0    0  501 -0.00000000000E+00 -0.00000000000E+00 -0.88893549041E+02  0.88893549041E+02  0.00000000000E+00 0.  1.
          5    1    1    2  502    0  0.43525499070E+02  0.35370198966E+01  0.76985148299E+02  0.88632853038E+02  0.47000000000E+01 0. -1.
         -5    1    1    2    0  502 -0.18907747403E+02 -0.60671011890E+02 -0.12869140437E+02  0.65009071453E+02  0.47000000000E+01 0. -1.
        -11    1    1    2    0    0 -0.34822374347E+02 -0.80694146083E+01 -0.12146539268E+02  0.37752504864E+02  0.00000000000E+00 0.  1.
         11    1    1    2    0    0  0.10204622680E+02  0.65203406602E+02  0.37588690019E+02  0.75950827341E+02  0.00000000000E+00 0. -1.
<mgrwt>
<rscale>  0 0.13178801E+03</rscale>
<asrwt>0</asrwt>
<pdfrwt beam="1">  1        1 0.27454109E-01 0.13962442E+03</pdfrwt>
<pdfrwt beam="2">  1       -1 0.13675931E-01 0.13962442E+03</pdfrwt>
<totfact> 0.60272020E+03</totfact>
</mgrwt>
</event>
<event>
 6    1  0.7270761E-006  0.1364259E+03  0.7546771E-02  0.1229322E+00
         -2   -1    0    0    0  501 -0.00000000000E+00  0.00000000000E+00  0.15409099974E+03  0.15409099974E+03  0.00000000000E+00 0.  1.
          2   -1    0    0  501    0  0.00000000000E+00 -0.00000000000E+00 -0.97196159197E+02  0.97196159197E+02  0.00000000000E+00 0. -1.
          5    1    1    2  502    0  0.82573664901E+02 -0.42116384715E+02  0.25620946900E+02  0.96284593350E+02  0.47000000000E+01 0. -1.
         -5    1    1    2    0  502 -0.28800215552E+02  0.32369186185E+02  0.99519015171E+01  0.44702874337E+02  0.47000000000E+01 0. -1.
        -11    1    1    2    0    0 -0.49755558473E+02  0.48026642613E+02  0.82150921281E+01  0.69639512766E+02  0.00000000000E+00 0. -1.
         11    1    1    2    0    0 -0.40178908752E+01 -0.38279444084E+02  0.13106899993E+02  0.40660178478E+02  0.00000000000E+00 0.  1.
<mgrwt>
<rscale>  0 0.12875046E+03</rscale>
<asrwt>0</asrwt>
<pdfrwt beam="2">  1        2 0.14953255E-01 0.13642595E+03</pdfrwt>
<pdfrwt beam="1">  1       -2 0.23706308E-01 0.13642595E+03</pdfrwt>
<totfact> 0.58056260E+03</totfact>
</mgrwt>
</event>
<event>
 6    1  0.7270761E-006  0.2359382E+03  0.7546771E-02  0.1125253E+00
         -2   -1    0    0    0  501 -0.00000000000E+00  0.00000000000E+00  0.39859692568E+02  0.39859692568E+02  0.00000000000E+00 0.  1.
          2   -1    0    0  501    0  0.00000000000E+00 -0.00000000000E+00 -0.13066941896E+04  0.13066941896E+04  0.00000000000E+00 0. -1.
          5    1    1    2  502    0 -0.13876276011E+03  0.16198732102E+03 -0.56125224103E+03  0.60043414612E+03  0.47000000000E+01 0.  1.
         -5    1    1    2    0  502  0.18710042723E+02 -0.18982614158E+01 -0.94606329971E+02  0.96571821800E+02  0.47000000000E+01 0.  1.
        -11    1    1    2    0    0  0.96382093543E+02 -0.58262080927E+02 -0.37275931268E+03  0.38940144225E+03  0.00000000000E+00 0.  1.
         11    1    1    2    0    0  0.23670623840E+02 -0.10182697868E+03 -0.23821661331E+03  0.26014647197E+03  0.00000000000E+00 0. -1.
<mgrwt>
<rscale>  0 0.23198059E+03</rscale>
<asrwt>0</asrwt>
<pdfrwt beam="2">  1        2 0.20102984E+00 0.23593824E+03</pdfrwt>
<pdfrwt beam="1">  1       -2 0.61322615E-02 0.23593824E+03</pdfrwt>
<totfact> 0.24875040E+03</totfact>
</mgrwt>
</event>
<event>
 6    1  0.7270761E-006  0.2382323E+03  0.7546771E-02  0.1120976E+00
          1   -1    0    0  501    0  0.00000000000E+00  0.00000000000E+00  0.44153731048E+03  0.44153731048E+03  0.00000000000E+00 0. -1.
         -1   -1    0    0    0  501 -0.00000000000E+00 -0.00000000000E+00 -0.32134664689E+02  0.32134664689E+02  0.00000000000E+00 0.  1.
          5    1    1    2  502    0 -0.59368315117E+02  0.11992194669E+01  0.21468652500E+03  0.22279683343E+03  0.47000000000E+01 0. -1.
         -5    1    1    2    0  502  0.14233073713E+02  0.88897347524E+01 -0.11009903897E+02  0.20613484788E+02  0.47000000000E+01 0. -1.
        -11    1    1    2    0    0  0.28857468603E+02 -0.49158423850E+02  0.14865181221E+03  0.15920636106E+03  0.00000000000E+00 0.  1.
         11    1    1    2    0    0  0.16277772801E+02  0.39069469631E+02  0.57074212478E+02  0.71055295894E+02  0.00000000000E+00 0. -1.
<mgrwt>
<rscale>  0 0.23823227E+03</rscale>
<asrwt>0</asrwt>
<pdfrwt beam="1">  1        1 0.67928813E-01 0.23823227E+03</pdfrwt>
<pdfrwt beam="2">  1       -1 0.49437949E-02 0.23823227E+03</pdfrwt>
<totfact> 0.94039454E+03</totfact>
</mgrwt>
</event>
<event>
 6    1  0.7270761E-006  0.1571261E+03  0.7546771E-02  0.1199886E+00
         -1   -1    0    0    0  501 -0.00000000000E+00  0.00000000000E+00  0.16466937084E+03  0.16466937084E+03  0.00000000000E+00 0.  1.
          1   -1    0    0  501    0  0.00000000000E+00 -0.00000000000E+00 -0.16473089629E+03  0.16473089629E+03  0.00000000000E+00 0. -1.
          5    1    1    2  502    0 -0.57183105441E+02  0.22620359614E+00  0.11113890824E+03  0.12507559970E+03  0.47000000000E+01 0.  1.
         -5    1    1    2    0  502 -0.37791612635E+02  0.64031350681E+01 -0.32644187967E+02  0.50566185661E+02  0.47000000000E+01 0.  1.
        -11    1    1    2    0    0  0.33781366011E+02  0.33491114742E+02 -0.63013992864E+02  0.78953142767E+02  0.00000000000E+00 0. -1.
         11    1    1    2    0    0  0.61193352065E+02 -0.40120453406E+02 -0.15542252864E+02  0.74805338998E+02  0.00000000000E+00 0.  1.
<mgrwt>
<rscale>  0 0.15047859E+03</rscale>
<asrwt>0</asrwt>
<pdfrwt beam="2">  1        1 0.25343215E-01 0.15712611E+03</pdfrwt>
<pdfrwt beam="1">  1       -1 0.25333749E-01 0.15712611E+03</pdfrwt>
<totfact> 0.24999392E+03</totfact>
</mgrwt>
</event>
<event>
 6    1  0.7270761E-006  0.3359910E+03  0.7546771E-02  0.1068516E+00
          1   -1    0    0  501    0  0.00000000000E+00  0.00000000000E+00  0.65498991124E+02  0.65498991124E+02  0.00000000000E+00 0. -1.
         -1   -1    0    0    0  501 -0.00000000000E+00 -0.00000000000E+00 -0.43088436314E+03  0.43088436314E+03  0.00000000000E+00 0.  1.
          5    1    1    2  502    0 -0.10484709874E+02  0.10982724401E+01 -0.20451545052E+03  0.20484090130E+03  0.47000000000E+01 0.  1.
         -5    1    1    2    0  502 -0.77736161325E+02  0.59745695240E+02 -0.93171672590E+02  0.13533480502E+03  0.47000000000E+01 0.  1.
        -11    1    1    2    0    0  0.53611180648E+01 -0.46876006447E+02  0.17207797779E+01  0.47212950028E+02  0.00000000000E+00 0.  1.
         11    1    1    2    0    0  0.82859753134E+02 -0.13967961233E+02 -0.69419028687E+02  0.10899469792E+03  0.00000000000E+00 0. -1.
<mgrwt>
<rscale>  0 0.33599102E+03</rscale>
<asrwt>0</asrwt>
<pdfrwt beam="1">  1        1 0.10076767E-01 0.33599102E+03</pdfrwt>
<pdfrwt beam="2">  1       -1 0.66289905E-01 0.33599102E+03</pdfrwt>
<totfact> 0.15222096E+03</totfact>
</mgrwt>
</event>
<event>
 6    1  0.7270761E-006  0.1333818E+03  0.7546771E-02  0.1233746E+00
         -2   -1    0    0    0  501 -0.00000000000E+00  0.00000000000E+00  0.16136953554E+02  0.16136953554E+02  0.00000000000E+00 0.  1.
          2   -1    0    0  501    0  0.00000000000E+00 -0.00000000000E+00 -0.90438835853E+03  0.90438835853E+03  0.00000000000E+00 0. -1.
          5    1    1    2  502    0  0.20998698213E+02 -0.17401346298E+01 -0.51362433302E+03  0.51407783347E+03  0.47000000000E+01 0.  1.
         -5    1    1    2    0  502  0.55079649204E+01  0.39972024808E+02 -0.46666083895E+02  0.61870136827E+02  0.47000000000E+01 0.  1.
        -11    1    1    2    0    0 -0.28455183494E+02 -0.68863190886E+02 -0.24698520489E+03  0.25797970455E+03  0.00000000000E+00 0.  1.
         11    1    1    2    0    0  0.19485203602E+01  0.30631300707E+02 -0.80975783175E+02  0.86597637240E+02  0.00000000000E+00 0. -1.
<mgrwt>
<rscale>  0 0.12585026E+03</rscale>
<asrwt>0</asrwt>
<pdfrwt beam="2">  1        2 0.13913668E+00 0.13338183E+03</pdfrwt>
<pdfrwt beam="1">  1       -2 0.24826081E-02 0.13338183E+03</pdfrwt>
<totfact> 0.16157588E+04</totfact>
</mgrwt>
</event>
<event>
 6    1  0.7270761E-006  0.1475110E+03  0.7546771E-02  0.1220957E+00
         -2   -1    0    0    0  501 -0.00000000000E+00  0.00000000000E+00  0.19353116813E+02  0.19353116813E+02  0.00000000000E+00 0.  1.
          2   -1    0    0  501    0  0.00000000000E+00 -0.00000000000E+00 -0.80619382315E+03  0.80619382315E+03  0.00000000000E+00 0. -1.
          5    1    1    2  502    0 -0.27538361451E+01 -0.30720219093E+02 -0.33931723379E+03  0.34074857391E+03  0.47000000000E+01 0. -1.
         -5    1    1    2    0  502 -0.18092227810E+02  0.69126206748E+02 -0.10244743305E+03  0.12499331064E+03  0.47000000000E+01 0.  1.
        -11    1    1    2    0    0 -0.24339970335E+02 -0.47606882638E+02 -0.22271351007E+03  0.22904182369E+03  0.00000000000E+00 0.  1.
         11    1    1    2    0    0  0.45186034290E+02  0.92008949821E+01 -0.12236252942E+03  0.13076323172E+03  0.00000000000E+00 0. -1.
<mgrwt>
<rscale>  0 0.13447898E+03</rscale>
<asrwt>0</asrwt>
<pdfrwt beam="2">  1        2 0.12402983E+00 0.14751096E+03</pdfrwt>
<pdfrwt beam="1">  1       -2 0.29774022E-02 0.14751096E+03</pdfrwt>
<totfact> 0.14438062E+04</totfact>
</mgrwt>
</event>
<event>
 6    1  0.7270761E-006  0.1325963E+03  0.7546771E-02  0.1235898E+00
         -2   -1    0    0    0  501 -0.00000000000E+00  0.00000000000E+00  0.21237619372E+03  0.21237619372E+03  0.00000000000E+00 0.  1.
          2   -1    0    0  501    0  0.00000000000E+00 -0.00000000000E+00 -0.67413843644E+02  0.67413843644E+02  0.00000000000E+00 0. -1.
          5    1    1    2  502    0  0.49216731837E+02 -0.16870213744E+02  0.88445091855E+02  0.10272056794E+03  0.47000000000E+01 0. -1.
         -5    1    1    2    0  502 -0.30325048447E+02  0.56867435477E+02  0.17344589819E+02  0.66906192367E+02  0.47000000000E+01 0. -1.
        -11    1    1    2    0    0  0.22958641517E+02  0.11108741503E+02  0.35886380197E+02  0.44026533384E+02  0.00000000000E+00 0.  1.
         11    1    1    2    0    0 -0.41850324908E+02 -0.51105963236E+02  0.32862882004E+01  0.66136743670E+02  0.00000000000E+00 0. -1.
<mgrwt>
<rscale>  0 0.12447130E+03</rscale>
<asrwt>0</asrwt>
<pdfrwt beam="2">  1        2 0.10371361E-01 0.13259631E+03</pdfrwt>
<pdfrwt beam="1">  1       -2 0.32673260E-01 0.13259631E+03</pdfrwt>
<totfact> 0.50769368E+03</totfact>
</mgrwt>
</event>
<event>
 6    1  0.7270761E-006  0.2824393E+03  0.7546771E-02  0.1094364E+00
          2   -1    0    0  501    0  0.00000000000E+00  0.00000000000E+00  0.80229499171E+03  0.80229499171E+03  0.00000000000E+00 0. -1.
         -2   -1    0    0    0  501 -0.00000000000E+00 -0.00000000000E+00 -0.24857420918E+02  0.24857420918E+02  0.00000000000E+00 0.  1.
          5    1    1    2  502    0  0.67481860277E+02 -0.85123178695E+02  0.47584887185E+03  0.48811268766E+03  0.47000000000E+01 0.  1.
         -5    1    1    2    0  502 -0.21717352025E+02  0.25364809534E+02  0.86025720267E+02  0.92398763461E+02  0.47000000000E+01 0.  1.
        -11    1    1    2    0    0 -0.51562567664E+02 -0.73532141455E+01  0.84034686232E+02  0.98866559728E+02  0.00000000000E+00 0.  1.
         11    1    1    2    0    0  0.57980594127E+01  0.67111583306E+02  0.13152829245E+03  0.14777440178E+03  0.00000000000E+00 0. -1.
<mgrwt>
<rscale>  0 0.28243926E+03</rscale>
<asrwt>0</asrwt>
<pdfrwt beam="1">  1        2 0.12342998E+00 0.28243926E+03</pdfrwt>
<pdfrwt beam="2">  1       -2 0.38242192E-02 0.28243926E+03</pdfrwt>
<totfact> 0.10374371E+04</totfact>
</mgrwt>
</event>
<event>
 6    1  0.7270761E-006  0.1373908E+03  0.7546771E-02  0.1228159E+00
         -1   -1    0    0    0  501 -0.00000000000E+00  0.00000000000E+00  0.10909379258E+04  0.10909379258E+04  0.00000000000E+00 0.  1.
          1   -1    0    0  501    0  0.00000000000E+00 -0.00000000000E+00 -0.33685789691E+02  0.33685789691E+02  0.00000000000E+00 0. -1.
          5    1    1    2  502    0  0.40019946838E+02  0.45915572682E+02  0.81572474421E+03  0.81800903679E+03  0.47000000000E+01 0. -1.
         -5    1    1    2    0  502  0.17009936173E+02 -0.46781341487E+02  0.16859036183E+03  0.17584832084E+03  0.47000000000E+01 0. -1.
        -11    1    1    2    0    0 -0.10541386337E+02 -0.29392906177E+01 -0.22233097298E+02  0.24780453400E+02  0.00000000000E+00 0. -1.
         11    1    1    2    0    0 -0.46488496674E+02  0.38050594232E+01  0.95170127339E+02  0.10598590443E+03  0.00000000000E+00 0.  1.
<mgrwt>
<rscale>  0 0.12952734E+03</rscale>
<asrwt>0</asrwt>
<pdfrwt beam="2">  1        1 0.51824300E-02 0.13739075E+03</pdfrwt>
<pdfrwt beam="1">  1       -1 0.16783658E+00 0.13739075E+03</pdfrwt>
<totfact> 0.44032227E+02</totfact>
</mgrwt>
</event>
<event>
 6    1  0.7270761E-006  0.1261966E+03  0.7546771E-02  0.1248464E+00
         -1   -1    0    0    0  501 -0.00000000000E+00  0.00000000000E+00  0.72828486904E+02  0.72828486904E+02  0.00000000000E+00 0.  1.
          1   -1    0    0  501    0  0.00000000000E+00 -0.00000000000E+00 -0.16960296597E+03  0.16960296597E+03  0.00000000000E+00 0. -1.
          5    1    1    2  502    0  0.19072096640E+02 -0.29888145540E+02 -0.67244448502E+02  0.76163980781E+02  0.47000000000E+01 0.  1.
         -5    1    1    2    0  502 -0.75706919469E+01  0.42867933468E+02  0.32732114690E+02  0.54666776276E+02  0.47000000000E+01 0.  1.
        -11    1    1    2    0    0  0.21293070363E+02 -0.13565550589E+02  0.13796687296E+02  0.28770950429E+02  0.00000000000E+00 0.  1.
         11    1    1    2    0    0 -0.32794475057E+02  0.58576266114E+00 -0.76058832546E+02  0.82829745385E+02  0.00000000000E+00 0. -1.
<mgrwt>
<rscale>  0 0.11680459E+03</rscale>
<asrwt>0</asrwt>
<pdfrwt beam="2">  1        1 0.26092764E-01 0.12619662E+03</pdfrwt>
<pdfrwt beam="1">  1       -1 0.11204383E-01 0.12619662E+03</pdfrwt>
<totfact> 0.86769631E+03</totfact>
</mgrwt>
</event>
<event>
 6    1  0.7270761E-006  0.1341349E+03  0.7546771E-02  0.1233727E+00
         -2   -1    0    0    0  501 -0.00000000000E+00  0.00000000000E+00  0.53583624281E+02  0.53583624281E+02  0.00000000000E+00 0.  1.
          2   -1    0    0  501    0  0.00000000000E+00 -0.00000000000E+00 -0.29060090131E+03  0.29060090131E+03  0.00000000000E+00 0. -1.
          5    1    1    2  502    0 -0.64155813686E+02  0.14254017407E+02 -0.31407400808E+02  0.72990823173E+02  0.47000000000E+01 0. -1.
         -5    1    1    2    0  502  0.58029533367E+02  0.34017632629E+02 -0.49605445006E+02  0.83710311472E+02  0.47000000000E+01 0. -1.
        -11    1    1    2    0    0 -0.10616584524E+01  0.21493151635E+02 -0.84999063430E+02  0.87680804455E+02  0.00000000000E+00 0. -1.
         11    1    1    2    0    0  0.71879387715E+01 -0.69764801672E+02 -0.71005367782E+02  0.99802586489E+02  0.00000000000E+00 0.  1.
<mgrwt>
<rscale>  0 0.12586290E+03</rscale>
<asrwt>0</asrwt>
<pdfrwt beam="2">  1        2 0.44707831E-01 0.13413487E+03</pdfrwt>
<pdfrwt beam="1">  1       -2 0.82436345E-02 0.13413487E+03</pdfrwt>
<totfact> 0.96545619E+03</totfact>
</mgrwt>
</event>
<event>
 6    1  0.7270761E-006  0.2007525E+03  0.7546771E-02  0.1153365E+00
          2   -1    0    0  501    0  0.00000000000E+00  0.00000000000E+00  0.68013078141E+03  0.68013078141E+03  0.00000000000E+00 0.  1.
         -2   -1    0    0    0  501 -0.00000000000E+00 -0.00000000000E+00 -0.55575404842E+02  0.55575404842E+02  0.00000000000E+00 0. -1.
          5    1    1    2  502    0  0.56767418606E+01  0.17527518177E+03  0.24776045630E+03  0.30358021749E+03  0.47000000000E+01 0. -1.
         -5    1    1    2    0  502  0.96608010693E+01 -0.18934473579E+02  0.12478876978E+02  0.25092981841E+02  0.47000000000E+01 0. -1.
        -11    1    1    2    0    0 -0.32050296760E+02 -0.99997977624E+01  0.81907642885E+02  0.88521632614E+02  0.00000000000E+00 0. -1.
         11    1    1    2    0    0  0.16712753831E+02 -0.14634091043E+03  0.28240840041E+03  0.31851135431E+03  0.00000000000E+00 0.  1.
<mgrwt>
<rscale>  0 0.19576141E+03</rscale>
<asrwt>0</asrwt>
<pdfrwt beam="1">  1        2 0.10463550E+00 0.20075249E+03</pdfrwt>
<pdfrwt beam="2">  1       -2 0.85500628E-02 0.20075249E+03</pdfrwt>
<totfact> 0.36546017E+03</totfact>
</mgrwt>
</event>
<event>
 6    1  0.7270761E-006  0.1401979E+03  0.7546771E-02  0.1224531E+00
         -2   -1    0    0    0  501 -0.00000000000E+00  0.00000000000E+00  0.47525824761E+02  0.47525824761E+02  0.00000000000E+00 0.  1.
          2   -1    0    0  501    0  0.00000000000E+00 -0.00000000000E+00 -0.38984498288E+03  0.38984498288E+03  0.00000000000E+00 0. -1.
          5    1    1    2  502    0  0.59233561092E+02  0.22178425473E+02 -0.52755268111E+02  0.82496700719E+02  0.47000000000E+01 0.  1.
         -5    1    1    2    0  502 -0.64270723604E+02  0.41116048878E+02 -0.50385206080E+02  0.91553341718E+02  0.47000000000E+01 0.  1.
        -11    1    1    2    0    0 -0.88246533450E+00 -0.83483639794E+02 -0.14975185277E+03  0.17145236734E+03  0.00000000000E+00 0.  1.
         11    1    1    2    0    0  0.59196278464E+01  0.20189165443E+02 -0.89426831157E+02  0.91868397863E+02  0.00000000000E+00 0. -1.
<mgrwt>
<rscale>  0 0.13199120E+03</rscale>
<asrwt>0</asrwt>
<pdfrwt beam="2">  1        2 0.59976151E-01 0.14019793E+03</pdfrwt>
<pdfrwt beam="1">  1       -2 0.73116653E-02 0.14019793E+03</pdfrwt>
<totfact> 0.85283541E+03</totfact>
</mgrwt>
</event>
<event>
 6    1  0.7270761E-006  0.3546478E+03  0.7546771E-02  0.1060723E+00
          2   -1    0    0  501    0  0.00000000000E+00  0.00000000000E+00  0.61846906740E+03  0.61846906740E+03  0.00000000000E+00 0. -1.
         -2   -1    0    0    0  501 -0.00000000000E+00 -0.00000000000E+00 -0.50841298218E+02  0.50841298218E+02  0.00000000000E+00 0.  1.
          5    1    1    2  502    0 -0.29060435634E+02 -0.32453129241E+02  0.18444743993E+02  0.47539595052E+02  0.47000000000E+01 0.  1.
         -5    1    1    2    0  502 -0.62521171352E+02  0.10450596744E+03  0.13849385364E+03  0.18448043689E+03  0.47000000000E+01 0.  1.
        -11    1    1    2    0    0  0.64750969232E+02 -0.10979746521E+02  0.10083338083E+03  0.12033542097E+03  0.00000000000E+00 0.  1.
         11    1    1    2    0    0  0.26830637753E+02 -0.61073091677E+02  0.30985579072E+03  0.31695491271E+03  0.00000000000E+00 0. -1.
<mgrwt>
<rscale>  0 0.35464783E+03</rscale>
<asrwt>0</asrwt>
<pdfrwt beam="1">  1        2 0.95149082E-01 0.35464783E+03</pdfrwt>
<pdfrwt beam="2">  1       -2 0.78217386E-02 0.35464783E+03</pdfrwt>
<totfact> 0.47896316E+03</totfact>
</mgrwt>
</event>
<event>
 6    1  0.7270761E-006  0.2934031E+03  0.7546771E-02  0.1088586E+00
         -1   -1    0    0    0  501 -0.00000000000E+00  0.00000000000E+00  0.33189327236E+02  0.33189327236E+02  0.00000000000E+00 0.  1.
          1   -1    0    0  501    0  0.00000000000E+00 -0.00000000000E+00 -0.64844172062E+03  0.64844172062E+03  0.00000000000E+00 0. -1.
          5    1    1    2  502    0 -0.23972451787E+02  0.28042488187E+01 -0.12488642707E+01  0.24620965011E+02  0.47000000000E+01 0. -1.
         -5    1    1    2    0  502  0.27223624772E+02  0.94559739163E+02 -0.30017019695E+03  0.31592231190E+03  0.47000000000E+01 0. -1.
        -11    1    1    2    0    0  0.38020692797E+02 -0.35303227477E+02 -0.77362845164E+02  0.93149883322E+02  0.00000000000E+00 0.  1.
         11    1    1    2    0    0 -0.41271865783E+02 -0.62060760505E+02 -0.23647048700E+03  0.24793788763E+03  0.00000000000E+00 0. -1.
<mgrwt>
<rscale>  0 0.29340310E+03</rscale>
<asrwt>0</asrwt>
<pdfrwt beam="2">  1        1 0.99760262E-01 0.29340310E+03</pdfrwt>
<pdfrwt beam="1">  1       -1 0.51060505E-02 0.29340310E+03</pdfrwt>
<totfact> 0.53676010E+03</totfact>
</mgrwt>
</event>
<event>
 6    1  0.7270761E-006  0.1301964E+03  0.7546771E-02  0.1261429E+00
         -2   -1    0    0    0  501 -0.00000000000E+00  0.00000000000E+00  0.36750186508E+02  0.36750186508E+02  0.00000000000E+00 0.  1.
          2   -1    0    0  501    0  0.00000000000E+00 -0.00000000000E+00 -0.31127745291E+03  0.31127745291E+03  0.00000000000E+00 0. -1.
          5    1    1    2  502    0 -0.11481486094E+01 -0.56344935205E+02 -0.49899784496E+02  0.75419814779E+02  0.47000000000E+01 0. -1.
         -5    1    1    2    0  502 -0.59416443815E+02  0.43115468284E+02 -0.58031508616E+02  0.93696336072E+02  0.47000000000E+01 0.  1.
        -11    1    1    2    0    0  0.71568371250E+01  0.71267524377E+01 -0.15147802470E+02  0.18206230736E+02  0.00000000000E+00 0.  1.
         11    1    1    2    0    0  0.53407755300E+02  0.61027144828E+01 -0.15144817082E+03  0.16070525783E+03  0.00000000000E+00 0. -1.
<mgrwt>
<rscale>  0 0.10953755E+03</rscale>
<asrwt>0</asrwt>
<pdfrwt beam="2">  1        2 0.47888838E-01 0.13019642E+03</pdfrwt>
<pdfrwt beam="1">  1       -2 0.56538749E-02 0.13019642E+03</pdfrwt>
<totfact> 0.15931198E+04</totfact>
</mgrwt>
</event>
<event>
 6    1  0.7270761E-006  0.1469338E+03  0.7546771E-02  0.1209954E+00
         -1   -1    0    0    0  501 -0.00000000000E+00  0.00000000000E+00  0.46787797307E+02  0.46787797307E+02  0.00000000000E+00 0.  1.
          1   -1    0    0  501    0  0.00000000000E+00 -0.00000000000E+00 -0.43431088694E+03  0.43431088694E+03  0.00000000000E+00 0. -1.
          5    1    1    2  502    0  0.55061170362E+02 -0.72711877225E+02 -0.78187405340E+02  0.12022524662E+03  0.47000000000E+01 0. -1.
         -5    1    1    2    0  502  0.33166322434E+02  0.42452032124E+02 -0.70048380622E+02  0.88493195236E+02  0.47000000000E+01 0.  1.
        -11    1    1    2    0    0  0.16733292339E+02  0.28641526088E+01 -0.12820658813E+02  0.21273827466E+02  0.00000000000E+00 0.  1.
         11    1    1    2    0    0 -0.10496078514E+03  0.27395692492E+02 -0.22646664486E+03  0.25110641492E+03  0.00000000000E+00 0. -1.
<mgrwt>
<rscale>  0 0.14253833E+03</rscale>
<asrwt>0</asrwt>
<pdfrwt beam="2">  1        1 0.66817063E-01 0.14693379E+03</pdfrwt>
<pdfrwt beam="1">  1       -1 0.71981223E-02 0.14693379E+03</pdfrwt>
<totfact> 0.53207446E+03</totfact>
</mgrwt>
</event>
<event>
 6    1  0.7270761E-006  0.2090423E+03  0.7546771E-02  0.1145364E+00
          1   -1    0    0  501    0  0.00000000000E+00  0.00000000000E+00  0.90472443311E+03  0.90472443311E+03  0.00000000000E+00 0. -1.
         -1   -1    0    0    0  501 -0.00000000000E+00 -0.00000000000E+00 -0.49555640249E+02  0.49555640249E+02  0.00000000000E+00 0.  1.
          5    1    1    2  502    0 -0.87694497365E+02 -0.30805892114E+02  0.26595991317E+03  0.28177312376E+03  0.47000000000E+01 0.  1.
         -5    1    1    2    0  502 -0.73331115089E+02 -0.15508148116E+02  0.30684112446E+02  0.81126813414E+02  0.47000000000E+01 0.  1.
        -11    1    1    2    0    0  0.76990109973E+02  0.35028136504E+02  0.13394153981E+03  0.15841333109E+03  0.00000000000E+00 0.  1.
         11    1    1    2    0    0  0.84035502481E+02  0.11285903726E+02  0.42458322743E+03  0.43296680509E+03  0.00000000000E+00 0. -1.
<mgrwt>
<rscale>  0 0.20527411E+03</rscale>
<asrwt>0</asrwt>
<pdfrwt beam="1">  1        1 0.13918836E+00 0.20904231E+03</pdfrwt>
<pdfrwt beam="2">  1       -1 0.76239453E-02 0.20904231E+03</pdfrwt>
<totfact> 0.17516672E+03</totfact>
</mgrwt>
</event>
<event>
 6    1  0.7270761E-006  0.1258827E+03  0.7546771E-02  0.1247881E+00
         -1   -1    0    0    0  501 -0.00000000000E+00  0.00000000000E+00  0.85043451697E+03  0.85043451697E+03  0.00000000000E+00 0.  1.
          1   -1    0    0  501    0  0.00000000000E+00 -0.00000000000E+00 -0.16595297591E+02  0.16595297591E+02  0.00000000000E+00 0. -1.
          5    1    1    2  502    0  0.14351951457E+02 -0.63359487081E+02  0.23258022763E+03  0.24152858091E+03  0.47000000000E+01 0.  1.
         -5    1    1    2    0  502 -0.34051286854E+01  0.52650638310E+02  0.39654126304E+03  0.40006342986E+03  0.47000000000E+01 0.  1.
        -11    1    1    2    0    0 -0.40395151441E+02 -0.24535467643E+02  0.12182937607E+03  0.13067576021E+03  0.00000000000E+00 0.  1.
         11    1    1    2    0    0  0.29448328670E+02  0.35244316414E+02  0.82888352651E+02  0.94762043594E+02  0.00000000000E+00 0. -1.
<mgrwt>
<rscale>  0 0.11714579E+03</rscale>
<asrwt>0</asrwt>
<pdfrwt beam="2">  1        1 0.25531234E-02 0.12588272E+03</pdfrwt>
<pdfrwt beam="1">  1       -1 0.13083605E+00 0.12588272E+03</pdfrwt>
<totfact> 0.22116252E+03</totfact>
</mgrwt>
</event>
<event>
 6    1  0.7270761E-006  0.2606940E+03  0.7546771E-02  0.1106727E+00
         -2   -1    0    0    0  501 -0.00000000000E+00  0.00000000000E+00  0.26931786941E+02  0.26931786941E+02  0.00000000000E+00 0.  1.
          2   -1    0    0  501    0  0.00000000000E+00 -0.00000000000E+00 -0.63086554294E+03  0.63086554294E+03  0.00000000000E+00 0. -1.
          5    1    1    2  502    0 -0.36895430274E+02 -0.61314233600E+01 -0.11952601062E+03  0.12532926371E+03  0.47000000000E+01 0. -1.
         -5    1    1    2    0  502  0.97997593175E+02 -0.32388090125E+02 -0.19104758981E+03  0.21719527670E+03  0.47000000000E+01 0. -1.
        -11    1    1    2    0    0 -0.15760054236E+02  0.40043208337E+02 -0.42997155978E+02  0.60832501721E+02  0.00000000000E+00 0.  1.
         11    1    1    2    0    0 -0.45342108665E+02 -0.15236948517E+01 -0.25036299959E+03  0.25444028775E+03  0.00000000000E+00 0. -1.
<mgrwt>
<rscale>  0 0.26069397E+03</rscale>
<asrwt>0</asrwt>
<pdfrwt beam="2">  1        2 0.97056231E-01 0.26069397E+03</pdfrwt>
<pdfrwt beam="1">  1       -2 0.41433521E-02 0.26069397E+03</pdfrwt>
<totfact> 0.12297861E+04</totfact>
</mgrwt>
</event>
<event>
 6    1  0.7270761E-006  0.1343583E+03  0.7546771E-02  0.1233847E+00
          2   -1    0    0  501    0  0.00000000000E+00  0.00000000000E+00  0.47491522857E+03  0.47491522857E+03  0.00000000000E+00 0. -1.
         -2   -1    0    0    0  501 -0.00000000000E+00 -0.00000000000E+00 -0.43448233865E+02  0.43448233865E+02  0.00000000000E+00 0.  1.
          5    1    1    2  502    0 -0.50364018556E+02 -0.70860131535E+02  0.69699529624E+02  0.11152491666E+03  0.47000000000E+01 0. -1.
         -5    1    1    2    0  502  0.84997548145E+01  0.44896089311E+02  0.20493756421E+02  0.50298993227E+02  0.47000000000E+01 0. -1.
        -11    1    1    2    0    0 -0.19217108653E+02 -0.72679619383E+01  0.23358659998E+02  0.31108640803E+02  0.00000000000E+00 0.  1.
         11    1    1    2    0    0  0.61081372394E+02  0.33232004162E+02  0.31791504867E+03  0.32543091175E+03  0.00000000000E+00 0. -1.
<mgrwt>
<rscale>  0 0.12578558E+03</rscale>
<asrwt>0</asrwt>
<pdfrwt beam="1">  1        2 0.73063878E-01 0.13435829E+03</pdfrwt>
<pdfrwt beam="2">  1       -2 0.66843440E-02 0.13435829E+03</pdfrwt>
<totfact> 0.78880328E+03</totfact>
</mgrwt>
</event>
<event>
 6    1  0.8424999E-006  0.2472569E+03  0.7546771E-02  0.1117569E+00
          2   -1    0    0  501    0  0.00000000000E+00  0.00000000000E+00  0.17465093568E+03  0.17465093568E+03  0.00000000000E+00 0. -1.
         -2   -1    0    0    0  501 -0.00000000000E+00 -0.00000000000E+00 -0.37334224790E+03  0.37334224790E+03  0.00000000000E+00 0.  1.
          5    1    1    2  502    0  0.13668529053E+03 -0.58123120705E+02 -0.20074792786E+03  0.24976586305E+03  0.47000000000E+01 0.  1.
         -5    1    1    2    0  502  0.64705025000E+02 -0.12248680673E+02  0.41099193478E+01  0.66149466178E+02  0.47000000000E+01 0.  1.
        -11    1    1    2    0    0 -0.61075158989E+02  0.63632573123E+02 -0.20056916697E+02  0.90451972423E+02  0.00000000000E+00 0.  1.
         11    1    1    2    0    0 -0.14031515654E+03  0.67392282553E+01  0.18003612987E+02  0.14162588193E+03  0.00000000000E+00 0. -1.
<mgrwt>
<rscale>  0 0.24336915E+03</rscale>
<asrwt>0</asrwt>
<pdfrwt beam="1">  1        2 0.26869375E-01 0.24725693E+03</pdfrwt>
<pdfrwt beam="2">  1       -2 0.57437269E-01 0.24725693E+03</pdfrwt>
<totfact> 0.57528331E+02</totfact>
</mgrwt>
</event>
<event>
 6    1  0.7270761E-006  0.1343707E+03  0.7546771E-02  0.1235282E+00
          2   -1    0    0  501    0  0.00000000000E+00  0.00000000000E+00  0.55737087004E+03  0.55737087004E+03  0.00000000000E+00 0. -1.
         -2   -1    0    0    0  501 -0.00000000000E+00 -0.00000000000E+00 -0.25162496739E+02  0.25162496739E+02  0.00000000000E+00 0.  1.
          5    1    1    2  502    0  0.21637324310E+02 -0.49023391545E+02  0.15369879361E+03  0.16284003156E+03  0.47000000000E+01 0.  1.
         -5    1    1    2    0  502  0.22237696106E+02  0.71500486664E+02  0.11046031604E+03  0.13353054385E+03  0.47000000000E+01 0.  1.
        -11    1    1    2    0    0 -0.67553032681E+02 -0.31428982430E+02  0.18883032190E+03  0.20299774292E+03  0.00000000000E+00 0.  1.
         11    1    1    2    0    0  0.23678012265E+02  0.89518873105E+01  0.79218941749E+02  0.83165048446E+02  0.00000000000E+00 0. -1.
<mgrwt>
<rscale>  0 0.12486430E+03</rscale>
<asrwt>0</asrwt>
<pdfrwt beam="1">  1        2 0.85749356E-01 0.13437069E+03</pdfrwt>
<pdfrwt beam="2">  1       -2 0.38711538E-02 0.13437069E+03</pdfrwt>
<totfact> 0.15025761E+04</totfact>
</mgrwt>
</event>
<event>
 6    1  0.7270761E-006  0.1657597E+03  0.7546771E-02  0.1189084E+00
          1   -1    0    0  501    0  0.00000000000E+00  0.00000000000E+00  0.30222159660E+03  0.30222159660E+03  0.00000000000E+00 0. -1.
         -1   -1    0    0    0  501 -0.00000000000E+00 -0.00000000000E+00 -0.82696673834E+02  0.82696673834E+02  0.00000000000E+00 0.  1.
          5    1    1    2  502    0 -0.76040742603E+02 -0.74119490337E+02  0.31506119917E+02  0.11086306407E+03  0.47000000000E+01 0.  1.
         -5    1    1    2    0  502 -0.29521038339E+02  0.47505676542E+02  0.43826445843E+02  0.71211855498E+02  0.47000000000E+01 0.  1.
        -11    1    1    2    0    0  0.70365700910E+02 -0.12608606559E+02  0.12985071517E+03  0.14822792265E+03  0.00000000000E+00 0. -1.
         11    1    1    2    0    0  0.35196080032E+02  0.39222420354E+02  0.14341641840E+02  0.54615428212E+02  0.00000000000E+00 0.  1.
<mgrwt>
<rscale>  0 0.15965790E+03</rscale>
<asrwt>0</asrwt>
<pdfrwt beam="1">  1        1 0.46495630E-01 0.16575971E+03</pdfrwt>
<pdfrwt beam="2">  1       -1 0.12722565E-01 0.16575971E+03</pdfrwt>
<totfact> 0.35357762E+03</totfact>
</mgrwt>
</event>
<event>
 6    1  0.7270761E-006  0.1502665E+03  0.7546771E-02  0.1209436E+00
         -1   -1    0    0    0  501 -0.00000000000E+00  0.00000000000E+00  0.12591636778E+02  0.12591636778E+02  0.00000000000E+00 0.  1.
          1   -1    0    0  501    0  0.00000000000E+00 -0.00000000000E+00 -0.15206929434E+04  0.15206929434E+04  0.00000000000E+00 0. -1.
          5    1    1    2  502    0 -0.59230021394E+02 -0.54156005342E+02 -0.39581331315E+03  0.40389520573E+03  0.47000000000E+01 0. -1.
         -5    1    1    2    0  502  0.57322343816E+02 -0.29188365846E+02 -0.55210276652E+03  0.55585732576E+03  0.47000000000E+01 0. -1.
        -11    1    1    2    0    0  0.35236408702E+02  0.72661723516E+02 -0.46820608233E+03  0.47511921251E+03  0.00000000000E+00 0.  1.
         11    1    1    2    0    0 -0.33328731124E+02  0.10682647672E+02 -0.91979144673E+02  0.98412836228E+02  0.00000000000E+00 0. -1.
<mgrwt>
<rscale>  0 0.14293283E+03</rscale>
<asrwt>0</asrwt>
<pdfrwt beam="2">  1        1 0.23395256E+00 0.15026652E+03</pdfrwt>
<pdfrwt beam="1">  1       -1 0.19371765E-02 0.15026652E+03</pdfrwt>
<totfact> 0.49157535E+03</totfact>
</mgrwt>
</event>
<event>
 6    1  0.7283174E-006  0.1856734E+03  0.7546771E-02  0.1169776E+00
         -1   -1    0    0    0  501 -0.00000000000E+00  0.00000000000E+00  0.21317644140E+03  0.21317644140E+03  0.00000000000E+00 0.  1.
          1   -1    0    0  501    0  0.00000000000E+00 -0.00000000000E+00 -0.13764907631E+03  0.13764907631E+03  0.00000000000E+00 0. -1.
          5    1    1    2  502    0 -0.32866934721E+02 -0.10579861120E+02  0.56398000278E+02  0.66294745604E+02  0.47000000000E+01 0. -1.
         -5    1    1    2    0  502  0.78156724108E+01 -0.12440981325E+03 -0.98269520327E+01  0.12513011370E+03  0.47000000000E+01 0. -1.
        -11    1    1    2    0    0  0.43287733928E+02  0.80728869203E+02 -0.68880200259E+01  0.91860889671E+02  0.00000000000E+00 0. -1.
         11    1    1    2    0    0 -0.18236471617E+02  0.54260805167E+02  0.35844336879E+02  0.67539768734E+02  0.00000000000E+00 0.  1.
<mgrwt>
<rscale>  0 0.17797670E+03</rscale>
<asrwt>0</asrwt>
<pdfrwt beam="2">  1        1 0.21176781E-01 0.18567341E+03</pdfrwt>
<pdfrwt beam="1">  1       -1 0.32796376E-01 0.18567341E+03</pdfrwt>
<totfact> 0.20467720E+03</totfact>
</mgrwt>
</event>
<event>
 6    1  0.7270761E-006  0.2171022E+03  0.7546771E-02  0.1139562E+00
          2   -1    0    0  501    0  0.00000000000E+00  0.00000000000E+00  0.11476534295E+03  0.11476534295E+03  0.00000000000E+00 0. -1.
         -2   -1    0    0    0  501 -0.00000000000E+00 -0.00000000000E+00 -0.37993636222E+03  0.37993636222E+03  0.00000000000E+00 0.  1.
          5    1    1    2  502    0  0.30354143773E+02  0.49051060604E+02 -0.11245125191E+03  0.12647037063E+03  0.47000000000E+01 0.  1.
         -5    1    1    2    0  502  0.90907628537E+02  0.80582786271E+02 -0.80667825675E+01  0.12183983483E+03  0.47000000000E+01 0.  1.
        -11    1    1    2    0    0  0.11560835725E+02 -0.56997161132E+01 -0.27107055890E+02  0.30015532071E+02  0.00000000000E+00 0.  1.
         11    1    1    2    0    0 -0.13282260803E+03 -0.12393413076E+03 -0.11754592891E+03  0.21637596765E+03  0.00000000000E+00 0. -1.
<mgrwt>
<rscale>  0 0.21255048E+03</rscale>
<asrwt>0</asrwt>
<pdfrwt beam="1">  1        2 0.17656207E-01 0.21710219E+03</pdfrwt>
<pdfrwt beam="2">  1       -2 0.58451747E-01 0.21710219E+03</pdfrwt>
<totfact> 0.89278185E+02</totfact>
</mgrwt>
</event>
<event>
 6    1  0.7270761E-006  0.1713588E+03  0.7546771E-02  0.1182696E+00
          1   -1    0    0  501    0  0.00000000000E+00  0.00000000000E+00  0.10580876752E+04  0.10580876752E+04  0.00000000000E+00 0. -1.
         -1   -1    0    0    0  501 -0.00000000000E+00 -0.00000000000E+00 -0.24766759526E+02  0.24766759526E+02  0.00000000000E+00 0.  1.
          5    1    1    2  502    0  0.82269692610E+02  0.66142073023E+01  0.10590788325E+03  0.13435259504E+03  0.47000000000E+01 0.  1.
         -5    1    1    2    0  502  0.34698926638E+02  0.14833248040E+01  0.36653896004E+03  0.36821069375E+03  0.47000000000E+01 0.  1.
        -11    1    1    2    0    0 -0.35605223427E+02  0.31820652778E+02  0.10295770196E+03  0.11349261770E+03  0.00000000000E+00 0.  1.
         11    1    1    2    0    0 -0.81363395822E+02 -0.39918184884E+02  0.45791637041E+03  0.46679852822E+03  0.00000000000E+00 0. -1.
<mgrwt>
<rscale>  0 0.16543270E+03</rscale>
<asrwt>0</asrwt>
<pdfrwt beam="1">  1        1 0.16278268E+00 0.17135880E+03</pdfrwt>
<pdfrwt beam="2">  1       -1 0.38102715E-02 0.17135880E+03</pdfrwt>
<totfact> 0.37841280E+03</totfact>
</mgrwt>
</event>
<event>
 6    1  0.7270761E-006  0.2127847E+03  0.7546771E-02  0.1142542E+00
         -2   -1    0    0    0  501 -0.00000000000E+00  0.00000000000E+00  0.33297164239E+03  0.33297164239E+03  0.00000000000E+00 0.  1.
          2   -1    0    0  501    0  0.00000000000E+00 -0.00000000000E+00 -0.13049781287E+03  0.13049781287E+03  0.00000000000E+00 0. -1.
          5    1    1    2  502    0 -0.18734694774E+02  0.68781126415E+02  0.89983724962E+02  0.11489557388E+03  0.47000000000E+01 0.  1.
         -5    1    1    2    0  502  0.88291222551E+01  0.10301804139E+03 -0.27090864490E+02  0.10698913585E+03  0.47000000000E+01 0.  1.
        -11    1    1    2    0    0 -0.35660761670E+02 -0.92514338237E+02  0.41492248492E+02  0.10748115829E+03  0.00000000000E+00 0.  1.
         11    1    1    2    0    0  0.45566334189E+02 -0.79284829569E+02  0.98088720550E+02  0.13410358724E+03  0.00000000000E+00 0. -1.
<mgrwt>
<rscale>  0 0.20877164E+03</rscale>
<asrwt>0</asrwt>
<pdfrwt beam="2">  1        2 0.20076587E-01 0.21278466E+03</pdfrwt>
<pdfrwt beam="1">  1       -2 0.51226406E-01 0.21278466E+03</pdfrwt>
<totfact> 0.10060278E+03</totfact>
</mgrwt>
</event>
<event>
 6    1  0.7270761E-006  0.3415966E+03  0.7546771E-02  0.1067313E+00
         -1   -1    0    0    0  501 -0.00000000000E+00  0.00000000000E+00  0.18679210059E+03  0.18679210059E+03  0.00000000000E+00 0.  1.
          1   -1    0    0  501    0  0.00000000000E+00 -0.00000000000E+00 -0.61244564171E+03  0.61244564171E+03  0.00000000000E+00 0. -1.
          5    1    1    2  502    0 -0.65617822769E+02 -0.32463235692E+02 -0.17413787034E+02  0.75398211620E+02  0.47000000000E+01 0.  1.
         -5    1    1    2    0  502 -0.25148602355E+03  0.55075699638E+02 -0.24416151206E+03  0.35484572240E+03  0.47000000000E+01 0.  1.
        -11    1    1    2    0    0  0.18050763804E+03 -0.15775687074E+02 -0.14253837068E+03  0.23054081376E+03  0.00000000000E+00 0. -1.
         11    1    1    2    0    0  0.13659620828E+03 -0.68367768721E+01 -0.21539871343E+02  0.13845299452E+03  0.00000000000E+00 0.  1.
<mgrwt>
<rscale>  0 0.33878972E+03</rscale>
<asrwt>0</asrwt>
<pdfrwt beam="2">  1        1 0.94222406E-01 0.34159655E+03</pdfrwt>
<pdfrwt beam="1">  1       -1 0.28737246E-01 0.34159655E+03</pdfrwt>
<totfact> 0.37646231E+02</totfact>
</mgrwt>
</event>
<event>
 6    1  0.7270761E-006  0.2107810E+03  0.7546771E-02  0.1140949E+00
          2   -1    0    0  501    0  0.00000000000E+00  0.00000000000E+00  0.79521078110E+02  0.79521078110E+02  0.00000000000E+00 0. -1.
         -2   -1    0    0    0  501 -0.00000000000E+00 -0.00000000000E+00 -0.13967567863E+03  0.13967567863E+03  0.00000000000E+00 0.  1.
          5    1    1    2  502    0 -0.10090311129E+02 -0.20650393996E+02  0.31979747951E+02  0.39661661966E+02  0.47000000000E+01 0. -1.
         -5    1    1    2    0  502 -0.28394683215E+01  0.65019466511E+01 -0.84957358575E+02  0.85382554814E+02  0.47000000000E+01 0.  1.
        -11    1    1    2    0    0  0.29776946047E+02  0.47299064035E+02 -0.10311389653E+02  0.56834784517E+02  0.00000000000E+00 0.  1.
         11    1    1    2    0    0 -0.16847166597E+02 -0.33150616690E+02  0.31343997606E+01  0.37317755441E+02  0.00000000000E+00 0. -1.
<mgrwt>
<rscale>  0 0.21078103E+03</rscale>
<asrwt>0</asrwt>
<pdfrwt beam="1">  1        2 0.12234012E-01 0.21078103E+03</pdfrwt>
<pdfrwt beam="2">  1       -2 0.21488566E-01 0.21078103E+03</pdfrwt>
<totfact> 0.90105413E+03</totfact>
</mgrwt>
</event>
<event>
 6    1  0.7270761E-006  0.2387220E+03  0.7546771E-02  0.1123377E+00
          2   -1    0    0  501    0  0.00000000000E+00  0.00000000000E+00  0.70572955276E+02  0.70572955276E+02  0.00000000000E+00 0.  1.
         -2   -1    0    0    0  501 -0.00000000000E+00 -0.00000000000E+00 -0.76663083570E+03  0.76663083570E+03  0.00000000000E+00 0. -1.
          5    1    1    2  502    0 -0.47151792559E+02  0.52787616855E+02 -0.22005167882E+02  0.74270730764E+02  0.47000000000E+01 0.  1.
         -5    1    1    2    0  502 -0.80549124543E+02  0.10546991750E+03 -0.28677332318E+03  0.31602704607E+03  0.47000000000E+01 0.  1.
        -11    1    1    2    0    0  0.10954857225E+03 -0.97353506842E+02 -0.19197688319E+03  0.24152374346E+03  0.00000000000E+00 0.  1.
         11    1    1    2    0    0  0.18152344854E+02 -0.60904027515E+02 -0.19530250617E+03  0.20538227067E+03  0.00000000000E+00 0. -1.
<mgrwt>
<rscale>  0 0.23469682E+03</rscale>
<asrwt>0</asrwt>
<pdfrwt beam="1">  1        2 0.10857378E-01 0.23872201E+03</pdfrwt>
<pdfrwt beam="2">  1       -2 0.11794321E+00 0.23872201E+03</pdfrwt>
<totfact> 0.33487528E+02</totfact>
</mgrwt>
</event>
<event>
 6    1  0.7270761E-006  0.1486476E+03  0.7546771E-02  0.1212542E+00
         -1   -1    0    0    0  501 -0.00000000000E+00  0.00000000000E+00  0.28562367113E+03  0.28562367113E+03  0.00000000000E+00 0.  1.
          1   -1    0    0  501    0  0.00000000000E+00 -0.00000000000E+00 -0.63512320156E+02  0.63512320156E+02  0.00000000000E+00 0. -1.
          5    1    1    2  502    0 -0.16819221682E+02 -0.62807413732E+02  0.10680106439E+03  0.12512479687E+03  0.47000000000E+01 0.  1.
         -5    1    1    2    0  502 -0.51599643322E+02  0.20544906001E+02 -0.35706770311E+01  0.55852091170E+02  0.47000000000E+01 0.  1.
        -11    1    1    2    0    0  0.60045537744E+02 -0.21148875853E+01  0.27187366011E+02  0.65947647594E+02  0.00000000000E+00 0. -1.
         11    1    1    2    0    0  0.83733272594E+01  0.44377395316E+02  0.91693597601E+02  0.10221145565E+03  0.00000000000E+00 0.  1.
<mgrwt>
<rscale>  0 0.14058634E+03</rscale>
<asrwt>0</asrwt>
<pdfrwt beam="2">  1        1 0.97711264E-02 0.14864764E+03</pdfrwt>
<pdfrwt beam="1">  1       -1 0.43942102E-01 0.14864764E+03</pdfrwt>
<totfact> 0.33357930E+03</totfact>
</mgrwt>
</event>
<event>
 6    1  0.7270761E-006  0.2138045E+03  0.7546771E-02  0.1141850E+00
         -2   -1    0    0    0  501 -0.00000000000E+00  0.00000000000E+00  0.54351722039E+02  0.54351722039E+02  0.00000000000E+00 0.  1.
          2   -1    0    0  501    0  0.00000000000E+00 -0.00000000000E+00 -0.92994495478E+03  0.92994495478E+03  0.00000000000E+00 0. -1.
          5    1    1    2  502    0  0.10469412109E+02 -0.13609065103E+03 -0.23145932722E+03  0.26874855171E+03  0.47000000000E+01 0. -1.
         -5    1    1    2    0  502  0.53061106689E+02 -0.25424324038E+02 -0.22356662688E+02  0.63117253286E+02  0.47000000000E+01 0. -1.
        -11    1    1    2    0    0 -0.19145827815E+02  0.12481992536E+03 -0.29926158326E+03  0.32481390318E+03  0.00000000000E+00 0.  1.
         11    1    1    2    0    0 -0.44384690983E+02  0.36695049716E+02 -0.32251565958E+03  0.32761696864E+03  0.00000000000E+00 0. -1.
<mgrwt>
<rscale>  0 0.20964180E+03</rscale>
<asrwt>0</asrwt>
<pdfrwt beam="2">  1        2 0.14306845E+00 0.21380448E+03</pdfrwt>
<pdfrwt beam="1">  1       -2 0.83618037E-02 0.21380448E+03</pdfrwt>
<totfact> 0.25501414E+03</totfact>
</mgrwt>
</event>
<event>
 6    1  0.7270761E-006  0.1557106E+03  0.7546771E-02  0.1202184E+00
         -2   -1    0    0    0  501 -0.00000000000E+00  0.00000000000E+00  0.61523164249E+02  0.61523164249E+02  0.00000000000E+00 0.  1.
          2   -1    0    0  501    0  0.00000000000E+00 -0.00000000000E+00 -0.47206460262E+03  0.47206460262E+03  0.00000000000E+00 0. -1.
          5    1    1    2  502    0 -0.41504847724E+02 -0.14062833837E+01 -0.38334296620E+02  0.56711888656E+02  0.47000000000E+01 0.  1.
         -5    1    1    2    0  502  0.65095699867E+02 -0.88393731471E+02 -0.34299797936E+02  0.11510633364E+03  0.47000000000E+01 0.  1.
        -11    1    1    2    0    0 -0.28076405414E+02  0.10239623294E+03 -0.32898712896E+03  0.34569611522E+03  0.00000000000E+00 0. -1.
         11    1    1    2    0    0  0.44855532714E+01 -0.12596218082E+02 -0.89202148567E+01  0.16073429354E+02  0.00000000000E+00 0.  1.
<mgrwt>
<rscale>  0 0.14861568E+03</rscale>
<asrwt>0</asrwt>
<pdfrwt beam="2">  1        2 0.72625324E-01 0.15571060E+03</pdfrwt>
<pdfrwt beam="1">  1       -2 0.94651021E-02 0.15571060E+03</pdfrwt>
<totfact> 0.46746172E+03</totfact>
</mgrwt>
</event>
<event>
 6    1  0.7270761E-006  0.2719627E+03  0.7546771E-02  0.1109969E+00
          2   -1    0    0  501    0  0.00000000000E+00  0.00000000000E+00  0.46055585833E+03  0.46055585833E+03  0.00000000000E+00 0. -1.
         -2   -1    0    0    0  501 -0.00000000000E+00 -0.00000000000E+00 -0.15966659606E+03  0.15966659606E+03  0.00000000000E+00 0.  1.
          5    1    1    2  502    0  0.12675969845E+03 -0.96491018594E+02 -0.83012422717E+01  0.15959178689E+03  0.47000000000E+01 0. -1.
         -5    1    1    2    0  502 -0.67818869017E+02 -0.84423151685E+02  0.33918319496E+02  0.11357468879E+03  0.47000000000E+01 0.  1.
        -11    1    1    2    0    0  0.18711165881E+02  0.67153290443E+02  0.62694414431E+02  0.93756395765E+02  0.00000000000E+00 0.  1.
         11    1    1    2    0    0 -0.77651995313E+02  0.11376087984E+03  0.21257777062E+03  0.25329958294E+03  0.00000000000E+00 0. -1.
<mgrwt>
<rscale>  0 0.25535108E+03</rscale>
<asrwt>0</asrwt>
<pdfrwt beam="1">  1        2 0.70854747E-01 0.27196266E+03</pdfrwt>
<pdfrwt beam="2">  1       -2 0.24564092E-01 0.27196266E+03</pdfrwt>
<totfact> 0.10031104E+03</totfact>
</mgrwt>
</event>
<event>
 6    1  0.7270761E-006  0.1320021E+03  0.7546771E-02  0.1236005E+00
         -2   -1    0    0    0  501 -0.00000000000E+00  0.00000000000E+00  0.12187738095E+03  0.12187738095E+03  0.00000000000E+00 0.  1.
          2   -1    0    0  501    0  0.00000000000E+00 -0.00000000000E+00 -0.18097015549E+03  0.18097015549E+03  0.00000000000E+00 0. -1.
          5    1    1    2  502    0 -0.41871098164E+01  0.35589282807E+02 -0.27040263153E+02  0.45137509576E+02  0.47000000000E+01 0.  1.
         -5    1    1    2    0  502 -0.37978789466E+02 -0.30969064595E+02  0.86740807883E+02  0.99737300763E+02  0.47000000000E+01 0.  1.
        -11    1    1    2    0    0 -0.29153444180E+02  0.23166650104E+01 -0.18125877670E+02  0.34406942405E+02  0.00000000000E+00 0.  1.
         11    1    1    2    0    0  0.71319343463E+02 -0.69368832224E+01 -0.10066744160E+03  0.12356578369E+03  0.00000000000E+00 0. -1.
<mgrwt>
<rscale>  0 0.12440332E+03</rscale>
<asrwt>0</asrwt>
<pdfrwt beam="2">  1        2 0.27841562E-01 0.13200210E+03</pdfrwt>
<pdfrwt beam="1">  1       -2 0.18750366E-01 0.13200210E+03</pdfrwt>
<totfact> 0.42835123E+03</totfact>
</mgrwt>
</event>
<event>
 6    1  0.7270761E-006  0.1868202E+03  0.7546771E-02  0.1179205E+00
         -2   -1    0    0    0  501 -0.00000000000E+00  0.00000000000E+00  0.37184978707E+02  0.37184978707E+02  0.00000000000E+00 0.  1.
          2   -1    0    0  501    0  0.00000000000E+00 -0.00000000000E+00 -0.65720485316E+03  0.65720485316E+03  0.00000000000E+00 0. -1.
          5    1    1    2  502    0 -0.22363420719E+02 -0.44225860127E+02 -0.18891615719E+03  0.19536492453E+03  0.47000000000E+01 0. -1.
         -5    1    1    2    0  502  0.10695386907E+03  0.52024074245E+02 -0.14847143629E+03  0.19029317330E+03  0.47000000000E+01 0.  1.
        -11    1    1    2    0    0 -0.29703866923E+01 -0.28933801632E+02 -0.27495133386E+02  0.40024622845E+02  0.00000000000E+00 0.  1.
         11    1    1    2    0    0 -0.81620061660E+02  0.21135587515E+02 -0.25513714759E+03  0.26870711119E+03  0.00000000000E+00 0. -1.
<mgrwt>
<rscale>  0 0.16870526E+03</rscale>
<asrwt>0</asrwt>
<pdfrwt beam="2">  1        2 0.10110844E+00 0.18682018E+03</pdfrwt>
<pdfrwt beam="1">  1       -2 0.57207659E-02 0.18682018E+03</pdfrwt>
<totfact> 0.70591062E+03</totfact>
</mgrwt>
</event>
<event>
 6    1  0.7270761E-006  0.2141582E+03  0.7546771E-02  0.1141904E+00
         -2   -1    0    0    0  501 -0.00000000000E+00  0.00000000000E+00  0.33688410812E+03  0.33688410812E+03  0.00000000000E+00 0.  1.
          2   -1    0    0  501    0  0.00000000000E+00 -0.00000000000E+00 -0.13591761602E+03  0.13591761602E+03  0.00000000000E+00 0. -1.
          5    1    1    2  502    0 -0.89041330283E+02  0.68465376161E+02  0.17954355242E+03  0.21183447181E+03  0.47000000000E+01 0.  1.
         -5    1    1    2    0  502 -0.48498899452E+02  0.37938377539E+02 -0.83800668007E+01  0.62319974791E+02  0.47000000000E+01 0.  1.
        -11    1    1    2    0    0  0.70844043539E+02 -0.94822636220E+02 -0.12182428837E+02  0.11899000974E+03  0.00000000000E+00 0. -1.
         11    1    1    2    0    0  0.66696186196E+02 -0.11581117480E+02  0.41985435309E+02  0.79657267800E+02  0.00000000000E+00 0.  1.
<mgrwt>
<rscale>  0 0.20957320E+03</rscale>
<asrwt>0</asrwt>
<pdfrwt beam="2">  1        2 0.20910403E-01 0.21415817E+03</pdfrwt>
<pdfrwt beam="1">  1       -2 0.51828324E-01 0.21415817E+03</pdfrwt>
<totfact> 0.93824158E+02</totfact>
</mgrwt>
</event>
<event>
 6    1  0.7270761E-006  0.1656730E+03  0.7546771E-02  0.1189469E+00
          3   -1    0    0  501    0  0.00000000000E+00  0.00000000000E+00  0.10998378352E+03  0.10998378352E+03  0.00000000000E+00 0. -1.
         -3   -1    0    0    0  501 -0.00000000000E+00 -0.00000000000E+00 -0.30810794709E+03  0.30810794709E+03  0.00000000000E+00 0.  1.
          5    1    1    2  502    0  0.45419208596E+02  0.57588907513E+02 -0.14255372030E+03  0.16038403895E+03  0.47000000000E+01 0.  1.
         -5    1    1    2    0  502  0.63302920310E+02 -0.56408220240E+02 -0.76739538664E+02  0.11445607815E+03  0.47000000000E+01 0.  1.
        -11    1    1    2    0    0 -0.72294250645E+02  0.42901500274E+02  0.71277111068E+01  0.84367065065E+02  0.00000000000E+00 0.  1.
         11    1    1    2    0    0 -0.36427878261E+02 -0.44082187547E+02  0.14041384293E+02  0.58884548452E+02  0.00000000000E+00 0. -1.
<mgrwt>
<rscale>  0 0.15931811E+03</rscale>
<asrwt>0</asrwt>
<pdfrwt beam="1">  1        3 0.16920582E-01 0.16567304E+03</pdfrwt>
<pdfrwt beam="2">  1       -3 0.47401222E-01 0.16567304E+03</pdfrwt>
<totfact> 0.31983896E+02</totfact>
</mgrwt>
</event>
<event>
 6    1  0.7270761E-006  0.1259220E+03  0.7546771E-02  0.1249329E+00
         -1   -1    0    0    0  501 -0.00000000000E+00  0.00000000000E+00  0.39402448902E+03  0.39402448902E+03  0.00000000000E+00 0.  1.
          1   -1    0    0  501    0  0.00000000000E+00 -0.00000000000E+00 -0.49336684960E+02  0.49336684960E+02  0.00000000000E+00 0. -1.
          5    1    1    2  502    0  0.52465240934E+02  0.38886856227E+02  0.16903639361E+03  0.18127377488E+03  0.47000000000E+01 0.  1.
         -5    1    1    2    0  502 -0.55292652810E+02 -0.23967226213E+02  0.15747473355E+03  0.16867746469E+03  0.47000000000E+01 0.  1.
        -11    1    1    2    0    0 -0.30514345281E+02 -0.37516486652E+02 -0.19193219968E+01  0.48397270952E+02  0.00000000000E+00 0.  1.
         11    1    1    2    0    0  0.33341757157E+02  0.22596856638E+02  0.20095998896E+02  0.45012663461E+02  0.00000000000E+00 0. -1.
<mgrwt>
<rscale>  0 0.11629981E+03</rscale>
<asrwt>0</asrwt>
<pdfrwt beam="2">  1        1 0.75902595E-02 0.12592202E+03</pdfrwt>
<pdfrwt beam="1">  1       -1 0.60619150E-01 0.12592202E+03</pdfrwt>
<totfact> 0.25643385E+03</totfact>
</mgrwt>
</event>
<event>
 6    1  0.7270761E-006  0.1642786E+03  0.7546771E-02  0.1191757E+00
         -1   -1    0    0    0  501 -0.00000000000E+00  0.00000000000E+00  0.63553216620E+03  0.63553216620E+03  0.00000000000E+00 0.  1.
          1   -1    0    0  501    0  0.00000000000E+00 -0.00000000000E+00 -0.42245762805E+02  0.42245762805E+02  0.00000000000E+00 0. -1.
          5    1    1    2  502    0  0.30293557222E+02 -0.98429091782E+01  0.19373691827E+02  0.37576753522E+02  0.47000000000E+01 0. -1.
         -5    1    1    2    0  502 -0.16888738784E+02 -0.95902726639E+02  0.42917008600E+03  0.44010409586E+03  0.47000000000E+01 0. -1.
        -11    1    1    2    0    0 -0.37717215183E+02  0.99599366609E+02  0.88341065114E+02  0.13837183939E+03  0.00000000000E+00 0. -1.
         11    1    1    2    0    0  0.24312396745E+02  0.61462692083E+01  0.56401560457E+02  0.61725240240E+02  0.00000000000E+00 0.  1.
<mgrwt>
<rscale>  0 0.15731932E+03</rscale>
<asrwt>0</asrwt>
<pdfrwt beam="2">  1        1 0.64993486E-02 0.16427865E+03</pdfrwt>
<pdfrwt beam="1">  1       -1 0.97774172E-01 0.16427865E+03</pdfrwt>
<totfact> 0.12094842E+03</totfact>
</mgrwt>
</event>
<event>
 6    1  0.7270761E-006  0.1376268E+03  0.7546771E-02  0.1228605E+00
         -1   -1    0    0    0  501 -0.00000000000E+00  0.00000000000E+00  0.10563169267E+04  0.10563169267E+04  0.00000000000E+00 0.  1.
          1   -1    0    0  501    0  0.00000000000E+00 -0.00000000000E+00 -0.14176561280E+02  0.14176561280E+02  0.00000000000E+00 0. -1.
          5    1    1    2  502    0  0.77862459721E+02  0.38607971759E+01  0.32866751716E+03  0.33781932334E+03  0.47000000000E+01 0.  1.
         -5    1    1    2    0  502 -0.37999986915E+02 -0.45386234591E+02  0.27499541442E+03  0.28133339164E+03  0.47000000000E+01 0.  1.
        -11    1    1    2    0    0 -0.60861561876E+02  0.33451946796E+02  0.40559988557E+03  0.41150264839E+03  0.00000000000E+00 0.  1.
         11    1    1    2    0    0  0.20999089070E+02  0.80734906193E+01  0.32877548284E+02  0.39838124625E+02  0.00000000000E+00 0. -1.
<mgrwt>
<rscale>  0 0.12922878E+03</rscale>
<asrwt>0</asrwt>
<pdfrwt beam="2">  1        1 0.21810103E-02 0.13762685E+03</pdfrwt>
<pdfrwt beam="1">  1       -1 0.16251023E+00 0.13762685E+03</pdfrwt>
<totfact> 0.15889478E+03</totfact>
</mgrwt>
</event>
<event>
 6    1  0.7270761E-006  0.1685793E+03  0.7546771E-02  0.1204800E+00
          3   -1    0    0  501    0  0.00000000000E+00  0.00000000000E+00  0.79471230945E+02  0.79471230945E+02  0.00000000000E+00 0. -1.
         -3   -1    0    0    0  501 -0.00000000000E+00 -0.00000000000E+00 -0.24040664418E+03  0.24040664418E+03  0.00000000000E+00 0.  1.
          5    1    1    2  502    0  0.10449925491E+02  0.80348740388E+02 -0.66355828503E+02  0.10483466507E+03  0.47000000000E+01 0. -1.
         -5    1    1    2    0  502 -0.35176714144E+02 -0.79799865279E+02 -0.78593429311E+02  0.11749228420E+03  0.47000000000E+01 0.  1.
        -11    1    1    2    0    0 -0.24381318928E+02  0.29018354711E+02  0.50161542087E+00  0.37904686265E+02  0.00000000000E+00 0.  1.
         11    1    1    2    0    0  0.49108107581E+02 -0.29567229820E+02 -0.16487770846E+02  0.59646239587E+02  0.00000000000E+00 0. -1.
<mgrwt>
<rscale>  0 0.14653226E+03</rscale>
<asrwt>0</asrwt>
<pdfrwt beam="1">  1        3 0.12226343E-01 0.16857931E+03</pdfrwt>
<pdfrwt beam="2">  1       -3 0.36985637E-01 0.16857931E+03</pdfrwt>
<totfact> 0.90675440E+02</totfact>
</mgrwt>
</event>
<event>
 6    1  0.7270761E-006  0.3073161E+03  0.7546771E-02  0.1081639E+00
          1   -1    0    0  501    0  0.00000000000E+00  0.00000000000E+00  0.65280145860E+03  0.65280145860E+03  0.00000000000E+00 0. -1.
         -1   -1    0    0    0  501 -0.00000000000E+00 -0.00000000000E+00 -0.36168422027E+02  0.36168422027E+02  0.00000000000E+00 0.  1.
          5    1    1    2  502    0  0.24166359550E+02 -0.34972932396E+01  0.12352943524E+02  0.27765611962E+02  0.47000000000E+01 0. -1.
         -5    1    1    2    0  502 -0.60140678467E+02  0.10384444071E+03  0.35138174901E+03  0.37133784161E+03  0.47000000000E+01 0. -1.
        -11    1    1    2    0    0  0.95810161436E+01 -0.83421053050E+02  0.86551254697E+02  0.12059016399E+03  0.00000000000E+00 0.  1.
         11    1    1    2    0    0  0.26393302774E+02 -0.16926094424E+02  0.16634708934E+03  0.16927626306E+03  0.00000000000E+00 0. -1.
<mgrwt>
<rscale>  0 0.30731612E+03</rscale>
<asrwt>0</asrwt>
<pdfrwt beam="1">  1        1 0.10043098E+00 0.30731612E+03</pdfrwt>
<pdfrwt beam="2">  1       -1 0.55643731E-02 0.30731612E+03</pdfrwt>
<totfact> 0.46757339E+03</totfact>
</mgrwt>
</event>
<event>
 6    1  0.7270761E-006  0.1519122E+03  0.7546771E-02  0.1206222E+00
         -2   -1    0    0    0  501 -0.00000000000E+00  0.00000000000E+00  0.42958575847E+02  0.42958575847E+02  0.00000000000E+00 0.  1.
          2   -1    0    0  501    0  0.00000000000E+00 -0.00000000000E+00 -0.46235768712E+03  0.46235768712E+03  0.00000000000E+00 0. -1.
          5    1    1    2  502    0 -0.58123405759E+01  0.13769786093E+02  0.14648138236E+02  0.21448735763E+02  0.47000000000E+01 0.  1.
         -5    1    1    2    0  502 -0.79750076631E+02 -0.25178550761E+02 -0.20949179965E+03  0.22561679517E+03  0.47000000000E+01 0.  1.
        -11    1    1    2    0    0  0.88827359514E+02 -0.57710933688E+01 -0.22368026975E+03  0.24074149703E+03  0.00000000000E+00 0. -1.
         11    1    1    2    0    0 -0.32649423072E+01  0.17179858037E+02 -0.87518011368E+00  0.17509235011E+02  0.00000000000E+00 0.  1.
<mgrwt>
<rscale>  0 0.14541603E+03</rscale>
<asrwt>0</asrwt>
<pdfrwt beam="2">  1        2 0.71131950E-01 0.15191223E+03</pdfrwt>
<pdfrwt beam="1">  1       -2 0.66090118E-02 0.15191223E+03</pdfrwt>
<totfact> 0.83276006E+03</totfact>
</mgrwt>
</event>
<event>
 6    1  0.7270761E-006  0.1408491E+03  0.7546771E-02  0.1235974E+00
          1   -1    0    0  501    0  0.00000000000E+00  0.00000000000E+00  0.40932257524E+03  0.40932257524E+03  0.00000000000E+00 0. -1.
         -1   -1    0    0    0  501 -0.00000000000E+00 -0.00000000000E+00 -0.31560797807E+02  0.31560797807E+02  0.00000000000E+00 0.  1.
          5    1    1    2  502    0 -0.13806139158E+02  0.64084400682E+02  0.20062938739E+03  0.21112001557E+03  0.47000000000E+01 0.  1.
         -5    1    1    2    0  502  0.55844464284E+02 -0.14624734255E+02  0.50647179960E+02  0.76939676897E+02  0.47000000000E+01 0.  1.
        -11    1    1    2    0    0 -0.46352544203E+02 -0.33671873846E+02  0.54752882622E+02  0.79247912262E+02  0.00000000000E+00 0.  1.
         11    1    1    2    0    0  0.43142190771E+01 -0.15787792581E+02  0.71732327462E+02  0.73575768320E+02  0.00000000000E+00 0. -1.
<mgrwt>
<rscale>  0 0.12442281E+03</rscale>
<asrwt>0</asrwt>
<pdfrwt beam="1">  1        1 0.62972700E-01 0.14084911E+03</pdfrwt>
<pdfrwt beam="2">  1       -1 0.48555077E-02 0.14084911E+03</pdfrwt>
<totfact> 0.10292135E+04</totfact>
</mgrwt>
</event>
<event>
 6    1  0.7270761E-006  0.2935437E+03  0.7546771E-02  0.1090207E+00
         -2   -1    0    0    0  501 -0.00000000000E+00  0.00000000000E+00  0.75370760441E+02  0.75370760441E+02  0.00000000000E+00 0.  1.
          2   -1    0    0  501    0  0.00000000000E+00 -0.00000000000E+00 -0.10950206393E+04  0.10950206393E+04  0.00000000000E+00 0. -1.
          5    1    1    2  502    0  0.10296295907E+03 -0.90963959533E+02 -0.20900138980E+03  0.25015891712E+03  0.47000000000E+01 0.  1.
         -5    1    1    2    0  502  0.35539561813E+01 -0.15233918741E+03 -0.33264976191E+03  0.36592050055E+03  0.47000000000E+01 0.  1.
        -11    1    1    2    0    0 -0.54262808969E+02  0.20469891331E+03 -0.32280925980E+03  0.38607242294E+03  0.00000000000E+00 0. -1.
         11    1    1    2    0    0 -0.52254106284E+02  0.38604233640E+02 -0.15518946733E+03  0.16823955911E+03  0.00000000000E+00 0.  1.
<mgrwt>
<rscale>  0 0.29027246E+03</rscale>
<asrwt>0</asrwt>
<pdfrwt beam="2">  1        2 0.16846471E+00 0.29354366E+03</pdfrwt>
<pdfrwt beam="1">  1       -2 0.11595502E-01 0.29354366E+03</pdfrwt>
<totfact> 0.12028098E+03</totfact>
</mgrwt>
</event>
<event>
 6    1  0.7270761E-006  0.3211123E+03  0.7546771E-02  0.1076395E+00
          3   -1    0    0  501    0  0.00000000000E+00  0.00000000000E+00  0.12927478877E+04  0.12927478877E+04  0.00000000000E+00 0. -1.
         -3   -1    0    0    0  501 -0.00000000000E+00 -0.00000000000E+00 -0.77243868638E+02  0.77243868638E+02  0.00000000000E+00 0.  1.
          5    1    1    2  502    0 -0.78471413570E+02 -0.90979378296E+02  0.18320263232E+03  0.21913535660E+03  0.47000000000E+01 0.  1.
         -5    1    1    2    0  502  0.32118253890E+01 -0.19506148512E+03  0.46336270227E+03  0.50277866170E+03  0.47000000000E+01 0.  1.
        -11    1    1    2    0    0  0.77465862980E+02  0.15931659032E+03  0.39455760196E+03  0.43250252848E+03  0.00000000000E+00 0.  1.
         11    1    1    2    0    0 -0.22062747989E+01  0.12672427310E+03  0.17438108252E+03  0.21557520957E+03  0.00000000000E+00 0. -1.
<mgrwt>
<rscale>  0 0.31838576E+03</rscale>
<asrwt>0</asrwt>
<pdfrwt beam="1">  1        3 0.19888427E+00 0.32111231E+03</pdfrwt>
<pdfrwt beam="2">  1       -3 0.11883673E-01 0.32111231E+03</pdfrwt>
<totfact> 0.22501287E+01</totfact>
</mgrwt>
</event>
<event>
 6    1  0.7270761E-006  0.1431169E+03  0.7546771E-02  0.1220237E+00
         -2   -1    0    0    0  501 -0.00000000000E+00  0.00000000000E+00  0.66612181245E+03  0.66612181245E+03  0.00000000000E+00 0.  1.
          2   -1    0    0  501    0  0.00000000000E+00 -0.00000000000E+00 -0.30697761300E+02  0.30697761300E+02  0.00000000000E+00 0. -1.
          5    1    1    2  502    0  0.22189032262E+02 -0.33467236711E+02  0.23208940556E+03  0.23558436124E+03  0.47000000000E+01 0.  1.
         -5    1    1    2    0  502 -0.91626174800E+02  0.27473247572E+02  0.26889142014E+03  0.28543794608E+03  0.47000000000E+01 0.  1.
        -11    1    1    2    0    0 -0.21673530454E+02  0.38864807026E+01  0.23121284702E+02  0.31928677719E+02  0.00000000000E+00 0. -1.
         11    1    1    2    0    0  0.91110672992E+02  0.21075084365E+01  0.11132194075E+03  0.14386858871E+03  0.00000000000E+00 0.  1.
<mgrwt>
<rscale>  0 0.13498805E+03</rscale>
<asrwt>0</asrwt>
<pdfrwt beam="2">  1        2 0.47227330E-02 0.14311693E+03</pdfrwt>
<pdfrwt beam="1">  1       -2 0.10248027E+00 0.14311693E+03</pdfrwt>
<totfact> 0.13311197E+03</totfact>
</mgrwt>
</event>
<event>
 6    1  0.7270761E-006  0.1270213E+03  0.7546771E-02  0.1247457E+00
          4   -1    0    0  501    0  0.00000000000E+00  0.00000000000E+00  0.30982102651E+03  0.30982102651E+03  0.00000000000E+00 0. -1.
         -4   -1    0    0    0  501 -0.00000000000E+00 -0.00000000000E+00 -0.42210681027E+02  0.42210681027E+02  0.00000000000E+00 0.  1.
          5    1    1    2  502    0  0.17263257260E+02 -0.51176136043E+02  0.14986708590E+02  0.56246852231E+02  0.47000000000E+01 0. -1.
         -5    1    1    2    0  502 -0.39386476749E+02  0.46041139782E+02  0.89736319048E+02  0.10837794083E+03  0.47000000000E+01 0. -1.
        -11    1    1    2    0    0  0.29774558343E+01  0.41237910791E+02  0.12507501698E+03  0.13173150877E+03  0.00000000000E+00 0. -1.
         11    1    1    2    0    0  0.19145763655E+02 -0.36102914531E+02  0.37812300861E+02  0.55675405701E+02  0.00000000000E+00 0.  1.
<mgrwt>
<rscale>  0 0.11739530E+03</rscale>
<asrwt>0</asrwt>
<pdfrwt beam="1">  1        4 0.47664772E-01 0.12702130E+03</pdfrwt>
<pdfrwt beam="2">  1       -4 0.64939511E-02 0.12702130E+03</pdfrwt>
<totfact> 0.10856957E+03</totfact>
</mgrwt>
</event>
<event>
 6    1  0.7270761E-006  0.1308015E+03  0.7546771E-02  0.1236883E+00
          1   -1    0    0  501    0  0.00000000000E+00  0.00000000000E+00  0.58100665337E+02  0.58100665337E+02  0.00000000000E+00 0. -1.
         -1   -1    0    0    0  501 -0.00000000000E+00 -0.00000000000E+00 -0.24974265652E+03  0.24974265652E+03  0.00000000000E+00 0.  1.
          5    1    1    2  502    0 -0.30782396079E+02 -0.50130562535E+00  0.14417473391E+02  0.34318519121E+02  0.47000000000E+01 0. -1.
         -5    1    1    2    0  502  0.89163018783E+01  0.32251648557E+02 -0.15123778747E+03  0.15496653714E+03  0.47000000000E+01 0. -1.
        -11    1    1    2    0    0  0.52236155130E+01 -0.60004618274E+02 -0.60395765432E+02  0.85296476219E+02  0.00000000000E+00 0.  1.
         11    1    1    2    0    0  0.16642478688E+02  0.28254275342E+02  0.55740883266E+01  0.33261789379E+02  0.00000000000E+00 0. -1.
<mgrwt>
<rscale>  0 0.12384630E+03</rscale>
<asrwt>0</asrwt>
<pdfrwt beam="1">  1        1 0.89385640E-02 0.13080151E+03</pdfrwt>
<pdfrwt beam="2">  1       -1 0.38421947E-01 0.13080151E+03</pdfrwt>
<totfact> 0.47223197E+03</totfact>
</mgrwt>
</event>
<event>
 6    1  0.7270761E-006  0.1270575E+03  0.7546771E-02  0.1245663E+00
          2   -1    0    0  501    0  0.00000000000E+00  0.00000000000E+00  0.11071927121E+03  0.11071927121E+03  0.00000000000E+00 0. -1.
         -2   -1    0    0    0  501 -0.00000000000E+00 -0.00000000000E+00 -0.12260216497E+03  0.12260216497E+03  0.00000000000E+00 0.  1.
          5    1    1    2  502    0  0.47906662423E+02 -0.30083697420E+02 -0.15152089309E+02  0.58751620960E+02  0.47000000000E+01 0.  1.
         -5    1    1    2    0  502 -0.67516782498E+02  0.18562209699E+02 -0.24996275677E+02  0.74498156659E+02  0.47000000000E+01 0.  1.
        -11    1    1    2    0    0 -0.61986782814E+01 -0.12176700951E+02 -0.29499727661E+02  0.32510453558E+02  0.00000000000E+00 0.  1.
         11    1    1    2    0    0  0.25808798356E+02  0.23698188672E+02  0.57765198885E+02  0.67561205000E+02  0.00000000000E+00 0. -1.
<mgrwt>
<rscale>  0 0.11845804E+03</rscale>
<asrwt>0</asrwt>
<pdfrwt beam="1">  1        2 0.17033734E-01 0.12705751E+03</pdfrwt>
<pdfrwt beam="2">  1       -2 0.18861871E-01 0.12705751E+03</pdfrwt>
<totfact> 0.73298026E+03</totfact>
</mgrwt>
</event>
<event>
 6    1  0.7270761E-006  0.1258949E+03  0.7546771E-02  0.1250881E+00
         -1   -1    0    0    0  501 -0.00000000000E+00  0.00000000000E+00  0.54338633076E+02  0.54338633076E+02  0.00000000000E+00 0.  1.
          1   -1    0    0  501    0  0.00000000000E+00 -0.00000000000E+00 -0.55418846861E+03  0.55418846861E+03  0.00000000000E+00 0. -1.
          5    1    1    2  502    0  0.67205155542E+01 -0.18838783388E+02 -0.71339931019E+02  0.74239752469E+02  0.47000000000E+01 0. -1.
         -5    1    1    2    0  502 -0.16689605770E+02  0.30033615354E+02  0.42562874949E+02  0.54902179519E+02  0.47000000000E+01 0. -1.
        -11    1    1    2    0    0 -0.56375229035E+01  0.37398231064E+02 -0.19471537858E+03  0.19835445043E+03  0.00000000000E+00 0.  1.
         11    1    1    2    0    0  0.15606613119E+02 -0.48593063029E+02 -0.27635740089E+03  0.28103071927E+03  0.00000000000E+00 0. -1.
<mgrwt>
<rscale>  0 0.11540202E+03</rscale>
<asrwt>0</asrwt>
<pdfrwt beam="2">  1        1 0.85259762E-01 0.12589488E+03</pdfrwt>
<pdfrwt beam="1">  1       -1 0.83597899E-02 0.12589488E+03</pdfrwt>
<totfact> 0.30709093E+03</totfact>
</mgrwt>
</event>
<event>
 6    1  0.7270761E-006  0.1366904E+03  0.7546771E-02  0.1228655E+00
          4   -1    0    0  501    0  0.00000000000E+00  0.00000000000E+00  0.74105873913E+02  0.74105873913E+02  0.00000000000E+00 0. -1.
         -4   -1    0    0    0  501 -0.00000000000E+00 -0.00000000000E+00 -0.34758592870E+03  0.34758592870E+03  0.00000000000E+00 0.  1.
          5    1    1    2  502    0 -0.74053506765E+02 -0.34531845820E+01 -0.17444734764E+03  0.18960436030E+03  0.47000000000E+01 0. -1.
         -5    1    1    2    0  502  0.35422321229E+02  0.49674988582E+02 -0.10641187826E+03  0.12275146910E+03  0.47000000000E+01 0.  1.
        -11    1    1    2    0    0  0.92821083464E+01  0.11014851127E+02 -0.31176341268E+02  0.34343103174E+02  0.00000000000E+00 0.  1.
         11    1    1    2    0    0  0.29349077189E+02 -0.57236655128E+02  0.38555512376E+02  0.74992870039E+02  0.00000000000E+00 0. -1.
<mgrwt>
<rscale>  0 0.12919520E+03</rscale>
<asrwt>0</asrwt>
<pdfrwt beam="1">  1        4 0.11400904E-01 0.13669038E+03</pdfrwt>
<pdfrwt beam="2">  1       -4 0.53474757E-01 0.13669038E+03</pdfrwt>
<totfact> 0.34136455E+02</totfact>
</mgrwt>
</event>
<event>
 6    1  0.7270761E-006  0.2441480E+03  0.7546771E-02  0.1117060E+00
         -4   -1    0    0    0  501 -0.00000000000E+00  0.00000000000E+00  0.90770668754E+03  0.90770668754E+03  0.00000000000E+00 0.  1.
          4   -1    0    0  501    0  0.00000000000E+00 -0.00000000000E+00 -0.16417265461E+02  0.16417265461E+02  0.00000000000E+00 0. -1.
          5    1    1    2  502    0  0.92794562897E+01  0.52921038703E+01  0.37979549555E+03  0.37997476642E+03  0.47000000000E+01 0. -1.
         -5    1    1    2    0  502 -0.52668385814E+02  0.29849117213E+02  0.84301821098E+02  0.10389328998E+03  0.47000000000E+01 0. -1.
        -11    1    1    2    0    0  0.39119661533E+02  0.24825347580E+02  0.18448170344E+03  0.19021079019E+03  0.00000000000E+00 0.  1.
         11    1    1    2    0    0  0.42692679907E+01 -0.59966568663E+02  0.24271040199E+03  0.25004510641E+03  0.00000000000E+00 0. -1.
<mgrwt>
<rscale>  0 0.24414800E+03</rscale>
<asrwt>0</asrwt>
<pdfrwt beam="2">  1        4 0.25257339E-02 0.24414800E+03</pdfrwt>
<pdfrwt beam="1">  1       -4 0.13964714E+00 0.24414800E+03</pdfrwt>
<totfact> 0.49536536E+02</totfact>
</mgrwt>
</event>
<event>
 6    1  0.7270761E-006  0.2524745E+03  0.7546771E-02  0.1114138E+00
          1   -1    0    0  501    0  0.00000000000E+00  0.00000000000E+00  0.27773857235E+03  0.27773857235E+03  0.00000000000E+00 0. -1.
         -1   -1    0    0    0  501 -0.00000000000E+00 -0.00000000000E+00 -0.22695114015E+03  0.22695114015E+03  0.00000000000E+00 0.  1.
          5    1    1    2  502    0 -0.78852588497E+01  0.36207756271E+02  0.39426167021E+02  0.54311063028E+02  0.47000000000E+01 0. -1.
         -5    1    1    2    0  502 -0.13644889212E+03  0.12898337402E+03 -0.68099382953E+02  0.19978645322E+03  0.47000000000E+01 0. -1.
        -11    1    1    2    0    0  0.12679295978E+03 -0.81987679205E+02  0.36579131257E+02  0.15535915498E+03  0.00000000000E+00 0.  1.
         11    1    1    2    0    0  0.17541191181E+02 -0.83203451086E+02  0.42881516871E+02  0.95233041272E+02  0.00000000000E+00 0. -1.
<mgrwt>
<rscale>  0 0.24868660E+03</rscale>
<asrwt>0</asrwt>
<pdfrwt beam="1">  1        1 0.42729011E-01 0.25247454E+03</pdfrwt>
<pdfrwt beam="2">  1       -1 0.34915560E-01 0.25247454E+03</pdfrwt>
<totfact> 0.76083399E+02</totfact>
</mgrwt>
</event>
<event>
 6    1  0.7270761E-006  0.1437526E+03  0.7546771E-02  0.1222127E+00
          3   -1    0    0  501    0  0.00000000000E+00  0.00000000000E+00  0.10194321583E+03  0.10194321583E+03  0.00000000000E+00 0. -1.
         -3   -1    0    0    0  501 -0.00000000000E+00 -0.00000000000E+00 -0.15940362685E+03  0.15940362685E+03  0.00000000000E+00 0.  1.
          5    1    1    2  502    0 -0.89768445981E+01 -0.33269106220E+02  0.37271747741E+02  0.50977351317E+02  0.47000000000E+01 0. -1.
         -5    1    1    2    0  502  0.77992357963E+02  0.16812677158E+02 -0.47878347369E+02  0.93165981778E+02  0.47000000000E+01 0. -1.
        -11    1    1    2    0    0 -0.48086078357E+02 -0.27800460142E+02 -0.38392970661E+02  0.67521527767E+02  0.00000000000E+00 0.  1.
         11    1    1    2    0    0 -0.20929435008E+02  0.44256889204E+02 -0.84608407351E+01  0.49681981821E+02  0.00000000000E+00 0. -1.
<mgrwt>
<rscale>  0 0.13365769E+03</rscale>
<asrwt>0</asrwt>
<pdfrwt beam="1">  1        3 0.15683572E-01 0.14375257E+03</pdfrwt>
<pdfrwt beam="2">  1       -3 0.24523635E-01 0.14375257E+03</pdfrwt>
<totfact> 0.12421362E+03</totfact>
</mgrwt>
</event>
<event>
 6    1  0.7270761E-006  0.1313307E+03  0.7546771E-02  0.1239459E+00
          2   -1    0    0  501    0  0.00000000000E+00  0.00000000000E+00  0.56487337123E+03  0.56487337123E+03  0.00000000000E+00 0. -1.
         -2   -1    0    0    0  501 -0.00000000000E+00 -0.00000000000E+00 -0.27374593202E+02  0.27374593202E+02  0.00000000000E+00 0.  1.
          5    1    1    2  502    0 -0.42963704928E+02  0.33081215544E+02  0.15940996922E+03  0.16844546610E+03  0.47000000000E+01 0.  1.
         -5    1    1    2    0  502  0.82662309492E+01 -0.53489232724E+02  0.30058790644E+02  0.62089044818E+02  0.47000000000E+01 0.  1.
        -11    1    1    2    0    0 -0.18329183568E+02 -0.13950005009E+01  0.14835201462E+02  0.23621773835E+02  0.00000000000E+00 0.  1.
         11    1    1    2    0    0  0.53026657547E+02  0.21803017681E+02  0.33319481670E+03  0.33809167968E+03  0.00000000000E+00 0. -1.
<mgrwt>
<rscale>  0 0.12223251E+03</rscale>
<asrwt>0</asrwt>
<pdfrwt beam="1">  1        2 0.86903588E-01 0.13133069E+03</pdfrwt>
<pdfrwt beam="2">  1       -2 0.42114763E-02 0.13133069E+03</pdfrwt>
<totfact> 0.13037951E+04</totfact>
</mgrwt>
</event>
<event>
 6    1  0.7270761E-006  0.1140421E+03  0.7546771E-02  0.1264169E+00
         -3   -1    0    0    0  501 -0.00000000000E+00  0.00000000000E+00  0.53263280938E+02  0.53263280938E+02  0.00000000000E+00 0.  1.
          3   -1    0    0  501    0  0.00000000000E+00 -0.00000000000E+00 -0.20690106656E+03  0.20690106656E+03  0.00000000000E+00 0. -1.
          5    1    1    2  502    0 -0.43868980240E+02 -0.28458308508E+02 -0.59264941390E+02  0.79175665632E+02  0.47000000000E+01 0. -1.
         -5    1    1    2    0  502  0.48983271144E+02  0.63817650707E+01 -0.59934990229E+00  0.49623955885E+02  0.47000000000E+01 0.  1.
        -11    1    1    2    0    0 -0.37502087277E+02  0.81148442022E+01 -0.88051497852E+01  0.39367345723E+02  0.00000000000E+00 0. -1.
         11    1    1    2    0    0  0.32387796373E+02  0.13961699235E+02 -0.84968344545E+02  0.91997380257E+02  0.00000000000E+00 0.  1.
<mgrwt>
<rscale>  0 0.10807892E+03</rscale>
<asrwt>0</asrwt>
<pdfrwt beam="2">  1        3 0.31830934E-01 0.11404214E+03</pdfrwt>
<pdfrwt beam="1">  1       -3 0.81943508E-02 0.11404214E+03</pdfrwt>
<totfact> 0.21872182E+03</totfact>
</mgrwt>
</event>
<event>
 6    1  0.7270761E-006  0.2975450E+03  0.7546771E-02  0.1086474E+00
         -2   -1    0    0    0  501 -0.00000000000E+00  0.00000000000E+00  0.82537340366E+02  0.82537340366E+02  0.00000000000E+00 0.  1.
          2   -1    0    0  501    0  0.00000000000E+00 -0.00000000000E+00 -0.26816048966E+03  0.26816048966E+03  0.00000000000E+00 0. -1.
          5    1    1    2  502    0  0.93629287870E+02 -0.68164105866E+02 -0.16526561483E+02  0.11708119452E+03  0.47000000000E+01 0. -1.
         -5    1    1    2    0  502 -0.66324032935E+01  0.28731900151E+02 -0.40363310506E+02  0.50207546194E+02  0.47000000000E+01 0. -1.
        -11    1    1    2    0    0 -0.47661924411E+02  0.31879267545E+02 -0.13129867832E+03  0.14327347858E+03  0.00000000000E+00 0. -1.
         11    1    1    2    0    0 -0.39334960166E+02  0.75529381698E+01  0.25654010115E+01  0.40135610729E+02  0.00000000000E+00 0.  1.
<mgrwt>
<rscale>  0 0.29754498E+03</rscale>
<asrwt>0</asrwt>
<pdfrwt beam="2">  1        2 0.41255459E-01 0.29754498E+03</pdfrwt>
<pdfrwt beam="1">  1       -2 0.12698053E-01 0.29754498E+03</pdfrwt>
<totfact> 0.55516595E+03</totfact>
</mgrwt>
</event>
<event>
 6    1  0.7270761E-006  0.1540325E+03  0.7546771E-02  0.1204363E+00
          1   -1    0    0  501    0  0.00000000000E+00  0.00000000000E+00  0.50368084729E+02  0.50368084729E+02  0.00000000000E+00 0. -1.
         -1   -1    0    0    0  501 -0.00000000000E+00 -0.00000000000E+00 -0.39307881081E+03  0.39307881081E+03  0.00000000000E+00 0.  1.
          5    1    1    2  502    0  0.53776406233E+02 -0.43391954544E+02 -0.26420130165E+02  0.74127436651E+02  0.47000000000E+01 0. -1.
         -5    1    1    2    0  502  0.35985550943E+02  0.36750228438E+02 -0.15761656096E+03  0.16586322515E+03  0.47000000000E+01 0. -1.
        -11    1    1    2    0    0 -0.61954359358E+02  0.46309256651E+02 -0.11255236020E+03  0.13656838464E+03  0.00000000000E+00 0.  1.
         11    1    1    2    0    0 -0.27807597818E+02 -0.39667530545E+02 -0.46121674753E+02  0.66887849106E+02  0.00000000000E+00 0. -1.
<mgrwt>
<rscale>  0 0.14687760E+03</rscale>
<asrwt>0</asrwt>
<pdfrwt beam="1">  1        1 0.77489364E-02 0.15403251E+03</pdfrwt>
<pdfrwt beam="2">  1       -1 0.60473661E-01 0.15403251E+03</pdfrwt>
<totfact> 0.25305812E+03</totfact>
</mgrwt>
</event>
<event>
 6    1  0.7270761E-006  0.1199527E+03  0.7546771E-02  0.1253272E+00
          1   -1    0    0  501    0  0.00000000000E+00  0.00000000000E+00  0.47539390809E+02  0.47539390809E+02  0.00000000000E+00 0. -1.
         -1   -1    0    0    0  501 -0.00000000000E+00 -0.00000000000E+00 -0.25039553327E+03  0.25039553327E+03  0.00000000000E+00 0.  1.
          5    1    1    2  502    0 -0.20176912086E+02  0.25402128147E+02  0.47171174968E+01  0.33116719239E+02  0.47000000000E+01 0. -1.
         -5    1    1    2    0  502  0.54894156344E+02 -0.10595670207E+02 -0.12374365527E+03  0.13586838797E+03  0.47000000000E+01 0.  1.
        -11    1    1    2    0    0  0.25113433985E+02 -0.24118093424E+02 -0.45472060721E+02  0.57271941674E+02  0.00000000000E+00 0.  1.
         11    1    1    2    0    0 -0.59830678243E+02  0.93116354844E+01 -0.38357543965E+02  0.71677875202E+02  0.00000000000E+00 0. -1.
<mgrwt>
<rscale>  0 0.11403682E+03</rscale>
<asrwt>0</asrwt>
<pdfrwt beam="1">  1        1 0.73137526E-02 0.11995270E+03</pdfrwt>
<pdfrwt beam="2">  1       -1 0.38522389E-01 0.11995270E+03</pdfrwt>
<totfact> 0.61093761E+03</totfact>
</mgrwt>
</event>
<event>
 6    1  0.1273369E-005  0.3395743E+03  0.7546771E-02  0.1066977E+00
          1   -1    0    0  501    0  0.00000000000E+00  0.00000000000E+00  0.10689870797E+04  0.10689870797E+04  0.00000000000E+00 0. -1.
         -1   -1    0    0    0  501 -0.00000000000E+00 -0.00000000000E+00 -0.26967284077E+02  0.26967284077E+02  0.00000000000E+00 0.  1.
          5    1    1    2  502    0 -0.67053592057E+01  0.14168219070E+03  0.34087942029E+03  0.36924202656E+03  0.47000000000E+01 0.  1.
         -5    1    1    2    0  502 -0.32963714713E-01 -0.97713308431E+01  0.22242783444E+03  0.22269196557E+03  0.47000000000E+01 0.  1.
        -11    1    1    2    0    0  0.38954313382E+02 -0.96394797839E+02  0.38448342964E+03  0.39829248455E+03  0.00000000000E+00 0. -1.
         11    1    1    2    0    0 -0.32215990462E+02 -0.35516062016E+02  0.94229111223E+02  0.10572788707E+03  0.00000000000E+00 0.  1.
<mgrwt>
<rscale>  0 0.33957431E+03</rscale>
<asrwt>0</asrwt>
<pdfrwt beam="1">  1        1 0.16445952E+00 0.33957431E+03</pdfrwt>
<pdfrwt beam="2">  1       -1 0.41488138E-02 0.33957431E+03</pdfrwt>
<totfact> 0.33179311E+03</totfact>
</mgrwt>
</event>
<event>
 6    1  0.7270761E-006  0.1367889E+03  0.7546771E-02  0.1229390E+00
          2   -1    0    0  501    0  0.00000000000E+00  0.00000000000E+00  0.35919697481E+02  0.35919697481E+02  0.00000000000E+00 0. -1.
         -2   -1    0    0    0  501 -0.00000000000E+00 -0.00000000000E+00 -0.73654813457E+03  0.73654813457E+03  0.00000000000E+00 0.  1.
          5    1    1    2  502    0  0.15383956089E+02  0.31094816302E+02 -0.73858204441E+02  0.81735415024E+02  0.47000000000E+01 0.  1.
         -5    1    1    2    0  502 -0.61602177759E+02 -0.61740339226E+02 -0.55474061853E+03  0.56157452012E+03  0.47000000000E+01 0.  1.
        -11    1    1    2    0    0 -0.46926658859E+00 -0.14612832240E+02  0.14718198846E+02  0.20745612897E+02  0.00000000000E+00 0. -1.
         11    1    1    2    0    0  0.46687488259E+02  0.45258355164E+02 -0.86747812959E+02  0.10841228401E+03  0.00000000000E+00 0.  1.
<mgrwt>
<rscale>  0 0.12870475E+03</rscale>
<asrwt>0</asrwt>
<pdfrwt beam="1">  1        2 0.55261072E-02 0.13678886E+03</pdfrwt>
<pdfrwt beam="2">  1       -2 0.11331510E+00 0.13678886E+03</pdfrwt>
<totfact> 0.85493286E+02</totfact>
</mgrwt>
</event>
<event>
 6    1  0.7270761E-006  0.3138520E+03  0.7546771E-02  0.1078514E+00
          4   -1    0    0  501    0  0.00000000000E+00  0.00000000000E+00  0.33768725531E+03  0.33768725531E+03  0.00000000000E+00 0. -1.
         -4   -1    0    0    0  501 -0.00000000000E+00 -0.00000000000E+00 -0.72924786113E+02  0.72924786113E+02  0.00000000000E+00 0.  1.
          5    1    1    2  502    0 -0.33303133604E+02  0.15164209603E+02  0.61275875902E+02  0.71525344657E+02  0.47000000000E+01 0. -1.
         -5    1    1    2    0  502  0.15336756678E+02 -0.12519966854E+03  0.10055686642E+03  0.16138136972E+03  0.47000000000E+01 0. -1.
        -11    1    1    2    0    0 -0.10490918774E+02  0.56123159276E+02  0.10181743215E+03  0.11673327663E+03  0.00000000000E+00 0. -1.
         11    1    1    2    0    0  0.28457295699E+02  0.53912299657E+02  0.11122947258E+01  0.60972050420E+02  0.00000000000E+00 0.  1.
<mgrwt>
<rscale>  0 0.31385201E+03</rscale>
<asrwt>0</asrwt>
<pdfrwt beam="1">  1        4 0.51951884E-01 0.31385201E+03</pdfrwt>
<pdfrwt beam="2">  1       -4 0.11219198E-01 0.31385201E+03</pdfrwt>
<totfact> 0.42545883E+02</totfact>
</mgrwt>
</event>
<event>
 6    1  0.7270761E-006  0.1200014E+03  0.7546771E-02  0.1256808E+00
          3   -1    0    0  501    0  0.00000000000E+00  0.00000000000E+00  0.43386586051E+03  0.43386586051E+03  0.00000000000E+00 0. -1.
         -3   -1    0    0    0  501 -0.00000000000E+00 -0.00000000000E+00 -0.25712946712E+02  0.25712946712E+02  0.00000000000E+00 0.  1.
          5    1    1    2  502    0  0.29950522675E+02  0.41046004753E+01  0.23031162375E+03  0.23233470595E+03  0.47000000000E+01 0. -1.
         -5    1    1    2    0  502 -0.27498570002E+02 -0.19917757687E+01  0.69006330279E+00  0.27976860264E+02  0.47000000000E+01 0.  1.
        -11    1    1    2    0    0  0.26450972643E+02  0.14323087678E+02  0.15812182311E+03  0.16095749668E+03  0.00000000000E+00 0. -1.
         11    1    1    2    0    0 -0.28902925316E+02 -0.16435912384E+02  0.19029403632E+02  0.38309744326E+02  0.00000000000E+00 0.  1.
<mgrwt>
<rscale>  0 0.11205646E+03</rscale>
<asrwt>0</asrwt>
<pdfrwt beam="1">  1        3 0.66748589E-01 0.12000138E+03</pdfrwt>
<pdfrwt beam="2">  1       -3 0.39558383E-02 0.12000138E+03</pdfrwt>
<totfact> 0.16375196E+03</totfact>
</mgrwt>
</event>
<event>
 6    1  0.7270761E-006  0.2764630E+03  0.7546771E-02  0.1097637E+00
          2   -1    0    0  501    0  0.00000000000E+00  0.00000000000E+00  0.50043920460E+02  0.50043920460E+02  0.00000000000E+00 0. -1.
         -2   -1    0    0    0  501 -0.00000000000E+00 -0.00000000000E+00 -0.38182348780E+03  0.38182348780E+03  0.00000000000E+00 0.  1.
          5    1    1    2  502    0 -0.12267377026E+02 -0.11141137115E+02  0.13294888366E+02  0.21759079300E+02  0.47000000000E+01 0.  1.
         -5    1    1    2    0  502 -0.81227927997E+01 -0.66685196117E+02 -0.24055856965E+03  0.24980674646E+03  0.47000000000E+01 0.  1.
        -11    1    1    2    0    0  0.55130061440E+02  0.57734678764E+02 -0.56912078347E+02  0.98038775329E+02  0.00000000000E+00 0. -1.
         11    1    1    2    0    0 -0.34739891614E+02  0.20091654468E+02 -0.47603807709E+02  0.62262807173E+02  0.00000000000E+00 0.  1.
<mgrwt>
<rscale>  0 0.27646298E+03</rscale>
<asrwt>0</asrwt>
<pdfrwt beam="1">  1        2 0.76990646E-02 0.27646298E+03</pdfrwt>
<pdfrwt beam="2">  1       -2 0.58742076E-01 0.27646298E+03</pdfrwt>
<totfact> 0.24621207E+03</totfact>
</mgrwt>
</event>
<event>
 6    1  0.7270761E-006  0.1393552E+03  0.7546771E-02  0.1225571E+00
         -2   -1    0    0    0  501 -0.00000000000E+00  0.00000000000E+00  0.19042274016E+03  0.19042274016E+03  0.00000000000E+00 0.  1.
          2   -1    0    0  501    0  0.00000000000E+00 -0.00000000000E+00 -0.81503514547E+02  0.81503514547E+02  0.00000000000E+00 0. -1.
          5    1    1    2  502    0 -0.13918915045E+02 -0.85797664089E+02  0.45440490126E+02  0.98193194784E+02  0.47000000000E+01 0. -1.
         -5    1    1    2    0  502 -0.29716024845E+02  0.42311790852E+02  0.18308182989E+02  0.55050970400E+02  0.47000000000E+01 0. -1.
        -11    1    1    2    0    0  0.71766739070E+02  0.36383042844E+02  0.36841194019E+02  0.88495560454E+02  0.00000000000E+00 0. -1.
         11    1    1    2    0    0 -0.28131799181E+02  0.71028303926E+01  0.83293584840E+01  0.30186529073E+02  0.00000000000E+00 0.  1.
<mgrwt>
<rscale>  0 0.13127849E+03</rscale>
<asrwt>0</asrwt>
<pdfrwt beam="2">  1        2 0.12539002E-01 0.13935523E+03</pdfrwt>
<pdfrwt beam="1">  1       -2 0.29295806E-01 0.13935523E+03</pdfrwt>
<totfact> 0.49323074E+03</totfact>
</mgrwt>
</event>
<event>
 6    1  0.7270761E-006  0.1313653E+03  0.7546771E-02  0.1239334E+00
          2   -1    0    0  501    0  0.00000000000E+00  0.00000000000E+00  0.34887305554E+03  0.34887305554E+03  0.00000000000E+00 0. -1.
         -2   -1    0    0    0  501 -0.00000000000E+00 -0.00000000000E+00 -0.38314474982E+02  0.38314474982E+02  0.00000000000E+00 0.  1.
          5    1    1    2  502    0  0.30205704541E+02 -0.56861222533E+02  0.13463800528E+03  0.14931532299E+03  0.47000000000E+01 0.  1.
         -5    1    1    2    0  502 -0.55486531458E+02  0.25349662409E+02  0.61504430909E+02  0.86753936965E+02  0.47000000000E+01 0.  1.
        -11    1    1    2    0    0  0.19610262658E+02  0.48147162960E+02  0.12151067542E+03  0.13216488165E+03  0.00000000000E+00 0. -1.
         11    1    1    2    0    0  0.56705642587E+01 -0.16635602836E+02 -0.70945310399E+01  0.18953388916E+02  0.00000000000E+00 0.  1.
<mgrwt>
<rscale>  0 0.12231001E+03</rscale>
<asrwt>0</asrwt>
<pdfrwt beam="1">  1        2 0.53672776E-01 0.13136529E+03</pdfrwt>
<pdfrwt beam="2">  1       -2 0.58945348E-02 0.13136529E+03</pdfrwt>
<totfact> 0.13266777E+04</totfact>
</mgrwt>
</event>
<event>
 6    1  0.7270761E-006  0.1426772E+03  0.7546771E-02  0.1223706E+00
         -2   -1    0    0    0  501 -0.00000000000E+00  0.00000000000E+00  0.37433438478E+03  0.37433438478E+03  0.00000000000E+00 0. -1.
          2   -1    0    0  501    0  0.00000000000E+00 -0.00000000000E+00 -0.47206334866E+02  0.47206334866E+02  0.00000000000E+00 0.  1.
          5    1    1    2  502    0  0.52066059216E+02 -0.63917577982E+01  0.20321470615E+02  0.56451583308E+02  0.47000000000E+01 0. -1.
         -5    1    1    2    0  502  0.14725072581E+02 -0.10368882201E+02  0.23739588791E+03  0.23812441932E+03  0.47000000000E+01 0. -1.
        -11    1    1    2    0    0 -0.33195413335E+02 -0.18254657774E+02  0.68677824579E+02  0.78433485106E+02  0.00000000000E+00 0. -1.
         11    1    1    2    0    0 -0.33595718462E+02  0.35015297774E+02  0.73286681193E+00  0.48531231912E+02  0.00000000000E+00 0.  1.
<mgrwt>
<rscale>  0 0.13255963E+03</rscale>
<asrwt>0</asrwt>
<pdfrwt beam="2">  1        2 0.72625133E-02 0.14267720E+03</pdfrwt>
<pdfrwt beam="1">  1       -2 0.57589903E-01 0.14267720E+03</pdfrwt>
<totfact> 0.26694497E+03</totfact>
</mgrwt>
</event>
<event>
 6    1  0.7270761E-006  0.1542396E+03  0.7546771E-02  0.1203865E+00
          2   -1    0    0  501    0  0.00000000000E+00  0.00000000000E+00  0.56099690866E+03  0.56099690866E+03  0.00000000000E+00 0. -1.
         -2   -1    0    0    0  501 -0.00000000000E+00 -0.00000000000E+00 -0.37249906875E+02  0.37249906875E+02  0.00000000000E+00 0.  1.
          5    1    1    2  502    0 -0.32844756135E+02 -0.88515381861E+02  0.22653922132E+03  0.24547068996E+03  0.47000000000E+01 0.  1.
         -5    1    1    2    0  502 -0.18425974216E+02  0.14100602801E+02 -0.52683215226E+01  0.24252602681E+02  0.47000000000E+01 0.  1.
        -11    1    1    2    0    0  0.24396228146E+02 -0.86067851334E+01  0.19494275170E+02  0.32392583449E+02  0.00000000000E+00 0.  1.
         11    1    1    2    0    0  0.26874502204E+02  0.83021564194E+02  0.28298182682E+03  0.29613093945E+03  0.00000000000E+00 0. -1.
<mgrwt>
<rscale>  0 0.14727230E+03</rscale>
<asrwt>0</asrwt>
<pdfrwt beam="1">  1        2 0.86307210E-01 0.15423957E+03</pdfrwt>
<pdfrwt beam="2">  1       -2 0.57307553E-02 0.15423957E+03</pdfrwt>
<totfact> 0.83613740E+03</totfact>
</mgrwt>
</event>
<event>
 6    1  0.7270761E-006  0.1308738E+03  0.7546771E-02  0.1239709E+00
         -1   -1    0    0    0  501 -0.00000000000E+00  0.00000000000E+00  0.82510158672E+02  0.82510158672E+02  0.00000000000E+00 0.  1.
          1   -1    0    0  501    0  0.00000000000E+00 -0.00000000000E+00 -0.16021758459E+03  0.16021758459E+03  0.00000000000E+00 0. -1.
          5    1    1    2  502    0 -0.21499325711E+01 -0.63260509519E+02 -0.64684843408E+02  0.90624131673E+02  0.47000000000E+01 0. -1.
         -5    1    1    2    0  502 -0.24244212787E+02  0.34883565382E+02  0.20639091971E+02  0.47462691715E+02  0.47000000000E+01 0. -1.
        -11    1    1    2    0    0  0.54080045904E+02 -0.98740053342E+00 -0.34711708905E+02  0.64269192152E+02  0.00000000000E+00 0.  1.
         11    1    1    2    0    0 -0.27685900546E+02  0.29364344671E+02  0.10500344233E+01  0.40371727722E+02  0.00000000000E+00 0. -1.
<mgrwt>
<rscale>  0 0.12207723E+03</rscale>
<asrwt>0</asrwt>
<pdfrwt beam="2">  1        1 0.24648859E-01 0.13087377E+03</pdfrwt>
<pdfrwt beam="1">  1       -1 0.12693871E-01 0.13087377E+03</pdfrwt>
<totfact> 0.77100637E+03</totfact>
</mgrwt>
</event>
<event>
 6    1  0.7270761E-006  0.3614075E+03  0.7546771E-02  0.1058028E+00
         -2   -1    0    0    0  501 -0.00000000000E+00  0.00000000000E+00  0.32570714049E+02  0.32570714049E+02  0.00000000000E+00 0.  1.
          2   -1    0    0  501    0  0.00000000000E+00 -0.00000000000E+00 -0.10025522523E+04  0.10025522523E+04  0.00000000000E+00 0. -1.
          5    1    1    2  502    0  0.12449829961E+02 -0.15271068391E+02 -0.17324293778E+02  0.26653798056E+02  0.47000000000E+01 0. -1.
         -5    1    1    2    0  502 -0.86114918718E+02  0.13526415924E+03 -0.41276402951E+03  0.44284128766E+03  0.47000000000E+01 0. -1.
        -11    1    1    2    0    0  0.52668577439E+02 -0.50730504118E+02 -0.12793080479E+03  0.14735621436E+03  0.00000000000E+00 0.  1.
         11    1    1    2    0    0  0.20996511319E+02 -0.69262586728E+02 -0.41196241021E+03  0.41827166630E+03  0.00000000000E+00 0. -1.
<mgrwt>
<rscale>  0 0.36140749E+03</rscale>
<asrwt>0</asrwt>
<pdfrwt beam="2">  1        2 0.15423881E+00 0.36140749E+03</pdfrwt>
<pdfrwt beam="1">  1       -2 0.50108791E-02 0.36140749E+03</pdfrwt>
<totfact> 0.51274221E+03</totfact>
</mgrwt>
</event>
<event>
 6    1  0.7270761E-006  0.1542891E+03  0.7546771E-02  0.1203938E+00
         -1   -1    0    0    0  501 -0.00000000000E+00  0.00000000000E+00  0.35219740582E+02  0.35219740582E+02  0.00000000000E+00 0.  1.
          1   -1    0    0  501    0  0.00000000000E+00 -0.00000000000E+00 -0.61597463567E+03  0.61597463567E+03  0.00000000000E+00 0. -1.
          5    1    1    2  502    0  0.34408855221E+02  0.62943811827E+02 -0.97567675200E+02  0.12119172418E+03  0.47000000000E+01 0. -1.
         -5    1    1    2    0  502  0.55971758706E+02 -0.60076467062E+02 -0.12460572027E+03  0.14930068717E+03  0.47000000000E+01 0. -1.
        -11    1    1    2    0    0 -0.27337639276E+02 -0.35838285225E+02 -0.68325905758E+02  0.81854496558E+02  0.00000000000E+00 0.  1.
         11    1    1    2    0    0 -0.63042974651E+02  0.32970940459E+02 -0.29025559386E+03  0.29884746835E+03  0.00000000000E+00 0. -1.
<mgrwt>
<rscale>  0 0.14721501E+03</rscale>
<asrwt>0</asrwt>
<pdfrwt beam="2">  1        1 0.94765329E-01 0.15428910E+03</pdfrwt>
<pdfrwt beam="1">  1       -1 0.54184216E-02 0.15428910E+03</pdfrwt>
<totfact> 0.51415157E+03</totfact>
</mgrwt>
</event>
<event>
 6    1  0.7270761E-006  0.4091891E+03  0.7546771E-02  0.1040643E+00
         -2   -1    0    0    0  501 -0.00000000000E+00  0.00000000000E+00  0.84157495461E+02  0.84157495461E+02  0.00000000000E+00 0.  1.
          2   -1    0    0  501    0  0.00000000000E+00 -0.00000000000E+00 -0.49738800058E+03  0.49738800058E+03  0.00000000000E+00 0. -1.
          5    1    1    2  502    0 -0.16331426379E+02 -0.14170114278E+02 -0.84402802354E+02  0.87254975053E+02  0.47000000000E+01 0.  1.
         -5    1    1    2    0  502 -0.45902922676E+01 -0.14492279791E+03 -0.37348593917E+02  0.14980218825E+03  0.47000000000E+01 0.  1.
        -11    1    1    2    0    0 -0.29961554498E+02  0.48827783161E+02 -0.59204381794E+02  0.82383287018E+02  0.00000000000E+00 0. -1.
         11    1    1    2    0    0  0.50883273145E+02  0.11026512902E+03 -0.23227472706E+03  0.26210504572E+03  0.00000000000E+00 0.  1.
<mgrwt>
<rscale>  0 0.40918909E+03</rscale>
<asrwt>0</asrwt>
<pdfrwt beam="2">  1        2 0.76521230E-01 0.40918909E+03</pdfrwt>
<pdfrwt beam="1">  1       -2 0.12947307E-01 0.40918909E+03</pdfrwt>
<totfact> 0.27510440E+03</totfact>
</mgrwt>
</event>
<event>
 6    1  0.7270761E-006  0.1938478E+03  0.7546771E-02  0.1159765E+00
          2   -1    0    0  501    0  0.00000000000E+00  0.00000000000E+00  0.43670037957E+02  0.43670037957E+02  0.00000000000E+00 0. -1.
         -2   -1    0    0    0  501 -0.00000000000E+00 -0.00000000000E+00 -0.78626858173E+03  0.78626858173E+03  0.00000000000E+00 0.  1.
          5    1    1    2  502    0  0.22980268157E+02  0.27597730791E+02 -0.14333131089E+03  0.14783667391E+03  0.47000000000E+01 0. -1.
         -5    1    1    2    0  502 -0.13398012224E+03  0.70547585068E+02 -0.30247362329E+03  0.33828984274E+03  0.47000000000E+01 0. -1.
        -11    1    1    2    0    0  0.79184913186E+02 -0.95927260936E+02 -0.28287411714E+03  0.30901465340E+03  0.00000000000E+00 0.  1.
         11    1    1    2    0    0  0.31814940892E+02 -0.22180549231E+01 -0.13919492444E+02  0.34797449640E+02  0.00000000000E+00 0. -1.
<mgrwt>
<rscale>  0 0.18856150E+03</rscale>
<asrwt>0</asrwt>
<pdfrwt beam="1">  1        2 0.67184675E-02 0.19384775E+03</pdfrwt>
<pdfrwt beam="2">  1       -2 0.12096440E+00 0.19384775E+03</pdfrwt>
<totfact> 0.57516731E+02</totfact>
</mgrwt>
</event>
<event>
 6    1  0.7270761E-006  0.3716079E+03  0.7546771E-02  0.1054080E+00
          1   -1    0    0  501    0  0.00000000000E+00  0.00000000000E+00  0.23691250160E+03  0.23691250160E+03  0.00000000000E+00 0. -1.
         -1   -1    0    0    0  501 -0.00000000000E+00 -0.00000000000E+00 -0.14572088264E+03  0.14572088264E+03  0.00000000000E+00 0.  1.
          5    1    1    2  502    0 -0.22897906235E+02 -0.34332837820E+02  0.43172730140E+02  0.59908534371E+02  0.47000000000E+01 0.  1.
         -5    1    1    2    0  502 -0.12235691204E+03  0.32194292591E+02 -0.36804005841E+02  0.13184957810E+03  0.47000000000E+01 0.  1.
        -11    1    1    2    0    0  0.81901562670E+02  0.43695810800E+02  0.62427526876E+02  0.11186771635E+03  0.00000000000E+00 0. -1.
         11    1    1    2    0    0  0.63353255601E+02 -0.41557265571E+02  0.22395367785E+02  0.79007555431E+02  0.00000000000E+00 0.  1.
<mgrwt>
<rscale>  0 0.37160785E+03</rscale>
<asrwt>0</asrwt>
<pdfrwt beam="1">  1        1 0.36448077E-01 0.37160785E+03</pdfrwt>
<pdfrwt beam="2">  1       -1 0.22418597E-01 0.37160785E+03</pdfrwt>
<totfact> 0.19833537E+03</totfact>
</mgrwt>
</event>
<event>
 6    1  0.7270761E-006  0.1312240E+03  0.7546771E-02  0.1239875E+00
         -1   -1    0    0    0  501 -0.00000000000E+00  0.00000000000E+00  0.36135770450E+02  0.36135770450E+02  0.00000000000E+00 0.  1.
          1   -1    0    0  501    0  0.00000000000E+00 -0.00000000000E+00 -0.49089087495E+03  0.49089087495E+03  0.00000000000E+00 0. -1.
          5    1    1    2  502    0  0.13408568344E+02 -0.34661798317E+02  0.72644078691E+01  0.38158768184E+02  0.47000000000E+01 0. -1.
         -5    1    1    2    0  502 -0.52279179928E+02  0.25467015553E+02 -0.12582330633E+03  0.13869129731E+03  0.47000000000E+01 0. -1.
        -11    1    1    2    0    0  0.48758097326E+02 -0.16031120964E+02 -0.30304972163E+03  0.30736538952E+03  0.00000000000E+00 0. -1.
         11    1    1    2    0    0 -0.98874857409E+01  0.25225903728E+02 -0.33146484405E+02  0.42811190378E+02  0.00000000000E+00 0.  1.
<mgrwt>
<rscale>  0 0.12197470E+03</rscale>
<asrwt>0</asrwt>
<pdfrwt beam="2">  1        1 0.75521665E-01 0.13122398E+03</pdfrwt>
<pdfrwt beam="1">  1       -1 0.55593499E-02 0.13122398E+03</pdfrwt>
<totfact> 0.66427320E+03</totfact>
</mgrwt>
</event>
<event>
 6    1  0.7270761E-006  0.1730158E+03  0.7546771E-02  0.1193980E+00
         -1   -1    0    0    0  501 -0.00000000000E+00  0.00000000000E+00  0.10518091718E+04  0.10518091718E+04  0.00000000000E+00 0.  1.
          1   -1    0    0  501    0  0.00000000000E+00 -0.00000000000E+00 -0.12917370262E+03  0.12917370262E+03  0.00000000000E+00 0. -1.
          5    1    1    2  502    0 -0.16126655630E+02  0.48745419850E+02  0.16989934102E+03  0.17755016490E+03  0.47000000000E+01 0. -1.
         -5    1    1    2    0  502 -0.12716859522E+02 -0.10790294037E+03  0.84859478708E+03  0.85553490035E+03  0.47000000000E+01 0.  1.
        -11    1    1    2    0    0  0.34937708411E+02 -0.15126820610E+02 -0.33780684037E+02  0.50897925152E+02  0.00000000000E+00 0.  1.
         11    1    1    2    0    0 -0.60941932589E+01  0.74284341126E+02 -0.62077974897E+02  0.96999883996E+02  0.00000000000E+00 0. -1.
<mgrwt>
<rscale>  0 0.15540862E+03</rscale>
<asrwt>0</asrwt>
<pdfrwt beam="2">  1        1 0.19872878E-01 0.17301579E+03</pdfrwt>
<pdfrwt beam="1">  1       -1 0.16181679E+00 0.17301579E+03</pdfrwt>
<totfact> 0.81393267E+01</totfact>
</mgrwt>
</event>
<event>
 6    1  0.7270761E-006  0.2222006E+03  0.7546771E-02  0.1135672E+00
         -2   -1    0    0    0  501 -0.00000000000E+00  0.00000000000E+00  0.37982251471E+02  0.37982251471E+02  0.00000000000E+00 0.  1.
          2   -1    0    0  501    0  0.00000000000E+00 -0.00000000000E+00 -0.11988053133E+04  0.11988053133E+04  0.00000000000E+00 0. -1.
          5    1    1    2  502    0  0.98068376835E+02  0.10260047923E+02 -0.21367722095E+03  0.23537782366E+03  0.47000000000E+01 0. -1.
         -5    1    1    2    0  502  0.61675917403E+02 -0.10097146076E+03 -0.40694567885E+03  0.42382311193E+03  0.47000000000E+01 0. -1.
        -11    1    1    2    0    0 -0.53223636523E+02  0.64077354579E+02 -0.33102426479E+03  0.34134400059E+03  0.00000000000E+00 0. -1.
         11    1    1    2    0    0 -0.10652065771E+03  0.26634058255E+02 -0.20917589724E+03  0.23624262860E+03  0.00000000000E+00 0.  1.
<mgrwt>
<rscale>  0 0.21761711E+03</rscale>
<asrwt>0</asrwt>
<pdfrwt beam="2">  1        2 0.18443161E+00 0.22220056E+03</pdfrwt>
<pdfrwt beam="1">  1       -2 0.58434226E-02 0.22220056E+03</pdfrwt>
<totfact> 0.30755102E+03</totfact>
</mgrwt>
</event>
<event>
 6    1  0.7270761E-006  0.2535513E+03  0.7546771E-02  0.1111081E+00
          1   -1    0    0  501    0  0.00000000000E+00  0.00000000000E+00  0.62463526418E+03  0.62463526418E+03  0.00000000000E+00 0. -1.
         -1   -1    0    0    0  501 -0.00000000000E+00 -0.00000000000E+00 -0.25730314841E+02  0.25730314841E+02  0.00000000000E+00 0.  1.
          5    1    1    2  502    0  0.18177087464E+02 -0.12484459190E+02  0.23028453607E+03  0.23138566460E+03  0.47000000000E+01 0. -1.
         -5    1    1    2    0  502 -0.82681772004E+02 -0.35989160780E+00  0.11538537739E+03  0.14202915285E+03  0.47000000000E+01 0. -1.
        -11    1    1    2    0    0  0.46760946297E+02  0.44715450663E+02  0.97595469189E+02  0.11709369425E+03  0.00000000000E+00 0.  1.
         11    1    1    2    0    0  0.17743738242E+02 -0.31871099865E+02  0.15563956669E+03  0.15985706732E+03  0.00000000000E+00 0. -1.
<mgrwt>
<rscale>  0 0.25355127E+03</rscale>
<asrwt>0</asrwt>
<pdfrwt beam="1">  1        1 0.96097721E-01 0.25355127E+03</pdfrwt>
<pdfrwt beam="2">  1       -1 0.39585105E-02 0.25355127E+03</pdfrwt>
<totfact> 0.82401251E+03</totfact>
</mgrwt>
</event>
<event>
 6    1  0.7270761E-006  0.1266937E+03  0.7546771E-02  0.1247861E+00
          2   -1    0    0  501    0  0.00000000000E+00  0.00000000000E+00  0.12256697240E+03  0.12256697240E+03  0.00000000000E+00 0. -1.
         -2   -1    0    0    0  501 -0.00000000000E+00 -0.00000000000E+00 -0.98643903838E+02  0.98643903838E+02  0.00000000000E+00 0.  1.
          5    1    1    2  502    0  0.15488719313E+02  0.45226593627E+02 -0.33500707178E+02  0.58563918743E+02  0.47000000000E+01 0. -1.
         -5    1    1    2    0  502  0.24295260429E+01 -0.55492115776E+02  0.39409229103E+02  0.68267524114E+02  0.47000000000E+01 0. -1.
        -11    1    1    2    0    0  0.13317828448E+02  0.47012156728E+00  0.48104022503E+02  0.49915754525E+02  0.00000000000E+00 0. -1.
         11    1    1    2    0    0 -0.31236073804E+02  0.97954005816E+01 -0.30089475868E+02  0.44463678854E+02  0.00000000000E+00 0.  1.
<mgrwt>
<rscale>  0 0.11715774E+03</rscale>
<asrwt>0</asrwt>
<pdfrwt beam="1">  1        2 0.18856457E-01 0.12669374E+03</pdfrwt>
<pdfrwt beam="2">  1       -2 0.15175985E-01 0.12669374E+03</pdfrwt>
<totfact> 0.93473384E+03</totfact>
</mgrwt>
</event>
<event>
 6    1  0.7270761E-006  0.2123428E+03  0.7546771E-02  0.1143388E+00
         -2   -1    0    0    0  501 -0.00000000000E+00  0.00000000000E+00  0.94217243562E+02  0.94217243562E+02  0.00000000000E+00 0.  1.
          2   -1    0    0  501    0  0.00000000000E+00 -0.00000000000E+00 -0.71256108393E+03  0.71256108393E+03  0.00000000000E+00 0. -1.
          5    1    1    2  502    0  0.49770236781E+02  0.18137334674E+03 -0.43363320959E+02  0.19306950816E+03  0.47000000000E+01 0.  1.
         -5    1    1    2    0  502 -0.54077311547E+01 -0.15553420897E+02 -0.24427517954E+02  0.29831964254E+02  0.47000000000E+01 0.  1.
        -11    1    1    2    0    0 -0.65981471394E+02 -0.75041185686E+02 -0.31680709895E+03  0.33219192052E+03  0.00000000000E+00 0. -1.
         11    1    1    2    0    0  0.21618965768E+02 -0.90778740154E+02 -0.23374590251E+03  0.25168493456E+03  0.00000000000E+00 0.  1.
<mgrwt>
<rscale>  0 0.20771592E+03</rscale>
<asrwt>0</asrwt>
<pdfrwt beam="2">  1        2 0.10962478E+00 0.21234281E+03</pdfrwt>
<pdfrwt beam="1">  1       -2 0.14494961E-01 0.21234281E+03</pdfrwt>
<totfact> 0.14842859E+03</totfact>
</mgrwt>
</event>
<event>
 6    1  0.7270761E-006  0.1586321E+03  0.7546771E-02  0.1197918E+00
          2   -1    0    0  501    0  0.00000000000E+00  0.00000000000E+00  0.77746424467E+03  0.77746424467E+03  0.00000000000E+00 0.  1.
         -2   -1    0    0    0  501 -0.00000000000E+00 -0.00000000000E+00 -0.32218178027E+02  0.32218178027E+02  0.00000000000E+00 0. -1.
          5    1    1    2  502    0 -0.39727278588E+02 -0.64394119999E+02  0.91338331475E+02  0.11869979002E+03  0.47000000000E+01 0.  1.
         -5    1    1    2    0  502  0.75052262714E+02 -0.26643171550E+02  0.15437185250E+03  0.17376840787E+03  0.47000000000E+01 0.  1.
        -11    1    1    2    0    0 -0.65308468173E+02  0.46215550178E+02  0.30974162203E+03  0.31990771405E+03  0.00000000000E+00 0. -1.
         11    1    1    2    0    0  0.29983484047E+02  0.44821741371E+02  0.18979426064E+03  0.19730651076E+03  0.00000000000E+00 0.  1.
<mgrwt>
<rscale>  0 0.15209864E+03</rscale>
<asrwt>0</asrwt>
<pdfrwt beam="1">  1        2 0.11960987E+00 0.15863213E+03</pdfrwt>
<pdfrwt beam="2">  1       -2 0.49566434E-02 0.15863213E+03</pdfrwt>
<totfact> 0.71039618E+03</totfact>
</mgrwt>
</event>
<event>
 6    1  0.7270761E-006  0.2068862E+03  0.7546771E-02  0.1148427E+00
         -2   -1    0    0    0  501 -0.00000000000E+00  0.00000000000E+00  0.29587125496E+03  0.29587125496E+03  0.00000000000E+00 0.  1.
          2   -1    0    0  501    0  0.00000000000E+00 -0.00000000000E+00 -0.16565407510E+03  0.16565407510E+03  0.00000000000E+00 0. -1.
          5    1    1    2  502    0 -0.72908438537E+01  0.14996939300E+03  0.77210103874E+02  0.16890075601E+03  0.47000000000E+01 0. -1.
         -5    1    1    2    0  502  0.27015559663E+02  0.13700077343E+02  0.96469307792E+02  0.10122227981E+03  0.47000000000E+01 0. -1.
        -11    1    1    2    0    0 -0.33069789103E+01 -0.16612647154E+03 -0.27589287453E+02  0.16843428819E+03  0.00000000000E+00 0.  1.
         11    1    1    2    0    0 -0.16417736899E+02  0.24570012009E+01 -0.15872944359E+02  0.22968006061E+02  0.00000000000E+00 0. -1.
<mgrwt>
<rscale>  0 0.20156337E+03</rscale>
<asrwt>0</asrwt>
<pdfrwt beam="2">  1        2 0.25485242E-01 0.20688624E+03</pdfrwt>
<pdfrwt beam="1">  1       -2 0.45518655E-01 0.20688624E+03</pdfrwt>
<totfact> 0.97040883E+02</totfact>
</mgrwt>
</event>
<event>
 6    1  0.7270761E-006  0.3193097E+03  0.7546771E-02  0.1075967E+00
         -2   -1    0    0    0  501 -0.00000000000E+00  0.00000000000E+00  0.41494352271E+02  0.41494352271E+02  0.00000000000E+00 0.  1.
          2   -1    0    0  501    0  0.00000000000E+00 -0.00000000000E+00 -0.61429240960E+03  0.61429240960E+03  0.00000000000E+00 0. -1.
          5    1    1    2  502    0 -0.53263397752E+02  0.90713507078E+02 -0.91463006310E+02  0.13947580948E+03  0.47000000000E+01 0.  1.
         -5    1    1    2    0  502  0.32889691140E+02  0.19863496531E+02 -0.14892470022E+03  0.15387315105E+03  0.47000000000E+01 0.  1.
        -11    1    1    2    0    0  0.44875432514E+02 -0.51749424591E+02 -0.98313615369E+02  0.11982226152E+03  0.00000000000E+00 0.  1.
         11    1    1    2    0    0 -0.24501725902E+02 -0.58827579018E+02 -0.23409673543E+03  0.24261553982E+03  0.00000000000E+00 0. -1.
<mgrwt>
<rscale>  0 0.31930967E+03</rscale>
<asrwt>0</asrwt>
<pdfrwt beam="2">  1        2 0.94506522E-01 0.31930967E+03</pdfrwt>
<pdfrwt beam="1">  1       -2 0.63837467E-02 0.31930967E+03</pdfrwt>
<totfact> 0.66100839E+03</totfact>
</mgrwt>
</event>
<event>
 6    1  0.7270761E-006  0.1711648E+03  0.7546771E-02  0.1182667E+00
          1   -1    0    0  501    0  0.00000000000E+00  0.00000000000E+00  0.10352482407E+03  0.10352482407E+03  0.00000000000E+00 0. -1.
         -1   -1    0    0    0  501 -0.00000000000E+00 -0.00000000000E+00 -0.26608108509E+03  0.26608108509E+03  0.00000000000E+00 0.  1.
          5    1    1    2  502    0  0.45157049941E+02 -0.63419959278E+02 -0.10092640833E+03  0.12755187295E+03  0.47000000000E+01 0.  1.
         -5    1    1    2    0  502 -0.65445650673E+02 -0.51731806265E+02 -0.33218289842E+02  0.89915837045E+02  0.47000000000E+01 0.  1.
        -11    1    1    2    0    0  0.17659790025E+02  0.12646575738E+03 -0.71282534538E+01  0.12789162589E+03  0.00000000000E+00 0.  1.
         11    1    1    2    0    0  0.26288107073E+01 -0.11313991841E+02 -0.21283309396E+02  0.24246573283E+02  0.00000000000E+00 0. -1.
<mgrwt>
<rscale>  0 0.16546016E+03</rscale>
<asrwt>0</asrwt>
<pdfrwt beam="1">  1        1 0.15926896E-01 0.17116485E+03</pdfrwt>
<pdfrwt beam="2">  1       -1 0.40935551E-01 0.17116485E+03</pdfrwt>
<totfact> 0.20028827E+03</totfact>
</mgrwt>
</event>
<event>
 6    1  0.7270761E-006  0.4270901E+03  0.7546771E-02  0.1034783E+00
          2   -1    0    0  501    0  0.00000000000E+00  0.00000000000E+00  0.20214468913E+03  0.20214468913E+03  0.00000000000E+00 0.  1.
         -2   -1    0    0    0  501 -0.00000000000E+00 -0.00000000000E+00 -0.22558839923E+03  0.22558839923E+03  0.00000000000E+00 0. -1.
          5    1    1    2  502    0  0.12159700169E+03  0.79414454702E+02 -0.11204378149E+03  0.18348946947E+03  0.47000000000E+01 0.  1.
         -5    1    1    2    0  502  0.29815999111E+02 -0.30465834822E+01  0.29933863936E+02  0.42619264237E+02  0.47000000000E+01 0.  1.
        -11    1    1    2    0    0 -0.10320864970E+03 -0.36067386270E+02  0.79776975659E+02  0.13534122643E+03  0.00000000000E+00 0.  1.
         11    1    1    2    0    0 -0.48204351103E+02 -0.40300484950E+02 -0.21110768203E+02  0.66283128219E+02  0.00000000000E+00 0. -1.
<mgrwt>
<rscale>  0 0.42709014E+03</rscale>
<asrwt>0</asrwt>
<pdfrwt beam="1">  1        2 0.31099183E-01 0.42709014E+03</pdfrwt>
<pdfrwt beam="2">  1       -2 0.34705908E-01 0.42709014E+03</pdfrwt>
<totfact> 0.13248369E+03</totfact>
</mgrwt>
</event>
<event>
 6    1  0.7270761E-006  0.1506010E+03  0.7546771E-02  0.1209263E+00
         -4   -1    0    0    0  501 -0.00000000000E+00  0.00000000000E+00  0.16775230633E+03  0.16775230633E+03  0.00000000000E+00 0.  1.
          4   -1    0    0  501    0  0.00000000000E+00 -0.00000000000E+00 -0.21179655867E+03  0.21179655867E+03  0.00000000000E+00 0. -1.
          5    1    1    2  502    0  0.96915662507E+02  0.16096845797E+02  0.88409789312E+02  0.13225027384E+03  0.47000000000E+01 0. -1.
         -5    1    1    2    0  502 -0.31888546221E+02  0.37080734095E+02  0.18766642029E+02  0.52594078318E+02  0.47000000000E+01 0. -1.
        -11    1    1    2    0    0  0.13687321079E+02 -0.20721063151E+02 -0.47484841867E+01  0.25283459385E+02  0.00000000000E+00 0.  1.
         11    1    1    2    0    0 -0.78714437365E+02 -0.32456516741E+02 -0.14647219950E+03  0.16942105346E+03  0.00000000000E+00 0. -1.
<mgrwt>
<rscale>  0 0.14306537E+03</rscale>
<asrwt>0</asrwt>
<pdfrwt beam="2">  1        4 0.32584086E-01 0.15060095E+03</pdfrwt>
<pdfrwt beam="1">  1       -4 0.25808047E-01 0.15060095E+03</pdfrwt>
<totfact> 0.21774325E+02</totfact>
</mgrwt>
</event>
<event>
 6    1  0.7270761E-006  0.1866382E+03  0.7546771E-02  0.1167575E+00
         -2   -1    0    0    0  501 -0.00000000000E+00  0.00000000000E+00  0.31836488229E+03  0.31836488229E+03  0.00000000000E+00 0.  1.
          2   -1    0    0  501    0  0.00000000000E+00 -0.00000000000E+00 -0.10126648703E+03  0.10126648703E+03  0.00000000000E+00 0. -1.
          5    1    1    2  502    0  0.30115253490E+02 -0.28435372625E+02  0.12768303819E+02  0.43596083442E+02  0.47000000000E+01 0. -1.
         -5    1    1    2    0  502  0.80267940810E+02  0.11222752670E+03  0.15235337520E+03  0.20560058611E+03  0.47000000000E+01 0. -1.
        -11    1    1    2    0    0 -0.28317403189E+02 -0.41209639919E+02 -0.19399999559E+02  0.53632730012E+02  0.00000000000E+00 0. -1.
         11    1    1    2    0    0 -0.82065791111E+02 -0.42582514159E+02  0.71376715793E+02  0.11680196976E+03  0.00000000000E+00 0.  1.
<mgrwt>
<rscale>  0 0.18023559E+03</rscale>
<asrwt>0</asrwt>
<pdfrwt beam="2">  1        2 0.15579460E-01 0.18663818E+03</pdfrwt>
<pdfrwt beam="1">  1       -2 0.48979212E-01 0.18663818E+03</pdfrwt>
<totfact> 0.14708319E+03</totfact>
</mgrwt>
</event>
<event>
 6    1  0.7270761E-006  0.2238378E+03  0.7546771E-02  0.1131054E+00
          2   -1    0    0  501    0  0.00000000000E+00  0.00000000000E+00  0.31125399969E+03  0.31125399969E+03  0.00000000000E+00 0. -1.
         -2   -1    0    0    0  501 -0.00000000000E+00 -0.00000000000E+00 -0.40243143582E+02  0.40243143582E+02  0.00000000000E+00 0.  1.
          5    1    1    2  502    0  0.11540653622E+01 -0.11688848795E+02  0.11614659910E+03  0.11683357195E+03  0.47000000000E+01 0. -1.
         -5    1    1    2    0  502 -0.36218979551E+02  0.11138178283E+02 -0.13930501362E+02  0.40645077972E+02  0.47000000000E+01 0.  1.
        -11    1    1    2    0    0  0.36063117764E+02 -0.35915447629E+02  0.13505836893E+03  0.14433028393E+03  0.00000000000E+00 0. -1.
         11    1    1    2    0    0 -0.99820357452E+00  0.36466118141E+02  0.33736389443E+02  0.49688209420E+02  0.00000000000E+00 0.  1.
<mgrwt>
<rscale>  0 0.22383779E+03</rscale>
<asrwt>0</asrwt>
<pdfrwt beam="1">  1        2 0.47885229E-01 0.22383779E+03</pdfrwt>
<pdfrwt beam="2">  1       -2 0.61912531E-02 0.22383779E+03</pdfrwt>
<totfact> 0.14477743E+04</totfact>
</mgrwt>
</event>
<event>
 6    1  0.7270761E-006  0.1392829E+03  0.7546771E-02  0.1225156E+00
          1   -1    0    0  501    0  0.00000000000E+00  0.00000000000E+00  0.27737108848E+03  0.27737108848E+03  0.00000000000E+00 0. -1.
         -1   -1    0    0    0  501 -0.00000000000E+00 -0.00000000000E+00 -0.56417082846E+02  0.56417082846E+02  0.00000000000E+00 0.  1.
          5    1    1    2  502    0 -0.16963667161E+02  0.75874934226E+02  0.13893345782E+03  0.15927764234E+03  0.47000000000E+01 0.  1.
         -5    1    1    2    0  502 -0.11683771372E+02 -0.21522710376E+02 -0.13329294687E+02  0.28275389869E+02  0.47000000000E+01 0.  1.
        -11    1    1    2    0    0 -0.24882306956E+02 -0.35466381217E+01 -0.65448022204E+00  0.25142318624E+02  0.00000000000E+00 0.  1.
         11    1    1    2    0    0  0.53529745489E+02 -0.50805585728E+02  0.96004322724E+02  0.12109282049E+03  0.00000000000E+00 0. -1.
<mgrwt>
<rscale>  0 0.13156222E+03</rscale>
<asrwt>0</asrwt>
<pdfrwt beam="1">  1        1 0.42672474E-01 0.13928293E+03</pdfrwt>
<pdfrwt beam="2">  1       -1 0.86795513E-02 0.13928293E+03</pdfrwt>
<totfact> 0.70071369E+03</totfact>
</mgrwt>
</event>
<event>
 6    1  0.7270761E-006  0.4134156E+03  0.7546771E-02  0.1040005E+00
          1   -1    0    0  501    0  0.00000000000E+00  0.00000000000E+00  0.13404309271E+04  0.13404309271E+04  0.00000000000E+00 0. -1.
         -1   -1    0    0    0  501 -0.00000000000E+00 -0.00000000000E+00 -0.12523339807E+03  0.12523339807E+03  0.00000000000E+00 0.  1.
          5    1    1    2  502    0 -0.55495019093E+02  0.38231958098E+03  0.64608233133E+03  0.75278976348E+03  0.47000000000E+01 0.  1.
         -5    1    1    2    0  502  0.20129959585E+02  0.10144746743E+02  0.17034653502E+02  0.28642635691E+02  0.47000000000E+01 0.  1.
        -11    1    1    2    0    0  0.36928475703E+01 -0.20547966879E+03  0.35853666323E+03  0.41326029363E+03  0.00000000000E+00 0. -1.
         11    1    1    2    0    0  0.31672211938E+02 -0.18698465894E+03  0.19354388091E+03  0.27097163232E+03  0.00000000000E+00 0.  1.
<mgrwt>
<rscale>  0 0.41109306E+03</rscale>
<asrwt>0</asrwt>
<pdfrwt beam="1">  1        1 0.20622013E+00 0.41341560E+03</pdfrwt>
<pdfrwt beam="2">  1       -1 0.19266678E-01 0.41341560E+03</pdfrwt>
<totfact> 0.19346940E+02</totfact>
</mgrwt>
</event>
<event>
 6    1  0.7270761E-006  0.1301362E+03  0.7546771E-02  0.1241906E+00
         -1   -1    0    0    0  501 -0.00000000000E+00  0.00000000000E+00  0.31676211420E+02  0.31676211420E+02  0.00000000000E+00 0.  1.
          1   -1    0    0  501    0  0.00000000000E+00 -0.00000000000E+00 -0.40549341115E+03  0.40549341115E+03  0.00000000000E+00 0. -1.
          5    1    1    2  502    0 -0.25628276542E+02 -0.19807132990E+02 -0.22269165195E+03  0.22508396861E+03  0.47000000000E+01 0. -1.
         -5    1    1    2    0  502 -0.78904144481E+01  0.61171138955E+01  0.15836565674E+02  0.19301930860E+02  0.47000000000E+01 0. -1.
        -11    1    1    2    0    0  0.32636511205E+02  0.41593851501E+02 -0.15237137046E+03  0.16128305826E+03  0.00000000000E+00 0. -1.
         11    1    1    2    0    0  0.88217978450E+00 -0.27903832407E+02 -0.14590742988E+02  0.31500664836E+02  0.00000000000E+00 0.  1.
<mgrwt>
<rscale>  0 0.12072468E+03</rscale>
<asrwt>0</asrwt>
<pdfrwt beam="2">  1        1 0.62383600E-01 0.13013624E+03</pdfrwt>
<pdfrwt beam="1">  1       -1 0.48732635E-02 0.13013624E+03</pdfrwt>
<totfact> 0.10299551E+04</totfact>
</mgrwt>
</event>
<event>
 6    1  0.7270761E-006  0.1588189E+03  0.7546771E-02  0.1197836E+00
          1   -1    0    0  501    0  0.00000000000E+00  0.00000000000E+00  0.27923174553E+03  0.27923174553E+03  0.00000000000E+00 0. -1.
         -1   -1    0    0    0  501 -0.00000000000E+00 -0.00000000000E+00 -0.86754321031E+02  0.86754321031E+02  0.00000000000E+00 0.  1.
          5    1    1    2  502    0 -0.45366156978E+02  0.80732533109E+02  0.64208378280E+02  0.11278579672E+03  0.47000000000E+01 0.  1.
         -5    1    1    2    0  502 -0.36706394253E+02 -0.27241913900E+02 -0.22864816889E+02  0.51326124960E+02  0.47000000000E+01 0.  1.
        -11    1    1    2    0    0  0.23171345575E+02  0.70500740737E+01 -0.46522172898E+01  0.24662885596E+02  0.00000000000E+00 0.  1.
         11    1    1    2    0    0  0.58901205656E+02 -0.60540693282E+02  0.15578608040E+03  0.17721125929E+03  0.00000000000E+00 0. -1.
<mgrwt>
<rscale>  0 0.15216639E+03</rscale>
<asrwt>0</asrwt>
<pdfrwt beam="1">  1        1 0.42958730E-01 0.15881887E+03</pdfrwt>
<pdfrwt beam="2">  1       -1 0.13346819E-01 0.15881887E+03</pdfrwt>
<totfact> 0.36138994E+03</totfact>
</mgrwt>
</event>
<event>
 6    1  0.7270761E-006  0.2684644E+03  0.7546771E-02  0.1123107E+00
          1   -1    0    0  501    0  0.00000000000E+00  0.00000000000E+00  0.54889586193E+03  0.54889586193E+03  0.00000000000E+00 0. -1.
         -1   -1    0    0    0  501 -0.00000000000E+00 -0.00000000000E+00 -0.16125237579E+03  0.16125237579E+03  0.00000000000E+00 0.  1.
          5    1    1    2  502    0  0.14520642175E+03 -0.16309905655E+02  0.25136884304E+02  0.14834038861E+03  0.47000000000E+01 0. -1.
         -5    1    1    2    0  502 -0.45861610384E+02  0.10083633729E+03 -0.48880416968E+02  0.12117194142E+03  0.47000000000E+01 0.  1.
        -11    1    1    2    0    0 -0.30780204992E+02 -0.32216150750E+01  0.24721595812E+02  0.39610063399E+02  0.00000000000E+00 0.  1.
         11    1    1    2    0    0 -0.68564606376E+02 -0.81304816562E+02  0.38666542300E+03  0.40102584429E+03  0.00000000000E+00 0. -1.
<mgrwt>
<rscale>  0 0.23509052E+03</rscale>
<asrwt>0</asrwt>
<pdfrwt beam="1">  1        1 0.84445516E-01 0.26846441E+03</pdfrwt>
<pdfrwt beam="2">  1       -1 0.24808058E-01 0.26846441E+03</pdfrwt>
<totfact> 0.56404327E+02</totfact>
</mgrwt>
</event>
<event>
 6    1  0.7270761E-006  0.1279096E+03  0.7546771E-02  0.1244510E+00
          2   -1    0    0  501    0  0.00000000000E+00  0.00000000000E+00  0.32041263323E+03  0.32041263323E+03  0.00000000000E+00 0. -1.
         -2   -1    0    0    0  501 -0.00000000000E+00 -0.00000000000E+00 -0.46252793679E+02  0.46252793679E+02  0.00000000000E+00 0.  1.
          5    1    1    2  502    0 -0.17101661030E+02  0.65119834182E+02  0.16244067881E+02  0.69419156976E+02  0.47000000000E+01 0.  1.
         -5    1    1    2    0  502  0.28324252553E+02 -0.40439373384E+02  0.66357825924E+02  0.82843571047E+02  0.47000000000E+01 0.  1.
        -11    1    1    2    0    0  0.21613780770E+02  0.10978144230E+02  0.14560319158E+03  0.14760746786E+03  0.00000000000E+00 0. -1.
         11    1    1    2    0    0 -0.32836372293E+02 -0.35658605028E+02  0.45954754175E+02  0.66795231036E+02  0.00000000000E+00 0.  1.
<mgrwt>
<rscale>  0 0.11914783E+03</rscale>
<asrwt>0</asrwt>
<pdfrwt beam="1">  1        2 0.49294250E-01 0.12790960E+03</pdfrwt>
<pdfrwt beam="2">  1       -2 0.71158146E-02 0.12790960E+03</pdfrwt>
<totfact> 0.10878250E+04</totfact>
</mgrwt>
</event>
<event>
 6    1  0.7270761E-006  0.1591727E+03  0.7546771E-02  0.1197145E+00
          1   -1    0    0  501    0  0.00000000000E+00  0.00000000000E+00  0.21083036044E+03  0.21083036044E+03  0.00000000000E+00 0.  1.
         -1   -1    0    0    0  501 -0.00000000000E+00 -0.00000000000E+00 -0.10780262255E+03  0.10780262255E+03  0.00000000000E+00 0. -1.
          5    1    1    2  502    0 -0.12611065878E+03  0.24016233072E+02  0.17340891919E+02  0.12962821545E+03  0.47000000000E+01 0.  1.
         -5    1    1    2    0  502  0.30325820255E+02 -0.86711201875E+00  0.32885641103E+01  0.30875749566E+02  0.47000000000E+01 0.  1.
        -11    1    1    2    0    0  0.17916302648E+02 -0.58504235348E+01  0.75779385874E+02  0.78088005990E+02  0.00000000000E+00 0.  1.
         11    1    1    2    0    0  0.77868535878E+02 -0.17298697518E+02  0.66188959840E+01  0.80041011985E+02  0.00000000000E+00 0. -1.
<mgrwt>
<rscale>  0 0.15274113E+03</rscale>
<asrwt>0</asrwt>
<pdfrwt beam="1">  1        1 0.32435440E-01 0.15917270E+03</pdfrwt>
<pdfrwt beam="2">  1       -1 0.16585019E-01 0.15917270E+03</pdfrwt>
<totfact> 0.36424756E+03</totfact>
</mgrwt>
</event>
<event>
 6    1  0.7270761E-006  0.2624721E+03  0.7546771E-02  0.1108849E+00
          2   -1    0    0  501    0  0.00000000000E+00  0.00000000000E+00  0.88709935124E+02  0.88709935124E+02  0.00000000000E+00 0. -1.
         -2   -1    0    0    0  501 -0.00000000000E+00 -0.00000000000E+00 -0.73704138674E+03  0.73704138674E+03  0.00000000000E+00 0.  1.
          5    1    1    2  502    0 -0.65974745168E+02  0.67436463870E+01 -0.38715942404E+02  0.76936064123E+02  0.47000000000E+01 0.  1.
         -5    1    1    2    0  502 -0.11479315425E+03 -0.13119334207E+03 -0.36627652526E+03  0.40567196627E+03  0.47000000000E+01 0.  1.
        -11    1    1    2    0    0 -0.10927641921E+02  0.17941631830E+02 -0.11222935318E+02  0.23817426138E+02  0.00000000000E+00 0. -1.
         11    1    1    2    0    0  0.19169554134E+03  0.10650806385E+03 -0.23211604864E+03  0.31932586533E+03  0.00000000000E+00 0.  1.
<mgrwt>
<rscale>  0 0.25718042E+03</rscale>
<asrwt>0</asrwt>
<pdfrwt beam="1">  1        2 0.13647683E-01 0.26247212E+03</pdfrwt>
<pdfrwt beam="2">  1       -2 0.11339098E+00 0.26247212E+03</pdfrwt>
<totfact> 0.27857649E+02</totfact>
</mgrwt>
</event>
<event>
 6    1  0.7270761E-006  0.1303194E+03  0.7546771E-02  0.1240971E+00
          1   -1    0    0  501    0  0.00000000000E+00  0.00000000000E+00  0.50581429166E+03  0.50581429166E+03  0.00000000000E+00 0. -1.
         -1   -1    0    0    0  501 -0.00000000000E+00 -0.00000000000E+00 -0.27325990381E+02  0.27325990381E+02  0.00000000000E+00 0.  1.
          5    1    1    2  502    0  0.43093468937E+01  0.43486270317E+02  0.14928649176E+02  0.46417461617E+02  0.47000000000E+01 0.  1.
         -5    1    1    2    0  502  0.31894177903E+02 -0.36458855259E+02  0.19245636760E+03  0.19851455902E+03  0.47000000000E+01 0.  1.
        -11    1    1    2    0    0  0.30475864342E+01  0.37350586346E+02  0.12663819297E+03  0.13206659684E+03  0.00000000000E+00 0. -1.
         11    1    1    2    0    0 -0.39251111231E+02 -0.44378001404E+02  0.14446509153E+03  0.15614166456E+03  0.00000000000E+00 0.  1.
<mgrwt>
<rscale>  0 0.12129806E+03</rscale>
<asrwt>0</asrwt>
<pdfrwt beam="1">  1        1 0.77817576E-01 0.13031941E+03</pdfrwt>
<pdfrwt beam="2">  1       -1 0.42039989E-02 0.13031941E+03</pdfrwt>
<totfact> 0.96466944E+03</totfact>
</mgrwt>
</event>
<event>
 6    1  0.7270761E-006  0.1353799E+03  0.7546771E-02  0.1232555E+00
         -1   -1    0    0    0  501 -0.00000000000E+00  0.00000000000E+00  0.50495625590E+02  0.50495625590E+02  0.00000000000E+00 0.  1.
          1   -1    0    0  501    0  0.00000000000E+00 -0.00000000000E+00 -0.30643328545E+03  0.30643328545E+03  0.00000000000E+00 0. -1.
          5    1    1    2  502    0 -0.53707845422E+02 -0.17785285151E+02 -0.83076185602E+02  0.10062102982E+03  0.47000000000E+01 0. -1.
         -5    1    1    2    0  502  0.53237825419E+02 -0.34198314852E+02 -0.11401599113E+02  0.64466093851E+02  0.47000000000E+01 0. -1.
        -11    1    1    2    0    0  0.34212907570E+02  0.23664678692E+01 -0.10098725184E+03  0.10665152718E+03  0.00000000000E+00 0. -1.
         11    1    1    2    0    0 -0.33742887567E+02  0.49617132135E+02 -0.60472623305E+02  0.85190260195E+02  0.00000000000E+00 0.  1.
<mgrwt>
<rscale>  0 0.12662243E+03</rscale>
<asrwt>0</asrwt>
<pdfrwt beam="2">  1        1 0.47143583E-01 0.13537986E+03</pdfrwt>
<pdfrwt beam="1">  1       -1 0.77685578E-02 0.13537986E+03</pdfrwt>
<totfact> 0.73104139E+03</totfact>
</mgrwt>
</event>
<event>
 6    1  0.7270761E-006  0.1355634E+03  0.7546771E-02  0.1231593E+00
          2   -1    0    0  501    0  0.00000000000E+00  0.00000000000E+00  0.37626343855E+03  0.37626343855E+03  0.00000000000E+00 0. -1.
         -2   -1    0    0    0  501 -0.00000000000E+00 -0.00000000000E+00 -0.38594103658E+02  0.38594103658E+02  0.00000000000E+00 0.  1.
          5    1    1    2  502    0  0.39350221757E+01 -0.46927137014E+02  0.92267332231E+02  0.10369663054E+03  0.47000000000E+01 0. -1.
         -5    1    1    2    0  502 -0.39711210917E+02  0.74377423442E+02  0.89418950570E+02  0.12299113835E+03  0.47000000000E+01 0.  1.
        -11    1    1    2    0    0  0.11687385315E+02  0.26174968663E+02  0.10960275706E+03  0.11328940072E+03  0.00000000000E+00 0.  1.
         11    1    1    2    0    0  0.24088803426E+02 -0.53625255091E+02  0.46380295023E+02  0.74880372599E+02  0.00000000000E+00 0. -1.
<mgrwt>
<rscale>  0 0.12725076E+03</rscale>
<asrwt>0</asrwt>
<pdfrwt beam="1">  1        2 0.57886680E-01 0.13556341E+03</pdfrwt>
<pdfrwt beam="2">  1       -2 0.59375547E-02 0.13556341E+03</pdfrwt>
<totfact> 0.12138288E+04</totfact>
</mgrwt>
</event>
<event>
 6    1  0.7270761E-006  0.1719262E+03  0.7546771E-02  0.1181731E+00
         -2   -1    0    0    0  501 -0.00000000000E+00  0.00000000000E+00  0.63677104937E+03  0.63677104937E+03  0.00000000000E+00 0. -1.
          2   -1    0    0  501    0  0.00000000000E+00 -0.00000000000E+00 -0.43359192075E+02  0.43359192075E+02  0.00000000000E+00 0.  1.
          5    1    1    2  502    0 -0.18576029101E+02  0.50133533858E+02  0.59493676263E+02  0.80125074662E+02  0.47000000000E+01 0. -1.
         -5    1    1    2    0  502 -0.97497915865E+02 -0.28669406778E+02  0.33745076773E+03  0.35245267644E+03  0.47000000000E+01 0. -1.
        -11    1    1    2    0    0  0.66228864688E+02  0.16550036413E+02  0.40299886736E+02  0.79273243242E+02  0.00000000000E+00 0.  1.
         11    1    1    2    0    0  0.49845080279E+02 -0.38014163493E+02  0.15616752656E+03  0.16827924710E+03  0.00000000000E+00 0. -1.
<mgrwt>
<rscale>  0 0.16632924E+03</rscale>
<asrwt>0</asrwt>
<pdfrwt beam="2">  1        2 0.66706454E-02 0.17192620E+03</pdfrwt>
<pdfrwt beam="1">  1       -2 0.97964770E-01 0.17192620E+03</pdfrwt>
<totfact> 0.95119233E+02</totfact>
</mgrwt>
</event>
<event>
 6    1  0.7270761E-006  0.2069060E+03  0.7546771E-02  0.1148079E+00
         -2   -1    0    0    0  501 -0.00000000000E+00  0.00000000000E+00  0.22565684196E+03  0.22565684196E+03  0.00000000000E+00 0.  1.
          2   -1    0    0  501    0  0.00000000000E+00 -0.00000000000E+00 -0.17360592630E+03  0.17360592630E+03  0.00000000000E+00 0. -1.
          5    1    1    2  502    0  0.76078442731E+02  0.43141094078E+02 -0.33375652970E+02  0.93728905135E+02  0.47000000000E+01 0. -1.
         -5    1    1    2    0  502  0.26371863130E+02  0.86036192582E+02  0.75190331997E+02  0.11736003419E+03  0.47000000000E+01 0. -1.
        -11    1    1    2    0    0 -0.11236274100E+03 -0.12362232613E+03  0.25660768289E+02  0.16901579841E+03  0.00000000000E+00 0.  1.
         11    1    1    2    0    0  0.99124351369E+01 -0.55549605260E+01 -0.15424531657E+02  0.19158030526E+02  0.00000000000E+00 0. -1.
<mgrwt>
<rscale>  0 0.20198014E+03</rscale>
<asrwt>0</asrwt>
<pdfrwt beam="2">  1        2 0.26708604E-01 0.20690595E+03</pdfrwt>
<pdfrwt beam="1">  1       -2 0.34716437E-01 0.20690595E+03</pdfrwt>
<totfact> 0.15438607E+03</totfact>
</mgrwt>
</event>
<event>
 6    1  0.7270761E-006  0.2927590E+03  0.7546771E-02  0.1088917E+00
          2   -1    0    0  501    0  0.00000000000E+00  0.00000000000E+00  0.83651048522E+03  0.83651048522E+03  0.00000000000E+00 0. -1.
         -2   -1    0    0    0  501 -0.00000000000E+00 -0.00000000000E+00 -0.25614693112E+02  0.25614693112E+02  0.00000000000E+00 0.  1.
          5    1    1    2  502    0  0.13857169886E+02 -0.11522625460E+03  0.32316318268E+03  0.34340303369E+03  0.47000000000E+01 0.  1.
         -5    1    1    2    0  502 -0.13822530351E+02  0.23308063762E+02  0.22671045763E+02  0.35642593868E+02  0.47000000000E+01 0.  1.
        -11    1    1    2    0    0 -0.44289377226E+02  0.44479490448E+02  0.17692706148E+03  0.18773161452E+03  0.00000000000E+00 0.  1.
         11    1    1    2    0    0  0.44254737690E+02  0.47438700388E+02  0.28813450219E+03  0.29534793626E+03  0.00000000000E+00 0. -1.
<mgrwt>
<rscale>  0 0.29275901E+03</rscale>
<asrwt>0</asrwt>
<pdfrwt beam="1">  1        2 0.12869390E+00 0.29275901E+03</pdfrwt>
<pdfrwt beam="2">  1       -2 0.39407227E-02 0.29275901E+03</pdfrwt>
<totfact> 0.94074400E+03</totfact>
</mgrwt>
</event>
<event>
 6    1  0.7270761E-006  0.1496299E+03  0.7546771E-02  0.1210213E+00
          1   -1    0    0  501    0  0.00000000000E+00  0.00000000000E+00  0.12104377678E+03  0.12104377678E+03  0.00000000000E+00 0. -1.
         -1   -1    0    0    0  501 -0.00000000000E+00 -0.00000000000E+00 -0.23617717111E+03  0.23617717111E+03  0.00000000000E+00 0.  1.
          5    1    1    2  502    0  0.56888802831E+02  0.67167865025E+02 -0.66823531045E+02  0.11061343626E+03  0.47000000000E+01 0.  1.
         -5    1    1    2    0  502  0.23121268966E+02 -0.48146618068E+02 -0.10011608036E+03  0.11356940370E+03  0.47000000000E+01 0.  1.
        -11    1    1    2    0    0 -0.62086035016E+02 -0.54604153688E+02  0.35848934326E+02  0.90119007076E+02  0.00000000000E+00 0.  1.
         11    1    1    2    0    0 -0.17924036781E+02  0.35582906731E+02  0.15957282749E+02  0.42919100860E+02  0.00000000000E+00 0. -1.
<mgrwt>
<rscale>  0 0.14234113E+03</rscale>
<asrwt>0</asrwt>
<pdfrwt beam="1">  1        1 0.18622120E-01 0.14962992E+03</pdfrwt>
<pdfrwt beam="2">  1       -1 0.36334949E-01 0.14962992E+03</pdfrwt>
<totfact> 0.20069312E+03</totfact>
</mgrwt>
</event>
<event>
 6    1  0.7270761E-006  0.1390745E+03  0.7546771E-02  0.1226022E+00
          1   -1    0    0  501    0  0.00000000000E+00  0.00000000000E+00  0.27339260400E+03  0.27339260400E+03  0.00000000000E+00 0. -1.
         -1   -1    0    0    0  501 -0.00000000000E+00 -0.00000000000E+00 -0.63584220478E+02  0.63584220478E+02  0.00000000000E+00 0.  1.
          5    1    1    2  502    0 -0.52289635436E+02 -0.20203116669E+02  0.85027487480E+02  0.10195163326E+03  0.47000000000E+01 0. -1.
         -5    1    1    2    0  502 -0.45632250206E+01  0.42168501160E+02 -0.25073685088E+02  0.49495304793E+02  0.47000000000E+01 0. -1.
        -11    1    1    2    0    0 -0.18560913270E+02  0.82283689378E+00  0.29194173996E+01  0.18807114609E+02  0.00000000000E+00 0.  1.
         11    1    1    2    0    0  0.75413773726E+02 -0.22788221385E+02  0.14693516373E+03  0.16672277182E+03  0.00000000000E+00 0. -1.
<mgrwt>
<rscale>  0 0.13097079E+03</rscale>
<asrwt>0</asrwt>
<pdfrwt beam="1">  1        1 0.42060400E-01 0.13907450E+03</pdfrwt>
<pdfrwt beam="2">  1       -1 0.97821879E-02 0.13907450E+03</pdfrwt>
<totfact> 0.59468803E+03</totfact>
</mgrwt>
</event>
<event>
 6    1  0.7270761E-006  0.1642393E+03  0.7546771E-02  0.1191061E+00
         -2   -1    0    0    0  501 -0.00000000000E+00  0.00000000000E+00  0.17353427385E+03  0.17353427385E+03  0.00000000000E+00 0.  1.
          2   -1    0    0  501    0  0.00000000000E+00 -0.00000000000E+00 -0.13988893481E+03  0.13988893481E+03  0.00000000000E+00 0. -1.
          5    1    1    2  502    0 -0.75583118881E+00 -0.54167062380E+02 -0.29241372055E+02  0.61739693612E+02  0.47000000000E+01 0. -1.
         -5    1    1    2    0  502 -0.71506964493E+02 -0.24117469132E+02  0.80202052544E+02  0.11022412404E+03  0.47000000000E+01 0. -1.
        -11    1    1    2    0    0  0.91930868593E+02  0.76963026199E+02 -0.20047263578E+02  0.12155856522E+03  0.00000000000E+00 0.  1.
         11    1    1    2    0    0 -0.19668072911E+02  0.13215053136E+01  0.27319221263E+01  0.19900825782E+02  0.00000000000E+00 0. -1.
<mgrwt>
<rscale>  0 0.15792334E+03</rscale>
<asrwt>0</asrwt>
<pdfrwt beam="2">  1        2 0.21521375E-01 0.16423935E+03</pdfrwt>
<pdfrwt beam="1">  1       -2 0.26697580E-01 0.16423935E+03</pdfrwt>
<totfact> 0.31371413E+03</totfact>
</mgrwt>
</event>
<event>
 6    1  0.7270761E-006  0.1284820E+03  0.7546771E-02  0.1244480E+00
         -1   -1    0    0    0  501 -0.00000000000E+00  0.00000000000E+00  0.44826190561E+02  0.44826190561E+02  0.00000000000E+00 0.  1.
          1   -1    0    0  501    0  0.00000000000E+00 -0.00000000000E+00 -0.28411484918E+03  0.28411484918E+03  0.00000000000E+00 0. -1.
          5    1    1    2  502    0 -0.46524528961E+02  0.39484972971E+02 -0.25544273486E+02  0.66318887155E+02  0.47000000000E+01 0.  1.
         -5    1    1    2    0  502  0.18603372107E+02 -0.29399757612E+02 -0.13402531095E+03  0.13854712258E+03  0.47000000000E+01 0.  1.
        -11    1    1    2    0    0  0.83428097701E+01  0.21338717586E+02  0.11494794644E+02  0.25633447817E+02  0.00000000000E+00 0.  1.
         11    1    1    2    0    0  0.19578347084E+02 -0.31423932946E+02 -0.91213868829E+02  0.98441582185E+02  0.00000000000E+00 0. -1.
<mgrwt>
<rscale>  0 0.11916527E+03</rscale>
<asrwt>0</asrwt>
<pdfrwt beam="2">  1        1 0.43709976E-01 0.12848202E+03</pdfrwt>
<pdfrwt beam="1">  1       -1 0.68963371E-02 0.12848202E+03</pdfrwt>
<totfact> 0.95620802E+03</totfact>
</mgrwt>
</event>
<event>
 6    1  0.7270761E-006  0.1138809E+03  0.7546771E-02  0.1262275E+00
         -1   -1    0    0    0  501 -0.00000000000E+00  0.00000000000E+00  0.79481697077E+02  0.79481697077E+02  0.00000000000E+00 0.  1.
          1   -1    0    0  501    0  0.00000000000E+00 -0.00000000000E+00 -0.14038988495E+03  0.14038988495E+03  0.00000000000E+00 0. -1.
          5    1    1    2  502    0 -0.47005217949E+02 -0.28051133705E+02 -0.18442387751E+01  0.54971336470E+02  0.47000000000E+01 0. -1.
         -5    1    1    2    0  502  0.44742896582E+02  0.36411971095E+02 -0.18105830383E+02  0.60643792159E+02  0.47000000000E+01 0.  1.
        -11    1    1    2    0    0  0.27385082584E+02 -0.14174884800E+02  0.20891302137E+02  0.37246699346E+02  0.00000000000E+00 0.  1.
         11    1    1    2    0    0 -0.25122761217E+02  0.58140474097E+01 -0.61849420849E+02  0.67009754050E+02  0.00000000000E+00 0. -1.
<mgrwt>
<rscale>  0 0.10908459E+03</rscale>
<asrwt>0</asrwt>
<pdfrwt beam="2">  1        1 0.21598444E-01 0.11388087E+03</pdfrwt>
<pdfrwt beam="1">  1       -1 0.12227953E-01 0.11388087E+03</pdfrwt>
<totfact> 0.95375613E+03</totfact>
</mgrwt>
</event>
<event>
 6    1  0.7270761E-006  0.1455025E+03  0.7546771E-02  0.1216215E+00
          1   -1    0    0  501    0  0.00000000000E+00  0.00000000000E+00  0.25982759212E+03  0.25982759212E+03  0.00000000000E+00 0. -1.
         -1   -1    0    0    0  501 -0.00000000000E+00 -0.00000000000E+00 -0.66485032077E+02  0.66485032077E+02  0.00000000000E+00 0.  1.
          5    1    1    2  502    0 -0.16306397687E+02 -0.36153349692E+02  0.62548385066E+02  0.74211547443E+02  0.47000000000E+01 0.  1.
         -5    1    1    2    0  502 -0.36415090282E+02  0.88763701388E+02  0.41358261853E+02  0.10458321714E+03  0.47000000000E+01 0.  1.
        -11    1    1    2    0    0  0.17100928817E+02 -0.21312371298E+02  0.95849986141E+02  0.99668845584E+02  0.00000000000E+00 0. -1.
         11    1    1    2    0    0  0.35620559152E+02 -0.31297980398E+02 -0.64140730129E+01  0.47849014033E+02  0.00000000000E+00 0.  1.
<mgrwt>
<rscale>  0 0.13787672E+03</rscale>
<asrwt>0</asrwt>
<pdfrwt beam="1">  1        1 0.39973475E-01 0.14550250E+03</pdfrwt>
<pdfrwt beam="2">  1       -1 0.10228467E-01 0.14550250E+03</pdfrwt>
<totfact> 0.59323298E+03</totfact>
</mgrwt>
</event>
<event>
 6    1  0.7270761E-006  0.1878714E+03  0.7546771E-02  0.1164803E+00
         -2   -1    0    0    0  501 -0.00000000000E+00  0.00000000000E+00  0.35823140361E+02  0.35823140361E+02  0.00000000000E+00 0.  1.
          2   -1    0    0  501    0  0.00000000000E+00 -0.00000000000E+00 -0.92625094928E+03  0.92625094928E+03  0.00000000000E+00 0. -1.
          5    1    1    2  502    0  0.55490971586E+02 -0.69630507026E+02 -0.17230458921E+03  0.19400674446E+03  0.47000000000E+01 0. -1.
         -5    1    1    2    0  502  0.83657394037E+02  0.52057134719E+02 -0.20232013959E+03  0.22508672492E+03  0.47000000000E+01 0. -1.
        -11    1    1    2    0    0 -0.67802109039E+02  0.55902385442E+02 -0.29407619321E+03  0.30692508874E+03  0.00000000000E+00 0. -1.
         11    1    1    2    0    0 -0.71346256584E+02 -0.38329013136E+02 -0.22172688691E+03  0.23605553151E+03  0.00000000000E+00 0.  1.
<mgrwt>
<rscale>  0 0.18313553E+03</rscale>
<asrwt>0</asrwt>
<pdfrwt beam="2">  1        2 0.14250015E+00 0.18787136E+03</pdfrwt>
<pdfrwt beam="1">  1       -2 0.55112523E-02 0.18787136E+03</pdfrwt>
<totfact> 0.48620280E+03</totfact>
</mgrwt>
</event>
<event>
 6    1  0.7270761E-006  0.1722028E+03  0.7546771E-02  0.1182005E+00
         -2   -1    0    0    0  501 -0.00000000000E+00  0.00000000000E+00  0.62873533390E+03  0.62873533390E+03  0.00000000000E+00 0.  1.
          2   -1    0    0  501    0  0.00000000000E+00 -0.00000000000E+00 -0.44779394467E+02  0.44779394467E+02  0.00000000000E+00 0. -1.
          5    1    1    2  502    0 -0.66500586782E+02 -0.23176167360E+02  0.99907080967E+02  0.12232325046E+03  0.47000000000E+01 0. -1.
         -5    1    1    2    0  502 -0.37532308209E+02  0.79798049879E+02  0.30883010954E+03  0.32120792251E+03  0.47000000000E+01 0. -1.
        -11    1    1    2    0    0  0.76440053193E+02 -0.51656854633E+02  0.56910730409E+02  0.10839900183E+03  0.00000000000E+00 0. -1.
         11    1    1    2    0    0  0.27592841798E+02 -0.49650278856E+01  0.11830801851E+03  0.12158455356E+03  0.00000000000E+00 0.  1.
<mgrwt>
<rscale>  0 0.16607409E+03</rscale>
<asrwt>0</asrwt>
<pdfrwt beam="2">  1        2 0.68891380E-02 0.17220282E+03</pdfrwt>
<pdfrwt beam="1">  1       -2 0.96728507E-01 0.17220282E+03</pdfrwt>
<totfact> 0.93971594E+02</totfact>
</mgrwt>
</event>
<event>
 6    1  0.7270761E-006  0.1294555E+03  0.7546771E-02  0.1242286E+00
          3   -1    0    0  501    0  0.00000000000E+00  0.00000000000E+00  0.72849423180E+02  0.72849423180E+02  0.00000000000E+00 0. -1.
         -3   -1    0    0    0  501 -0.00000000000E+00 -0.00000000000E+00 -0.30277457806E+03  0.30277457806E+03  0.00000000000E+00 0.  1.
          5    1    1    2  502    0  0.15689491089E+02 -0.79283983478E+02 -0.16397975740E+03  0.18287580759E+03  0.47000000000E+01 0.  1.
         -5    1    1    2    0  502 -0.39607844588E+01  0.47715796707E+02 -0.81215005675E+02  0.94395191698E+02  0.47000000000E+01 0.  1.
        -11    1    1    2    0    0  0.39213030961E+02  0.45344783064E+01  0.53382801741E+01  0.39833660714E+02  0.00000000000E+00 0.  1.
         11    1    1    2    0    0 -0.50941737592E+02  0.27033708464E+02  0.99313280191E+01  0.58519341234E+02  0.00000000000E+00 0. -1.
<mgrwt>
<rscale>  0 0.12049328E+03</rscale>
<asrwt>0</asrwt>
<pdfrwt beam="1">  1        3 0.11207603E-01 0.12945553E+03</pdfrwt>
<pdfrwt beam="2">  1       -3 0.46580705E-01 0.12945553E+03</pdfrwt>
<totfact> 0.64494159E+02</totfact>
</mgrwt>
</event>
<event>
 6    1  0.7270761E-006  0.1797061E+03  0.7546771E-02  0.1173501E+00
          1   -1    0    0  501    0  0.00000000000E+00  0.00000000000E+00  0.32473404397E+03  0.32473404397E+03  0.00000000000E+00 0. -1.
         -1   -1    0    0    0  501 -0.00000000000E+00 -0.00000000000E+00 -0.90548650117E+02  0.90548650117E+02  0.00000000000E+00 0.  1.
          5    1    1    2  502    0 -0.76489820743E+02  0.16021930263E+01 -0.10250682392E+02  0.77333215304E+02  0.47000000000E+01 0.  1.
         -5    1    1    2    0  502 -0.38398060790E+02 -0.60520190845E+02  0.10113876252E+03  0.12404936056E+03  0.47000000000E+01 0.  1.
        -11    1    1    2    0    0  0.52228264871E+02  0.36685763329E+02  0.95458554777E+01  0.64534953624E+02  0.00000000000E+00 0.  1.
         11    1    1    2    0    0  0.62659616662E+02  0.22232234489E+02  0.13375145825E+03  0.14936516459E+03  0.00000000000E+00 0. -1.
<mgrwt>
<rscale>  0 0.17423624E+03</rscale>
<asrwt>0</asrwt>
<pdfrwt beam="1">  1        1 0.49959083E-01 0.17970615E+03</pdfrwt>
<pdfrwt beam="2">  1       -1 0.13930562E-01 0.17970615E+03</pdfrwt>
<totfact> 0.28140889E+03</totfact>
</mgrwt>
</event>
<event>
 6    1  0.7270761E-006  0.1349844E+03  0.7546771E-02  0.1232627E+00
         -3   -1    0    0    0  501 -0.00000000000E+00  0.00000000000E+00  0.35499372242E+03  0.35499372242E+03  0.00000000000E+00 0.  1.
          3   -1    0    0  501    0  0.00000000000E+00 -0.00000000000E+00 -0.42950037123E+02  0.42950037123E+02  0.00000000000E+00 0. -1.
          5    1    1    2  502    0  0.36857394899E+02 -0.80225009214E+02  0.17051316126E+03  0.19207120509E+03  0.47000000000E+01 0.  1.
         -5    1    1    2    0  502 -0.10723275047E+01  0.43964856719E+02  0.52890710089E+02  0.68946179925E+02  0.47000000000E+01 0.  1.
        -11    1    1    2    0    0 -0.48087357191E+02 -0.47359477400E+00  0.85454522923E+02  0.98056584182E+02  0.00000000000E+00 0.  1.
         11    1    1    2    0    0  0.12302289796E+02  0.36733747269E+02  0.31852910287E+01  0.38869790347E+02  0.00000000000E+00 0. -1.
<mgrwt>
<rscale>  0 0.12657566E+03</rscale>
<asrwt>0</asrwt>
<pdfrwt beam="2">  1        3 0.66076983E-02 0.13498439E+03</pdfrwt>
<pdfrwt beam="1">  1       -3 0.54614417E-01 0.13498439E+03</pdfrwt>
<totfact> 0.11204233E+03</totfact>
</mgrwt>
</event>
<event>
 6    1  0.7270761E-006  0.1495834E+03  0.7546771E-02  0.1210616E+00
          2   -1    0    0  501    0  0.00000000000E+00  0.00000000000E+00  0.37140267750E+03  0.37140267750E+03  0.00000000000E+00 0. -1.
         -2   -1    0    0    0  501 -0.00000000000E+00 -0.00000000000E+00 -0.52992237964E+02  0.52992237964E+02  0.00000000000E+00 0.  1.
          5    1    1    2  502    0  0.11273393129E+02 -0.30144036181E+02  0.74243953605E+02  0.81055579430E+02  0.47000000000E+01 0.  1.
         -5    1    1    2    0  502  0.44611233740E+02  0.90381369816E+02  0.46124208794E+02  0.11094362002E+03  0.47000000000E+01 0.  1.
        -11    1    1    2    0    0 -0.52030176542E+02 -0.39938747067E+02  0.20108440516E+03  0.21151165639E+03  0.00000000000E+00 0. -1.
         11    1    1    2    0    0 -0.38544503275E+01 -0.20298586568E+02 -0.30421280194E+01  0.20884059635E+02  0.00000000000E+00 0.  1.
<mgrwt>
<rscale>  0 0.14203576E+03</rscale>
<asrwt>0</asrwt>
<pdfrwt beam="1">  1        2 0.57138872E-01 0.14958342E+03</pdfrwt>
<pdfrwt beam="2">  1       -2 0.81526522E-02 0.14958342E+03</pdfrwt>
<totfact> 0.76244578E+03</totfact>
</mgrwt>
</event>
<event>
 6    1  0.7270761E-006  0.3842330E+03  0.7546771E-02  0.1097770E+00
         -1   -1    0    0    0  501 -0.00000000000E+00  0.00000000000E+00  0.30184841726E+03  0.30184841726E+03  0.00000000000E+00 0.  1.
          1   -1    0    0  501    0  0.00000000000E+00 -0.00000000000E+00 -0.20956397720E+03  0.20956397720E+03  0.00000000000E+00 0. -1.
          5    1    1    2  502    0  0.18307277749E+03 -0.13131558226E+02  0.75390809073E+02  0.19847907641E+03  0.47000000000E+01 0. -1.
         -5    1    1    2    0  502 -0.18991220282E+03  0.60786546792E+02  0.49027779524E+02  0.20539586709E+03  0.47000000000E+01 0.  1.
        -11    1    1    2    0    0  0.80516686696E+01 -0.74078512549E+02 -0.31975436969E+02  0.81085658160E+02  0.00000000000E+00 0. -1.
         11    1    1    2    0    0 -0.12122433359E+01  0.26423523982E+02 -0.15871156954E+00  0.26451792811E+02  0.00000000000E+00 0.  1.
<mgrwt>
<rscale>  0 0.27622202E+03</rscale>
<asrwt>0</asrwt>
<pdfrwt beam="2">  1        1 0.32240612E-01 0.38423298E+03</pdfrwt>
<pdfrwt beam="1">  1       -1 0.46438218E-01 0.38423298E+03</pdfrwt>
<totfact> 0.65234716E+02</totfact>
</mgrwt>
</event>
<event>
 6    1  0.7270761E-006  0.1267159E+03  0.7546771E-02  0.1248698E+00
         -2   -1    0    0    0  501 -0.00000000000E+00  0.00000000000E+00  0.72226066583E+02  0.72226066583E+02  0.00000000000E+00 0.  1.
          2   -1    0    0  501    0  0.00000000000E+00 -0.00000000000E+00 -0.19129903971E+03  0.19129903971E+03  0.00000000000E+00 0. -1.
          5    1    1    2  502    0  0.32711001430E+01 -0.49230951847E+02  0.34440957830E+02  0.60354422308E+02  0.47000000000E+01 0.  1.
         -5    1    1    2    0  502 -0.19794764873E+02  0.36575441212E+02 -0.53282294000E+02  0.67754619548E+02  0.47000000000E+01 0.  1.
        -11    1    1    2    0    0  0.29138134611E+02 -0.32638624861E+02 -0.53672809184E+02  0.69246524585E+02  0.00000000000E+00 0. -1.
         11    1    1    2    0    0 -0.12614469881E+02  0.45294135496E+02 -0.46558827775E+02  0.66169539854E+02  0.00000000000E+00 0.  1.
<mgrwt>
<rscale>  0 0.11666757E+03</rscale>
<asrwt>0</asrwt>
<pdfrwt beam="2">  1        2 0.29430621E-01 0.12671594E+03</pdfrwt>
<pdfrwt beam="1">  1       -2 0.11111703E-01 0.12671594E+03</pdfrwt>
<totfact> 0.94186079E+03</totfact>
</mgrwt>
</event>
<event>
 6    1  0.7270761E-006  0.1272127E+03  0.7546771E-02  0.1245975E+00
          1   -1    0    0  501    0  0.00000000000E+00  0.00000000000E+00  0.26814733155E+03  0.26814733155E+03  0.00000000000E+00 0. -1.
         -1   -1    0    0    0  501 -0.00000000000E+00 -0.00000000000E+00 -0.46544043718E+02  0.46544043718E+02  0.00000000000E+00 0.  1.
          5    1    1    2  502    0  0.20780722104E+01  0.67048171654E+02  0.38448163703E+02  0.77460486691E+02  0.47000000000E+01 0. -1.
         -5    1    1    2    0  502  0.16758712405E+02 -0.52806945414E+02  0.72285404003E+02  0.91195929500E+02  0.47000000000E+01 0. -1.
        -11    1    1    2    0    0 -0.64980267686E+01  0.32011645579E+02  0.86200740521E+02  0.92182088667E+02  0.00000000000E+00 0. -1.
         11    1    1    2    0    0 -0.12338757847E+02 -0.46252871818E+02  0.24668979604E+02  0.53852870409E+02  0.00000000000E+00 0.  1.
<mgrwt>
<rscale>  0 0.11827242E+03</rscale>
<asrwt>0</asrwt>
<pdfrwt beam="1">  1        1 0.41253435E-01 0.12721267E+03</pdfrwt>
<pdfrwt beam="2">  1       -1 0.71606223E-02 0.12721267E+03</pdfrwt>
<totfact> 0.96993641E+03</totfact>
</mgrwt>
</event>
<event>
 6    1  0.7270761E-006  0.3216204E+03  0.7546771E-02  0.1076307E+00
         -2   -1    0    0    0  501 -0.00000000000E+00  0.00000000000E+00  0.10837604099E+03  0.10837604099E+03  0.00000000000E+00 0.  1.
          2   -1    0    0  501    0  0.00000000000E+00 -0.00000000000E+00 -0.13891389744E+04  0.13891389744E+04  0.00000000000E+00 0. -1.
          5    1    1    2  502    0 -0.19334144104E+03  0.82118653134E+02 -0.15837966131E+03  0.26311707115E+03  0.47000000000E+01 0. -1.
         -5    1    1    2    0  502 -0.10052216491E+03 -0.43927567069E+02 -0.54588936085E+02  0.12262291274E+03  0.47000000000E+01 0. -1.
        -11    1    1    2    0    0  0.73973617482E+02 -0.20416717060E+02 -0.43280502097E+03  0.43955559898E+03  0.00000000000E+00 0. -1.
         11    1    1    2    0    0  0.21988998847E+03 -0.17774369006E+02 -0.63498931506E+03  0.67221943252E+03  0.00000000000E+00 0.  1.
<mgrwt>
<rscale>  0 0.31857511E+03</rscale>
<asrwt>0</asrwt>
<pdfrwt beam="2">  1        2 0.21371367E+00 0.32162045E+03</pdfrwt>
<pdfrwt beam="1">  1       -2 0.16673238E-01 0.32162045E+03</pdfrwt>
<totfact> 0.44868716E+02</totfact>
</mgrwt>
</event>
<event>
 6    1  0.7270761E-006  0.3420979E+03  0.7546771E-02  0.1065906E+00
         -1   -1    0    0    0  501 -0.00000000000E+00  0.00000000000E+00  0.23059811459E+03  0.23059811459E+03  0.00000000000E+00 0.  1.
          1   -1    0    0  501    0  0.00000000000E+00 -0.00000000000E+00 -0.12687766453E+03  0.12687766453E+03  0.00000000000E+00 0. -1.
          5    1    1    2  502    0  0.15178509042E+02  0.24195000961E+02  0.50382517414E+02  0.58105707716E+02  0.47000000000E+01 0. -1.
         -5    1    1    2    0  502 -0.13669084225E+03  0.16409706869E+02  0.46276125141E+02  0.14531770227E+03  0.47000000000E+01 0. -1.
        -11    1    1    2    0    0  0.87397890784E+02 -0.87084816167E+01 -0.31682750845E+02  0.93370368247E+02  0.00000000000E+00 0.  1.
         11    1    1    2    0    0  0.34114442428E+02 -0.31896226214E+02  0.38744558356E+02  0.60682000882E+02  0.00000000000E+00 0. -1.
<mgrwt>
<rscale>  0 0.34209794E+03</rscale>
<asrwt>0</asrwt>
<pdfrwt beam="2">  1        1 0.19519641E-01 0.34209794E+03</pdfrwt>
<pdfrwt beam="1">  1       -1 0.35476633E-01 0.34209794E+03</pdfrwt>
<totfact> 0.20193004E+03</totfact>
</mgrwt>
</event>
<event>
 6    1  0.7270761E-006  0.1640600E+03  0.7546771E-02  0.1187893E+00
          1   -1    0    0  501    0  0.00000000000E+00  0.00000000000E+00  0.41144239379E+03  0.41144239379E+03  0.00000000000E+00 0. -1.
         -1   -1    0    0    0  501 -0.00000000000E+00 -0.00000000000E+00 -0.78066596364E+02  0.78066596364E+02  0.00000000000E+00 0.  1.
          5    1    1    2  502    0 -0.72256645255E+00 -0.33157985221E+02 -0.29856961480E+02  0.44872065196E+02  0.47000000000E+01 0. -1.
         -5    1    1    2    0  502  0.66405640192E+02 -0.68938819542E+02  0.85313837467E+02  0.12830748518E+03  0.47000000000E+01 0.  1.
        -11    1    1    2    0    0 -0.64584943555E+01 -0.11171745963E+02  0.31456464066E+01  0.13282136444E+02  0.00000000000E+00 0.  1.
         11    1    1    2    0    0 -0.59224579384E+02  0.11326855073E+03  0.27477327503E+03  0.30304730333E+03  0.00000000000E+00 0. -1.
<mgrwt>
<rscale>  0 0.16071424E+03</rscale>
<asrwt>0</asrwt>
<pdfrwt beam="1">  1        1 0.63298829E-01 0.16406002E+03</pdfrwt>
<pdfrwt beam="2">  1       -1 0.12010246E-01 0.16406002E+03</pdfrwt>
<totfact> 0.26228555E+03</totfact>
</mgrwt>
</event>
<event>
 6    1  0.7270761E-006  0.1623691E+03  0.7546771E-02  0.1193293E+00
         -1   -1    0    0    0  501 -0.00000000000E+00  0.00000000000E+00  0.83988430335E+03  0.83988430335E+03  0.00000000000E+00 0.  1.
          1   -1    0    0  501    0  0.00000000000E+00 -0.00000000000E+00 -0.28859275628E+02  0.28859275628E+02  0.00000000000E+00 0. -1.
          5    1    1    2  502    0 -0.81420656445E+02 -0.73083761157E+02  0.28978289941E+03  0.30978505166E+03  0.47000000000E+01 0.  1.
         -5    1    1    2    0  502  0.37313234960E+02 -0.20688986450E+02  0.25833047558E+03  0.26187217545E+03  0.47000000000E+01 0.  1.
        -11    1    1    2    0    0  0.41788083270E+02  0.73327493417E+02  0.26331057056E+03  0.27650609715E+03  0.00000000000E+00 0.  1.
         11    1    1    2    0    0  0.23193382156E+01  0.20445254190E+02 -0.39891782599E+00  0.20580254713E+02  0.00000000000E+00 0. -1.
<mgrwt>
<rscale>  0 0.15599614E+03</rscale>
<asrwt>0</asrwt>
<pdfrwt beam="2">  1        1 0.44398892E-02 0.16236907E+03</pdfrwt>
<pdfrwt beam="1">  1       -1 0.12921295E+00 0.16236907E+03</pdfrwt>
<totfact> 0.10715958E+03</totfact>
</mgrwt>
</event>
<event>
 6    1  0.7270761E-006  0.2228250E+03  0.7546771E-02  0.1134856E+00
          2   -1    0    0  501    0  0.00000000000E+00  0.00000000000E+00  0.99255398470E+03  0.99255398470E+03  0.00000000000E+00 0. -1.
         -2   -1    0    0    0  501 -0.00000000000E+00 -0.00000000000E+00 -0.50478650016E+02  0.50478650016E+02  0.00000000000E+00 0.  1.
          5    1    1    2  502    0  0.32594591970E+02  0.13321863898E+03  0.12586858879E+03  0.18621118345E+03  0.47000000000E+01 0.  1.
         -5    1    1    2    0  502  0.32835804065E+02  0.39243960637E+02  0.21478741513E+03  0.22084836919E+03  0.47000000000E+01 0.  1.
        -11    1    1    2    0    0 -0.71574791043E+02 -0.81945733364E+02  0.24294107135E+03  0.26619244557E+03  0.00000000000E+00 0.  1.
         11    1    1    2    0    0  0.61443950083E+01 -0.90516866251E+02  0.35847825942E+03  0.36978063651E+03  0.00000000000E+00 0. -1.
<mgrwt>
<rscale>  0 0.21869972E+03</rscale>
<asrwt>0</asrwt>
<pdfrwt beam="1">  1        2 0.15270060E+00 0.22282497E+03</pdfrwt>
<pdfrwt beam="2">  1       -2 0.77659469E-02 0.22282497E+03</pdfrwt>
<totfact> 0.26186477E+03</totfact>
</mgrwt>
</event>
<event>
 6    1  0.7270761E-006  0.1401964E+03  0.7546771E-02  0.1229696E+00
          1   -1    0    0  501    0  0.00000000000E+00  0.00000000000E+00  0.26657885586E+02  0.26657885586E+02  0.00000000000E+00 0. -1.
         -1   -1    0    0    0  501 -0.00000000000E+00 -0.00000000000E+00 -0.57335517831E+03  0.57335517831E+03  0.00000000000E+00 0.  1.
          5    1    1    2  502    0 -0.19686807913E+02 -0.45170420386E+01 -0.30420712658E+03  0.30491316786E+03  0.47000000000E+01 0.  1.
         -5    1    1    2    0  502  0.40193819474E+02 -0.55550761632E+02 -0.88393515086E+02  0.11196844980E+03  0.47000000000E+01 0.  1.
        -11    1    1    2    0    0 -0.43239979741E+01  0.43675359298E+02 -0.15396290723E+03  0.16009625471E+03  0.00000000000E+00 0.  1.
         11    1    1    2    0    0 -0.16183013587E+02  0.16392444372E+02 -0.13374383000E+00  0.23035191527E+02  0.00000000000E+00 0. -1.
<mgrwt>
<rscale>  0 0.12850140E+03</rscale>
<asrwt>0</asrwt>
<pdfrwt beam="1">  1        1 0.41012133E-02 0.14019636E+03</pdfrwt>
<pdfrwt beam="2">  1       -1 0.88208485E-01 0.14019636E+03</pdfrwt>
<totfact> 0.28156979E+03</totfact>
</mgrwt>
</event>
<event>
 6    1  0.7270761E-006  0.2129857E+03  0.7546771E-02  0.1142480E+00
          1   -1    0    0  501    0  0.00000000000E+00  0.00000000000E+00  0.84657209631E+03  0.84657209631E+03  0.00000000000E+00 0. -1.
         -1   -1    0    0    0  501 -0.00000000000E+00 -0.00000000000E+00 -0.51391644484E+02  0.51391644484E+02  0.00000000000E+00 0.  1.
          5    1    1    2  502    0 -0.64551638331E+02 -0.41404432092E+02  0.15933585870E+03  0.17689332060E+03  0.47000000000E+01 0. -1.
         -5    1    1    2    0  502 -0.10285705123E+03  0.82805974755E+02  0.16996401655E+03  0.21528181382E+03  0.47000000000E+01 0. -1.
        -11    1    1    2    0    0  0.16683586306E+03 -0.19367350336E+02  0.35484780357E+03  0.39258917861E+03  0.00000000000E+00 0.  1.
         11    1    1    2    0    0  0.57282649549E+00 -0.22034192327E+02  0.11103277301E+03  0.11319942775E+03  0.00000000000E+00 0. -1.
<mgrwt>
<rscale>  0 0.20885037E+03</rscale>
<asrwt>0</asrwt>
<pdfrwt beam="1">  1        1 0.13024185E+00 0.21298575E+03</pdfrwt>
<pdfrwt beam="2">  1       -1 0.79064075E-02 0.21298575E+03</pdfrwt>
<totfact> 0.18430481E+03</totfact>
</mgrwt>
</event>
<event>
 6    1  0.7270761E-006  0.3725221E+03  0.7546771E-02  0.1053733E+00
          3   -1    0    0  501    0  0.00000000000E+00  0.00000000000E+00  0.12879205246E+03  0.12879205246E+03  0.00000000000E+00 0. -1.
         -3   -1    0    0    0  501 -0.00000000000E+00 -0.00000000000E+00 -0.26937365951E+03  0.26937365951E+03  0.00000000000E+00 0.  1.
          5    1    1    2  502    0  0.15169305161E+02  0.79623851788E+01  0.10086070426E+02  0.20428563665E+02  0.47000000000E+01 0.  1.
         -5    1    1    2    0  502 -0.12176518877E+02 -0.12966641420E+03 -0.18814286407E+03  0.22886999341E+03  0.47000000000E+01 0.  1.
        -11    1    1    2    0    0  0.33046561249E+02  0.53046432018E+02  0.34229426043E+02  0.71257650588E+02  0.00000000000E+00 0.  1.
         11    1    1    2    0    0 -0.36039347533E+02  0.68657597003E+02  0.32457605453E+01  0.77609504304E+02  0.00000000000E+00 0. -1.
<mgrwt>
<rscale>  0 0.37252214E+03</rscale>
<asrwt>0</asrwt>
<pdfrwt beam="1">  1        3 0.19814162E-01 0.37252214E+03</pdfrwt>
<pdfrwt beam="2">  1       -3 0.41442101E-01 0.37252214E+03</pdfrwt>
<totfact> 0.34365658E+02</totfact>
</mgrwt>
</event>
<event>
 6    1  0.7270761E-006  0.1386343E+03  0.7546771E-02  0.1227743E+00
          1   -1    0    0  501    0  0.00000000000E+00  0.00000000000E+00  0.12174055467E+03  0.12174055467E+03  0.00000000000E+00 0. -1.
         -1   -1    0    0    0  501 -0.00000000000E+00 -0.00000000000E+00 -0.13434677660E+03  0.13434677660E+03  0.00000000000E+00 0.  1.
          5    1    1    2  502    0 -0.79708760067E+02  0.32385553029E+02 -0.12744640047E+02  0.87102389900E+02  0.47000000000E+01 0. -1.
         -5    1    1    2    0  502  0.21001398419E+02 -0.44552736429E+02 -0.30484924796E+02  0.58115623533E+02  0.47000000000E+01 0. -1.
        -11    1    1    2    0    0  0.72557918644E+02  0.31648500041E+02  0.10954629860E+02  0.79914222940E+02  0.00000000000E+00 0. -1.
         11    1    1    2    0    0 -0.13850556996E+02 -0.19481316641E+02  0.19668713046E+02  0.30955094896E+02  0.00000000000E+00 0.  1.
<mgrwt>
<rscale>  0 0.12980688E+03</rscale>
<asrwt>0</asrwt>
<pdfrwt beam="1">  1        1 0.18729316E-01 0.13863433E+03</pdfrwt>
<pdfrwt beam="2">  1       -1 0.20668735E-01 0.13863433E+03</pdfrwt>
<totfact> 0.50789576E+03</totfact>
</mgrwt>
</event>
<event>
 6    1  0.7270761E-006  0.5253383E+03  0.7546771E-02  0.1007369E+00
         -2   -1    0    0    0  501 -0.00000000000E+00  0.00000000000E+00  0.52557267263E+02  0.52557267263E+02  0.00000000000E+00 0.  1.
          2   -1    0    0  501    0  0.00000000000E+00 -0.00000000000E+00 -0.13127600622E+04  0.13127600622E+04  0.00000000000E+00 0. -1.
          5    1    1    2  502    0 -0.22659907331E+03  0.82080939276E+02 -0.47526974717E+03  0.53290509774E+03  0.47000000000E+01 0. -1.
         -5    1    1    2    0  502  0.12162987891E+01 -0.19976013276E+02 -0.77011230624E+02  0.79707842345E+02  0.47000000000E+01 0. -1.
        -11    1    1    2    0    0  0.21804678378E+03 -0.27031021696E+02 -0.61874804725E+03  0.65660050413E+03  0.00000000000E+00 0.  1.
         11    1    1    2    0    0  0.73359907439E+01 -0.35073904304E+02 -0.89173769913E+02  0.96103885269E+02  0.00000000000E+00 0. -1.
<mgrwt>
<rscale>  0 0.52533830E+03</rscale>
<asrwt>0</asrwt>
<pdfrwt beam="2">  1        2 0.20196307E+00 0.52533830E+03</pdfrwt>
<pdfrwt beam="1">  1       -2 0.80857340E-02 0.52533830E+03</pdfrwt>
<totfact> 0.15946449E+03</totfact>
</mgrwt>
</event>
<event>
 6    1  0.7270761E-006  0.1262959E+03  0.7546771E-02  0.1245621E+00
         -4   -1    0    0    0  501 -0.00000000000E+00  0.00000000000E+00  0.11503636189E+03  0.11503636189E+03  0.00000000000E+00 0.  1.
          4   -1    0    0  501    0  0.00000000000E+00 -0.00000000000E+00 -0.12896258432E+03  0.12896258432E+03  0.00000000000E+00 0. -1.
          5    1    1    2  502    0 -0.25434678037E+02 -0.36819415347E+02  0.52314626154E+02  0.69003639781E+02  0.47000000000E+01 0. -1.
         -5    1    1    2    0  502  0.40131060441E+02  0.47222050977E+02 -0.12551604724E+02  0.63403918583E+02  0.47000000000E+01 0. -1.
        -11    1    1    2    0    0  0.32731693176E+01  0.41735439156E+02 -0.16107012220E+02  0.44855282427E+02  0.00000000000E+00 0.  1.
         11    1    1    2    0    0 -0.17969551721E+02 -0.52138074786E+02 -0.37582231635E+02  0.66736105416E+02  0.00000000000E+00 0. -1.
<mgrwt>
<rscale>  0 0.11848315E+03</rscale>
<asrwt>0</asrwt>
<pdfrwt beam="2">  1        4 0.19840398E-01 0.12629594E+03</pdfrwt>
<pdfrwt beam="1">  1       -4 0.17697902E-01 0.12629594E+03</pdfrwt>
<totfact> 0.10456929E+03</totfact>
</mgrwt>
</event>
<event>
 6    1  0.7270761E-006  0.2439767E+03  0.7546771E-02  0.1117172E+00
         -2   -1    0    0    0  501 -0.00000000000E+00  0.00000000000E+00  0.14261202744E+03  0.14261202744E+03  0.00000000000E+00 0.  1.
          2   -1    0    0  501    0  0.00000000000E+00 -0.00000000000E+00 -0.10434715975E+03  0.10434715975E+03  0.00000000000E+00 0. -1.
          5    1    1    2  502    0 -0.40433763868E+02  0.77786009624E+02  0.51011101836E+02  0.10153706252E+03  0.47000000000E+01 0. -1.
         -5    1    1    2    0  502  0.35881821882E+02 -0.10415965241E+02  0.81253031249E+00  0.37666267123E+02  0.47000000000E+01 0.  1.
        -11    1    1    2    0    0 -0.38946690936E+02 -0.31382367802E+02 -0.15719621215E+01  0.50041670721E+02  0.00000000000E+00 0. -1.
         11    1    1    2    0    0  0.43498632921E+02 -0.35987676582E+02 -0.11986802333E+02  0.57714186834E+02  0.00000000000E+00 0.  1.
<mgrwt>
<rscale>  0 0.24397672E+03</rscale>
<asrwt>0</asrwt>
<pdfrwt beam="2">  1        2 0.16053409E-01 0.24397672E+03</pdfrwt>
<pdfrwt beam="1">  1       -2 0.21940312E-01 0.24397672E+03</pdfrwt>
<totfact> 0.63377434E+03</totfact>
</mgrwt>
</event>
<event>
 6    1  0.7270761E-006  0.1953111E+03  0.7546771E-02  0.1187479E+00
         -2   -1    0    0    0  501 -0.00000000000E+00  0.00000000000E+00  0.53552285602E+02  0.53552285602E+02  0.00000000000E+00 0.  1.
          2   -1    0    0  501    0  0.00000000000E+00 -0.00000000000E+00 -0.39526957474E+03  0.39526957474E+03  0.00000000000E+00 0. -1.
          5    1    1    2  502    0 -0.70597757664E+02  0.41991057548E+02 -0.18361429904E+03  0.20120535061E+03  0.47000000000E+01 0. -1.
         -5    1    1    2    0  502  0.63079899893E+02 -0.34278921770E+02 -0.79737959384E+01  0.72386391469E+02  0.47000000000E+01 0.  1.
        -11    1    1    2    0    0 -0.23272637452E+02 -0.38317527475E+02 -0.57326456610E+02  0.72774797789E+02  0.00000000000E+00 0.  1.
         11    1    1    2    0    0  0.30790495223E+02  0.30605391697E+02 -0.92802737548E+02  0.10245532047E+03  0.00000000000E+00 0. -1.
<mgrwt>
<rscale>  0 0.16108381E+03</rscale>
<asrwt>0</asrwt>
<pdfrwt beam="2">  1        2 0.60810703E-01 0.19531114E+03</pdfrwt>
<pdfrwt beam="1">  1       -2 0.82388133E-02 0.19531114E+03</pdfrwt>
<totfact> 0.71275143E+03</totfact>
</mgrwt>
</event>
<event>
 6    1  0.7270761E-006  0.1994790E+03  0.7546771E-02  0.1154365E+00
          1   -1    0    0  501    0  0.00000000000E+00  0.00000000000E+00  0.91192053930E+03  0.91192053930E+03  0.00000000000E+00 0. -1.
         -1   -1    0    0    0  501 -0.00000000000E+00 -0.00000000000E+00 -0.55187344708E+02  0.55187344708E+02  0.00000000000E+00 0.  1.
          5    1    1    2  502    0  0.54522805489E+02  0.10383358724E+03  0.10401642810E+03  0.15683002733E+03  0.47000000000E+01 0.  1.
         -5    1    1    2    0  502 -0.63612124177E+02  0.51374107579E+02  0.82993177896E+02  0.11660085269E+03  0.47000000000E+01 0.  1.
        -11    1    1    2    0    0  0.37305326238E+02 -0.38389832109E+02  0.12724496751E+03  0.13804618188E+03  0.00000000000E+00 0.  1.
         11    1    1    2    0    0 -0.28216007551E+02 -0.11681786271E+03  0.54247862108E+03  0.55563082210E+03  0.00000000000E+00 0. -1.
<mgrwt>
<rscale>  0 0.19461292E+03</rscale>
<asrwt>0</asrwt>
<pdfrwt beam="1">  1        1 0.14029546E+00 0.19947895E+03</pdfrwt>
<pdfrwt beam="2">  1       -1 0.84903614E-02 0.19947895E+03</pdfrwt>
<totfact> 0.14671576E+03</totfact>
</mgrwt>
</event>
<event>
 6    1  0.7270761E-006  0.1643570E+03  0.7546771E-02  0.1191102E+00
         -1   -1    0    0    0  501 -0.00000000000E+00  0.00000000000E+00  0.92944592957E+02  0.92944592957E+02  0.00000000000E+00 0.  1.
          1   -1    0    0  501    0  0.00000000000E+00 -0.00000000000E+00 -0.26173388759E+03  0.26173388759E+03  0.00000000000E+00 0. -1.
          5    1    1    2  502    0 -0.67884309570E+02  0.48093469464E+02  0.21694658216E+01  0.83355011084E+02  0.47000000000E+01 0. -1.
         -5    1    1    2    0  502  0.43185712954E+02  0.55721048712E+02 -0.54176726655E+02  0.89033975447E+02  0.47000000000E+01 0. -1.
        -11    1    1    2    0    0  0.16395488032E+02 -0.14941015596E+02  0.12290194268E+02  0.25359314857E+02  0.00000000000E+00 0.  1.
         11    1    1    2    0    0  0.83031085847E+01 -0.88873502579E+02 -0.12907222807E+03  0.15693017916E+03  0.00000000000E+00 0. -1.
<mgrwt>
<rscale>  0 0.15788806E+03</rscale>
<asrwt>0</asrwt>
<pdfrwt beam="2">  1        1 0.40266752E-01 0.16435695E+03</pdfrwt>
<pdfrwt beam="1">  1       -1 0.14299168E-01 0.16435695E+03</pdfrwt>
<totfact> 0.35214907E+03</totfact>
</mgrwt>
</event>
<event>
 6    1  0.7270761E-006  0.1421718E+03  0.7546771E-02  0.1220647E+00
          2   -1    0    0  501    0  0.00000000000E+00  0.00000000000E+00  0.64050138919E+02  0.64050138919E+02  0.00000000000E+00 0. -1.
         -2   -1    0    0    0  501 -0.00000000000E+00 -0.00000000000E+00 -0.27847591027E+03  0.27847591027E+03  0.00000000000E+00 0.  1.
          5    1    1    2  502    0 -0.61298759337E+02  0.62778539812E+02 -0.64030349416E+02  0.10872285226E+03  0.47000000000E+01 0.  1.
         -5    1    1    2    0  502 -0.28053094509E+01 -0.40951794139E+02 -0.10087239651E+03  0.10900573187E+03  0.47000000000E+01 0.  1.
        -11    1    1    2    0    0 -0.18600833881E+02  0.26927233662E+00 -0.32601160132E+02  0.37535305655E+02  0.00000000000E+00 0.  1.
         11    1    1    2    0    0  0.82704902670E+02 -0.22096018010E+02 -0.16921865293E+02  0.87262159396E+02  0.00000000000E+00 0. -1.
<mgrwt>
<rscale>  0 0.13469752E+03</rscale>
<asrwt>0</asrwt>
<pdfrwt beam="1">  1        2 0.98538677E-02 0.14217180E+03</pdfrwt>
<pdfrwt beam="2">  1       -2 0.42842447E-01 0.14217180E+03</pdfrwt>
<totfact> 0.32714744E+03</totfact>
</mgrwt>
</event>
<event>
 6    1  0.7270761E-006  0.1357079E+03  0.7546771E-02  0.1227671E+00
         -2   -1    0    0    0  501 -0.00000000000E+00  0.00000000000E+00  0.31068309016E+02  0.31068309016E+02  0.00000000000E+00 0.  1.
          2   -1    0    0  501    0  0.00000000000E+00 -0.00000000000E+00 -0.59092662115E+03  0.59092662115E+03  0.00000000000E+00 0. -1.
          5    1    1    2  502    0  0.47852224748E+02  0.60216171318E+02 -0.57382159151E+02  0.96076141109E+02  0.47000000000E+01 0. -1.
         -5    1    1    2    0  502  0.13790005402E+01 -0.41011004469E+02 -0.12236463634E+03  0.12914719648E+03  0.47000000000E+01 0. -1.
        -11    1    1    2    0    0 -0.22149428886E+02 -0.54838278287E+02 -0.13183533744E+03  0.14449356444E+03  0.00000000000E+00 0.  1.
         11    1    1    2    0    0 -0.27081796403E+02  0.35633111439E+02 -0.24827617919E+03  0.25227802814E+03  0.00000000000E+00 0. -1.
<mgrwt>
<rscale>  0 0.12985480E+03</rscale>
<asrwt>0</asrwt>
<pdfrwt beam="2">  1        2 0.90911789E-01 0.13570793E+03</pdfrwt>
<pdfrwt beam="1">  1       -2 0.47797398E-02 0.13570793E+03</pdfrwt>
<totfact> 0.10281533E+04</totfact>
</mgrwt>
</event>
<event>
 6    1  0.7270761E-006  0.1260566E+03  0.7546771E-02  0.1249885E+00
         -1   -1    0    0    0  501 -0.00000000000E+00  0.00000000000E+00  0.17157552993E+03  0.17157552993E+03  0.00000000000E+00 0.  1.
          1   -1    0    0  501    0  0.00000000000E+00 -0.00000000000E+00 -0.68376495422E+02  0.68376495422E+02  0.00000000000E+00 0. -1.
          5    1    1    2  502    0 -0.26017821905E+02  0.46257941247E+01 -0.30936324366E+02  0.40956943163E+02  0.47000000000E+01 0. -1.
         -5    1    1    2    0  502  0.21518497109E+02 -0.20282188688E+02  0.96687022174E+02  0.10121701019E+03  0.47000000000E+01 0. -1.
        -11    1    1    2    0    0  0.27851300059E+02 -0.14101856479E+02 -0.13758112046E+02  0.34115142066E+02  0.00000000000E+00 0. -1.
         11    1    1    2    0    0 -0.23351975262E+02  0.29758251043E+02  0.51206448745E+02  0.63662929927E+02  0.00000000000E+00 0.  1.
<mgrwt>
<rscale>  0 0.11597742E+03</rscale>
<asrwt>0</asrwt>
<pdfrwt beam="2">  1        1 0.10519461E-01 0.12605665E+03</pdfrwt>
<pdfrwt beam="1">  1       -1 0.26396235E-01 0.12605665E+03</pdfrwt>
<totfact> 0.71628596E+03</totfact>
</mgrwt>
</event>
<event>
 6    1  0.7270761E-006  0.3363501E+03  0.7546771E-02  0.1068361E+00
          3   -1    0    0  501    0  0.00000000000E+00  0.00000000000E+00  0.59200639631E+03  0.59200639631E+03  0.00000000000E+00 0. -1.
         -3   -1    0    0    0  501 -0.00000000000E+00 -0.00000000000E+00 -0.47774549813E+02  0.47774549813E+02  0.00000000000E+00 0.  1.
          5    1    1    2  502    0 -0.72659168143E+01  0.14154037800E+02  0.11784804414E+03  0.11901000731E+03  0.47000000000E+01 0. -1.
         -5    1    1    2    0  502  0.56681772504E+02  0.77238513267E+02  0.29475190072E+02  0.10034683899E+03  0.47000000000E+01 0. -1.
        -11    1    1    2    0    0 -0.36715344781E+01 -0.77790337170E+02  0.32441862659E+03  0.33363492323E+03  0.00000000000E+00 0.  1.
         11    1    1    2    0    0 -0.45744321211E+02 -0.13602213897E+02  0.72489985699E+02  0.86789176587E+02  0.00000000000E+00 0. -1.
<mgrwt>
<rscale>  0 0.33635005E+03</rscale>
<asrwt>0</asrwt>
<pdfrwt beam="1">  1        3 0.91077902E-01 0.33635005E+03</pdfrwt>
<pdfrwt beam="2">  1       -3 0.73499312E-02 0.33635005E+03</pdfrwt>
<totfact> 0.35380106E+02</totfact>
</mgrwt>
</event>
<event>
 6    1  0.7270761E-006  0.1463774E+03  0.7546771E-02  0.1214637E+00
          1   -1    0    0  501    0  0.00000000000E+00  0.00000000000E+00  0.66455237117E+02  0.66455237117E+02  0.00000000000E+00 0. -1.
         -1   -1    0    0    0  501 -0.00000000000E+00 -0.00000000000E+00 -0.30235719040E+03  0.30235719040E+03  0.00000000000E+00 0.  1.
          5    1    1    2  502    0 -0.54341008329E+02  0.36035649961E+01 -0.84634022563E+02  0.10075186669E+03  0.47000000000E+01 0. -1.
         -5    1    1    2    0  502  0.54612671974E+02  0.72576861624E+02 -0.10827163953E+03  0.14140290913E+03  0.47000000000E+01 0. -1.
        -11    1    1    2    0    0  0.14552695321E+02 -0.72154538478E+02  0.73940490644E+01  0.73977904307E+02  0.00000000000E+00 0. -1.
         11    1    1    2    0    0 -0.14824358966E+02 -0.40258881424E+01 -0.50390340254E+02  0.52679747389E+02  0.00000000000E+00 0.  1.
<mgrwt>
<rscale>  0 0.13903259E+03</rscale>
<asrwt>0</asrwt>
<pdfrwt beam="1">  1        1 0.10223882E-01 0.14637739E+03</pdfrwt>
<pdfrwt beam="2">  1       -1 0.46516491E-01 0.14637739E+03</pdfrwt>
<totfact> 0.28335925E+03</totfact>
</mgrwt>
</event>
<event>
 6    1  0.7270761E-006  0.1529171E+03  0.7546771E-02  0.1205671E+00
          2   -1    0    0  501    0  0.00000000000E+00  0.00000000000E+00  0.35650829112E+03  0.35650829112E+03  0.00000000000E+00 0. -1.
         -2   -1    0    0    0  501 -0.00000000000E+00 -0.00000000000E+00 -0.75211225985E+02  0.75211225985E+02  0.00000000000E+00 0.  1.
          5    1    1    2  502    0  0.10621958229E+03 -0.10683584862E+02  0.52335725584E+02  0.11898679263E+03  0.47000000000E+01 0.  1.
         -5    1    1    2    0  502 -0.20142711446E+02  0.29349050632E+02 -0.14204378032E+02  0.38612821092E+02  0.47000000000E+01 0.  1.
        -11    1    1    2    0    0  0.15477855664E+02 -0.74292700306E+01  0.78301430195E+02  0.80161537159E+02  0.00000000000E+00 0. -1.
         11    1    1    2    0    0 -0.10155472651E+03 -0.11236195740E+02  0.16486428739E+03  0.19395836622E+03  0.00000000000E+00 0.  1.
<mgrwt>
<rscale>  0 0.14584725E+03</rscale>
<asrwt>0</asrwt>
<pdfrwt beam="1">  1        2 0.54847429E-01 0.15291710E+03</pdfrwt>
<pdfrwt beam="2">  1       -2 0.11570958E-01 0.15291710E+03</pdfrwt>
<totfact> 0.45993439E+03</totfact>
</mgrwt>
</event>
<event>
 6    1  0.7270761E-006  0.1771203E+03  0.7546771E-02  0.1176394E+00
          2   -1    0    0  501    0  0.00000000000E+00  0.00000000000E+00  0.65410498031E+03  0.65410498031E+03  0.00000000000E+00 0. -1.
         -2   -1    0    0    0  501 -0.00000000000E+00 -0.00000000000E+00 -0.45031129917E+02  0.45031129917E+02  0.00000000000E+00 0.  1.
          5    1    1    2  502    0  0.74857899656E+01  0.26803889298E+02  0.14143588270E+03  0.14422442390E+03  0.47000000000E+01 0. -1.
         -5    1    1    2    0  502  0.11700909661E+03 -0.11063073719E+02  0.95004502413E+02  0.15120008521E+03  0.47000000000E+01 0. -1.
        -11    1    1    2    0    0 -0.93162828866E+02 -0.49111887026E+02  0.21252271116E+03  0.23718598797E+03  0.00000000000E+00 0.  1.
         11    1    1    2    0    0 -0.31332057711E+02  0.33371071447E+02  0.16011075412E+03  0.16652561315E+03  0.00000000000E+00 0. -1.
<mgrwt>
<rscale>  0 0.17140161E+03</rscale>
<asrwt>0</asrwt>
<pdfrwt beam="1">  1        2 0.10063153E+00 0.17712026E+03</pdfrwt>
<pdfrwt beam="2">  1       -2 0.69278666E-02 0.17712026E+03</pdfrwt>
<totfact> 0.52815073E+03</totfact>
</mgrwt>
</event>
<event>
 6    1  0.7270761E-006  0.2100270E+03  0.7546771E-02  0.1145241E+00
         -1   -1    0    0    0  501 -0.00000000000E+00  0.00000000000E+00  0.53772245006E+03  0.53772245006E+03  0.00000000000E+00 0.  1.
          1   -1    0    0  501    0  0.00000000000E+00 -0.00000000000E+00 -0.84997557799E+02  0.84997557799E+02  0.00000000000E+00 0. -1.
          5    1    1    2  502    0  0.87755552185E+01  0.20016730285E+02  0.77685317775E+02  0.80837976586E+02  0.47000000000E+01 0. -1.
         -5    1    1    2    0  502 -0.98939713806E+02  0.12265948549E+03  0.52057955091E+02  0.16603173503E+03  0.47000000000E+01 0. -1.
        -11    1    1    2    0    0  0.71549368384E+02 -0.41083891012E+02  0.96718493958E+02  0.12712853846E+03  0.00000000000E+00 0.  1.
         11    1    1    2    0    0  0.18614790204E+02 -0.10159232476E+03  0.22626312544E+03  0.24872175779E+03  0.00000000000E+00 0. -1.
<mgrwt>
<rscale>  0 0.20542473E+03</rscale>
<asrwt>0</asrwt>
<pdfrwt beam="2">  1        1 0.13076548E-01 0.21002699E+03</pdfrwt>
<pdfrwt beam="1">  1       -1 0.82726529E-01 0.21002699E+03</pdfrwt>
<totfact> 0.67937107E+02</totfact>
</mgrwt>
</event>
<event>
 6    1  0.7270761E-006  0.3435057E+03  0.7546771E-02  0.1065313E+00
         -2   -1    0    0    0  501 -0.00000000000E+00  0.00000000000E+00  0.12749018914E+03  0.12749018914E+03  0.00000000000E+00 0.  1.
          2   -1    0    0  501    0  0.00000000000E+00 -0.00000000000E+00 -0.23138277447E+03  0.23138277447E+03  0.00000000000E+00 0. -1.
          5    1    1    2  502    0 -0.69934516705E+02  0.77909450743E+02  0.40944517404E+02  0.11251338875E+03  0.47000000000E+01 0.  1.
         -5    1    1    2    0  502 -0.28903917621E+02 -0.43275341684E+02 -0.10667974286E+02  0.53329985253E+02  0.47000000000E+01 0.  1.
        -11    1    1    2    0    0  0.58152102206E+02  0.46421592973E+01 -0.13665380238E+02  0.59916268667E+02  0.00000000000E+00 0.  1.
         11    1    1    2    0    0  0.40686332120E+02 -0.39276268356E+02 -0.12050374821E+03  0.13311332094E+03  0.00000000000E+00 0. -1.
<mgrwt>
<rscale>  0 0.34350565E+03</rscale>
<asrwt>0</asrwt>
<pdfrwt beam="2">  1        2 0.35597349E-01 0.34350565E+03</pdfrwt>
<pdfrwt beam="1">  1       -2 0.19613876E-01 0.34350565E+03</pdfrwt>
<totfact> 0.31661736E+03</totfact>
</mgrwt>
</event>
<event>
 6    1  0.7270761E-006  0.2405122E+03  0.7546771E-02  0.1134094E+00
          1   -1    0    0  501    0  0.00000000000E+00  0.00000000000E+00  0.27906748102E+03  0.27906748102E+03  0.00000000000E+00 0. -1.
         -1   -1    0    0    0  501 -0.00000000000E+00 -0.00000000000E+00 -0.25937940966E+03  0.25937940966E+03  0.00000000000E+00 0.  1.
          5    1    1    2  502    0 -0.98443451616E+01 -0.42802248147E+02  0.18368071902E+02  0.47837429315E+02  0.47000000000E+01 0. -1.
         -5    1    1    2    0  502  0.14930400337E+03  0.60783872199E+02 -0.18140183620E+03  0.24272428951E+03  0.47000000000E+01 0.  1.
        -11    1    1    2    0    0 -0.40697726072E+02  0.15517937344E+02  0.78215641742E+01  0.44252549677E+02  0.00000000000E+00 0.  1.
         11    1    1    2    0    0 -0.98761932140E+02 -0.33499561396E+02  0.17490027148E+03  0.20363262219E+03  0.00000000000E+00 0. -1.
<mgrwt>
<rscale>  0 0.21971684E+03</rscale>
<asrwt>0</asrwt>
<pdfrwt beam="1">  1        1 0.42933459E-01 0.24051217E+03</pdfrwt>
<pdfrwt beam="2">  1       -1 0.39904524E-01 0.24051217E+03</pdfrwt>
<totfact> 0.59803546E+02</totfact>
</mgrwt>
</event>
<event>
 6    1  0.7270761E-006  0.2293094E+03  0.7546771E-02  0.1130211E+00
          2   -1    0    0  501    0  0.00000000000E+00  0.00000000000E+00  0.91928917419E+03  0.91928917419E+03  0.00000000000E+00 0. -1.
         -2   -1    0    0    0  501 -0.00000000000E+00 -0.00000000000E+00 -0.53476390700E+02  0.53476390700E+02  0.00000000000E+00 0.  1.
          5    1    1    2  502    0  0.12914249345E+03  0.72215808375E+02  0.36714791422E+03  0.39586940714E+03  0.47000000000E+01 0. -1.
         -5    1    1    2    0  502 -0.77035953526E+01  0.76777494571E+02  0.12317135726E+03  0.14542146439E+03  0.47000000000E+01 0. -1.
        -11    1    1    2    0    0 -0.10109374509E+03 -0.16009650398E+03  0.33650190610E+03  0.38611445025E+03  0.00000000000E+00 0. -1.
         11    1    1    2    0    0 -0.20345153009E+02  0.11103201034E+02  0.38991605908E+02  0.45360243115E+02  0.00000000000E+00 0.  1.
<mgrwt>
<rscale>  0 0.22499805E+03</rscale>
<asrwt>0</asrwt>
<pdfrwt beam="1">  1        2 0.14142909E+00 0.22930944E+03</pdfrwt>
<pdfrwt beam="2">  1       -2 0.82271377E-02 0.22930944E+03</pdfrwt>
<totfact> 0.26598222E+03</totfact>
</mgrwt>
</event>
<event>
 6    1  0.1878974E-005  0.2402340E+03  0.7546771E-02  0.1122110E+00
         -2   -1    0    0    0  501 -0.00000000000E+00  0.00000000000E+00  0.49774847019E+02  0.49774847019E+02  0.00000000000E+00 0.  1.
          2   -1    0    0  501    0  0.00000000000E+00 -0.00000000000E+00 -0.12650944880E+04  0.12650944880E+04  0.00000000000E+00 0. -1.
          5    1    1    2  502    0  0.12774945942E+03  0.97684615420E+02 -0.16780430718E+03  0.23247060885E+03  0.47000000000E+01 0. -1.
         -5    1    1    2    0  502  0.27710715698E+02  0.36179400310E+02 -0.21229717775E+03  0.21718428684E+03  0.47000000000E+01 0. -1.
        -11    1    1    2    0    0 -0.95836676482E+02 -0.42856621162E+02 -0.55040982842E+03  0.56033234581E+03  0.00000000000E+00 0. -1.
         11    1    1    2    0    0 -0.59623498640E+02 -0.91007394568E+02 -0.28480832762E+03  0.30488209350E+03  0.00000000000E+00 0.  1.
<mgrwt>
<rscale>  0 0.23655343E+03</rscale>
<asrwt>0</asrwt>
<pdfrwt beam="2">  1        2 0.19462993E+00 0.24023402E+03</pdfrwt>
<pdfrwt beam="1">  1       -2 0.76576686E-02 0.24023402E+03</pdfrwt>
<totfact> 0.18593979E+03</totfact>
</mgrwt>
</event>
<event>
 6    1  0.7270761E-006  0.1278021E+03  0.7546771E-02  0.1247600E+00
          2   -1    0    0  501    0  0.00000000000E+00  0.00000000000E+00  0.11721430251E+02  0.11721430251E+02  0.00000000000E+00 0. -1.
         -2   -1    0    0    0  501 -0.00000000000E+00 -0.00000000000E+00 -0.11316267453E+04  0.11316267453E+04  0.00000000000E+00 0.  1.
          5    1    1    2  502    0  0.25827317188E+02  0.66545035545E+02 -0.44675420534E+03  0.45244524758E+03  0.47000000000E+01 0. -1.
         -5    1    1    2    0  502 -0.36645604220E+02 -0.42331673060E+02 -0.37704956866E+03  0.38121298257E+03  0.47000000000E+01 0. -1.
        -11    1    1    2    0    0  0.36564790307E+02 -0.26798235926E+02 -0.26669147835E+03  0.27051704931E+03  0.00000000000E+00 0.  1.
         11    1    1    2    0    0 -0.25746503275E+02  0.25848734411E+01 -0.29410062736E+02  0.39172896137E+02  0.00000000000E+00 0. -1.
<mgrwt>
<rscale>  0 0.11731135E+03</rscale>
<asrwt>0</asrwt>
<pdfrwt beam="1">  1        2 0.18032974E-02 0.12780214E+03</pdfrwt>
<pdfrwt beam="2">  1       -2 0.17409638E+00 0.12780214E+03</pdfrwt>
<totfact> 0.12944897E+03</totfact>
</mgrwt>
</event>
<event>
 6    1  0.7270761E-006  0.1643781E+03  0.7546771E-02  0.1191077E+00
          2   -1    0    0  501    0  0.00000000000E+00  0.00000000000E+00  0.35866245309E+02  0.35866245309E+02  0.00000000000E+00 0. -1.
         -2   -1    0    0    0  501 -0.00000000000E+00 -0.00000000000E+00 -0.72154710306E+03  0.72154710306E+03  0.00000000000E+00 0.  1.
          5    1    1    2  502    0  0.60726050660E+02 -0.10830178385E+02 -0.10666759630E+03  0.12330860511E+03  0.47000000000E+01 0. -1.
         -5    1    1    2    0  502 -0.18090360281E+02 -0.87035037793E+02 -0.38314569576E+03  0.39335108125E+03  0.47000000000E+01 0. -1.
        -11    1    1    2    0    0 -0.23750280289E+01  0.68619558580E+02 -0.45505622475E+02  0.82371392211E+02  0.00000000000E+00 0. -1.
         11    1    1    2    0    0 -0.40260662350E+02  0.29245657598E+02 -0.15036194322E+03  0.15838226981E+03  0.00000000000E+00 0.  1.
<mgrwt>
<rscale>  0 0.15791018E+03</rscale>
<asrwt>0</asrwt>
<pdfrwt beam="1">  1        2 0.55178838E-02 0.16437813E+03</pdfrwt>
<pdfrwt beam="2">  1       -2 0.11100725E+00 0.16437813E+03</pdfrwt>
<totfact> 0.90644151E+02</totfact>
</mgrwt>
</event>
<event>
 6    1  0.7270761E-006  0.1997416E+03  0.7546771E-02  0.1153605E+00
         -1   -1    0    0    0  501 -0.00000000000E+00  0.00000000000E+00  0.41406459976E+02  0.41406459976E+02  0.00000000000E+00 0.  1.
          1   -1    0    0  501    0  0.00000000000E+00 -0.00000000000E+00 -0.90753886840E+03  0.90753886840E+03  0.00000000000E+00 0. -1.
          5    1    1    2  502    0  0.51658190708E+02 -0.91703342184E+01 -0.21471690447E+03  0.22108392697E+03  0.47000000000E+01 0.  1.
         -5    1    1    2    0  502 -0.75774980334E+01 -0.14025604231E+03 -0.31019448254E+03  0.34054644747E+03  0.47000000000E+01 0.  1.
        -11    1    1    2    0    0 -0.50038946429E+02  0.28213557967E+02 -0.15229275928E+03  0.16276665980E+03  0.00000000000E+00 0. -1.
         11    1    1    2    0    0  0.59582537544E+01  0.12121281857E+03 -0.18892826213E+03  0.22454829415E+03  0.00000000000E+00 0.  1.
<mgrwt>
<rscale>  0 0.19548492E+03</rscale>
<asrwt>0</asrwt>
<pdfrwt beam="2">  1        1 0.13962136E+00 0.19974162E+03</pdfrwt>
<pdfrwt beam="1">  1       -1 0.63702248E-02 0.19974162E+03</pdfrwt>
<totfact> 0.22865890E+03</totfact>
</mgrwt>
</event>
<event>
 6    1  0.7270761E-006  0.1309692E+03  0.7546771E-02  0.1239456E+00
          1   -1    0    0  501    0  0.00000000000E+00  0.00000000000E+00  0.12009780059E+03  0.12009780059E+03  0.00000000000E+00 0. -1.
         -1   -1    0    0    0  501 -0.00000000000E+00 -0.00000000000E+00 -0.17560546012E+03  0.17560546012E+03  0.00000000000E+00 0.  1.
          5    1    1    2  502    0  0.51901627649E+02 -0.41731702209E+02 -0.34824846457E+02  0.75300556788E+02  0.47000000000E+01 0. -1.
         -5    1    1    2    0  502 -0.56537220696E+02  0.29361442779E+01 -0.84851531972E+02  0.10211244168E+03  0.47000000000E+01 0. -1.
        -11    1    1    2    0    0  0.15310764742E+02  0.14152266644E+02 -0.20635734177E+02  0.29334956846E+02  0.00000000000E+00 0.  1.
         11    1    1    2    0    0 -0.10675171695E+02  0.24643291287E+02  0.84804453080E+02  0.88955305398E+02  0.00000000000E+00 0. -1.
<mgrwt>
<rscale>  0 0.12223452E+03</rscale>
<asrwt>0</asrwt>
<pdfrwt beam="1">  1        1 0.18476585E-01 0.13096922E+03</pdfrwt>
<pdfrwt beam="2">  1       -1 0.27016224E-01 0.13096922E+03</pdfrwt>
<totfact> 0.33264875E+03</totfact>
</mgrwt>
</event>
<event>
 6    1  0.1270436E-005  0.2839356E+03  0.7546771E-02  0.1095459E+00
         -1   -1    0    0    0  501 -0.00000000000E+00  0.00000000000E+00  0.13653189564E+03  0.13653189564E+03  0.00000000000E+00 0. -1.
          1   -1    0    0  501    0  0.00000000000E+00 -0.00000000000E+00 -0.66448545596E+03  0.66448545596E+03  0.00000000000E+00 0.  1.
          5    1    1    2  502    0  0.14254419663E+03  0.14932865420E+03 -0.94770421872E+02  0.22720347229E+03  0.47000000000E+01 0. -1.
         -5    1    1    2    0  502  0.74420834478E+02 -0.15460376329E+02 -0.17619204738E+02  0.78166554333E+02  0.47000000000E+01 0. -1.
        -11    1    1    2    0    0 -0.72366812970E+02 -0.18676158615E+02 -0.63820095549E+02  0.98278986136E+02  0.00000000000E+00 0. -1.
         11    1    1    2    0    0 -0.14459821813E+03 -0.11519211926E+03 -0.35174383816E+03  0.39736833884E+03  0.00000000000E+00 0.  1.
<mgrwt>
<rscale>  0 0.28042071E+03</rscale>
<asrwt>0</asrwt>
<pdfrwt beam="2">  1        1 0.10222853E+00 0.28393560E+03</pdfrwt>
<pdfrwt beam="1">  1       -1 0.21004907E-01 0.28393560E+03</pdfrwt>
<totfact> 0.56811316E+02</totfact>
</mgrwt>
</event>
<event>
 6    1  0.7270761E-006  0.1180367E+03  0.7546771E-02  0.1256842E+00
         -4   -1    0    0    0  501 -0.00000000000E+00  0.00000000000E+00  0.99153487975E+02  0.99153487975E+02  0.00000000000E+00 0.  1.
          4   -1    0    0  501    0  0.00000000000E+00 -0.00000000000E+00 -0.12412187702E+03  0.12412187702E+03  0.00000000000E+00 0. -1.
          5    1    1    2  502    0  0.31542761998E+02  0.42670215592E+02 -0.12382569530E+02  0.54691051930E+02  0.47000000000E+01 0. -1.
         -5    1    1    2    0  502 -0.51118152329E+02 -0.26702299255E+02  0.28302854449E+02  0.64414438234E+02  0.47000000000E+01 0.  1.
        -11    1    1    2    0    0 -0.31905704228E+02 -0.27476276204E+02 -0.10917156083E+02  0.43498321959E+02  0.00000000000E+00 0.  1.
         11    1    1    2    0    0  0.51481094559E+02  0.11508359867E+02 -0.29971517879E+02  0.60671552871E+02  0.00000000000E+00 0. -1.
<mgrwt>
<rscale>  0 0.11203792E+03</rscale>
<asrwt>0</asrwt>
<pdfrwt beam="2">  1        4 0.19095673E-01 0.11803670E+03</pdfrwt>
<pdfrwt beam="1">  1       -4 0.15254383E-01 0.11803670E+03</pdfrwt>
<totfact> 0.14321949E+03</totfact>
</mgrwt>
</event>
<event>
 6    1  0.7270761E-006  0.1268177E+03  0.7546771E-02  0.1247148E+00
         -4   -1    0    0    0  501 -0.00000000000E+00  0.00000000000E+00  0.20209000201E+03  0.20209000201E+03  0.00000000000E+00 0.  1.
          4   -1    0    0  501    0  0.00000000000E+00 -0.00000000000E+00 -0.78953559793E+02  0.78953559793E+02  0.00000000000E+00 0. -1.
          5    1    1    2  502    0 -0.48286851189E+02 -0.17928503007E+02  0.38761943551E+02  0.64634584285E+02  0.47000000000E+01 0. -1.
         -5    1    1    2    0  502  0.65480547812E+02  0.30713269372E+02  0.97820216286E+02  0.12174519199E+03  0.47000000000E+01 0. -1.
        -11    1    1    2    0    0 -0.21605603910E+02 -0.36731545140E+02  0.24814009362E+02  0.49312712249E+02  0.00000000000E+00 0.  1.
         11    1    1    2    0    0  0.44119072867E+01  0.23946778776E+02 -0.38259726980E+02  0.45351073286E+02  0.00000000000E+00 0. -1.
<mgrwt>
<rscale>  0 0.11757758E+03</rscale>
<asrwt>0</asrwt>
<pdfrwt beam="2">  1        4 0.12146702E-01 0.12681772E+03</pdfrwt>
<pdfrwt beam="1">  1       -4 0.31090769E-01 0.12681772E+03</pdfrwt>
<totfact> 0.88037923E+02</totfact>
</mgrwt>
</event>
<event>
 6    1  0.7270761E-006  0.2425578E+03  0.7546771E-02  0.1121758E+00
         -2   -1    0    0    0  501 -0.00000000000E+00  0.00000000000E+00  0.13707162788E+03  0.13707162788E+03  0.00000000000E+00 0. -1.
          2   -1    0    0  501    0  0.00000000000E+00 -0.00000000000E+00 -0.40418466439E+03  0.40418466439E+03  0.00000000000E+00 0.  1.
          5    1    1    2  502    0 -0.21698298816E+03  0.50324417092E+02 -0.84945209962E+02  0.23843645443E+03  0.47000000000E+01 0. -1.
         -5    1    1    2    0  502  0.17450917685E+02  0.79466834744E+01 -0.86048108726E+01  0.21536412804E+02  0.47000000000E+01 0. -1.
        -11    1    1    2    0    0  0.53072166458E+02  0.13771235407E+02 -0.66021695758E+02  0.85820545838E+02  0.00000000000E+00 0.  1.
         11    1    1    2    0    0  0.14645990401E+03 -0.72042335973E+02 -0.10754131991E+03  0.19546287920E+03  0.00000000000E+00 0. -1.
<mgrwt>
<rscale>  0 0.23707283E+03</rscale>
<asrwt>0</asrwt>
<pdfrwt beam="2">  1        2 0.62182255E-01 0.24255780E+03</pdfrwt>
<pdfrwt beam="1">  1       -2 0.21087943E-01 0.24255780E+03</pdfrwt>
<totfact> 0.15097037E+03</totfact>
</mgrwt>
</event>
<event>
 6    1  0.7270761E-006  0.1623413E+03  0.7546771E-02  0.1190998E+00
          1   -1    0    0  501    0  0.00000000000E+00  0.00000000000E+00  0.47947567366E+03  0.47947567366E+03  0.00000000000E+00 0. -1.
         -1   -1    0    0    0  501 -0.00000000000E+00 -0.00000000000E+00 -0.49788755680E+02  0.49788755680E+02  0.00000000000E+00 0.  1.
          5    1    1    2  502    0 -0.12224233384E+01 -0.76227529196E+02  0.27121105731E+02  0.81054147964E+02  0.47000000000E+01 0.  1.
         -5    1    1    2    0  502 -0.16902030526E+02 -0.25756425339E+02  0.17714884007E+03  0.17986904576E+03  0.47000000000E+01 0.  1.
        -11    1    1    2    0    0  0.52416386009E+02  0.86268484969E+02  0.19613922229E+03  0.22059085099E+03  0.00000000000E+00 0. -1.
         11    1    1    2    0    0 -0.34291932144E+02  0.15715469566E+02  0.29277749892E+02  0.47750384633E+02  0.00000000000E+00 0.  1.
<mgrwt>
<rscale>  0 0.15797885E+03</rscale>
<asrwt>0</asrwt>
<pdfrwt beam="1">  1        1 0.73765485E-01 0.16234131E+03</pdfrwt>
<pdfrwt beam="2">  1       -1 0.76598089E-02 0.16234131E+03</pdfrwt>
<totfact> 0.42856159E+03</totfact>
</mgrwt>
</event>
<event>
 6    1  0.7270761E-006  0.1659790E+03  0.7546771E-02  0.1188406E+00
          3   -1    0    0  501    0  0.00000000000E+00  0.00000000000E+00  0.10649494381E+03  0.10649494381E+03  0.00000000000E+00 0. -1.
         -3   -1    0    0    0  501 -0.00000000000E+00 -0.00000000000E+00 -0.34335023411E+03  0.34335023411E+03  0.00000000000E+00 0.  1.
          5    1    1    2  502    0 -0.37100897313E+01 -0.38645250283E+02 -0.80498787523E+00  0.39114679351E+02  0.47000000000E+01 0. -1.
         -5    1    1    2    0  502  0.37367505944E+02 -0.65233115852E+02 -0.25439904009E+03  0.26531613502E+03  0.47000000000E+01 0. -1.
        -11    1    1    2    0    0 -0.15279125017E+02  0.91585184113E+02 -0.25515103421E+02  0.96292876750E+02  0.00000000000E+00 0.  1.
         11    1    1    2    0    0 -0.18378291196E+02  0.12293182022E+02  0.43863841080E+02  0.49121486804E+02  0.00000000000E+00 0. -1.
<mgrwt>
<rscale>  0 0.16025823E+03</rscale>
<asrwt>0</asrwt>
<pdfrwt beam="1">  1        3 0.16383837E-01 0.16597899E+03</pdfrwt>
<pdfrwt beam="2">  1       -3 0.52823113E-01 0.16597899E+03</pdfrwt>
<totfact> 0.27228724E+02</totfact>
</mgrwt>
</event>
<event>
 6    1  0.7270761E-006  0.1605151E+03  0.7546771E-02  0.1194592E+00
          3   -1    0    0  501    0  0.00000000000E+00  0.00000000000E+00  0.18424281424E+02  0.18424281424E+02  0.00000000000E+00 0. -1.
         -3   -1    0    0    0  501 -0.00000000000E+00 -0.00000000000E+00 -0.12436420622E+04  0.12436420622E+04  0.00000000000E+00 0.  1.
          5    1    1    2  502    0 -0.12416023889E+02 -0.10718824553E+03 -0.54611857139E+03  0.55669656155E+03  0.47000000000E+01 0.  1.
         -5    1    1    2    0  502 -0.44904632630E+02  0.24402388598E+02 -0.19860602120E+03  0.20513006668E+03  0.47000000000E+01 0.  1.
        -11    1    1    2    0    0 -0.27295719632E+01  0.19936284173E+02 -0.11332052620E+02  0.23093752538E+02  0.00000000000E+00 0. -1.
         11    1    1    2    0    0  0.60050228483E+02  0.62849572760E+02 -0.46916113561E+03  0.47714596289E+03  0.00000000000E+00 0.  1.
<mgrwt>
<rscale>  0 0.15488775E+03</rscale>
<asrwt>0</asrwt>
<pdfrwt beam="1">  1        3 0.28345048E-02 0.16051509E+03</pdfrwt>
<pdfrwt beam="2">  1       -3 0.19132955E+00 0.16051509E+03</pdfrwt>
<totfact> 0.24074085E+02</totfact>
</mgrwt>
</event>
<event>
 6    1  0.7270761E-006  0.1789212E+03  0.7546771E-02  0.1174939E+00
          4   -1    0    0  501    0  0.00000000000E+00  0.00000000000E+00  0.28019085519E+03  0.28019085519E+03  0.00000000000E+00 0. -1.
         -4   -1    0    0    0  501 -0.00000000000E+00 -0.00000000000E+00 -0.11038354426E+03  0.11038354426E+03  0.00000000000E+00 0.  1.
          5    1    1    2  502    0 -0.57309430029E+02 -0.30728614505E+02  0.80428667917E+02  0.10353491750E+03  0.47000000000E+01 0. -1.
         -5    1    1    2    0  502 -0.51229034614E+02 -0.30145270034E+02 -0.50172621830E+02  0.77926460680E+02  0.47000000000E+01 0.  1.
        -11    1    1    2    0    0  0.52059299183E+02  0.12845952758E+02  0.12150320528E+03  0.13280895311E+03  0.00000000000E+00 0.  1.
         11    1    1    2    0    0  0.56479165461E+02  0.48027931781E+02  0.18048059567E+02  0.76304068152E+02  0.00000000000E+00 0. -1.
<mgrwt>
<rscale>  0 0.17281986E+03</rscale>
<asrwt>0</asrwt>
<pdfrwt beam="1">  1        4 0.43106285E-01 0.17892122E+03</pdfrwt>
<pdfrwt beam="2">  1       -4 0.16982084E-01 0.17892122E+03</pdfrwt>
<totfact> 0.27706613E+02</totfact>
</mgrwt>
</event>
<event>
 6    1  0.7270761E-006  0.1265327E+03  0.7546771E-02  0.1242849E+00
         -1   -1    0    0    0  501 -0.00000000000E+00  0.00000000000E+00  0.25982194959E+02  0.25982194959E+02  0.00000000000E+00 0.  1.
          1   -1    0    0  501    0  0.00000000000E+00 -0.00000000000E+00 -0.51418087474E+03  0.51418087474E+03  0.00000000000E+00 0. -1.
          5    1    1    2  502    0  0.22790930545E+02 -0.49450923642E+02 -0.56287676966E+02  0.78455165173E+02  0.47000000000E+01 0. -1.
         -5    1    1    2    0  502 -0.41236276085E+02  0.42789702832E+02 -0.17948567979E+03  0.18912585330E+03  0.47000000000E+01 0. -1.
        -11    1    1    2    0    0  0.21497362123E+02 -0.44634646829E+02 -0.15034896886E+03  0.15830098140E+03  0.00000000000E+00 0. -1.
         11    1    1    2    0    0 -0.30520165827E+01  0.51295867639E+02 -0.10207635416E+03  0.11428106983E+03  0.00000000000E+00 0.  1.
<mgrwt>
<rscale>  0 0.12015042E+03</rscale>
<asrwt>0</asrwt>
<pdfrwt beam="2">  1        1 0.79104745E-01 0.12653271E+03</pdfrwt>
<pdfrwt beam="1">  1       -1 0.39972610E-02 0.12653271E+03</pdfrwt>
<totfact> 0.10145646E+04</totfact>
</mgrwt>
</event>
<event>
 6    1  0.1202857E-005  0.2823359E+03  0.7546771E-02  0.1095965E+00
         -1   -1    0    0    0  501 -0.00000000000E+00  0.00000000000E+00  0.40835930243E+02  0.40835930243E+02  0.00000000000E+00 0.  1.
          1   -1    0    0  501    0  0.00000000000E+00 -0.00000000000E+00 -0.20226749159E+04  0.20226749159E+04  0.00000000000E+00 0. -1.
          5    1    1    2  502    0  0.15479729643E+02 -0.67001593055E+02 -0.18219033155E+03  0.19479281920E+03  0.47000000000E+01 0.  1.
         -5    1    1    2    0  502 -0.16060584788E+03 -0.14042765617E+03 -0.54897374125E+03  0.58898932382E+03  0.47000000000E+01 0.  1.
        -11    1    1    2    0    0  0.13023415562E+03  0.14381358516E+03 -0.10734766961E+04  0.10908691488E+04  0.00000000000E+00 0. -1.
         11    1    1    2    0    0  0.14891962622E+02  0.63615664071E+02 -0.17719821670E+03  0.18885955434E+03  0.00000000000E+00 0.  1.
<mgrwt>
<rscale>  0 0.27949473E+03</rscale>
<asrwt>0</asrwt>
<pdfrwt beam="2">  1        1 0.31118075E+00 0.28233588E+03</pdfrwt>
<pdfrwt beam="1">  1       -1 0.62824510E-02 0.28233588E+03</pdfrwt>
<totfact> 0.40562935E+02</totfact>
</mgrwt>
</event>
<event>
 6    1  0.7270761E-006  0.1437479E+03  0.7546771E-02  0.1218093E+00
         -2   -1    0    0    0  501 -0.00000000000E+00  0.00000000000E+00  0.40345722908E+02  0.40345722908E+02  0.00000000000E+00 0.  1.
          2   -1    0    0  501    0  0.00000000000E+00 -0.00000000000E+00 -0.45216263705E+03  0.45216263705E+03  0.00000000000E+00 0. -1.
          5    1    1    2  502    0  0.18507895837E+01  0.31698854359E+02 -0.43478497372E+01  0.32391921633E+02  0.47000000000E+01 0. -1.
         -5    1    1    2    0  502 -0.57153367010E+02 -0.76203314001E+02 -0.15704769792E+03  0.18373764407E+03  0.47000000000E+01 0. -1.
        -11    1    1    2    0    0  0.35733173439E+01  0.20742541452E+02 -0.15778974718E+01  0.21107140573E+02  0.00000000000E+00 0.  1.
         11    1    1    2    0    0  0.51729260082E+02  0.23761918189E+02 -0.24884346901E+03  0.25527165368E+03  0.00000000000E+00 0. -1.
<mgrwt>
<rscale>  0 0.13651791E+03</rscale>
<asrwt>0</asrwt>
<pdfrwt beam="2">  1        2 0.69563482E-01 0.14374793E+03</pdfrwt>
<pdfrwt beam="1">  1       -2 0.62070343E-02 0.14374793E+03</pdfrwt>
<totfact> 0.93553520E+03</totfact>
</mgrwt>
</event>
<event>
 6    1  0.7270761E-006  0.1747831E+03  0.7546771E-02  0.1181182E+00
         -3   -1    0    0    0  501 -0.00000000000E+00  0.00000000000E+00  0.83197480037E+02  0.83197480037E+02  0.00000000000E+00 0.  1.
          3   -1    0    0  501    0  0.00000000000E+00 -0.00000000000E+00 -0.37964900229E+03  0.37964900229E+03  0.00000000000E+00 0. -1.
          5    1    1    2  502    0  0.30876608902E+02  0.69605798690E+01 -0.69328090668E+01  0.32740929903E+02  0.47000000000E+01 0. -1.
         -5    1    1    2    0  502 -0.13015273548E+03 -0.57886505130E+02 -0.51900384078E+02  0.15167835013E+03  0.47000000000E+01 0.  1.
        -11    1    1    2    0    0 -0.17356591098E+02  0.15101183015E+02 -0.41604728892E+02  0.47542091342E+02  0.00000000000E+00 0.  1.
         11    1    1    2    0    0  0.11663271768E+03  0.35824742246E+02 -0.19601360022E+03  0.23088511095E+03  0.00000000000E+00 0. -1.
<mgrwt>
<rscale>  0 0.16684180E+03</rscale>
<asrwt>0</asrwt>
<pdfrwt beam="2">  1        3 0.58407539E-01 0.17478308E+03</pdfrwt>
<pdfrwt beam="1">  1       -3 0.12799612E-01 0.17478308E+03</pdfrwt>
<totfact> 0.34090018E+02</totfact>
</mgrwt>
</event>
<event>
 6    1  0.7270761E-006  0.1609791E+03  0.7546771E-02  0.1195135E+00
          1   -1    0    0  501    0  0.00000000000E+00  0.00000000000E+00  0.98483816722E+03  0.98483816722E+03  0.00000000000E+00 0. -1.
         -1   -1    0    0    0  501 -0.00000000000E+00 -0.00000000000E+00 -0.27279230108E+02  0.27279230108E+02  0.00000000000E+00 0.  1.
          5    1    1    2  502    0 -0.68265711155E+02  0.33546478800E+02  0.63568784367E+02  0.99240384448E+02  0.47000000000E+01 0. -1.
         -5    1    1    2    0  502 -0.33209110469E+02 -0.34893077049E+02  0.23529047760E+03  0.24021671610E+03  0.47000000000E+01 0. -1.
        -11    1    1    2    0    0  0.79496337943E+02 -0.39423535291E+02  0.47457216339E+03  0.48279666646E+03  0.00000000000E+00 0.  1.
         11    1    1    2    0    0  0.21978483682E+02  0.40770133540E+02  0.18412751174E+03  0.18986363031E+03  0.00000000000E+00 0. -1.
<mgrwt>
<rscale>  0 0.15442838E+03</rscale>
<asrwt>0</asrwt>
<pdfrwt beam="1">  1        1 0.15151354E+00 0.16097908E+03</pdfrwt>
<pdfrwt beam="2">  1       -1 0.41968054E-02 0.16097908E+03</pdfrwt>
<totfact> 0.37054907E+03</totfact>
</mgrwt>
</event>
<event>
 6    1  0.7270761E-006  0.1368043E+03  0.7546771E-02  0.1230194E+00
         -2   -1    0    0    0  501 -0.00000000000E+00  0.00000000000E+00  0.15761906237E+03  0.15761906237E+03  0.00000000000E+00 0. -1.
          2   -1    0    0  501    0  0.00000000000E+00 -0.00000000000E+00 -0.93136453535E+02  0.93136453535E+02  0.00000000000E+00 0.  1.
          5    1    1    2  502    0 -0.35803240498E+01  0.26563762552E+02  0.79171028168E+02  0.83717345290E+02  0.47000000000E+01 0. -1.
         -5    1    1    2    0  502  0.17862431533E+02  0.27154114803E+02 -0.46506135642E+02  0.56932618624E+02  0.47000000000E+01 0. -1.
        -11    1    1    2    0    0 -0.33015256994E+02 -0.69085789649E+02  0.94872650717E+01  0.77154790676E+02  0.00000000000E+00 0.  1.
         11    1    1    2    0    0  0.18733149511E+02  0.15367912293E+02  0.22330451241E+02  0.32950761318E+02  0.00000000000E+00 0. -1.
<mgrwt>
<rscale>  0 0.12817204E+03</rscale>
<asrwt>0</asrwt>
<pdfrwt beam="2">  1        2 0.14328685E-01 0.13680430E+03</pdfrwt>
<pdfrwt beam="1">  1       -2 0.24249087E-01 0.13680430E+03</pdfrwt>
<totfact> 0.58698325E+03</totfact>
</mgrwt>
</event>
<event>
 6    1  0.7270761E-006  0.1982388E+03  0.7546771E-02  0.1155535E+00
         -1   -1    0    0    0  501 -0.00000000000E+00  0.00000000000E+00  0.59756077800E+02  0.59756077800E+02  0.00000000000E+00 0.  1.
          1   -1    0    0  501    0  0.00000000000E+00 -0.00000000000E+00 -0.64945683992E+03  0.64945683992E+03  0.00000000000E+00 0. -1.
          5    1    1    2  502    0  0.21634831860E+02 -0.99182564104E+02 -0.73695486348E+02  0.12553231329E+03  0.47000000000E+01 0. -1.
         -5    1    1    2    0  502  0.90113769866E+02 -0.65783579215E+01 -0.13305035958E+03  0.16089827376E+03  0.47000000000E+01 0. -1.
        -11    1    1    2    0    0 -0.52240151155E+02  0.18534490264E+02 -0.54356098436E+02  0.77634696877E+02  0.00000000000E+00 0.  1.
         11    1    1    2    0    0 -0.59508450570E+02  0.87226431762E+02 -0.32859881776E+03  0.34514763380E+03  0.00000000000E+00 0. -1.
<mgrwt>
<rscale>  0 0.19328070E+03</rscale>
<asrwt>0</asrwt>
<pdfrwt beam="2">  1        1 0.99916446E-01 0.19823884E+03</pdfrwt>
<pdfrwt beam="1">  1       -1 0.91932419E-02 0.19823884E+03</pdfrwt>
<totfact> 0.21676857E+03</totfact>
</mgrwt>
</event>
<event>
 6    1  0.7270761E-006  0.1313569E+03  0.7546771E-02  0.1244589E+00
         -1   -1    0    0    0  501 -0.00000000000E+00  0.00000000000E+00  0.71669784495E+02  0.71669784495E+02  0.00000000000E+00 0.  1.
          1   -1    0    0  501    0  0.00000000000E+00 -0.00000000000E+00 -0.17031533768E+03  0.17031533768E+03  0.00000000000E+00 0. -1.
          5    1    1    2  502    0  0.22017155743E+01 -0.70126164580E+02 -0.68401128062E+02  0.98098577107E+02  0.47000000000E+01 0. -1.
         -5    1    1    2    0  502 -0.16821979262E+02  0.32488721668E+02  0.19917816108E+02  0.41920226865E+02  0.47000000000E+01 0. -1.
        -11    1    1    2    0    0 -0.40238354552E+01  0.56479148610E+02 -0.49878032972E+02  0.75457959505E+02  0.00000000000E+00 0. -1.
         11    1    1    2    0    0  0.18644099143E+02 -0.18841705698E+02 -0.28420825652E+00  0.26508358696E+02  0.00000000000E+00 0.  1.
<mgrwt>
<rscale>  0 0.11909993E+03</rscale>
<asrwt>0</asrwt>
<pdfrwt beam="2">  1        1 0.26202359E-01 0.13135690E+03</pdfrwt>
<pdfrwt beam="1">  1       -1 0.11026121E-01 0.13135690E+03</pdfrwt>
<totfact> 0.88743855E+03</totfact>
</mgrwt>
</event>
<event>
 6    1  0.7270761E-006  0.1970497E+03  0.7546771E-02  0.1156070E+00
         -1   -1    0    0    0  501 -0.00000000000E+00  0.00000000000E+00  0.14327203120E+03  0.14327203120E+03  0.00000000000E+00 0.  1.
          1   -1    0    0  501    0  0.00000000000E+00 -0.00000000000E+00 -0.27935307925E+03  0.27935307925E+03  0.00000000000E+00 0. -1.
          5    1    1    2  502    0  0.55027337061E+02  0.93166245556E+02 -0.24803683948E+01  0.10833374065E+03  0.47000000000E+01 0. -1.
         -5    1    1    2    0  502 -0.66116961627E+02  0.58925718059E+02  0.21862353250E+01  0.88716190678E+02  0.47000000000E+01 0. -1.
        -11    1    1    2    0    0  0.16801668134E+02 -0.26649906244E+02  0.10104116209E+02  0.33084841230E+02  0.00000000000E+00 0.  1.
         11    1    1    2    0    0 -0.57120435682E+01 -0.12544205737E+03 -0.14589103120E+03  0.19249033789E+03  0.00000000000E+00 0. -1.
<mgrwt>
<rscale>  0 0.19267578E+03</rscale>
<asrwt>0</asrwt>
<pdfrwt beam="2">  1        1 0.42977396E-01 0.19704971E+03</pdfrwt>
<pdfrwt beam="1">  1       -1 0.22041851E-01 0.19704971E+03</pdfrwt>
<totfact> 0.16344805E+03</totfact>
</mgrwt>
</event>
<event>
 6    1  0.7270761E-006  0.3521268E+03  0.7546771E-02  0.1062813E+00
         -2   -1    0    0    0  501 -0.00000000000E+00  0.00000000000E+00  0.14041816719E+03  0.14041816719E+03  0.00000000000E+00 0.  1.
          2   -1    0    0  501    0  0.00000000000E+00 -0.00000000000E+00 -0.11863456809E+04  0.11863456809E+04  0.00000000000E+00 0. -1.
          5    1    1    2  502    0  0.13463994162E+03 -0.19357997145E+03 -0.73808922980E+02  0.24712540610E+03  0.47000000000E+01 0.  1.
         -5    1    1    2    0  502  0.94532915212E+02 -0.42737139262E+02 -0.10545502250E+03  0.14800603671E+03  0.47000000000E+01 0.  1.
        -11    1    1    2    0    0 -0.16926334827E+03  0.11010510493E+03 -0.49747297803E+03  0.53689158968E+03  0.00000000000E+00 0. -1.
         11    1    1    2    0    0 -0.59909508563E+02  0.12621200578E+03 -0.36919059020E+03  0.39474081562E+03  0.00000000000E+00 0.  1.
<mgrwt>
<rscale>  0 0.34951845E+03</rscale>
<asrwt>0</asrwt>
<pdfrwt beam="2">  1        2 0.18251472E+00 0.35212682E+03</pdfrwt>
<pdfrwt beam="1">  1       -2 0.21602795E-01 0.35212682E+03</pdfrwt>
<totfact> 0.37306954E+02</totfact>
</mgrwt>
</event>
<event>
 6    1  0.7270761E-006  0.1650349E+03  0.7546771E-02  0.1190440E+00
         -4   -1    0    0    0  501 -0.00000000000E+00  0.00000000000E+00  0.78274268316E+02  0.78274268316E+02  0.00000000000E+00 0.  1.
          4   -1    0    0  501    0  0.00000000000E+00 -0.00000000000E+00 -0.31317715626E+03  0.31317715626E+03  0.00000000000E+00 0. -1.
          5    1    1    2  502    0  0.30944075423E+02 -0.72998581218E+02 -0.18621210276E+03  0.20244348811E+03  0.47000000000E+01 0. -1.
         -5    1    1    2    0  502  0.14249365110E+01 -0.29800911674E+02  0.16387435380E+02  0.34362229541E+02  0.47000000000E+01 0. -1.
        -11    1    1    2    0    0 -0.10198436056E+02  0.12454732554E+01  0.18569783052E+02  0.21222538590E+02  0.00000000000E+00 0.  1.
         11    1    1    2    0    0 -0.22170575878E+02  0.10155401964E+03 -0.83648003616E+02  0.13342316833E+03  0.00000000000E+00 0. -1.
<mgrwt>
<rscale>  0 0.15846574E+03</rscale>
<asrwt>0</asrwt>
<pdfrwt beam="2">  1        4 0.48181101E-01 0.16503494E+03</pdfrwt>
<pdfrwt beam="1">  1       -4 0.12042195E-01 0.16503494E+03</pdfrwt>
<totfact> 0.39810194E+02</totfact>
</mgrwt>
</event>
<event>
 6    1  0.7270761E-006  0.1662472E+03  0.7546771E-02  0.1188178E+00
         -1   -1    0    0    0  501 -0.00000000000E+00  0.00000000000E+00  0.30902932680E+03  0.30902932680E+03  0.00000000000E+00 0.  1.
          1   -1    0    0  501    0  0.00000000000E+00 -0.00000000000E+00 -0.78727239725E+02  0.78727239725E+02  0.00000000000E+00 0. -1.
          5    1    1    2  502    0  0.55173530250E+02 -0.73127753905E+02  0.10739232512E+03  0.14123380731E+03  0.47000000000E+01 0.  1.
         -5    1    1    2    0  502  0.51111541042E+02  0.46362368214E+02  0.34302043048E+02  0.77204785935E+02  0.47000000000E+01 0.  1.
        -11    1    1    2    0    0 -0.54990168373E+02 -0.75449038809E+01  0.92072313150E+02  0.10750886029E+03  0.00000000000E+00 0.  1.
         11    1    1    2    0    0 -0.51294902919E+02  0.34310289572E+02 -0.34645942405E+01  0.61809112995E+02  0.00000000000E+00 0. -1.
<mgrwt>
<rscale>  0 0.16046068E+03</rscale>
<asrwt>0</asrwt>
<pdfrwt beam="2">  1        1 0.12111883E-01 0.16624718E+03</pdfrwt>
<pdfrwt beam="1">  1       -1 0.47542973E-01 0.16624718E+03</pdfrwt>
<totfact> 0.21892099E+03</totfact>
</mgrwt>
</event>
<event>
 6    1  0.7270761E-006  0.1255708E+03  0.7546771E-02  0.1249721E+00
          1   -1    0    0  501    0  0.00000000000E+00  0.00000000000E+00  0.38926464405E+02  0.38926464405E+02  0.00000000000E+00 0. -1.
         -1   -1    0    0    0  501 -0.00000000000E+00 -0.00000000000E+00 -0.30444890939E+03  0.30444890939E+03  0.00000000000E+00 0.  1.
          5    1    1    2  502    0 -0.30454937644E+02  0.48106744237E+02 -0.29494971480E+02  0.64294676379E+02  0.47000000000E+01 0. -1.
         -5    1    1    2    0  502  0.38369435571E+02 -0.39173136207E+02 -0.11262648059E+03  0.12535374871E+03  0.47000000000E+01 0. -1.
        -11    1    1    2    0    0  0.20588731244E+02  0.13544586520E+02 -0.11343828393E+03  0.11608443453E+03  0.00000000000E+00 0.  1.
         11    1    1    2    0    0 -0.28503229170E+02 -0.22478194551E+02 -0.99627089867E+01  0.37642514180E+02  0.00000000000E+00 0. -1.
<mgrwt>
<rscale>  0 0.11607221E+03</rscale>
<asrwt>0</asrwt>
<pdfrwt beam="1">  1        1 0.59886866E-02 0.12557077E+03</pdfrwt>
<pdfrwt beam="2">  1       -1 0.46838296E-01 0.12557077E+03</pdfrwt>
<totfact> 0.56827609E+03</totfact>
</mgrwt>
</event>
<event>
 6    1  0.7270761E-006  0.1266809E+03  0.7546771E-02  0.1246725E+00
         -1   -1    0    0    0  501 -0.00000000000E+00  0.00000000000E+00  0.19158061377E+03  0.19158061377E+03  0.00000000000E+00 0.  1.
          1   -1    0    0  501    0  0.00000000000E+00 -0.00000000000E+00 -0.68138788213E+02  0.68138788213E+02  0.00000000000E+00 0. -1.
          5    1    1    2  502    0 -0.65057644961E+01 -0.61736358181E+02  0.32946808083E+02  0.70436390140E+02  0.47000000000E+01 0.  1.
         -5    1    1    2    0  502  0.25979591346E+02  0.55165150524E+02  0.68744872727E+02  0.92011306507E+02  0.47000000000E+01 0.  1.
        -11    1    1    2    0    0 -0.53144614502E+02  0.21096620974E+02  0.64643912556E+01  0.57543077963E+02  0.00000000000E+00 0.  1.
         11    1    1    2    0    0  0.33670787652E+02 -0.14525413318E+02  0.15285753492E+02  0.39728627373E+02  0.00000000000E+00 0. -1.
<mgrwt>
<rscale>  0 0.11782722E+03</rscale>
<asrwt>0</asrwt>
<pdfrwt beam="2">  1        1 0.10482891E-01 0.12668092E+03</pdfrwt>
<pdfrwt beam="1">  1       -1 0.29473940E-01 0.12668092E+03</pdfrwt>
<totfact> 0.59933899E+03</totfact>
</mgrwt>
</event>
<event>
 6    1  0.7270761E-006  0.1346170E+03  0.7546771E-02  0.1233588E+00
         -2   -1    0    0    0  501 -0.00000000000E+00  0.00000000000E+00  0.41822340851E+02  0.41822340851E+02  0.00000000000E+00 0.  1.
          2   -1    0    0  501    0  0.00000000000E+00 -0.00000000000E+00 -0.34474972876E+03  0.34474972876E+03  0.00000000000E+00 0. -1.
          5    1    1    2  502    0  0.18297583462E+02  0.80530144389E+02 -0.51338417981E+02  0.97353114366E+02  0.47000000000E+01 0. -1.
         -5    1    1    2    0  502  0.48283960585E+01 -0.36235073162E+02 -0.92904076768E+02  0.99947743425E+02  0.47000000000E+01 0. -1.
        -11    1    1    2    0    0  0.30118850788E+02 -0.59829644203E+01 -0.86228350855E+02  0.91532887681E+02  0.00000000000E+00 0.  1.
         11    1    1    2    0    0 -0.53244830309E+02 -0.38312106806E+02 -0.72456542301E+02  0.97738324136E+02  0.00000000000E+00 0. -1.
<mgrwt>
<rscale>  0 0.12595237E+03</rscale>
<asrwt>0</asrwt>
<pdfrwt beam="2">  1        2 0.53038418E-01 0.13461698E+03</pdfrwt>
<pdfrwt beam="1">  1       -2 0.64342065E-02 0.13461698E+03</pdfrwt>
<totfact> 0.11785291E+04</totfact>
</mgrwt>
</event>
<event>
 6    1  0.7270761E-006  0.1534096E+03  0.7546771E-02  0.1205859E+00
          2   -1    0    0  501    0  0.00000000000E+00  0.00000000000E+00  0.37181047635E+03  0.37181047635E+03  0.00000000000E+00 0. -1.
         -2   -1    0    0    0  501 -0.00000000000E+00 -0.00000000000E+00 -0.55264296356E+02  0.55264296356E+02  0.00000000000E+00 0.  1.
          5    1    1    2  502    0  0.12696614833E+02 -0.56029116435E+02  0.48929138536E+02  0.75608309825E+02  0.47000000000E+01 0.  1.
         -5    1    1    2    0  502  0.76222299727E+02  0.57668750249E+02  0.73419666608E+02  0.12061534387E+03  0.47000000000E+01 0.  1.
        -11    1    1    2    0    0 -0.98162321155E+02  0.12920148053E+02  0.12459314932E+03  0.15914215148E+03  0.00000000000E+00 0.  1.
         11    1    1    2    0    0  0.92434065953E+01 -0.14559781867E+02  0.69604225523E+02  0.71708967529E+02  0.00000000000E+00 0. -1.
<mgrwt>
<rscale>  0 0.14569979E+03</rscale>
<asrwt>0</asrwt>
<pdfrwt beam="1">  1        2 0.57201610E-01 0.15340956E+03</pdfrwt>
<pdfrwt beam="2">  1       -2 0.85021997E-02 0.15340956E+03</pdfrwt>
<totfact> 0.71462534E+03</totfact>
</mgrwt>
</event>
<event>
 6    1  0.7270761E-006  0.1824882E+03  0.7546771E-02  0.1170951E+00
          2   -1    0    0  501    0  0.00000000000E+00  0.00000000000E+00  0.13340505873E+03  0.13340505873E+03  0.00000000000E+00 0. -1.
         -2   -1    0    0    0  501 -0.00000000000E+00 -0.00000000000E+00 -0.23309728175E+03  0.23309728175E+03  0.00000000000E+00 0.  1.
          5    1    1    2  502    0 -0.39248254519E+02  0.63420629970E+02 -0.12006605254E+03  0.14142329639E+03  0.47000000000E+01 0.  1.
         -5    1    1    2    0  502 -0.40123678412E+02  0.43233869061E+02  0.25125717504E+02  0.64284280220E+02  0.47000000000E+01 0.  1.
        -11    1    1    2    0    0  0.81912783350E+02 -0.55057590604E+02  0.24138488005E+02  0.10160565419E+03  0.00000000000E+00 0.  1.
         11    1    1    2    0    0 -0.25408504192E+01 -0.51596908427E+02 -0.28890375991E+02  0.59189109682E+02  0.00000000000E+00 0. -1.
<mgrwt>
<rscale>  0 0.17678549E+03</rscale>
<asrwt>0</asrwt>
<pdfrwt beam="1">  1        2 0.20523855E-01 0.18248819E+03</pdfrwt>
<pdfrwt beam="2">  1       -2 0.35861120E-01 0.18248819E+03</pdfrwt>
<totfact> 0.19451667E+03</totfact>
</mgrwt>
</event>
<event>
 6    1  0.7270761E-006  0.2938610E+03  0.7546771E-02  0.1088350E+00
         -1   -1    0    0    0  501 -0.00000000000E+00  0.00000000000E+00  0.12900031233E+04  0.12900031233E+04  0.00000000000E+00 0.  1.
          1   -1    0    0  501    0  0.00000000000E+00 -0.00000000000E+00 -0.16735291146E+02  0.16735291146E+02  0.00000000000E+00 0. -1.
          5    1    1    2  502    0 -0.70058882546E+02 -0.57185432572E+02  0.96374444088E+03  0.96798959604E+03  0.47000000000E+01 0.  1.
         -5    1    1    2    0  502  0.79157585176E+01  0.17442433933E+02  0.27591307480E+02  0.33915600877E+02  0.47000000000E+01 0.  1.
        -11    1    1    2    0    0  0.22485945585E+02 -0.28508412446E+02  0.74154818232E+02  0.82566848045E+02  0.00000000000E+00 0.  1.
         11    1    1    2    0    0  0.39657178443E+02  0.68251411085E+02  0.20777726557E+03  0.22226636949E+03  0.00000000000E+00 0. -1.
<mgrwt>
<rscale>  0 0.29386104E+03</rscale>
<asrwt>0</asrwt>
<pdfrwt beam="2">  1        1 0.25746612E-02 0.29386104E+03</pdfrwt>
<pdfrwt beam="1">  1       -1 0.19846194E+00 0.29386104E+03</pdfrwt>
<totfact> 0.72375836E+02</totfact>
</mgrwt>
</event>
<event>
 6    1  0.7270761E-006  0.3765254E+03  0.7546771E-02  0.1069115E+00
          2   -1    0    0  501    0  0.00000000000E+00  0.00000000000E+00  0.64875690226E+03  0.64875690226E+03  0.00000000000E+00 0. -1.
         -2   -1    0    0    0  501 -0.00000000000E+00 -0.00000000000E+00 -0.15855257762E+03  0.15855257762E+03  0.00000000000E+00 0.  1.
          5    1    1    2  502    0 -0.17298458441E+03  0.29849935625E+02  0.17794575818E+02  0.17650332017E+03  0.47000000000E+01 0. -1.
         -5    1    1    2    0  502  0.74959528593E+02  0.16227151521E+03  0.15976971847E+03  0.23979038454E+03  0.47000000000E+01 0.  1.
        -11    1    1    2    0    0  0.19786119618E+02 -0.25527019601E+02  0.52274364983E+01  0.32717661157E+02  0.00000000000E+00 0.  1.
         11    1    1    2    0    0  0.78238936202E+02 -0.16659443124E+03  0.30741259385E+03  0.35829811403E+03  0.00000000000E+00 0. -1.
<mgrwt>
<rscale>  0 0.33460964E+03</rscale>
<asrwt>0</asrwt>
<pdfrwt beam="1">  1        2 0.99808753E-01 0.37652539E+03</pdfrwt>
<pdfrwt beam="2">  1       -2 0.24392705E-01 0.37652539E+03</pdfrwt>
<totfact> 0.68362675E+02</totfact>
</mgrwt>
</event>
<event>
 6    1  0.7270761E-006  0.1274144E+03  0.7546771E-02  0.1249644E+00
         -1   -1    0    0    0  501 -0.00000000000E+00  0.00000000000E+00  0.32684076901E+02  0.32684076901E+02  0.00000000000E+00 0.  1.
          1   -1    0    0  501    0  0.00000000000E+00 -0.00000000000E+00 -0.35845253290E+03  0.35845253290E+03  0.00000000000E+00 0. -1.
          5    1    1    2  502    0 -0.14063351182E+02  0.55513606207E+02 -0.10585406228E+03  0.12044380773E+03  0.47000000000E+01 0.  1.
         -5    1    1    2    0  502 -0.84688892005E+01 -0.65585504191E+02 -0.66588377423E+02  0.93964261568E+02  0.47000000000E+01 0.  1.
        -11    1    1    2    0    0  0.45485562791E+02  0.32408690294E+02 -0.96246507604E+02  0.11127735554E+03  0.00000000000E+00 0.  1.
         11    1    1    2    0    0 -0.22953322409E+02 -0.22336792310E+02 -0.57079508696E+02  0.65451184965E+02  0.00000000000E+00 0. -1.
<mgrwt>
<rscale>  0 0.11611676E+03</rscale>
<asrwt>0</asrwt>
<pdfrwt beam="2">  1        1 0.55146543E-01 0.12741438E+03</pdfrwt>
<pdfrwt beam="1">  1       -1 0.50283196E-02 0.12741438E+03</pdfrwt>
<totfact> 0.11458204E+04</totfact>
</mgrwt>
</event>
<event>
 6    1  0.7270761E-006  0.2981022E+03  0.7546771E-02  0.1086193E+00
          3   -1    0    0  501    0  0.00000000000E+00  0.00000000000E+00  0.19766688257E+02  0.19766688257E+02  0.00000000000E+00 0. -1.
         -3   -1    0    0    0  501 -0.00000000000E+00 -0.00000000000E+00 -0.11239225476E+04  0.11239225476E+04  0.00000000000E+00 0.  1.
          5    1    1    2  502    0 -0.24790678494E+01 -0.26914636056E+01  0.44884762115E+01  0.74582955454E+01  0.47000000000E+01 0.  1.
         -5    1    1    2    0  502  0.66000672031E+02 -0.75405193479E+02 -0.65049055570E+03  0.65818089077E+03  0.47000000000E+01 0.  1.
        -11    1    1    2    0    0 -0.44428697025E+02 -0.38745150778E+01 -0.90582365560E+02  0.10096576616E+03  0.00000000000E+00 0. -1.
         11    1    1    2    0    0 -0.19092907157E+02  0.81971172163E+02 -0.36757141432E+03  0.37708428341E+03  0.00000000000E+00 0.  1.
<mgrwt>
<rscale>  0 0.29810217E+03</rscale>
<asrwt>0</asrwt>
<pdfrwt beam="1">  1        3 0.30410286E-02 0.29810217E+03</pdfrwt>
<pdfrwt beam="2">  1       -3 0.17291118E+00 0.29810217E+03</pdfrwt>
<totfact> 0.30105585E+02</totfact>
</mgrwt>
</event>
<event>
 6    1  0.7270761E-006  0.3188461E+03  0.7546771E-02  0.1076182E+00
         -1   -1    0    0    0  501 -0.00000000000E+00  0.00000000000E+00  0.94189678556E+02  0.94189678556E+02  0.00000000000E+00 0.  1.
          1   -1    0    0  501    0  0.00000000000E+00 -0.00000000000E+00 -0.26983532085E+03  0.26983532085E+03  0.00000000000E+00 0. -1.
          5    1    1    2  502    0  0.16983264631E+02  0.25848539388E+02 -0.20119066441E+02  0.37194691832E+02  0.47000000000E+01 0.  1.
         -5    1    1    2    0  502  0.66745845522E+01 -0.13213268242E+03 -0.26440506616E+02  0.13499920827E+03  0.47000000000E+01 0.  1.
        -11    1    1    2    0    0  0.49876274014E-01  0.57435272820E+02 -0.12477841824E+03  0.13736253750E+03  0.00000000000E+00 0. -1.
         11    1    1    2    0    0 -0.23707725458E+02  0.48848870213E+02 -0.43076509952E+01  0.54468561800E+02  0.00000000000E+00 0.  1.
<mgrwt>
<rscale>  0 0.31884606E+03</rscale>
<asrwt>0</asrwt>
<pdfrwt beam="2">  1        1 0.41513127E-01 0.31884606E+03</pdfrwt>
<pdfrwt beam="1">  1       -1 0.14490720E-01 0.31884606E+03</pdfrwt>
<totfact> 0.34052986E+03</totfact>
</mgrwt>
</event>
<event>
 6    1  0.7270761E-006  0.3147213E+03  0.7546771E-02  0.1078105E+00
          1   -1    0    0  501    0  0.00000000000E+00  0.00000000000E+00  0.25432762275E+02  0.25432762275E+02  0.00000000000E+00 0. -1.
         -1   -1    0    0    0  501 -0.00000000000E+00 -0.00000000000E+00 -0.97364060698E+03  0.97364060698E+03  0.00000000000E+00 0.  1.
          5    1    1    2  502    0 -0.18472472635E+01 -0.73110317732E+00  0.38462655451E+01  0.63898820765E+01  0.47000000000E+01 0. -1.
         -5    1    1    2    0  502 -0.58793433196E+01 -0.76828816288E+02 -0.76610426402E+03  0.76998380960E+03  0.47000000000E+01 0. -1.
        -11    1    1    2    0    0 -0.11752214009E+02  0.50837923742E+02 -0.24044917043E+02  0.57452302479E+02  0.00000000000E+00 0. -1.
         11    1    1    2    0    0  0.19478804592E+02  0.26721995723E+02 -0.16190492918E+03  0.16524737510E+03  0.00000000000E+00 0.  1.
<mgrwt>
<rscale>  0 0.31472127E+03</rscale>
<asrwt>0</asrwt>
<pdfrwt beam="1">  1        1 0.39127325E-02 0.31472127E+03</pdfrwt>
<pdfrwt beam="2">  1       -1 0.14979087E+00 0.31472127E+03</pdfrwt>
<totfact> 0.89152585E+02</totfact>
</mgrwt>
</event>
<event>
 6    1  0.7270761E-006  0.1688503E+03  0.7546771E-02  0.1192482E+00
         -2   -1    0    0    0  501 -0.00000000000E+00  0.00000000000E+00  0.22945446142E+02  0.22945446142E+02  0.00000000000E+00 0.  1.
          2   -1    0    0  501    0  0.00000000000E+00 -0.00000000000E+00 -0.96989373827E+03  0.96989373827E+03  0.00000000000E+00 0. -1.
          5    1    1    2  502    0  0.22191863551E+02 -0.56697001350E+02 -0.43760938233E+03  0.44184962405E+03  0.47000000000E+01 0. -1.
         -5    1    1    2    0  502 -0.30751732542E+02 -0.28197377346E+02 -0.21182619447E+02  0.47027167788E+02  0.47000000000E+01 0.  1.
        -11    1    1    2    0    0 -0.38334854929E+02  0.20834100631E+02 -0.22072381013E+03  0.22499471374E+03  0.00000000000E+00 0.  1.
         11    1    1    2    0    0  0.46894723921E+02  0.64060278066E+02 -0.26743248021E+03  0.27896767883E+03  0.00000000000E+00 0. -1.
<mgrwt>
<rscale>  0 0.15669311E+03</rscale>
<asrwt>0</asrwt>
<pdfrwt beam="2">  1        2 0.14921442E+00 0.16885028E+03</pdfrwt>
<pdfrwt beam="1">  1       -2 0.35300686E-02 0.16885028E+03</pdfrwt>
<totfact> 0.88843814E+03</totfact>
</mgrwt>
</event>
<event>
 6    1  0.7270761E-006  0.1459041E+03  0.7546771E-02  0.1213703E+00
         -1   -1    0    0    0  501 -0.00000000000E+00  0.00000000000E+00  0.11707841280E+03  0.11707841280E+03  0.00000000000E+00 0.  1.
          1   -1    0    0  501    0  0.00000000000E+00 -0.00000000000E+00 -0.21555523652E+03  0.21555523652E+03  0.00000000000E+00 0. -1.
          5    1    1    2  502    0  0.56090587287E+02  0.45839869206E+02 -0.18846713451E-01  0.72591583164E+02  0.47000000000E+01 0. -1.
         -5    1    1    2    0  502 -0.64745114018E+02  0.22651260781E+02  0.36333392630E+02  0.77763840081E+02  0.47000000000E+01 0.  1.
        -11    1    1    2    0    0 -0.48093669876E+01  0.17398526684E+02 -0.74060256008E+02  0.76228342901E+02  0.00000000000E+00 0.  1.
         11    1    1    2    0    0  0.13463893719E+02 -0.85889656671E+02 -0.60731113633E+02  0.10604988317E+03  0.00000000000E+00 0. -1.
<mgrwt>
<rscale>  0 0.13972259E+03</rscale>
<asrwt>0</asrwt>
<pdfrwt beam="2">  1        1 0.33162344E-01 0.14590410E+03</pdfrwt>
<pdfrwt beam="1">  1       -1 0.18012064E-01 0.14590410E+03</pdfrwt>
<totfact> 0.30947803E+03</totfact>
</mgrwt>
</event>
<event>
 6    1  0.7270761E-006  0.1610682E+03  0.7546771E-02  0.1195082E+00
         -1   -1    0    0    0  501 -0.00000000000E+00  0.00000000000E+00  0.25631117216E+03  0.25631117216E+03  0.00000000000E+00 0.  1.
          1   -1    0    0  501    0  0.00000000000E+00 -0.00000000000E+00 -0.10463280115E+03  0.10463280115E+03  0.00000000000E+00 0. -1.
          5    1    1    2  502    0  0.17440447290E+02 -0.28654842290E+02  0.14832059268E+03  0.15213926975E+03  0.47000000000E+01 0.  1.
         -5    1    1    2    0  502 -0.23407650552E+01 -0.71798076888E+02  0.82040881321E+01  0.72455780225E+02  0.47000000000E+01 0.  1.
        -11    1    1    2    0    0 -0.49447916236E+02  0.81711983232E+02 -0.12972096748E+02  0.96385786908E+02  0.00000000000E+00 0. -1.
         11    1    1    2    0    0  0.34348234001E+02  0.18740935946E+02  0.81257869556E+01  0.39963136423E+02  0.00000000000E+00 0.  1.
<mgrwt>
<rscale>  0 0.15447266E+03</rscale>
<asrwt>0</asrwt>
<pdfrwt beam="2">  1        1 0.16097354E-01 0.16106819E+03</pdfrwt>
<pdfrwt beam="1">  1       -1 0.39432488E-01 0.16106819E+03</pdfrwt>
<totfact> 0.21054881E+03</totfact>
</mgrwt>
</event>
<event>
 6    1  0.7270761E-006  0.1456776E+03  0.7546771E-02  0.1213956E+00
         -1   -1    0    0    0  501 -0.00000000000E+00  0.00000000000E+00  0.80680035208E+02  0.80680035208E+02  0.00000000000E+00 0.  1.
          1   -1    0    0  501    0  0.00000000000E+00 -0.00000000000E+00 -0.28043273317E+03  0.28043273317E+03  0.00000000000E+00 0. -1.
          5    1    1    2  502    0  0.44619422166E+02  0.40966539717E+01  0.37193716370E+02  0.58422067283E+02  0.47000000000E+01 0.  1.
         -5    1    1    2    0  502 -0.11977017834E+01  0.63817613761E+02 -0.62463547155E+02  0.89431018326E+02  0.47000000000E+01 0.  1.
        -11    1    1    2    0    0  0.23273912414E+02 -0.10074840197E+02 -0.11379442172E+02  0.27796926236E+02  0.00000000000E+00 0.  1.
         11    1    1    2    0    0 -0.66695632796E+02 -0.57839427536E+02 -0.16310342500E+03  0.18546275653E+03  0.00000000000E+00 0. -1.
<mgrwt>
<rscale>  0 0.13953530E+03</rscale>
<asrwt>0</asrwt>
<pdfrwt beam="2">  1        1 0.43143498E-01 0.14567763E+03</pdfrwt>
<pdfrwt beam="1">  1       -1 0.12412313E-01 0.14567763E+03</pdfrwt>
<totfact> 0.40070226E+03</totfact>
</mgrwt>
</event>
<event>
 6    1  0.7270761E-006  0.1335471E+03  0.7546771E-02  0.1235338E+00
          2   -1    0    0  501    0  0.00000000000E+00  0.00000000000E+00  0.73493772740E+02  0.73493772740E+02  0.00000000000E+00 0. -1.
         -2   -1    0    0    0  501 -0.00000000000E+00 -0.00000000000E+00 -0.22056917079E+03  0.22056917079E+03  0.00000000000E+00 0.  1.
          5    1    1    2  502    0 -0.31139186297E+02  0.83698227601E+01 -0.14705035923E+03  0.15061739941E+03  0.47000000000E+01 0. -1.
         -5    1    1    2    0  502 -0.41356358108E+01 -0.39433145506E+02  0.95597063926E+01  0.41055504313E+02  0.47000000000E+01 0. -1.
        -11    1    1    2    0    0 -0.17975738218E+02  0.27777198083E+02 -0.30581951333E+02  0.45055029077E+02  0.00000000000E+00 0.  1.
         11    1    1    2    0    0  0.53250560325E+02  0.32861246627E+01  0.20997206120E+02  0.57335010727E+02  0.00000000000E+00 0. -1.
<mgrwt>
<rscale>  0 0.12482812E+03</rscale>
<asrwt>0</asrwt>
<pdfrwt beam="1">  1        2 0.11306734E-01 0.13354708E+03</pdfrwt>
<pdfrwt beam="2">  1       -2 0.33933718E-01 0.13354708E+03</pdfrwt>
<totfact> 0.42672882E+03</totfact>
</mgrwt>
</event>
<event>
 6    1  0.7270761E-006  0.1306701E+03  0.7546771E-02  0.1240599E+00
          2   -1    0    0  501    0  0.00000000000E+00  0.00000000000E+00  0.14767715832E+03  0.14767715832E+03  0.00000000000E+00 0.  1.
         -2   -1    0    0    0  501 -0.00000000000E+00 -0.00000000000E+00 -0.13436789655E+03  0.13436789655E+03  0.00000000000E+00 0. -1.
          5    1    1    2  502    0 -0.13038923606E+02 -0.38731011445E+02 -0.55570523861E+02  0.69139553792E+02  0.47000000000E+01 0. -1.
         -5    1    1    2    0  502  0.25528122578E+02  0.74711965513E+02 -0.19120610287E+02  0.81371067161E+02  0.47000000000E+01 0. -1.
        -11    1    1    2    0    0  0.33089498132E+02  0.83741972268E+01  0.32287667618E+02  0.46984418120E+02  0.00000000000E+00 0.  1.
         11    1    1    2    0    0 -0.45578697104E+02 -0.44355151294E+02  0.55712728299E+02  0.84550015793E+02  0.00000000000E+00 0. -1.
<mgrwt>
<rscale>  0 0.12152728E+03</rscale>
<asrwt>0</asrwt>
<pdfrwt beam="1">  1        2 0.22719563E-01 0.13067012E+03</pdfrwt>
<pdfrwt beam="2">  1       -2 0.20671984E-01 0.13067012E+03</pdfrwt>
<totfact> 0.45421865E+03</totfact>
</mgrwt>
</event>
<event>
 6    1  0.7270761E-006  0.1644297E+03  0.7546771E-02  0.1190162E+00
          2   -1    0    0  501    0  0.00000000000E+00  0.00000000000E+00  0.53272849781E+03  0.53272849781E+03  0.00000000000E+00 0. -1.
         -2   -1    0    0    0  501 -0.00000000000E+00 -0.00000000000E+00 -0.55282466465E+02  0.55282466465E+02  0.00000000000E+00 0.  1.
          5    1    1    2  502    0 -0.38089225793E+02  0.50512948727E+02  0.13569943700E+03  0.14979577535E+03  0.47000000000E+01 0. -1.
         -5    1    1    2    0  502  0.74949640901E+01  0.51837175944E+02 -0.14413338314E+02  0.54526155356E+02  0.47000000000E+01 0. -1.
        -11    1    1    2    0    0 -0.14794058775E+02 -0.90698591397E+02  0.27529007647E+03  0.29022357737E+03  0.00000000000E+00 0. -1.
         11    1    1    2    0    0  0.45388320477E+02 -0.11651533274E+02  0.80869856189E+02  0.93465456204E+02  0.00000000000E+00 0.  1.
<mgrwt>
<rscale>  0 0.15870921E+03</rscale>
<asrwt>0</asrwt>
<pdfrwt beam="1">  1        2 0.81958227E-01 0.16442972E+03</pdfrwt>
<pdfrwt beam="2">  1       -2 0.85049952E-02 0.16442972E+03</pdfrwt>
<totfact> 0.48466581E+03</totfact>
</mgrwt>
</event>
<event>
 6    1  0.7270761E-006  0.1287694E+03  0.7546771E-02  0.1245691E+00
         -1   -1    0    0    0  501 -0.00000000000E+00  0.00000000000E+00  0.10748002426E+03  0.10748002426E+03  0.00000000000E+00 0.  1.
          1   -1    0    0  501    0  0.00000000000E+00 -0.00000000000E+00 -0.11705374064E+03  0.11705374064E+03  0.00000000000E+00 0. -1.
          5    1    1    2  502    0  0.32095594271E+02  0.40722184572E+02 -0.10763481443E+02  0.53163577952E+02  0.47000000000E+01 0. -1.
         -5    1    1    2    0  502 -0.62560775280E+02 -0.35976447861E+02  0.24400970152E+02  0.76325963792E+02  0.47000000000E+01 0. -1.
        -11    1    1    2    0    0 -0.35635310298E+01  0.14358521018E+02  0.27397571387E+02  0.31136679289E+02  0.00000000000E+00 0.  1.
         11    1    1    2    0    0  0.34028712039E+02 -0.19104257728E+02 -0.50608776483E+02  0.63907543870E+02  0.00000000000E+00 0. -1.
<mgrwt>
<rscale>  0 0.11844117E+03</rscale>
<asrwt>0</asrwt>
<pdfrwt beam="2">  1        1 0.18008268E-01 0.12876941E+03</pdfrwt>
<pdfrwt beam="1">  1       -1 0.16535388E-01 0.12876941E+03</pdfrwt>
<totfact> 0.75818484E+03</totfact>
</mgrwt>
</event>
<event>
 6    1  0.7270761E-006  0.1395737E+03  0.7546771E-02  0.1224963E+00
          2   -1    0    0  501    0  0.00000000000E+00  0.00000000000E+00  0.29819671148E+03  0.29819671148E+03  0.00000000000E+00 0. -1.
         -2   -1    0    0    0  501 -0.00000000000E+00 -0.00000000000E+00 -0.54703044091E+02  0.54703044091E+02  0.00000000000E+00 0.  1.
          5    1    1    2  502    0  0.20096775331E+02 -0.47763035294E+02  0.31105892290E+01  0.52124405844E+02  0.47000000000E+01 0. -1.
         -5    1    1    2    0  502  0.15513976027E+02 -0.30797972294E+01  0.16747046050E+03  0.16828135293E+03  0.47000000000E+01 0. -1.
        -11    1    1    2    0    0 -0.60045497374E+02  0.54865336875E+02  0.70455514995E+02  0.10760876609E+03  0.00000000000E+00 0. -1.
         11    1    1    2    0    0  0.24434746016E+02 -0.40225043516E+01  0.24571026653E+01  0.24885230713E+02  0.00000000000E+00 0.  1.
<mgrwt>
<rscale>  0 0.13169467E+03</rscale>
<asrwt>0</asrwt>
<pdfrwt beam="1">  1        2 0.45876416E-01 0.13957365E+03</pdfrwt>
<pdfrwt beam="2">  1       -2 0.84158531E-02 0.13957365E+03</pdfrwt>
<totfact> 0.91240290E+03</totfact>
</mgrwt>
</event>
<event>
 6    1  0.7270761E-006  0.1469014E+03  0.7546771E-02  0.1213890E+00
         -3   -1    0    0    0  501 -0.00000000000E+00  0.00000000000E+00  0.32868604552E+03  0.32868604552E+03  0.00000000000E+00 0.  1.
          3   -1    0    0  501    0  0.00000000000E+00 -0.00000000000E+00 -0.66760749961E+02  0.66760749961E+02  0.00000000000E+00 0. -1.
          5    1    1    2  502    0 -0.76060567063E+02 -0.33503549110E+02  0.93472107842E+02  0.12516717864E+03  0.47000000000E+01 0. -1.
         -5    1    1    2    0  502  0.24852463815E+01  0.56721260017E+02  0.13410584402E+03  0.14570499370E+03  0.47000000000E+01 0. -1.
        -11    1    1    2    0    0  0.39064512041E+02 -0.52978088816E+02  0.42400986505E+02  0.78297877699E+02  0.00000000000E+00 0.  1.
         11    1    1    2    0    0  0.34510808641E+02  0.29760377908E+02 -0.80536428093E+01  0.46276745443E+02  0.00000000000E+00 0. -1.
<mgrwt>
<rscale>  0 0.13958366E+03</rscale>
<asrwt>0</asrwt>
<pdfrwt beam="2">  1        3 0.10270885E-01 0.14690136E+03</pdfrwt>
<pdfrwt beam="1">  1       -3 0.50567083E-01 0.14690136E+03</pdfrwt>
<totfact> 0.64525164E+02</totfact>
</mgrwt>
</event>
<event>
 6    1  0.7270761E-006  0.2657186E+03  0.7546771E-02  0.1103755E+00
          4   -1    0    0  501    0  0.00000000000E+00  0.00000000000E+00  0.14983928292E+02  0.14983928292E+02  0.00000000000E+00 0. -1.
         -4   -1    0    0    0  501 -0.00000000000E+00 -0.00000000000E+00 -0.11780355046E+04  0.11780355046E+04  0.00000000000E+00 0.  1.
          5    1    1    2  502    0  0.54424736652E+02 -0.89265447636E+01 -0.14710308972E+03  0.15717233906E+03  0.47000000000E+01 0.  1.
         -5    1    1    2    0  502 -0.24144172706E+01  0.81758600205E+01 -0.75241032698E+03  0.75247329802E+03  0.47000000000E+01 0.  1.
        -11    1    1    2    0    0 -0.31834633712E+02  0.45079536849E+02 -0.15001372138E+03  0.15984281388E+03  0.00000000000E+00 0.  1.
         11    1    1    2    0    0 -0.20175685669E+02 -0.44328852106E+02 -0.11352443828E+03  0.12353098198E+03  0.00000000000E+00 0. -1.
<mgrwt>
<rscale>  0 0.26571864E+03</rscale>
<asrwt>0</asrwt>
<pdfrwt beam="1">  1        4 0.23052199E-02 0.26571864E+03</pdfrwt>
<pdfrwt beam="2">  1       -4 0.18123622E+00 0.26571864E+03</pdfrwt>
<totfact> 0.28953050E+02</totfact>
</mgrwt>
</event>
<event>
 6    1  0.7270761E-006  0.2567614E+03  0.7546771E-02  0.1109105E+00
          2   -1    0    0  501    0  0.00000000000E+00  0.00000000000E+00  0.31796300214E+03  0.31796300214E+03  0.00000000000E+00 0. -1.
         -2   -1    0    0    0  501 -0.00000000000E+00 -0.00000000000E+00 -0.51834993171E+02  0.51834993171E+02  0.00000000000E+00 0.  1.
          5    1    1    2  502    0 -0.61423166825E+02  0.30435437501E+02  0.42501297300E+01  0.68842391601E+02  0.47000000000E+01 0.  1.
         -5    1    1    2    0  502  0.17876961522E+02  0.20402273106E+02  0.10960079381E+03  0.11300558617E+03  0.47000000000E+01 0.  1.
        -11    1    1    2    0    0  0.49999055078E+02  0.33722421989E+01  0.43996234784E+02  0.66685427203E+02  0.00000000000E+00 0.  1.
         11    1    1    2    0    0 -0.64528497752E+01 -0.54209952806E+02  0.10828085064E+03  0.12126459033E+03  0.00000000000E+00 0. -1.
<mgrwt>
<rscale>  0 0.25676145E+03</rscale>
<asrwt>0</asrwt>
<pdfrwt beam="1">  1        2 0.48917384E-01 0.25676145E+03</pdfrwt>
<pdfrwt beam="2">  1       -2 0.79746145E-02 0.25676145E+03</pdfrwt>
<totfact> 0.96369032E+03</totfact>
</mgrwt>
</event>
<event>
 6    1  0.7270761E-006  0.1563814E+03  0.7546771E-02  0.1203141E+00
          2   -1    0    0  501    0  0.00000000000E+00  0.00000000000E+00  0.29323020034E+03  0.29323020034E+03  0.00000000000E+00 0. -1.
         -2   -1    0    0    0  501 -0.00000000000E+00 -0.00000000000E+00 -0.75464402059E+02  0.75464402059E+02  0.00000000000E+00 0.  1.
          5    1    1    2  502    0  0.39599890309E+02 -0.33295750809E+01  0.21023022289E+02  0.45202819036E+02  0.47000000000E+01 0. -1.
         -5    1    1    2    0  502 -0.84491778438E+02 -0.79226191466E+02  0.39097240442E+02  0.12233697008E+03  0.47000000000E+01 0. -1.
        -11    1    1    2    0    0  0.34905250889E+02  0.59885835310E+02  0.16181308941E+03  0.17603455830E+03  0.00000000000E+00 0. -1.
         11    1    1    2    0    0  0.99866372403E+01  0.22669931237E+02 -0.41675538562E+01  0.25120254991E+02  0.00000000000E+00 0.  1.
<mgrwt>
<rscale>  0 0.14784891E+03</rscale>
<asrwt>0</asrwt>
<pdfrwt beam="1">  1        2 0.45112338E-01 0.15638138E+03</pdfrwt>
<pdfrwt beam="2">  1       -2 0.11609908E-01 0.15638138E+03</pdfrwt>
<totfact> 0.56401370E+03</totfact>
</mgrwt>
</event>
<event>
 6    1  0.7270761E-006  0.1487280E+03  0.7546771E-02  0.1212707E+00
         -2   -1    0    0    0  501 -0.00000000000E+00  0.00000000000E+00  0.10590464781E+03  0.10590464781E+03  0.00000000000E+00 0.  1.
          2   -1    0    0  501    0  0.00000000000E+00 -0.00000000000E+00 -0.19086623132E+03  0.19086623132E+03  0.00000000000E+00 0. -1.
          5    1    1    2  502    0 -0.71254712470E+02  0.98676396531E+01  0.23964267906E+02  0.75966969782E+02  0.47000000000E+01 0.  1.
         -5    1    1    2    0  502  0.33400092233E+02  0.61338427374E+02 -0.20040915137E+02  0.72812753783E+02  0.47000000000E+01 0.  1.
        -11    1    1    2    0    0  0.66255730532E+01 -0.39121683762E+02 -0.94856725681E+02  0.10282121749E+03  0.00000000000E+00 0.  1.
         11    1    1    2    0    0  0.31229047184E+02 -0.32084383265E+02  0.59717894017E+01  0.45169938081E+02  0.00000000000E+00 0. -1.
<mgrwt>
<rscale>  0 0.14046361E+03</rscale>
<asrwt>0</asrwt>
<pdfrwt beam="2">  1        2 0.29364035E-01 0.14872798E+03</pdfrwt>
<pdfrwt beam="1">  1       -2 0.16293023E-01 0.14872798E+03</pdfrwt>
<totfact> 0.51428148E+03</totfact>
</mgrwt>
</event>
<event>
 6    1  0.7270761E-006  0.1485771E+03  0.7546771E-02  0.1209928E+00
          2   -1    0    0  501    0  0.00000000000E+00  0.00000000000E+00  0.84587537563E+02  0.84587537563E+02  0.00000000000E+00 0.  1.
         -2   -1    0    0    0  501 -0.00000000000E+00 -0.00000000000E+00 -0.22441220620E+03  0.22441220620E+03  0.00000000000E+00 0. -1.
          5    1    1    2  502    0  0.90677724471E+02  0.17545144504E+02 -0.81906532672E+02  0.12353563010E+03  0.47000000000E+01 0. -1.
         -5    1    1    2    0  502 -0.31870333419E+02  0.37157160516E+02 -0.71703643813E+01  0.49697855640E+02  0.47000000000E+01 0. -1.
        -11    1    1    2    0    0 -0.64216680909E+02 -0.10411796876E+02 -0.61873606361E+02  0.89780458816E+02  0.00000000000E+00 0. -1.
         11    1    1    2    0    0  0.54092898568E+01 -0.44290508144E+02  0.11125834780E+02  0.45985799199E+02  0.00000000000E+00 0.  1.
<mgrwt>
<rscale>  0 0.14255812E+03</rscale>
<asrwt>0</asrwt>
<pdfrwt beam="1">  1        2 0.13013467E-01 0.14857707E+03</pdfrwt>
<pdfrwt beam="2">  1       -2 0.34524955E-01 0.14857707E+03</pdfrwt>
<totfact> 0.35140501E+03</totfact>
</mgrwt>
</event>
<event>
 6    1  0.7270761E-006  0.1894170E+03  0.7546771E-02  0.1164467E+00
         -2   -1    0    0    0  501 -0.00000000000E+00  0.00000000000E+00  0.66657479588E+02  0.66657479588E+02  0.00000000000E+00 0.  1.
          2   -1    0    0  501    0  0.00000000000E+00 -0.00000000000E+00 -0.60547505559E+03  0.60547505559E+03  0.00000000000E+00 0. -1.
          5    1    1    2  502    0 -0.43796216045E+02  0.67847615322E+02 -0.85526863836E+02  0.11772145889E+03  0.47000000000E+01 0.  1.
         -5    1    1    2    0  502  0.73301762384E+02  0.71294851955E+02 -0.42111533420E+02  0.11068683540E+03  0.47000000000E+01 0.  1.
        -11    1    1    2    0    0 -0.39883936630E+02 -0.12106717773E+03 -0.40051879100E+03  0.42031332583E+03  0.00000000000E+00 0. -1.
         11    1    1    2    0    0  0.10378390291E+02 -0.18075289544E+02 -0.10660387743E+02  0.23410915061E+02  0.00000000000E+00 0.  1.
<mgrwt>
<rscale>  0 0.18349086E+03</rscale>
<asrwt>0</asrwt>
<pdfrwt beam="2">  1        2 0.93150007E-01 0.18941697E+03</pdfrwt>
<pdfrwt beam="1">  1       -2 0.10254997E-01 0.18941697E+03</pdfrwt>
<totfact> 0.31396801E+03</totfact>
</mgrwt>
</event>
<event>
 6    1  0.7270761E-006  0.1445490E+03  0.7546771E-02  0.1217742E+00
          2   -1    0    0  501    0  0.00000000000E+00  0.00000000000E+00  0.14026387263E+03  0.14026387263E+03  0.00000000000E+00 0.  1.
         -2   -1    0    0    0  501 -0.00000000000E+00 -0.00000000000E+00 -0.12136182477E+03  0.12136182477E+03  0.00000000000E+00 0. -1.
          5    1    1    2  502    0  0.14065821838E+02  0.22869649204E+02  0.53296192047E+02  0.59861860023E+02  0.47000000000E+01 0. -1.
         -5    1    1    2    0  502 -0.57269925836E+02  0.35460103357E+02 -0.51139914320E+02  0.84703271318E+02  0.47000000000E+01 0. -1.
        -11    1    1    2    0    0  0.11410430379E+02 -0.51372303274E+02  0.48518083409E+02  0.71577341965E+02  0.00000000000E+00 0.  1.
         11    1    1    2    0    0  0.31793673618E+02 -0.69574492868E+01 -0.31772313281E+02  0.45483224094E+02  0.00000000000E+00 0. -1.
<mgrwt>
<rscale>  0 0.13677025E+03</rscale>
<asrwt>0</asrwt>
<pdfrwt beam="1">  1        2 0.21579057E-01 0.14454905E+03</pdfrwt>
<pdfrwt beam="2">  1       -2 0.18671050E-01 0.14454905E+03</pdfrwt>
<totfact> 0.57504950E+03</totfact>
</mgrwt>
</event>
<event>
 6    1  0.7270761E-006  0.1286153E+03  0.7546771E-02  0.1243372E+00
          1   -1    0    0  501    0  0.00000000000E+00  0.00000000000E+00  0.94733665769E+02  0.94733665769E+02  0.00000000000E+00 0. -1.
         -1   -1    0    0    0  501 -0.00000000000E+00 -0.00000000000E+00 -0.17740591490E+03  0.17740591490E+03  0.00000000000E+00 0.  1.
          5    1    1    2  502    0  0.26664520768E+02 -0.32096827643E+02 -0.87357456003E+02  0.96925838309E+02  0.47000000000E+01 0. -1.
         -5    1    1    2    0  502 -0.30669656604E+02  0.62179903813E+02 -0.24989290505E+02  0.73847971633E+02  0.47000000000E+01 0. -1.
        -11    1    1    2    0    0 -0.12230056948E+02 -0.36567984596E+02 -0.23659909983E+02  0.45239176947E+02  0.00000000000E+00 0.  1.
         11    1    1    2    0    0  0.16235192784E+02  0.64849084258E+01  0.53334407356E+02  0.56126593786E+02  0.00000000000E+00 0. -1.
<mgrwt>
<rscale>  0 0.11983355E+03</rscale>
<asrwt>0</asrwt>
<pdfrwt beam="1">  1        1 0.14574410E-01 0.12861533E+03</pdfrwt>
<pdfrwt beam="2">  1       -1 0.27293217E-01 0.12861533E+03</pdfrwt>
<totfact> 0.44322304E+03</totfact>
</mgrwt>
</event>
<event>
 6    1  0.7270761E-006  0.1510005E+03  0.7546771E-02  0.1209100E+00
         -1   -1    0    0    0  501 -0.00000000000E+00  0.00000000000E+00  0.44842281176E+02  0.44842281176E+02  0.00000000000E+00 0.  1.
          1   -1    0    0  501    0  0.00000000000E+00 -0.00000000000E+00 -0.42774947949E+03  0.42774947949E+03  0.00000000000E+00 0. -1.
          5    1    1    2  502    0  0.42514569787E+02 -0.66090787417E+02 -0.10639339586E+03  0.13235227806E+03  0.47000000000E+01 0.  1.
         -5    1    1    2    0  502 -0.68135241805E+02 -0.14654338044E+02 -0.14401091319E+03  0.16005747067E+03  0.47000000000E+01 0.  1.
        -11    1    1    2    0    0  0.36057110311E+02  0.46617253031E+02 -0.13192379678E+03  0.14448934785E+03  0.00000000000E+00 0.  1.
         11    1    1    2    0    0 -0.10436438293E+02  0.34127872430E+02 -0.57909247131E+00  0.35692664077E+02  0.00000000000E+00 0. -1.
<mgrwt>
<rscale>  0 0.14319014E+03</rscale>
<asrwt>0</asrwt>
<pdfrwt beam="2">  1        1 0.65807615E-01 0.15100047E+03</pdfrwt>
<pdfrwt beam="1">  1       -1 0.68988122E-02 0.15100047E+03</pdfrwt>
<totfact> 0.57914840E+03</totfact>
</mgrwt>
</event>
<event>
 6    1  0.7270761E-006  0.1466314E+03  0.7546771E-02  0.1214969E+00
         -2   -1    0    0    0  501 -0.00000000000E+00  0.00000000000E+00  0.14607355747E+03  0.14607355747E+03  0.00000000000E+00 0.  1.
          2   -1    0    0  501    0  0.00000000000E+00 -0.00000000000E+00 -0.13541606587E+03  0.13541606587E+03  0.00000000000E+00 0. -1.
          5    1    1    2  502    0 -0.70244595077E+02  0.82124833759E+02  0.53837106080E+02  0.12082762701E+03  0.47000000000E+01 0. -1.
         -5    1    1    2    0  502  0.31016696315E+02 -0.16271174331E+02 -0.10213215211E+00  0.35339595292E+02  0.47000000000E+01 0. -1.
        -11    1    1    2    0    0  0.62268626775E+02 -0.58593776273E+02 -0.12589754179E+02  0.86424038373E+02  0.00000000000E+00 0.  1.
         11    1    1    2    0    0 -0.23040728012E+02 -0.72598831539E+01 -0.30487728148E+02  0.38898362670E+02  0.00000000000E+00 0. -1.
<mgrwt>
<rscale>  0 0.13878786E+03</rscale>
<asrwt>0</asrwt>
<pdfrwt beam="2">  1        2 0.20833241E-01 0.14663135E+03</pdfrwt>
<pdfrwt beam="1">  1       -2 0.22472855E-01 0.14663135E+03</pdfrwt>
<totfact> 0.43692172E+03</totfact>
</mgrwt>
</event>
<event>
 6    1  0.7270761E-006  0.1514827E+03  0.7546771E-02  0.1206831E+00
          3   -1    0    0  501    0  0.00000000000E+00  0.00000000000E+00  0.37021282454E+02  0.37021282454E+02  0.00000000000E+00 0. -1.
         -3   -1    0    0    0  501 -0.00000000000E+00 -0.00000000000E+00 -0.75224591836E+03  0.75224591836E+03  0.00000000000E+00 0.  1.
          5    1    1    2  502    0 -0.20365620774E+02 -0.75768995317E+02 -0.19112672496E+03  0.20665723833E+03  0.47000000000E+01 0. -1.
         -5    1    1    2    0  502  0.52300833519E+02 -0.36167953348E+01 -0.40540456005E+03  0.40880729654E+03  0.47000000000E+01 0. -1.
        -11    1    1    2    0    0  0.14945317540E+02  0.74802420798E+02 -0.52667116679E+02  0.92696223510E+02  0.00000000000E+00 0. -1.
         11    1    1    2    0    0 -0.46880530286E+02  0.45833698536E+01 -0.66026234218E+02  0.81106442433E+02  0.00000000000E+00 0.  1.
<mgrwt>
<rscale>  0 0.14494074E+03</rscale>
<asrwt>0</asrwt>
<pdfrwt beam="1">  1        3 0.56955819E-02 0.15148274E+03</pdfrwt>
<pdfrwt beam="2">  1       -3 0.11573014E+00 0.15148274E+03</pdfrwt>
<totfact> 0.28201008E+02</totfact>
</mgrwt>
</event>
<event>
 6    1  0.7270761E-006  0.1498986E+03  0.7546771E-02  0.1208994E+00
          2   -1    0    0  501    0  0.00000000000E+00  0.00000000000E+00  0.32328405269E+03  0.32328405269E+03  0.00000000000E+00 0. -1.
         -2   -1    0    0    0  501 -0.00000000000E+00 -0.00000000000E+00 -0.60845561042E+02  0.60845561042E+02  0.00000000000E+00 0.  1.
          5    1    1    2  502    0  0.55098371573E+02 -0.46543034147E+02  0.18571307553E+03  0.19928251554E+03  0.47000000000E+01 0. -1.
         -5    1    1    2    0  502 -0.19743830190E+02 -0.28263008265E+02 -0.53880766225E+01  0.35209911054E+02  0.47000000000E+01 0. -1.
        -11    1    1    2    0    0 -0.68560096736E+01 -0.21762636558E+02  0.25135701584E+02  0.33947322615E+02  0.00000000000E+00 0. -1.
         11    1    1    2    0    0 -0.28498531710E+02  0.96568678970E+02  0.56977791154E+02  0.11568986452E+03  0.00000000000E+00 0.  1.
<mgrwt>
<rscale>  0 0.14327086E+03</rscale>
<asrwt>0</asrwt>
<pdfrwt beam="1">  1        2 0.49736007E-01 0.14989861E+03</pdfrwt>
<pdfrwt beam="2">  1       -2 0.93608558E-02 0.14989861E+03</pdfrwt>
<totfact> 0.71282337E+03</totfact>
</mgrwt>
</event>
<event>
 6    1  0.7270761E-006  0.2301956E+03  0.7546771E-02  0.1129503E+00
          1   -1    0    0  501    0  0.00000000000E+00  0.00000000000E+00  0.25217944692E+03  0.25217944692E+03  0.00000000000E+00 0. -1.
         -1   -1    0    0    0  501 -0.00000000000E+00 -0.00000000000E+00 -0.56103360950E+03  0.56103360950E+03  0.00000000000E+00 0.  1.
          5    1    1    2  502    0 -0.87299864354E+02  0.11111743547E+03 -0.42207237274E+03  0.44512417213E+03  0.47000000000E+01 0.  1.
         -5    1    1    2    0  502 -0.66129132749E+02  0.65562518231E+01 -0.62506671010E+02  0.91352178720E+02  0.47000000000E+01 0.  1.
        -11    1    1    2    0    0  0.10967277126E+03 -0.12822690324E+03  0.13644441886E+03  0.21699616335E+03  0.00000000000E+00 0. -1.
         11    1    1    2    0    0  0.43756225844E+02  0.10553215947E+02  0.39280462311E+02  0.59740542233E+02  0.00000000000E+00 0.  1.
<mgrwt>
<rscale>  0 0.22597846E+03</rscale>
<asrwt>0</asrwt>
<pdfrwt beam="1">  1        1 0.38796839E-01 0.23019562E+03</pdfrwt>
<pdfrwt beam="2">  1       -1 0.86312862E-01 0.23019562E+03</pdfrwt>
<totfact> 0.15388967E+02</totfact>
</mgrwt>
</event>
<event>
 6    1  0.7270761E-006  0.1705308E+03  0.7546771E-02  0.1183726E+00
          4   -1    0    0  501    0  0.00000000000E+00  0.00000000000E+00  0.69564219330E+03  0.69564219330E+03  0.00000000000E+00 0. -1.
         -4   -1    0    0    0  501 -0.00000000000E+00 -0.00000000000E+00 -0.56408991598E+02  0.56408991598E+02  0.00000000000E+00 0.  1.
          5    1    1    2  502    0 -0.20696673035E+02 -0.82673315991E+02  0.89229509840E+02  0.12347965370E+03  0.47000000000E+01 0.  1.
         -5    1    1    2    0  502  0.74002032597E+02 -0.20376427554E+02  0.21506427760E+02  0.79850585867E+02  0.47000000000E+01 0.  1.
        -11    1    1    2    0    0  0.57153236269E+01  0.71965633046E+02  0.36623286939E+03  0.37328036633E+03  0.00000000000E+00 0.  1.
         11    1    1    2    0    0 -0.59020683189E+02  0.31084110498E+02  0.16226439471E+03  0.17544057900E+03  0.00000000000E+00 0. -1.
<mgrwt>
<rscale>  0 0.16448357E+03</rscale>
<asrwt>0</asrwt>
<pdfrwt beam="1">  1        4 0.10702187E+00 0.17053076E+03</pdfrwt>
<pdfrwt beam="2">  1       -4 0.86783069E-02 0.17053076E+03</pdfrwt>
<totfact> 0.12212349E+02</totfact>
</mgrwt>
</event>
<event>
 6    1  0.7270761E-006  0.2914321E+03  0.7546771E-02  0.1091274E+00
         -2   -1    0    0    0  501 -0.00000000000E+00  0.00000000000E+00  0.82265240889E+02  0.82265240889E+02  0.00000000000E+00 0. -1.
          2   -1    0    0  501    0  0.00000000000E+00 -0.00000000000E+00 -0.11816657376E+04  0.11816657376E+04  0.00000000000E+00 0.  1.
          5    1    1    2  502    0  0.18229963340E+03 -0.24451949345E+02 -0.12057410185E+03  0.21998013138E+03  0.47000000000E+01 0. -1.
         -5    1    1    2    0  502  0.80816720944E+02  0.15516045662E+02 -0.18370267202E+03  0.20134758942E+03  0.47000000000E+01 0. -1.
        -11    1    1    2    0    0 -0.92265244236E+02  0.29563669752E+02 -0.40114033769E+03  0.41267475860E+03  0.00000000000E+00 0.  1.
         11    1    1    2    0    0 -0.17085111010E+03 -0.20627766069E+02 -0.39398338514E+03  0.42992849908E+03  0.00000000000E+00 0. -1.
<mgrwt>
<rscale>  0 0.28823491E+03</rscale>
<asrwt>0</asrwt>
<pdfrwt beam="2">  1        2 0.18179473E+00 0.29143214E+03</pdfrwt>
<pdfrwt beam="1">  1       -2 0.12656191E-01 0.29143214E+03</pdfrwt>
<totfact> 0.92874656E+02</totfact>
</mgrwt>
</event>
<event>
 6    1  0.7270761E-006  0.1290419E+03  0.7546771E-02  0.1242929E+00
          2   -1    0    0  501    0  0.00000000000E+00  0.00000000000E+00  0.77840239135E+02  0.77840239135E+02  0.00000000000E+00 0. -1.
         -2   -1    0    0    0  501 -0.00000000000E+00 -0.00000000000E+00 -0.16486760356E+03  0.16486760356E+03  0.00000000000E+00 0.  1.
          5    1    1    2  502    0 -0.46763020695E+02 -0.59632032243E+02 -0.12823215313E+02  0.77001845594E+02  0.47000000000E+01 0. -1.
         -5    1    1    2    0  502  0.21572536675E+02  0.39834577806E+02 -0.46279283042E+02  0.64930963080E+02  0.47000000000E+01 0. -1.
        -11    1    1    2    0    0  0.48776882243E+02  0.22959484167E+02  0.11124115566E+02  0.55046054370E+02  0.00000000000E+00 0. -1.
         11    1    1    2    0    0 -0.23586398224E+02 -0.31620297294E+01 -0.39048981636E+02  0.45728979652E+02  0.00000000000E+00 0.  1.
<mgrwt>
<rscale>  0 0.12010171E+03</rscale>
<asrwt>0</asrwt>
<pdfrwt beam="1">  1        2 0.11975422E-01 0.12904192E+03</pdfrwt>
<pdfrwt beam="2">  1       -2 0.25364246E-01 0.12904192E+03</pdfrwt>
<totfact> 0.66891161E+03</totfact>
</mgrwt>
</event>
<event>
 6    1  0.7270761E-006  0.1281134E+03  0.7546771E-02  0.1246047E+00
          1   -1    0    0  501    0  0.00000000000E+00  0.00000000000E+00  0.42384279902E+02  0.42384279902E+02  0.00000000000E+00 0. -1.
         -1   -1    0    0    0  501 -0.00000000000E+00 -0.00000000000E+00 -0.29736679963E+03  0.29736679963E+03  0.00000000000E+00 0.  1.
          5    1    1    2  502    0 -0.49845656438E+02 -0.29438380522E+01 -0.70705241026E+02  0.86686658470E+02  0.47000000000E+01 0.  1.
         -5    1    1    2    0  502  0.77804319905E+02  0.31511901721E+00 -0.10594998342E+03  0.13153364772E+03  0.47000000000E+01 0.  1.
        -11    1    1    2    0    0  0.24672168683E+01 -0.38030800499E+02 -0.16521690432E+02  0.41537876696E+02  0.00000000000E+00 0. -1.
         11    1    1    2    0    0 -0.30425880336E+02  0.40659519534E+02 -0.61805604857E+02  0.79992896652E+02  0.00000000000E+00 0.  1.
<mgrwt>
<rscale>  0 0.11822951E+03</rscale>
<asrwt>0</asrwt>
<pdfrwt beam="1">  1        1 0.65206582E-02 0.12811336E+03</pdfrwt>
<pdfrwt beam="2">  1       -1 0.45748740E-01 0.12811336E+03</pdfrwt>
<totfact> 0.52910700E+03</totfact>
</mgrwt>
</event>
<event>
 6    1  0.7270761E-006  0.1476704E+03  0.7546771E-02  0.1221330E+00
         -1   -1    0    0    0  501 -0.00000000000E+00  0.00000000000E+00  0.10976446963E+03  0.10976446963E+03  0.00000000000E+00 0.  1.
          1   -1    0    0  501    0  0.00000000000E+00 -0.00000000000E+00 -0.36588674814E+03  0.36588674814E+03  0.00000000000E+00 0. -1.
          5    1    1    2  502    0  0.21795391174E+02  0.46505026543E+01 -0.39689540236E+02  0.45760418000E+02  0.47000000000E+01 0. -1.
         -5    1    1    2    0  502 -0.64680453398E+02  0.99585102603E+01  0.87683237233E+02  0.10951334654E+03  0.47000000000E+01 0.  1.
        -11    1    1    2    0    0  0.16615287217E+02  0.31581251868E+02 -0.54327061796E+02  0.64999022163E+02  0.00000000000E+00 0. -1.
         11    1    1    2    0    0  0.26269775007E+02 -0.46190264783E+02 -0.24978891372E+03  0.25537843107E+03  0.00000000000E+00 0.  1.
<mgrwt>
<rscale>  0 0.13421655E+03</rscale>
<asrwt>0</asrwt>
<pdfrwt beam="2">  1        1 0.56290269E-01 0.14767040E+03</pdfrwt>
<pdfrwt beam="1">  1       -1 0.16886842E-01 0.14767040E+03</pdfrwt>
<totfact> 0.17775289E+03</totfact>
</mgrwt>
</event>
<event>
 6    1  0.7270761E-006  0.1684974E+03  0.7546771E-02  0.1203462E+00
         -2   -1    0    0    0  501 -0.00000000000E+00  0.00000000000E+00  0.69820361309E+02  0.69820361309E+02  0.00000000000E+00 0.  1.
          2   -1    0    0  501    0  0.00000000000E+00 -0.00000000000E+00 -0.43015841945E+03  0.43015841945E+03  0.00000000000E+00 0. -1.
          5    1    1    2  502    0 -0.76012065755E+02  0.69540742030E+02 -0.29044194793E+02  0.10714198147E+03  0.47000000000E+01 0. -1.
         -5    1    1    2    0  502  0.41144345193E+02 -0.50439784619E+02 -0.23353609975E+02  0.69314573595E+02  0.47000000000E+01 0.  1.
        -11    1    1    2    0    0  0.11704672818E+02  0.32089083371E+02 -0.57704428733E+02  0.67056019362E+02  0.00000000000E+00 0. -1.
         11    1    1    2    0    0  0.23163047744E+02 -0.51190040782E+02 -0.25023582464E+03  0.25646620633E+03  0.00000000000E+00 0.  1.
<mgrwt>
<rscale>  0 0.14759316E+03</rscale>
<asrwt>0</asrwt>
<pdfrwt beam="2">  1        2 0.66178219E-01 0.16849744E+03</pdfrwt>
<pdfrwt beam="1">  1       -2 0.10741594E-01 0.16849744E+03</pdfrwt>
<totfact> 0.42514370E+03</totfact>
</mgrwt>
</event>
<event>
 6    1  0.7270761E-006  0.1359354E+03  0.7546771E-02  0.1230514E+00
          1   -1    0    0  501    0  0.00000000000E+00  0.00000000000E+00  0.16766888842E+03  0.16766888842E+03  0.00000000000E+00 0. -1.
         -1   -1    0    0    0  501 -0.00000000000E+00 -0.00000000000E+00 -0.98106077736E+02  0.98106077736E+02  0.00000000000E+00 0.  1.
          5    1    1    2  502    0  0.75773684698E+02  0.55649441269E+02 -0.93864736131E+01  0.94597608285E+02  0.47000000000E+01 0.  1.
         -5    1    1    2    0  502 -0.34718772877E+02 -0.21458628277E+02  0.51342743466E+01  0.41404307635E+02  0.47000000000E+01 0.  1.
        -11    1    1    2    0    0  0.13914213522E+02 -0.16358801664E+02 -0.13279626098E+02  0.25250033646E+02  0.00000000000E+00 0.  1.
         11    1    1    2    0    0 -0.54969125343E+02 -0.17832011328E+02  0.87094636053E+02  0.10452301660E+03  0.00000000000E+00 0. -1.
<mgrwt>
<rscale>  0 0.12796062E+03</rscale>
<asrwt>0</asrwt>
<pdfrwt beam="1">  1        1 0.25795214E-01 0.13593543E+03</pdfrwt>
<pdfrwt beam="2">  1       -1 0.15093243E-01 0.13593543E+03</pdfrwt>
<totfact> 0.55761685E+03</totfact>
</mgrwt>
</event>
<event>
 6    1  0.7270761E-006  0.1903226E+03  0.7546771E-02  0.1163073E+00
          2   -1    0    0  501    0  0.00000000000E+00  0.00000000000E+00  0.37500881800E+03  0.37500881800E+03  0.00000000000E+00 0.  1.
         -2   -1    0    0    0  501 -0.00000000000E+00 -0.00000000000E+00 -0.10669283677E+03  0.10669283677E+03  0.00000000000E+00 0. -1.
          5    1    1    2  502    0 -0.77478620966E+02 -0.93509831856E+02  0.76837794822E+02  0.14378164721E+03  0.47000000000E+01 0.  1.
         -5    1    1    2    0  502  0.50926951465E+00 -0.27621971227E+02 -0.41221189051E+02  0.49844850051E+02  0.47000000000E+01 0.  1.
        -11    1    1    2    0    0  0.93027795964E+02  0.11805773576E+03  0.18941275722E+03  0.24180362362E+03  0.00000000000E+00 0.  1.
         11    1    1    2    0    0 -0.16058444513E+02  0.30740673202E+01  0.43286618240E+02  0.46271533892E+02  0.00000000000E+00 0. -1.
<mgrwt>
<rscale>  0 0.18497537E+03</rscale>
<asrwt>0</asrwt>
<pdfrwt beam="1">  1        2 0.57693663E-01 0.19032256E+03</pdfrwt>
<pdfrwt beam="2">  1       -2 0.16414283E-01 0.19032256E+03</pdfrwt>
<totfact> 0.24879301E+03</totfact>
</mgrwt>
</event>
<event>
 6    1  0.7270761E-006  0.1276622E+03  0.7546771E-02  0.1248775E+00
          1   -1    0    0  501    0  0.00000000000E+00  0.00000000000E+00  0.70146031884E+02  0.70146031884E+02  0.00000000000E+00 0. -1.
         -1   -1    0    0    0  501 -0.00000000000E+00 -0.00000000000E+00 -0.16909513287E+03  0.16909513287E+03  0.00000000000E+00 0.  1.
          5    1    1    2  502    0 -0.98847597067E+01  0.26388207998E+02  0.24695316780E+02  0.37762344560E+02  0.47000000000E+01 0. -1.
         -5    1    1    2    0  502  0.77587959679E+00 -0.50673119787E+02 -0.95510769710E+02  0.10822552466E+03  0.47000000000E+01 0. -1.
        -11    1    1    2    0    0 -0.36721343193E+02  0.21148007703E+02 -0.81254539547E+01  0.43147633512E+02  0.00000000000E+00 0. -1.
         11    1    1    2    0    0  0.45830223303E+02  0.31369040861E+01 -0.20008194105E+02  0.50105662021E+02  0.00000000000E+00 0.  1.
<mgrwt>
<rscale>  0 0.11662245E+03</rscale>
<asrwt>0</asrwt>
<pdfrwt beam="1">  1        1 0.10791697E-01 0.12766217E+03</pdfrwt>
<pdfrwt beam="2">  1       -1 0.26014635E-01 0.12766217E+03</pdfrwt>
<totfact> 0.71008104E+03</totfact>
</mgrwt>
</event>
<event>
 6    1  0.7270761E-006  0.1493566E+03  0.7546771E-02  0.1205784E+00
          1   -1    0    0  501    0  0.00000000000E+00  0.00000000000E+00  0.11195069450E+04  0.11195069450E+04  0.00000000000E+00 0. -1.
         -1   -1    0    0    0  501 -0.00000000000E+00 -0.00000000000E+00 -0.18167878275E+02  0.18167878275E+02  0.00000000000E+00 0.  1.
          5    1    1    2  502    0  0.59802126694E+02  0.60742531108E+02  0.19560628328E+03  0.21342412587E+03  0.47000000000E+01 0. -1.
         -5    1    1    2    0  502  0.99631669601E+01  0.10279256430E+02  0.41179868687E+03  0.41207423641E+03  0.47000000000E+01 0.  1.
        -11    1    1    2    0    0 -0.64950203897E+01  0.12002899224E+02  0.95118658824E+01  0.16635217829E+02  0.00000000000E+00 0. -1.
         11    1    1    2    0    0 -0.63270273264E+02 -0.83024686763E+02  0.48442223074E+03  0.49554124322E+03  0.00000000000E+00 0.  1.
<mgrwt>
<rscale>  0 0.14575862E+03</rscale>
<asrwt>0</asrwt>
<pdfrwt beam="1">  1        1 0.17223178E+00 0.14935663E+03</pdfrwt>
<pdfrwt beam="2">  1       -1 0.27950591E-02 0.14935663E+03</pdfrwt>
<totfact> 0.53650638E+03</totfact>
</mgrwt>
</event>
<event>
 6    1  0.7270761E-006  0.1158230E+03  0.7546771E-02  0.1258872E+00
          1   -1    0    0  501    0  0.00000000000E+00  0.00000000000E+00  0.21001986128E+03  0.21001986128E+03  0.00000000000E+00 0. -1.
         -1   -1    0    0    0  501 -0.00000000000E+00 -0.00000000000E+00 -0.10286865166E+04  0.10286865166E+04  0.00000000000E+00 0.  1.
          5    1    1    2  502    0  0.41187573803E+02  0.35880781533E+02 -0.48078009982E+03  0.48389610569E+03  0.47000000000E+01 0. -1.
         -5    1    1    2    0  502 -0.60439671753E+02 -0.67471845086E+01 -0.53312989663E+03  0.53660791562E+03  0.47000000000E+01 0.  1.
        -11    1    1    2    0    0 -0.11189530757E+02 -0.47451378473E+02  0.54857211298E+02  0.73390411832E+02  0.00000000000E+00 0.  1.
         11    1    1    2    0    0  0.30441628707E+02  0.18317781448E+02  0.14038612986E+03  0.14481194471E+03  0.00000000000E+00 0. -1.
<mgrwt>
<rscale>  0 0.11092200E+03</rscale>
<asrwt>0</asrwt>
<pdfrwt beam="1">  1        1 0.32310748E-01 0.11582304E+03</pdfrwt>
<pdfrwt beam="2">  1       -1 0.15825946E+00 0.11582304E+03</pdfrwt>
<totfact> 0.47819688E+01</totfact>
</mgrwt>
</event>
<event>
 6    1  0.7270761E-006  0.4280156E+03  0.7546771E-02  0.1035188E+00
         -2   -1    0    0    0  501 -0.00000000000E+00  0.00000000000E+00  0.82723931806E+03  0.82723931806E+03  0.00000000000E+00 0.  1.
          2   -1    0    0  501    0  0.00000000000E+00 -0.00000000000E+00 -0.41535478517E+03  0.41535478517E+03  0.00000000000E+00 0. -1.
          5    1    1    2  502    0 -0.69088870954E+02 -0.11275203707E+02  0.53117409654E+02  0.87999724526E+02  0.47000000000E+01 0.  1.
         -5    1    1    2    0  502 -0.32404484066E+03  0.12537230471E+03  0.58329953025E+03  0.67895780836E+03  0.47000000000E+01 0.  1.
        -11    1    1    2    0    0  0.14720092659E+03 -0.89169355184E+02 -0.93603507718E+02  0.19591044727E+03  0.00000000000E+00 0.  1.
         11    1    1    2    0    0  0.24593278502E+03 -0.24927745815E+02 -0.13092889929E+03  0.27972612307E+03  0.00000000000E+00 0. -1.
<mgrwt>
<rscale>  0 0.42582071E+03</rscale>
<asrwt>0</asrwt>
<pdfrwt beam="2">  1        2 0.63900736E-01 0.42801558E+03</pdfrwt>
<pdfrwt beam="1">  1       -2 0.12726759E+00 0.42801558E+03</pdfrwt>
<totfact> 0.36383849E+01</totfact>
</mgrwt>
</event>
<event>
 6    1  0.7270761E-006  0.1359693E+03  0.7546771E-02  0.1230346E+00
          2   -1    0    0  501    0  0.00000000000E+00  0.00000000000E+00  0.74957011057E+03  0.74957011057E+03  0.00000000000E+00 0. -1.
         -2   -1    0    0    0  501 -0.00000000000E+00 -0.00000000000E+00 -0.19856178592E+02  0.19856178592E+02  0.00000000000E+00 0.  1.
          5    1    1    2  502    0  0.50055272251E-01  0.34307525284E+02  0.14401090524E+02  0.37503202596E+02  0.47000000000E+01 0. -1.
         -5    1    1    2    0  502  0.19239479061E+02  0.15618860836E+02  0.35897107853E+03  0.35985612624E+03  0.47000000000E+01 0. -1.
        -11    1    1    2    0    0 -0.10052515729E+01 -0.73164754939E+02  0.20026457653E+03  0.21321349045E+03  0.00000000000E+00 0.  1.
         11    1    1    2    0    0 -0.18284282761E+02  0.23238368819E+02  0.15607718639E+03  0.15885346988E+03  0.00000000000E+00 0. -1.
<mgrwt>
<rscale>  0 0.12807139E+03</rscale>
<asrwt>0</asrwt>
<pdfrwt beam="1">  1        2 0.11531846E+00 0.13596933E+03</pdfrwt>
<pdfrwt beam="2">  1       -2 0.30547973E-02 0.13596933E+03</pdfrwt>
<totfact> 0.15122770E+04</totfact>
</mgrwt>
</event>
<event>
 6    1  0.7270761E-006  0.1392865E+03  0.7546771E-02  0.1225758E+00
          2   -1    0    0  501    0  0.00000000000E+00  0.00000000000E+00  0.43448860045E+03  0.43448860045E+03  0.00000000000E+00 0. -1.
         -2   -1    0    0    0  501 -0.00000000000E+00 -0.00000000000E+00 -0.40748204517E+02  0.40748204517E+02  0.00000000000E+00 0.  1.
          5    1    1    2  502    0  0.62662000669E+02 -0.16894092683E+01  0.95927308263E+02  0.11468879153E+03  0.47000000000E+01 0. -1.
         -5    1    1    2    0  502 -0.40168154925E+02 -0.55489034001E+02  0.37700367314E+02  0.78332121509E+02  0.47000000000E+01 0. -1.
        -11    1    1    2    0    0  0.26018284080E+02  0.25269390933E+01  0.13343433885E+03  0.13597080316E+03  0.00000000000E+00 0. -1.
         11    1    1    2    0    0 -0.48512129824E+02  0.54651504176E+02  0.12667838151E+03  0.14624508877E+03  0.00000000000E+00 0.  1.
<mgrwt>
<rscale>  0 0.13115091E+03</rscale>
<asrwt>0</asrwt>
<pdfrwt beam="1">  1        2 0.66844397E-01 0.13928646E+03</pdfrwt>
<pdfrwt beam="2">  1       -2 0.62689548E-02 0.13928646E+03</pdfrwt>
<totfact> 0.96007010E+03</totfact>
</mgrwt>
</event>
<event>
 6    1  0.7270761E-006  0.1390838E+03  0.7546771E-02  0.1226101E+00
          2   -1    0    0  501    0  0.00000000000E+00  0.00000000000E+00  0.42368358212E+03  0.42368358212E+03  0.00000000000E+00 0. -1.
         -2   -1    0    0    0  501 -0.00000000000E+00 -0.00000000000E+00 -0.40596694918E+02  0.40596694918E+02  0.00000000000E+00 0.  1.
          5    1    1    2  502    0 -0.38269031836E+02 -0.22719892883E+02  0.11133458150E+03  0.11999246380E+03  0.47000000000E+01 0. -1.
         -5    1    1    2    0  502  0.79471850843E+00  0.70861167611E+02  0.26454350204E+02  0.75788253030E+02  0.47000000000E+01 0. -1.
        -11    1    1    2    0    0  0.57991463712E+02 -0.36136937584E+02  0.23069496376E+03  0.24060144311E+03  0.00000000000E+00 0. -1.
         11    1    1    2    0    0 -0.20517150384E+02 -0.12004337144E+02  0.14602991737E+02  0.27898117102E+02  0.00000000000E+00 0.  1.
<mgrwt>
<rscale>  0 0.13091703E+03</rscale>
<asrwt>0</asrwt>
<pdfrwt beam="1">  1        2 0.65182086E-01 0.13908379E+03</pdfrwt>
<pdfrwt beam="2">  1       -2 0.62456457E-02 0.13908379E+03</pdfrwt>
<totfact> 0.99196655E+03</totfact>
</mgrwt>
</event>
<event>
 6    1  0.7270761E-006  0.1350176E+03  0.7546771E-02  0.1232608E+00
         -1   -1    0    0    0  501 -0.00000000000E+00  0.00000000000E+00  0.50785685853E+02  0.50785685853E+02  0.00000000000E+00 0.  1.
          1   -1    0    0  501    0  0.00000000000E+00 -0.00000000000E+00 -0.28659702755E+03  0.28659702755E+03  0.00000000000E+00 0. -1.
          5    1    1    2  502    0  0.12770385527E+02  0.83426171501E+02 -0.98367097163E+02  0.12969650975E+03  0.47000000000E+01 0. -1.
         -5    1    1    2    0  502  0.14955848423E+02 -0.40577632648E+02 -0.13221524292E+02  0.45465595541E+02  0.47000000000E+01 0. -1.
        -11    1    1    2    0    0 -0.11172138603E+02  0.21715212191E+02 -0.76342810217E+02  0.80153551346E+02  0.00000000000E+00 0. -1.
         11    1    1    2    0    0 -0.16554095346E+02 -0.64563751044E+02 -0.47879910021E+02  0.82067056760E+02  0.00000000000E+00 0.  1.
<mgrwt>
<rscale>  0 0.12658798E+03</rscale>
<asrwt>0</asrwt>
<pdfrwt beam="2">  1        1 0.44091851E-01 0.13501756E+03</pdfrwt>
<pdfrwt beam="1">  1       -1 0.78131824E-02 0.13501756E+03</pdfrwt>
<totfact> 0.78718561E+03</totfact>
</mgrwt>
</event>
<event>
 6    1  0.7270761E-006  0.2519161E+03  0.7546771E-02  0.1114748E+00
          2   -1    0    0  501    0  0.00000000000E+00  0.00000000000E+00  0.15282001749E+04  0.15282001749E+04  0.00000000000E+00 0. -1.
         -2   -1    0    0    0  501 -0.00000000000E+00 -0.00000000000E+00 -0.52111732972E+02  0.52111732972E+02  0.00000000000E+00 0.  1.
          5    1    1    2  502    0  0.56072015453E+02 -0.54224535358E+02  0.21031978888E+03  0.22436772215E+03  0.47000000000E+01 0.  1.
         -5    1    1    2    0  502  0.15387037574E+03 -0.71017396305E+01  0.14816090345E+03  0.21377621605E+03  0.47000000000E+01 0.  1.
        -11    1    1    2    0    0 -0.12449077641E+03 -0.53638091243E+01  0.68098619763E+03  0.69229251421E+03  0.00000000000E+00 0. -1.
         11    1    1    2    0    0 -0.85451614781E+02  0.66690084112E+02  0.43662155194E+03  0.44987545544E+03  0.00000000000E+00 0.  1.
<mgrwt>
<rscale>  0 0.24773028E+03</rscale>
<asrwt>0</asrwt>
<pdfrwt beam="1">  1        2 0.23510768E+00 0.25191607E+03</pdfrwt>
<pdfrwt beam="2">  1       -2 0.80171909E-02 0.25191607E+03</pdfrwt>
<totfact> 0.12446496E+03</totfact>
</mgrwt>
</event>
<event>
 6    1  0.7270761E-006  0.1570631E+03  0.7546771E-02  0.1200120E+00
          1   -1    0    0  501    0  0.00000000000E+00  0.00000000000E+00  0.14171003581E+03  0.14171003581E+03  0.00000000000E+00 0. -1.
         -1   -1    0    0    0  501 -0.00000000000E+00 -0.00000000000E+00 -0.14878727677E+03  0.14878727677E+03  0.00000000000E+00 0.  1.
          5    1    1    2  502    0  0.23278092336E+02 -0.90645901202E+01  0.51807294564E+02  0.57707210527E+02  0.47000000000E+01 0.  1.
         -5    1    1    2    0  502  0.56341514565E+02 -0.42928878141E+02 -0.71210527690E+02  0.10054990848E+03  0.47000000000E+01 0.  1.
        -11    1    1    2    0    0 -0.93156574107E+02  0.63477346534E+02  0.44386959675E+01  0.11281499388E+03  0.00000000000E+00 0. -1.
         11    1    1    2    0    0  0.13536967206E+02 -0.11483878273E+02  0.78872962011E+01  0.19425199683E+02  0.00000000000E+00 0.  1.
<mgrwt>
<rscale>  0 0.15028751E+03</rscale>
<asrwt>0</asrwt>
<pdfrwt beam="1">  1        1 0.21801544E-01 0.15706314E+03</pdfrwt>
<pdfrwt beam="2">  1       -1 0.22890350E-01 0.15706314E+03</pdfrwt>
<totfact> 0.35721187E+03</totfact>
</mgrwt>
</event>
<event>
 6    1  0.7270761E-006  0.1310732E+03  0.7546771E-02  0.1238856E+00
          1   -1    0    0  501    0  0.00000000000E+00  0.00000000000E+00  0.83857638201E+02  0.83857638201E+02  0.00000000000E+00 0. -1.
         -1   -1    0    0    0  501 -0.00000000000E+00 -0.00000000000E+00 -0.19530862977E+03  0.19530862977E+03  0.00000000000E+00 0.  1.
          5    1    1    2  502    0  0.27383925456E+02  0.67919841005E+02 -0.46749997195E+02  0.87009404166E+02  0.47000000000E+01 0.  1.
         -5    1    1    2    0  502 -0.42661050783E+02 -0.31546447974E+02 -0.74217254375E+02  0.91353349586E+02  0.47000000000E+01 0.  1.
        -11    1    1    2    0    0  0.33562711109E+01  0.31364041035E+02  0.18145641361E+01  0.31595257062E+02  0.00000000000E+00 0.  1.
         11    1    1    2    0    0  0.11920854216E+02 -0.67737434065E+02  0.77016958697E+01  0.69208257154E+02  0.00000000000E+00 0. -1.
<mgrwt>
<rscale>  0 0.12260791E+03</rscale>
<asrwt>0</asrwt>
<pdfrwt beam="1">  1        1 0.12901175E-01 0.13107325E+03</pdfrwt>
<pdfrwt beam="2">  1       -1 0.30047481E-01 0.13107325E+03</pdfrwt>
<totfact> 0.44293400E+03</totfact>
</mgrwt>
</event>
<event>
 6    1  0.7270761E-006  0.3100461E+03  0.7546771E-02  0.1080324E+00
          2   -1    0    0  501    0  0.00000000000E+00  0.00000000000E+00  0.46180097832E+02  0.46180097832E+02  0.00000000000E+00 0. -1.
         -2   -1    0    0    0  501 -0.00000000000E+00 -0.00000000000E+00 -0.52040039861E+03  0.52040039861E+03  0.00000000000E+00 0.  1.
          5    1    1    2  502    0 -0.12492391468E+03  0.54876226002E+01 -0.22227893277E+03  0.25508059984E+03  0.47000000000E+01 0.  1.
         -5    1    1    2    0  502  0.22158046868E+02 -0.29436336864E+02 -0.92222808587E+02  0.99421393033E+02  0.47000000000E+01 0.  1.
        -11    1    1    2    0    0  0.58194418929E+02  0.54221379310E+02 -0.12439943093E+03  0.14765421357E+03  0.00000000000E+00 0.  1.
         11    1    1    2    0    0  0.44571448886E+02 -0.30272665046E+02 -0.35319128494E+02  0.64424290003E+02  0.00000000000E+00 0. -1.
<mgrwt>
<rscale>  0 0.31004607E+03</rscale>
<asrwt>0</asrwt>
<pdfrwt beam="1">  1        2 0.71046308E-02 0.31004607E+03</pdfrwt>
<pdfrwt beam="2">  1       -2 0.80061596E-01 0.31004607E+03</pdfrwt>
<totfact> 0.14127979E+03</totfact>
</mgrwt>
</event>
<event>
 6    1  0.7270761E-006  0.1543249E+03  0.7546771E-02  0.1203712E+00
          2   -1    0    0  501    0  0.00000000000E+00  0.00000000000E+00  0.22512878069E+03  0.22512878069E+03  0.00000000000E+00 0. -1.
         -2   -1    0    0    0  501 -0.00000000000E+00 -0.00000000000E+00 -0.90688947176E+02  0.90688947176E+02  0.00000000000E+00 0.  1.
          5    1    1    2  502    0  0.44207515327E+02  0.46746417755E+02  0.74908254085E+02  0.98857819693E+02  0.47000000000E+01 0.  1.
         -5    1    1    2    0  502 -0.38806315705E+02  0.43603484136E+02 -0.24517855798E+02  0.63485504017E+02  0.47000000000E+01 0.  1.
        -11    1    1    2    0    0  0.22744922032E+01 -0.78045967387E+02  0.10822824612E+02  0.78825629542E+02  0.00000000000E+00 0.  1.
         11    1    1    2    0    0 -0.76756918256E+01 -0.12303934504E+02  0.73226610615E+02  0.74648774615E+02  0.00000000000E+00 0. -1.
<mgrwt>
<rscale>  0 0.14739399E+03</rscale>
<asrwt>0</asrwt>
<pdfrwt beam="1">  1        2 0.34635197E-01 0.15432486E+03</pdfrwt>
<pdfrwt beam="2">  1       -2 0.13952146E-01 0.15432486E+03</pdfrwt>
<totfact> 0.55594331E+03</totfact>
</mgrwt>
</event>
<event>
 6    1  0.7270761E-006  0.1380428E+03  0.7546771E-02  0.1224756E+00
         -2   -1    0    0    0  501 -0.00000000000E+00  0.00000000000E+00  0.27168656044E+03  0.27168656044E+03  0.00000000000E+00 0.  1.
          2   -1    0    0  501    0  0.00000000000E+00 -0.00000000000E+00 -0.66321216317E+02  0.66321216317E+02  0.00000000000E+00 0. -1.
          5    1    1    2  502    0  0.11739766298E+02 -0.28661635858E+02  0.57159234098E+02  0.65181128599E+02  0.47000000000E+01 0. -1.
         -5    1    1    2    0  502 -0.21902969557E+02  0.10192703897E+03  0.11040812542E+03  0.15192401228E+03  0.47000000000E+01 0.  1.
        -11    1    1    2    0    0  0.16624186160E+02 -0.86883981766E+02  0.49907471717E+02  0.10156744353E+03  0.00000000000E+00 0. -1.
         11    1    1    2    0    0 -0.64609829004E+01  0.13618578655E+02 -0.12109487116E+02  0.19335192341E+02  0.00000000000E+00 0.  1.
<mgrwt>
<rscale>  0 0.13183657E+03</rscale>
<asrwt>0</asrwt>
<pdfrwt beam="2">  1        2 0.10203264E-01 0.13804283E+03</pdfrwt>
<pdfrwt beam="1">  1       -2 0.41797932E-01 0.13804283E+03</pdfrwt>
<totfact> 0.32803315E+03</totfact>
</mgrwt>
</event>
<event>
 6    1  0.7270761E-006  0.1955536E+03  0.7546771E-02  0.1157533E+00
          2   -1    0    0  501    0  0.00000000000E+00  0.00000000000E+00  0.57932482382E+03  0.57932482382E+03  0.00000000000E+00 0. -1.
         -2   -1    0    0    0  501 -0.00000000000E+00 -0.00000000000E+00 -0.68388778282E+02  0.68388778282E+02  0.00000000000E+00 0.  1.
          5    1    1    2  502    0  0.13406223545E+03  0.52980901377E+02  0.13541756070E+03  0.19783747024E+03  0.47000000000E+01 0.  1.
         -5    1    1    2    0  502 -0.18743627955E+02  0.43575292911E+02  0.18927153190E+02  0.51287979772E+02  0.47000000000E+01 0.  1.
        -11    1    1    2    0    0 -0.11089450249E+03 -0.11294713531E+03  0.29601540460E+03  0.33567806872E+03  0.00000000000E+00 0.  1.
         11    1    1    2    0    0 -0.44241050041E+01  0.16390941018E+02  0.60575927054E+02  0.62910083381E+02  0.00000000000E+00 0. -1.
<mgrwt>
<rscale>  0 0.19103267E+03</rscale>
<asrwt>0</asrwt>
<pdfrwt beam="1">  1        2 0.89126892E-01 0.19555357E+03</pdfrwt>
<pdfrwt beam="2">  1       -2 0.10521351E-01 0.19555357E+03</pdfrwt>
<totfact> 0.31744586E+03</totfact>
</mgrwt>
</event>
<event>
 6    1  0.7270761E-006  0.1319612E+03  0.7546771E-02  0.1237717E+00
          2   -1    0    0  501    0  0.00000000000E+00  0.00000000000E+00  0.17094725991E+02  0.17094725991E+02  0.00000000000E+00 0. -1.
         -2   -1    0    0    0  501 -0.00000000000E+00 -0.00000000000E+00 -0.79607881334E+03  0.79607881334E+03  0.00000000000E+00 0.  1.
          5    1    1    2  502    0 -0.35699399692E+02 -0.20296005052E+02 -0.27707767843E+03  0.28014372176E+03  0.47000000000E+01 0.  1.
         -5    1    1    2    0  502  0.32880669107E+02  0.62507424505E+02 -0.13328869519E+03  0.15091813272E+03  0.47000000000E+01 0.  1.
        -11    1    1    2    0    0 -0.40566487060E+02 -0.56871856856E+01 -0.20185315210E+03  0.20596766486E+03  0.00000000000E+00 0. -1.
         11    1    1    2    0    0  0.43385217645E+02 -0.36524233767E+02 -0.16676456163E+03  0.17614401999E+03  0.00000000000E+00 0.  1.
<mgrwt>
<rscale>  0 0.12332117E+03</rscale>
<asrwt>0</asrwt>
<pdfrwt beam="1">  1        2 0.26299579E-02 0.13196121E+03</pdfrwt>
<pdfrwt beam="2">  1       -2 0.12247366E+00 0.13196121E+03</pdfrwt>
<totfact> 0.18967670E+03</totfact>
</mgrwt>
</event>
<event>
 6    1  0.7270761E-006  0.1294397E+03  0.7546771E-02  0.1245926E+00
          1   -1    0    0  501    0  0.00000000000E+00  0.00000000000E+00  0.31019726955E+02  0.31019726955E+02  0.00000000000E+00 0. -1.
         -1   -1    0    0    0  501 -0.00000000000E+00 -0.00000000000E+00 -0.38922479375E+03  0.38922479375E+03  0.00000000000E+00 0.  1.
          5    1    1    2  502    0  0.33055531233E+02  0.44682229857E+02 -0.20694399803E+03  0.21432936834E+03  0.47000000000E+01 0.  1.
         -5    1    1    2    0  502 -0.29383088726E+02 -0.11202939488E+02 -0.25115975020E+01  0.31894668493E+02  0.47000000000E+01 0.  1.
        -11    1    1    2    0    0  0.26942498644E+01  0.25441407945E+02 -0.75981068525E+02  0.80172607509E+02  0.00000000000E+00 0.  1.
         11    1    1    2    0    0 -0.63666923714E+01 -0.58920698314E+02 -0.72768402732E+02  0.93847876362E+02  0.00000000000E+00 0. -1.
<mgrwt>
<rscale>  0 0.11830144E+03</rscale>
<asrwt>0</asrwt>
<pdfrwt beam="1">  1        1 0.47722659E-02 0.12943968E+03</pdfrwt>
<pdfrwt beam="2">  1       -1 0.59880735E-01 0.12943968E+03</pdfrwt>
<totfact> 0.49304194E+03</totfact>
</mgrwt>
</event>
<event>
 6    1  0.7270761E-006  0.1464224E+03  0.7546771E-02  0.1215125E+00
         -1   -1    0    0    0  501 -0.00000000000E+00  0.00000000000E+00  0.13559607095E+03  0.13559607095E+03  0.00000000000E+00 0.  1.
          1   -1    0    0  501    0  0.00000000000E+00 -0.00000000000E+00 -0.13112382611E+03  0.13112382611E+03  0.00000000000E+00 0. -1.
          5    1    1    2  502    0  0.33309760171E+02  0.10008931153E+03  0.37065630461E+02  0.11190782531E+03  0.47000000000E+01 0.  1.
         -5    1    1    2    0  502 -0.79795244525E-02 -0.31505511791E+02 -0.16629866114E+02  0.35933825066E+02  0.47000000000E+01 0.  1.
        -11    1    1    2    0    0 -0.61299543067E+02 -0.42265506174E+02 -0.26501629016E+02  0.79033811327E+02  0.00000000000E+00 0.  1.
         11    1    1    2    0    0  0.27997762420E+02 -0.26318293563E+02  0.10538109514E+02  0.39844435355E+02  0.00000000000E+00 0. -1.
<mgrwt>
<rscale>  0 0.13867350E+03</rscale>
<asrwt>0</asrwt>
<pdfrwt beam="2">  1        1 0.20172896E-01 0.14642245E+03</pdfrwt>
<pdfrwt beam="1">  1       -1 0.20860934E-01 0.14642245E+03</pdfrwt>
<totfact> 0.45666862E+03</totfact>
</mgrwt>
</event>
<event>
 6    1  0.7270761E-006  0.1769919E+03  0.7546771E-02  0.1179404E+00
         -4   -1    0    0    0  501 -0.00000000000E+00  0.00000000000E+00  0.57141092861E+03  0.57141092861E+03  0.00000000000E+00 0.  1.
          4   -1    0    0  501    0  0.00000000000E+00 -0.00000000000E+00 -0.48483253693E+02  0.48483253693E+02  0.00000000000E+00 0. -1.
          5    1    1    2  502    0  0.48679271200E+02  0.59004064904E+02  0.70994981034E+02  0.10446783453E+03  0.47000000000E+01 0. -1.
         -5    1    1    2    0  502 -0.20192656127E+02  0.63018144576E+02  0.29117151690E+03  0.29863350810E+03  0.47000000000E+01 0. -1.
        -11    1    1    2    0    0 -0.24222396785E+02 -0.16706857164E+02  0.67863050062E+01  0.30197640934E+02  0.00000000000E+00 0. -1.
         11    1    1    2    0    0 -0.42642182881E+01 -0.10531535232E+03  0.15397487198E+03  0.18659519874E+03  0.00000000000E+00 0.  1.
<mgrwt>
<rscale>  0 0.16851616E+03</rscale>
<asrwt>0</asrwt>
<pdfrwt beam="2">  1        4 0.74589625E-02 0.17699186E+03</pdfrwt>
<pdfrwt beam="1">  1       -4 0.87909369E-01 0.17699186E+03</pdfrwt>
<totfact> 0.24902279E+02</totfact>
</mgrwt>
</event>
<event>
 6    1  0.7270761E-006  0.1406495E+03  0.7546771E-02  0.1228677E+00
         -2   -1    0    0    0  501 -0.00000000000E+00  0.00000000000E+00  0.19123710975E+03  0.19123710975E+03  0.00000000000E+00 0. -1.
          2   -1    0    0  501    0  0.00000000000E+00 -0.00000000000E+00 -0.77221322980E+02  0.77221322980E+02  0.00000000000E+00 0.  1.
          5    1    1    2  502    0  0.59789020961E+02 -0.52901927585E+01  0.29292460769E+02  0.66954099387E+02  0.47000000000E+01 0.  1.
         -5    1    1    2    0  502 -0.53782358965E+02 -0.58904480539E+02  0.55338789298E+02  0.97194400890E+02  0.47000000000E+01 0.  1.
        -11    1    1    2    0    0 -0.28080499758E+02 -0.37198563372E+01  0.44674129661E+01  0.28675940725E+02  0.00000000000E+00 0.  1.
         11    1    1    2    0    0  0.22073837763E+02  0.67914529635E+02  0.24917123736E+02  0.75633991726E+02  0.00000000000E+00 0. -1.
<mgrwt>
<rscale>  0 0.12918035E+03</rscale>
<asrwt>0</asrwt>
<pdfrwt beam="2">  1        2 0.11880204E-01 0.14064950E+03</pdfrwt>
<pdfrwt beam="1">  1       -2 0.29421094E-01 0.14064950E+03</pdfrwt>
<totfact> 0.52256911E+03</totfact>
</mgrwt>
</event>
<event>
 6    1  0.7270761E-006  0.2283278E+03  0.7546771E-02  0.1130931E+00
         -2   -1    0    0    0  501 -0.00000000000E+00  0.00000000000E+00  0.44402551863E+03  0.44402551863E+03  0.00000000000E+00 0.  1.
          2   -1    0    0  501    0  0.00000000000E+00 -0.00000000000E+00 -0.11070783554E+03  0.11070783554E+03  0.00000000000E+00 0. -1.
          5    1    1    2  502    0 -0.17769699207E+02 -0.58281050767E+02  0.60798857854E+01  0.61412523963E+02  0.47000000000E+01 0.  1.
         -5    1    1    2    0  502 -0.12594138579E+03 -0.67642486955E+02  0.20195065483E+03  0.24747302011E+03  0.47000000000E+01 0.  1.
        -11    1    1    2    0    0  0.64398770342E+02  0.99401135619E+02  0.10834558563E+03  0.16051963528E+03  0.00000000000E+00 0.  1.
         11    1    1    2    0    0  0.79312314658E+02  0.26522402102E+02  0.16941556835E+02  0.85328174818E+02  0.00000000000E+00 0. -1.
<mgrwt>
<rscale>  0 0.22400682E+03</rscale>
<asrwt>0</asrwt>
<pdfrwt beam="2">  1        2 0.17031975E-01 0.22832778E+03</pdfrwt>
<pdfrwt beam="1">  1       -2 0.68311617E-01 0.22832778E+03</pdfrwt>
<totfact> 0.67233996E+02</totfact>
</mgrwt>
</event>
<event>
 6    1  0.7270761E-006  0.1302015E+03  0.7546771E-02  0.1241112E+00
          1   -1    0    0  501    0  0.00000000000E+00  0.00000000000E+00  0.14619141830E+03  0.14619141830E+03  0.00000000000E+00 0. -1.
         -1   -1    0    0    0  501 -0.00000000000E+00 -0.00000000000E+00 -0.10231104532E+03  0.10231104532E+03  0.00000000000E+00 0.  1.
          5    1    1    2  502    0  0.38315305830E+01 -0.22679650131E+02  0.52653319828E+02  0.57649885044E+02  0.47000000000E+01 0.  1.
         -5    1    1    2    0  502  0.67190971274E+01 -0.12187899795E+02 -0.72599363255E+02  0.74070565765E+02  0.47000000000E+01 0.  1.
        -11    1    1    2    0    0 -0.15724466081E+02  0.59794143476E+02  0.66952327354E+02  0.91132938972E+02  0.00000000000E+00 0. -1.
         11    1    1    2    0    0  0.51738383706E+01 -0.24926593550E+02 -0.31259109445E+01  0.25649073837E+02  0.00000000000E+00 0.  1.
<mgrwt>
<rscale>  0 0.12121134E+03</rscale>
<asrwt>0</asrwt>
<pdfrwt beam="1">  1        1 0.22490987E-01 0.13020151E+03</pdfrwt>
<pdfrwt beam="2">  1       -1 0.15740161E-01 0.13020151E+03</pdfrwt>
<totfact> 0.61847122E+03</totfact>
</mgrwt>
</event>
<event>
 6    1  0.7270761E-006  0.1929641E+03  0.7546771E-02  0.1160254E+00
         -1   -1    0    0    0  501 -0.00000000000E+00  0.00000000000E+00  0.32966303479E+03  0.32966303479E+03  0.00000000000E+00 0.  1.
          1   -1    0    0  501    0  0.00000000000E+00 -0.00000000000E+00 -0.17457781552E+03  0.17457781552E+03  0.00000000000E+00 0. -1.
          5    1    1    2  502    0  0.14585453049E+02  0.72997294203E+02  0.22998543788E+02  0.78053593242E+02  0.47000000000E+01 0. -1.
         -5    1    1    2    0  502 -0.10312408368E+02  0.73943254220E+02  0.21921727227E+03  0.23162956001E+03  0.47000000000E+01 0. -1.
        -11    1    1    2    0    0 -0.19081686078E+02 -0.47960285768E+02 -0.78705900534E+02  0.94121828145E+02  0.00000000000E+00 0. -1.
         11    1    1    2    0    0  0.14808641397E+02 -0.98980262655E+02 -0.84246962525E+01  0.10043586890E+03  0.00000000000E+00 0.  1.
<mgrwt>
<rscale>  0 0.18802594E+03</rscale>
<asrwt>0</asrwt>
<pdfrwt beam="2">  1        1 0.26858125E-01 0.19296413E+03</pdfrwt>
<pdfrwt beam="1">  1       -1 0.50717390E-01 0.19296413E+03</pdfrwt>
<totfact> 0.69856527E+02</totfact>
</mgrwt>
</event>
<event>
 6    1  0.7270761E-006  0.1280731E+03  0.7546771E-02  0.1244568E+00
         -2   -1    0    0    0  501 -0.00000000000E+00  0.00000000000E+00  0.30240934227E+02  0.30240934227E+02  0.00000000000E+00 0.  1.
          2   -1    0    0  501    0  0.00000000000E+00 -0.00000000000E+00 -0.65548924980E+03  0.65548924980E+03  0.00000000000E+00 0. -1.
          5    1    1    2  502    0  0.10094414182E+02  0.49370867313E+02 -0.16682812931E+01  0.50638452774E+02  0.47000000000E+01 0.  1.
         -5    1    1    2    0  502  0.14321550062E+01 -0.24024537728E+02 -0.13286324632E+03  0.13510722299E+03  0.47000000000E+01 0.  1.
        -11    1    1    2    0    0 -0.16897274617E+01  0.34660595111E+02 -0.19808409851E+03  0.20110077602E+03  0.00000000000E+00 0.  1.
         11    1    1    2    0    0 -0.98368417266E+01 -0.60006924696E+02 -0.29263268945E+03  0.29888373224E+03  0.00000000000E+00 0. -1.
<mgrwt>
<rscale>  0 0.11911267E+03</rscale>
<asrwt>0</asrwt>
<pdfrwt beam="2">  1        2 0.10084449E+00 0.12807312E+03</pdfrwt>
<pdfrwt beam="1">  1       -2 0.46524518E-02 0.12807312E+03</pdfrwt>
<totfact> 0.94684112E+03</totfact>
</mgrwt>
</event>
<event>
 6    1  0.7270761E-006  0.2453536E+03  0.7546771E-02  0.1116277E+00
          2   -1    0    0  501    0  0.00000000000E+00  0.00000000000E+00  0.10464069291E+04  0.10464069291E+04  0.00000000000E+00 0.  1.
         -2   -1    0    0    0  501 -0.00000000000E+00 -0.00000000000E+00 -0.14382167724E+02  0.14382167724E+02  0.00000000000E+00 0. -1.
          5    1    1    2  502    0 -0.27773389179E+01 -0.51775857596E+01  0.52394737237E+03  0.52400139315E+03  0.47000000000E+01 0.  1.
         -5    1    1    2    0  502  0.42313380736E+01  0.24554629644E+02  0.14706954382E+02  0.29312430231E+02  0.47000000000E+01 0.  1.
        -11    1    1    2    0    0 -0.82068686646E+01 -0.63837275755E+02  0.38172815089E+03  0.38711617333E+03  0.00000000000E+00 0.  1.
         11    1    1    2    0    0  0.67528695089E+01  0.44460231871E+02  0.11164228374E+03  0.12035910012E+03  0.00000000000E+00 0. -1.
<mgrwt>
<rscale>  0 0.24535362E+03</rscale>
<asrwt>0</asrwt>
<pdfrwt beam="1">  1        2 0.16098562E+00 0.24535362E+03</pdfrwt>
<pdfrwt beam="2">  1       -2 0.22126420E-02 0.24535362E+03</pdfrwt>
<totfact> 0.16252100E+04</totfact>
</mgrwt>
</event>
<event>
 6    1  0.7270761E-006  0.1389415E+03  0.7546771E-02  0.1225674E+00
          1   -1    0    0  501    0  0.00000000000E+00  0.00000000000E+00  0.82945205645E+02  0.82945205645E+02  0.00000000000E+00 0. -1.
         -1   -1    0    0    0  501 -0.00000000000E+00 -0.00000000000E+00 -0.20359013248E+03  0.20359013248E+03  0.00000000000E+00 0.  1.
          5    1    1    2  502    0  0.34885198763E+02  0.17391100665E+02 -0.57663838058E+02  0.69761276470E+02  0.47000000000E+01 0. -1.
         -5    1    1    2    0  502 -0.93196769063E+02 -0.70381946824E+00 -0.48993124417E+02  0.10539710321E+03  0.47000000000E+01 0. -1.
        -11    1    1    2    0    0 -0.21722326269E+02  0.44396911087E+01 -0.17920508580E+02  0.28508155735E+02  0.00000000000E+00 0.  1.
         11    1    1    2    0    0  0.80033896569E+02 -0.21126972306E+02  0.39325442163E+01  0.82868802711E+02  0.00000000000E+00 0. -1.
<mgrwt>
<rscale>  0 0.13120785E+03</rscale>
<asrwt>0</asrwt>
<pdfrwt beam="1">  1        1 0.12760801E-01 0.13894154E+03</pdfrwt>
<pdfrwt beam="2">  1       -1 0.31321558E-01 0.13894154E+03</pdfrwt>
<totfact> 0.42042803E+03</totfact>
</mgrwt>
</event>
<event>
 6    1  0.7270761E-006  0.2170321E+03  0.7546771E-02  0.1139350E+00
         -2   -1    0    0    0  501 -0.00000000000E+00  0.00000000000E+00  0.10007095948E+03  0.10007095948E+03  0.00000000000E+00 0.  1.
          2   -1    0    0  501    0  0.00000000000E+00 -0.00000000000E+00 -0.44097226913E+03  0.44097226913E+03  0.00000000000E+00 0. -1.
          5    1    1    2  502    0 -0.78604039679E+02 -0.53555444209E+02 -0.53265128246E+02  0.10911482276E+03  0.47000000000E+01 0.  1.
         -5    1    1    2    0  502  0.29854023513E+02 -0.11703440698E+03 -0.94781164823E+02  0.15360297635E+03  0.47000000000E+01 0.  1.
        -11    1    1    2    0    0 -0.12736285258E+02  0.50921928774E+02 -0.10571932267E+03  0.11803317745E+03  0.00000000000E+00 0.  1.
         11    1    1    2    0    0  0.61486301425E+02  0.11966792242E+03 -0.87135693901E+02  0.16029225206E+03  0.00000000000E+00 0. -1.
<mgrwt>
<rscale>  0 0.21282291E+03</rscale>
<asrwt>0</asrwt>
<pdfrwt beam="2">  1        2 0.67841889E-01 0.21703211E+03</pdfrwt>
<pdfrwt beam="1">  1       -2 0.15395532E-01 0.21703211E+03</pdfrwt>
<totfact> 0.23296356E+03</totfact>
</mgrwt>
</event>
<event>
 6    1  0.7270761E-006  0.3084330E+03  0.7546771E-02  0.1082534E+00
          1   -1    0    0  501    0  0.00000000000E+00  0.00000000000E+00  0.71344031644E+02  0.71344031644E+02  0.00000000000E+00 0. -1.
         -1   -1    0    0    0  501 -0.00000000000E+00 -0.00000000000E+00 -0.13440856064E+04  0.13440856064E+04  0.00000000000E+00 0.  1.
          5    1    1    2  502    0 -0.51702420205E+02  0.27232473761E+03 -0.79613783745E+03  0.84302517708E+03  0.47000000000E+01 0. -1.
         -5    1    1    2    0  502  0.97283541824E+01  0.64873330400E+01 -0.21618366838E+01  0.12786317019E+02  0.47000000000E+01 0. -1.
        -11    1    1    2    0    0  0.32473588740E+02 -0.19096006277E+03 -0.39858721482E+03  0.44316142359E+03  0.00000000000E+00 0.  1.
         11    1    1    2    0    0  0.95004772820E+01 -0.87852007876E+02 -0.75854685784E+02  0.11645672034E+03  0.00000000000E+00 0. -1.
<mgrwt>
<rscale>  0 0.30547713E+03</rscale>
<asrwt>0</asrwt>
<pdfrwt beam="1">  1        1 0.10976005E-01 0.30843305E+03</pdfrwt>
<pdfrwt beam="2">  1       -1 0.20678240E+00 0.30843305E+03</pdfrwt>
<totfact> 0.84892466E+01</totfact>
</mgrwt>
</event>
<event>
 6    1  0.7270761E-006  0.1970039E+03  0.7546771E-02  0.1156885E+00
         -2   -1    0    0    0  501 -0.00000000000E+00  0.00000000000E+00  0.21609953179E+03  0.21609953179E+03  0.00000000000E+00 0.  1.
          2   -1    0    0  501    0  0.00000000000E+00 -0.00000000000E+00 -0.17245240318E+03  0.17245240318E+03  0.00000000000E+00 0. -1.
          5    1    1    2  502    0 -0.65752654742E+02 -0.34083525794E+02 -0.97328823702E+01  0.74845957375E+02  0.47000000000E+01 0.  1.
         -5    1    1    2    0  502  0.86195854421E+01 -0.10707205617E+03  0.81133879348E+02  0.13469787988E+03  0.47000000000E+01 0.  1.
        -11    1    1    2    0    0  0.55712233246E+02  0.72555832371E+02  0.22203077921E+02  0.94133832459E+02  0.00000000000E+00 0.  1.
         11    1    1    2    0    0  0.14208360537E+01  0.68599749596E+02 -0.49956946294E+02  0.84874265256E+02  0.00000000000E+00 0. -1.
<mgrwt>
<rscale>  0 0.19175792E+03</rscale>
<asrwt>0</asrwt>
<pdfrwt beam="2">  1        2 0.26531139E-01 0.19700385E+03</pdfrwt>
<pdfrwt beam="1">  1       -2 0.33246082E-01 0.19700385E+03</pdfrwt>
<totfact> 0.16826430E+03</totfact>
</mgrwt>
</event>
<event>
 6    1  0.7270761E-006  0.2611853E+03  0.7546771E-02  0.1108744E+00
          1   -1    0    0  501    0  0.00000000000E+00  0.00000000000E+00  0.69646779823E+03  0.69646779823E+03  0.00000000000E+00 0. -1.
         -1   -1    0    0    0  501 -0.00000000000E+00 -0.00000000000E+00 -0.12750316123E+03  0.12750316123E+03  0.00000000000E+00 0.  1.
          5    1    1    2  502    0 -0.16972061544E+03  0.10335305017E+03  0.27253049291E+02  0.20062841020E+03  0.47000000000E+01 0.  1.
         -5    1    1    2    0  502 -0.46066152355E+02 -0.25718310934E+02  0.47237329836E+02  0.70971665051E+02  0.47000000000E+01 0.  1.
        -11    1    1    2    0    0  0.14516966937E+03 -0.64463423083E+01  0.31135690481E+03  0.34359701746E+03  0.00000000000E+00 0. -1.
         11    1    1    2    0    0  0.70617098418E+02 -0.71188396929E+02  0.18311735306E+03  0.20877386675E+03  0.00000000000E+00 0.  1.
<mgrwt>
<rscale>  0 0.25735260E+03</rscale>
<asrwt>0</asrwt>
<pdfrwt beam="1">  1        1 0.10714889E+00 0.26118534E+03</pdfrwt>
<pdfrwt beam="2">  1       -1 0.19615871E-01 0.26118534E+03</pdfrwt>
<totfact> 0.59415798E+02</totfact>
</mgrwt>
</event>
<event>
 6    1  0.7270761E-006  0.2906124E+03  0.7546771E-02  0.1092738E+00
          2   -1    0    0  501    0  0.00000000000E+00  0.00000000000E+00  0.21299636923E+04  0.21299636923E+04  0.00000000000E+00 0. -1.
         -2   -1    0    0    0  501 -0.00000000000E+00 -0.00000000000E+00 -0.37130417877E+02  0.37130417877E+02  0.00000000000E+00 0.  1.
          5    1    1    2  502    0 -0.92789238928E+02  0.29388806984E+02  0.55206693823E+03  0.56060105166E+03  0.47000000000E+01 0.  1.
         -5    1    1    2    0  502 -0.11091725742E+03  0.13594864527E+03  0.45941967961E+03  0.49180606357E+03  0.47000000000E+01 0.  1.
        -11    1    1    2    0    0  0.13039064742E+03 -0.66815104706E+02  0.64142975258E+03  0.65794992716E+03  0.00000000000E+00 0. -1.
         11    1    1    2    0    0  0.73315848932E+02 -0.98522347550E+02  0.43991690400E+03  0.45673706780E+03  0.00000000000E+00 0.  1.
<mgrwt>
<rscale>  0 0.28547081E+03</rscale>
<asrwt>0</asrwt>
<pdfrwt beam="1">  1        2 0.32768663E+00 0.29061238E+03</pdfrwt>
<pdfrwt beam="2">  1       -2 0.57123736E-02 0.29061238E+03</pdfrwt>
<totfact> 0.10102563E+03</totfact>
</mgrwt>
</event>
<event>
 6    1  0.7270761E-006  0.1376526E+03  0.7546771E-02  0.1228597E+00
         -3   -1    0    0    0  501 -0.00000000000E+00  0.00000000000E+00  0.86331215643E+02  0.86331215643E+02  0.00000000000E+00 0.  1.
          3   -1    0    0  501    0  0.00000000000E+00 -0.00000000000E+00 -0.17753051771E+03  0.17753051771E+03  0.00000000000E+00 0. -1.
          5    1    1    2  502    0 -0.23869573310E+02 -0.62836063602E+02 -0.21938632438E+02  0.70862691257E+02  0.47000000000E+01 0.  1.
         -5    1    1    2    0  502  0.65555042323E+02  0.23016414148E+02 -0.89151883615E+01  0.70205337958E+02  0.47000000000E+01 0.  1.
        -11    1    1    2    0    0 -0.68043736193E+02  0.26666166511E+02 -0.57892106786E+02  0.93233741208E+02  0.00000000000E+00 0. -1.
         11    1    1    2    0    0  0.26358267180E+02  0.13153482943E+02 -0.24533744853E+01  0.29559962933E+02  0.00000000000E+00 0.  1.
<mgrwt>
<rscale>  0 0.12923374E+03</rscale>
<asrwt>0</asrwt>
<pdfrwt beam="2">  1        3 0.27312387E-01 0.13765257E+03</pdfrwt>
<pdfrwt beam="1">  1       -3 0.13281726E-01 0.13765257E+03</pdfrwt>
<totfact> 0.13471261E+03</totfact>
</mgrwt>
</event>
<event>
 6    1  0.7270761E-006  0.2067825E+03  0.7546771E-02  0.1148087E+00
          1   -1    0    0  501    0  0.00000000000E+00  0.00000000000E+00  0.75992174716E+03  0.75992174716E+03  0.00000000000E+00 0. -1.
         -1   -1    0    0    0  501 -0.00000000000E+00 -0.00000000000E+00 -0.52699385356E+02  0.52699385356E+02  0.00000000000E+00 0.  1.
          5    1    1    2  502    0 -0.27076176339E+02  0.97303380254E+02  0.31972619163E+03  0.33533266281E+03  0.47000000000E+01 0. -1.
         -5    1    1    2    0  502 -0.87589778304E+02  0.20953915828E+02  0.11566667760E+03  0.14666937703E+03  0.47000000000E+01 0. -1.
        -11    1    1    2    0    0  0.97307020600E+02 -0.37534786776E+02  0.13198803641E+03  0.16822115870E+03  0.00000000000E+00 0.  1.
         11    1    1    2    0    0  0.17358934044E+02 -0.80722509305E+02  0.13984145616E+03  0.16239793398E+03  0.00000000000E+00 0. -1.
<mgrwt>
<rscale>  0 0.20197050E+03</rscale>
<asrwt>0</asrwt>
<pdfrwt beam="1">  1        1 0.11691103E+00 0.20678253E+03</pdfrwt>
<pdfrwt beam="2">  1       -1 0.81075983E-02 0.20678253E+03</pdfrwt>
<totfact> 0.20924104E+03</totfact>
</mgrwt>
</event>
<event>
 6    1  0.7270761E-006  0.3251033E+03  0.7546771E-02  0.1073324E+00
          1   -1    0    0  501    0  0.00000000000E+00  0.00000000000E+00  0.20528227002E+03  0.20528227002E+03  0.00000000000E+00 0. -1.
         -1   -1    0    0    0  501 -0.00000000000E+00 -0.00000000000E+00 -0.12871566699E+03  0.12871566699E+03  0.00000000000E+00 0.  1.
          5    1    1    2  502    0 -0.32116782474E+02  0.21322689402E+02  0.56412809744E+02  0.68488246459E+02  0.47000000000E+01 0. -1.
         -5    1    1    2    0  502 -0.42644597686E+02  0.60042875288E+02 -0.65376169500E+02  0.98589259674E+02  0.47000000000E+01 0. -1.
        -11    1    1    2    0    0  0.57531912562E+01 -0.69693208335E+02  0.60880302156E+02  0.92718141096E+02  0.00000000000E+00 0. -1.
         11    1    1    2    0    0  0.69008188904E+02 -0.11672356355E+02  0.24649660634E+02  0.74202289777E+02  0.00000000000E+00 0.  1.
<mgrwt>
<rscale>  0 0.32510333E+03</rscale>
<asrwt>0</asrwt>
<pdfrwt beam="1">  1        1 0.31581888E-01 0.32510333E+03</pdfrwt>
<pdfrwt beam="2">  1       -1 0.19802410E-01 0.32510333E+03</pdfrwt>
<totfact> 0.29109423E+03</totfact>
</mgrwt>
</event>
<event>
 6    1  0.7270761E-006  0.1621513E+03  0.7546771E-02  0.1193732E+00
          2   -1    0    0  501    0  0.00000000000E+00  0.00000000000E+00  0.74941118659E+03  0.74941118659E+03  0.00000000000E+00 0.  1.
         -2   -1    0    0    0  501 -0.00000000000E+00 -0.00000000000E+00 -0.35902287552E+02  0.35902287552E+02  0.00000000000E+00 0. -1.
          5    1    1    2  502    0  0.72483895317E+02 -0.29749752491E+02  0.14462412091E+03  0.16455147888E+03  0.47000000000E+01 0. -1.
         -5    1    1    2    0  502  0.19871073282E+02  0.75993818014E+02  0.77350846864E+02  0.11034112307E+03  0.47000000000E+01 0. -1.
        -11    1    1    2    0    0 -0.96542572271E+02 -0.14576420952E+02  0.43159898348E+03  0.44250494105E+03  0.00000000000E+00 0.  1.
         11    1    1    2    0    0  0.41876036716E+01 -0.31667644571E+02  0.59934947777E+02  0.67915931137E+02  0.00000000000E+00 0. -1.
<mgrwt>
<rscale>  0 0.15562043E+03</rscale>
<asrwt>0</asrwt>
<pdfrwt beam="1">  1        2 0.11529402E+00 0.16215134E+03</pdfrwt>
<pdfrwt beam="2">  1       -2 0.55234295E-02 0.16215134E+03</pdfrwt>
<totfact> 0.63173818E+03</totfact>
</mgrwt>
</event>
<event>
 6    1  0.7270761E-006  0.1473171E+03  0.7546771E-02  0.1215415E+00
         -1   -1    0    0    0  501 -0.00000000000E+00  0.00000000000E+00  0.93690135100E+02  0.93690135100E+02  0.00000000000E+00 0.  1.
          1   -1    0    0  501    0  0.00000000000E+00 -0.00000000000E+00 -0.22369114213E+03  0.22369114213E+03  0.00000000000E+00 0. -1.
          5    1    1    2  502    0  0.34190689544E+02  0.10775525099E+02  0.19633181974E+02  0.41142034795E+02  0.47000000000E+01 0.  1.
         -5    1    1    2    0  502 -0.59274078526E+02 -0.84604706733E+02 -0.24416774442E+02  0.10625272543E+03  0.47000000000E+01 0.  1.
        -11    1    1    2    0    0 -0.11212929442E+02  0.77581234404E+02 -0.82387695357E+02  0.11372031509E+03  0.00000000000E+00 0.  1.
         11    1    1    2    0    0  0.36296318425E+02 -0.37520527695E+01 -0.42829719210E+02  0.56266201922E+02  0.00000000000E+00 0. -1.
<mgrwt>
<rscale>  0 0.13846100E+03</rscale>
<asrwt>0</asrwt>
<pdfrwt beam="2">  1        1 0.34414022E-01 0.14731712E+03</pdfrwt>
<pdfrwt beam="1">  1       -1 0.14413867E-01 0.14731712E+03</pdfrwt>
<totfact> 0.42040496E+03</totfact>
</mgrwt>
</event>
<event>
 6    1  0.7270761E-006  0.1744960E+03  0.7546771E-02  0.1179093E+00
         -2   -1    0    0    0  501 -0.00000000000E+00  0.00000000000E+00  0.14438054030E+03  0.14438054030E+03  0.00000000000E+00 0.  1.
          2   -1    0    0  501    0  0.00000000000E+00 -0.00000000000E+00 -0.19213382426E+03  0.19213382426E+03  0.00000000000E+00 0. -1.
          5    1    1    2  502    0  0.12586301455E+02 -0.81814054394E+02  0.38428851118E+02  0.91382827046E+02  0.47000000000E+01 0.  1.
         -5    1    1    2    0  502  0.76348023634E+02 -0.13520407910E+01 -0.32716968153E+02  0.83206602697E+02  0.47000000000E+01 0.  1.
        -11    1    1    2    0    0 -0.67149187891E+02  0.41359840055E+02 -0.76132455429E+02  0.10961660720E+03  0.00000000000E+00 0. -1.
         11    1    1    2    0    0 -0.21785137199E+02  0.41806255130E+02  0.22667288496E+02  0.52308327621E+02  0.00000000000E+00 0.  1.
<mgrwt>
<rscale>  0 0.16881104E+03</rscale>
<asrwt>0</asrwt>
<pdfrwt beam="2">  1        2 0.29559050E-01 0.17449597E+03</pdfrwt>
<pdfrwt beam="1">  1       -2 0.22212391E-01 0.17449597E+03</pdfrwt>
<totfact> 0.30513379E+03</totfact>
</mgrwt>
</event>
<event>
 6    1  0.7270761E-006  0.1719710E+03  0.7546771E-02  0.1182162E+00
         -1   -1    0    0    0  501 -0.00000000000E+00  0.00000000000E+00  0.35425331571E+02  0.35425331571E+02  0.00000000000E+00 0.  1.
          1   -1    0    0  501    0  0.00000000000E+00 -0.00000000000E+00 -0.72728156750E+03  0.72728156750E+03  0.00000000000E+00 0. -1.
          5    1    1    2  502    0  0.65272235512E+02  0.40331204588E+02 -0.13133663832E+03  0.15217908318E+03  0.47000000000E+01 0. -1.
         -5    1    1    2    0  502 -0.50186268189E+02  0.76808023125E+02 -0.24236205716E+03  0.25919025962E+03  0.47000000000E+01 0. -1.
        -11    1    1    2    0    0 -0.48931107921E+02 -0.49475728901E+02 -0.11337283689E+03  0.13302443842E+03  0.00000000000E+00 0.  1.
         11    1    1    2    0    0  0.33845140598E+02 -0.67663498812E+02 -0.20478470356E+03  0.21831311785E+03  0.00000000000E+00 0. -1.
<mgrwt>
<rscale>  0 0.16592789E+03</rscale>
<asrwt>0</asrwt>
<pdfrwt beam="2">  1        1 0.11188946E+00 0.17197099E+03</pdfrwt>
<pdfrwt beam="1">  1       -1 0.54500514E-02 0.17197099E+03</pdfrwt>
<totfact> 0.40455000E+03</totfact>
</mgrwt>
</event>
<event>
 6    1  0.7270761E-006  0.1523035E+03  0.7546771E-02  0.1206622E+00
         -2   -1    0    0    0  501 -0.00000000000E+00  0.00000000000E+00  0.83012849645E+02  0.83012849645E+02  0.00000000000E+00 0.  1.
          2   -1    0    0  501    0  0.00000000000E+00 -0.00000000000E+00 -0.26839781485E+03  0.26839781485E+03  0.00000000000E+00 0. -1.
          5    1    1    2  502    0  0.44318520472E+01 -0.63023756736E+02 -0.59103347837E+02  0.86642547003E+02  0.47000000000E+01 0.  1.
         -5    1    1    2    0  502  0.65088984383E+02  0.10704434229E+02  0.22759088100E+02  0.69937306863E+02  0.47000000000E+01 0.  1.
        -11    1    1    2    0    0 -0.89040177608E+02  0.55906015873E+02 -0.11859528105E+03  0.15848809585E+03  0.00000000000E+00 0. -1.
         11    1    1    2    0    0  0.19519341178E+02 -0.35866933664E+01 -0.30445424420E+02  0.36342714779E+02  0.00000000000E+00 0.  1.
<mgrwt>
<rscale>  0 0.14510364E+03</rscale>
<asrwt>0</asrwt>
<pdfrwt beam="2">  1        2 0.41291971E-01 0.15230346E+03</pdfrwt>
<pdfrwt beam="1">  1       -2 0.12771208E-01 0.15230346E+03</pdfrwt>
<totfact> 0.53103894E+03</totfact>
</mgrwt>
</event>
<event>
 6    1  0.8742005E-006  0.2286911E+03  0.7546771E-02  0.1130717E+00
         -1   -1    0    0    0  501 -0.00000000000E+00  0.00000000000E+00  0.12065354680E+03  0.12065354680E+03  0.00000000000E+00 0.  1.
          1   -1    0    0  501    0  0.00000000000E+00 -0.00000000000E+00 -0.40215168618E+03  0.40215168618E+03  0.00000000000E+00 0. -1.
          5    1    1    2  502    0  0.14769898495E+03 -0.27358923241E+02 -0.42200447312E+02  0.15609762519E+03  0.47000000000E+01 0. -1.
         -5    1    1    2    0  502  0.41396111051E+02 -0.29256901195E+01 -0.11250342234E+03  0.12000544867E+03  0.47000000000E+01 0. -1.
        -11    1    1    2    0    0 -0.76059499725E+02 -0.31504068578E+02 -0.41416197407E+02  0.92156688542E+02  0.00000000000E+00 0. -1.
         11    1    1    2    0    0 -0.11303559628E+03  0.61788681939E+02 -0.85378072318E+02  0.15454547058E+03  0.00000000000E+00 0.  1.
<mgrwt>
<rscale>  0 0.22429972E+03</rscale>
<asrwt>0</asrwt>
<pdfrwt beam="2">  1        1 0.61869490E-01 0.22869110E+03</pdfrwt>
<pdfrwt beam="1">  1       -1 0.18562084E-01 0.22869110E+03</pdfrwt>
<totfact> 0.13676282E+03</totfact>
</mgrwt>
</event>
<event>
 6    1  0.7270761E-006  0.1263520E+03  0.7546771E-02  0.1248314E+00
         -2   -1    0    0    0  501 -0.00000000000E+00  0.00000000000E+00  0.45830666198E+02  0.45830666198E+02  0.00000000000E+00 0.  1.
          2   -1    0    0  501    0  0.00000000000E+00 -0.00000000000E+00 -0.33975751923E+03  0.33975751923E+03  0.00000000000E+00 0. -1.
          5    1    1    2  502    0 -0.33569698408E+02  0.12295257304E+02  0.21436452342E+02  0.41948891432E+02  0.47000000000E+01 0.  1.
         -5    1    1    2    0  502  0.31033079748E+02 -0.30565717784E+02 -0.94120137123E+02  0.10381717273E+03  0.47000000000E+01 0.  1.
        -11    1    1    2    0    0  0.39172580961E+02 -0.27585318552E+01 -0.16426138879E+03  0.16889021418E+03  0.00000000000E+00 0.  1.
         11    1    1    2    0    0 -0.36635962301E+02  0.21028992335E+02 -0.56981779457E+02  0.70931907083E+02  0.00000000000E+00 0. -1.
<mgrwt>
<rscale>  0 0.11689193E+03</rscale>
<asrwt>0</asrwt>
<pdfrwt beam="2">  1        2 0.52270390E-01 0.12635200E+03</pdfrwt>
<pdfrwt beam="1">  1       -2 0.70508714E-02 0.12635200E+03</pdfrwt>
<totfact> 0.10358417E+04</totfact>
</mgrwt>
</event>
<event>
 6    1  0.7270761E-006  0.1388896E+03  0.7546771E-02  0.1224119E+00
         -4   -1    0    0    0  501 -0.00000000000E+00  0.00000000000E+00  0.37034680817E+03  0.37034680817E+03  0.00000000000E+00 0.  1.
          4   -1    0    0  501    0  0.00000000000E+00 -0.00000000000E+00 -0.48502048256E+02  0.48502048256E+02  0.00000000000E+00 0. -1.
          5    1    1    2  502    0  0.74789404579E+02  0.17460669552E+02  0.18678738463E+03  0.20201471995E+03  0.47000000000E+01 0.  1.
         -5    1    1    2    0  502 -0.42088384114E+02  0.33488774126E+02  0.56655504859E+02  0.78261525034E+02  0.47000000000E+01 0.  1.
        -11    1    1    2    0    0 -0.22503115393E+02  0.10204560193E+02 -0.13160232388E+02  0.27994909673E+02  0.00000000000E+00 0. -1.
         11    1    1    2    0    0 -0.10197905072E+02 -0.61154003871E+02  0.91562102811E+02  0.11057770177E+03  0.00000000000E+00 0.  1.
<mgrwt>
<rscale>  0 0.13227466E+03</rscale>
<asrwt>0</asrwt>
<pdfrwt beam="2">  1        4 0.74618538E-02 0.13888964E+03</pdfrwt>
<pdfrwt beam="1">  1       -4 0.56976430E-01 0.13888964E+03</pdfrwt>
<totfact> 0.61078816E+02</totfact>
</mgrwt>
</event>
<event>
 6    1  0.7270761E-006  0.1871524E+03  0.7546771E-02  0.1166113E+00
          1   -1    0    0  501    0  0.00000000000E+00  0.00000000000E+00  0.42117363018E+02  0.42117363018E+02  0.00000000000E+00 0. -1.
         -1   -1    0    0    0  501 -0.00000000000E+00 -0.00000000000E+00 -0.74372395144E+03  0.74372395144E+03  0.00000000000E+00 0.  1.
          5    1    1    2  502    0 -0.54140178625E+02  0.60133202003E+02 -0.29471840586E+03  0.30566025204E+03  0.47000000000E+01 0. -1.
         -5    1    1    2    0  502  0.12626895702E+02  0.72822090891E+02 -0.59651481324E+02  0.95094083101E+02  0.47000000000E+01 0. -1.
        -11    1    1    2    0    0  0.20751889111E+02 -0.13512172359E+03 -0.24331033532E+03  0.27908500561E+03  0.00000000000E+00 0. -1.
         11    1    1    2    0    0  0.20761393813E+02  0.21664306913E+01 -0.10392636592E+03  0.10600197370E+03  0.00000000000E+00 0.  1.
<mgrwt>
<rscale>  0 0.18175780E+03</rscale>
<asrwt>0</asrwt>
<pdfrwt beam="1">  1        1 0.64795945E-02 0.18715240E+03</pdfrwt>
<pdfrwt beam="2">  1       -1 0.11441907E+00 0.18715240E+03</pdfrwt>
<totfact> 0.85442206E+02</totfact>
</mgrwt>
</event>
<event>
 6    1  0.7270761E-006  0.1305820E+03  0.7546771E-02  0.1240220E+00
         -1   -1    0    0    0  501 -0.00000000000E+00  0.00000000000E+00  0.42487532085E+03  0.42487532085E+03  0.00000000000E+00 0.  1.
          1   -1    0    0  501    0  0.00000000000E+00 -0.00000000000E+00 -0.37060438009E+02  0.37060438009E+02  0.00000000000E+00 0. -1.
          5    1    1    2  502    0 -0.43343767797E+02  0.13725092358E+02  0.17721434550E+03  0.18301386456E+03  0.47000000000E+01 0. -1.
         -5    1    1    2    0  502  0.76411469487E+02  0.45107903617E+01  0.13231566084E+03  0.15293326650E+03  0.47000000000E+01 0. -1.
        -11    1    1    2    0    0 -0.59980456760E+02 -0.32538168810E+02  0.54096358661E+02  0.87079295145E+02  0.00000000000E+00 0.  1.
         11    1    1    2    0    0  0.26912755071E+02  0.14302286091E+02  0.24188517842E+02  0.38909332663E+02  0.00000000000E+00 0. -1.
<mgrwt>
<rscale>  0 0.12176094E+03</rscale>
<asrwt>0</asrwt>
<pdfrwt beam="2">  1        1 0.57016061E-02 0.13058197E+03</pdfrwt>
<pdfrwt beam="1">  1       -1 0.65365431E-01 0.13058197E+03</pdfrwt>
<totfact> 0.32723346E+03</totfact>
</mgrwt>
</event>
<event>
 6    1  0.7270761E-006  0.1280081E+03  0.7546771E-02  0.1244604E+00
          2   -1    0    0  501    0  0.00000000000E+00  0.00000000000E+00  0.29485461282E+03  0.29485461282E+03  0.00000000000E+00 0. -1.
         -2   -1    0    0    0  501 -0.00000000000E+00 -0.00000000000E+00 -0.60921848394E+02  0.60921848394E+02  0.00000000000E+00 0.  1.
          5    1    1    2  502    0 -0.18424778463E+02  0.18638223683E+02  0.66649336235E+02  0.71771023847E+02  0.47000000000E+01 0.  1.
         -5    1    1    2    0  502  0.45899904155E+02 -0.15798319342E+02 -0.35076118627E+02  0.60073390061E+02  0.47000000000E+01 0.  1.
        -11    1    1    2    0    0 -0.36298448232E+02 -0.28892486211E+02  0.18649463434E+03  0.19217856733E+03  0.00000000000E+00 0. -1.
         11    1    1    2    0    0  0.88233225397E+01  0.26052581870E+02  0.15864912479E+02  0.31753479977E+02  0.00000000000E+00 0.  1.
<mgrwt>
<rscale>  0 0.11909104E+03</rscale>
<asrwt>0</asrwt>
<pdfrwt beam="1">  1        2 0.45362247E-01 0.12800813E+03</pdfrwt>
<pdfrwt beam="2">  1       -2 0.93725922E-02 0.12800813E+03</pdfrwt>
<totfact> 0.77619058E+03</totfact>
</mgrwt>
</event>
<event>
 6    1  0.7270761E-006  0.2746873E+03  0.7546771E-02  0.1109256E+00
          2   -1    0    0  501    0  0.00000000000E+00  0.00000000000E+00  0.59965890964E+03  0.59965890964E+03  0.00000000000E+00 0. -1.
         -2   -1    0    0    0  501 -0.00000000000E+00 -0.00000000000E+00 -0.97818056670E+02  0.97818056670E+02  0.00000000000E+00 0.  1.
          5    1    1    2  502    0 -0.81407821944E+02 -0.64218039351E+02  0.16826762566E+03  0.19770501738E+03  0.47000000000E+01 0. -1.
         -5    1    1    2    0  502 -0.93251248998E+02  0.13358718332E+03  0.13659488274E+03  0.21265366909E+03  0.47000000000E+01 0.  1.
        -11    1    1    2    0    0  0.12565081994E+03 -0.37202578504E+02  0.18592309788E+03  0.22746331292E+03  0.00000000000E+00 0.  1.
         11    1    1    2    0    0  0.49008251004E+02 -0.32166565461E+02  0.11055246695E+02  0.59654966930E+02  0.00000000000E+00 0. -1.
<mgrwt>
<rscale>  0 0.25651341E+03</rscale>
<asrwt>0</asrwt>
<pdfrwt beam="1">  1        2 0.92255215E-01 0.27468728E+03</pdfrwt>
<pdfrwt beam="2">  1       -2 0.15048932E-01 0.27468728E+03</pdfrwt>
<totfact> 0.17180450E+03</totfact>
</mgrwt>
</event>
<event>
 6    1  0.7270761E-006  0.1768209E+03  0.7546771E-02  0.1176889E+00
         -2   -1    0    0    0  501 -0.00000000000E+00  0.00000000000E+00  0.66815848844E+02  0.66815848844E+02  0.00000000000E+00 0.  1.
          2   -1    0    0  501    0  0.00000000000E+00 -0.00000000000E+00 -0.42158452368E+03  0.42158452368E+03  0.00000000000E+00 0. -1.
          5    1    1    2  502    0  0.64689281318E+02  0.90287930129E+02 -0.19881609482E+03  0.22778617826E+03  0.47000000000E+01 0.  1.
         -5    1    1    2    0  502 -0.42089658297E+02  0.32721498222E+02 -0.29883912225E+02  0.61297422387E+02  0.47000000000E+01 0.  1.
        -11    1    1    2    0    0 -0.21196957948E+02  0.82622617670E+01 -0.23611630741E+02  0.32788490389E+02  0.00000000000E+00 0. -1.
         11    1    1    2    0    0 -0.14026650737E+01 -0.13127169012E+03 -0.10245703705E+03  0.16652828149E+03  0.00000000000E+00 0.  1.
<mgrwt>
<rscale>  0 0.17092262E+03</rscale>
<asrwt>0</asrwt>
<pdfrwt beam="2">  1        2 0.64859157E-01 0.17682091E+03</pdfrwt>
<pdfrwt beam="1">  1       -2 0.10279361E-01 0.17682091E+03</pdfrwt>
<totfact> 0.46696545E+03</totfact>
</mgrwt>
</event>
<event>
 6    1  0.7270761E-006  0.1180398E+03  0.7546771E-02  0.1254040E+00
         -1   -1    0    0    0  501 -0.00000000000E+00  0.00000000000E+00  0.21674687956E+02  0.21674687956E+02  0.00000000000E+00 0.  1.
          1   -1    0    0  501    0  0.00000000000E+00 -0.00000000000E+00 -0.62762838253E+03  0.62762838253E+03  0.00000000000E+00 0. -1.
          5    1    1    2  502    0  0.23285904795E+01 -0.34983455417E+02 -0.12879165210E+03  0.13356138714E+03  0.47000000000E+01 0. -1.
         -5    1    1    2    0  502 -0.31507622817E+02  0.63149538698E+02 -0.84319273695E+02  0.11005646028E+03  0.47000000000E+01 0.  1.
        -11    1    1    2    0    0  0.22752238743E+02  0.32817879280E+02 -0.15801607396E+03  0.16298391699E+03  0.00000000000E+00 0.  1.
         11    1    1    2    0    0  0.64267935941E+01 -0.60983962562E+02 -0.23482669482E+03  0.24270130606E+03  0.00000000000E+00 0. -1.
<mgrwt>
<rscale>  0 0.11360267E+03</rscale>
<asrwt>0</asrwt>
<pdfrwt beam="2">  1        1 0.96558201E-01 0.11803978E+03</pdfrwt>
<pdfrwt beam="1">  1       -1 0.33345678E-02 0.11803978E+03</pdfrwt>
<totfact> 0.10075230E+04</totfact>
</mgrwt>
</event>
<event>
 6    1  0.7270761E-006  0.1294677E+03  0.7546771E-02  0.1242144E+00
          1   -1    0    0  501    0  0.00000000000E+00  0.00000000000E+00  0.90322022659E+02  0.90322022659E+02  0.00000000000E+00 0. -1.
         -1   -1    0    0    0  501 -0.00000000000E+00 -0.00000000000E+00 -0.14311668508E+03  0.14311668508E+03  0.00000000000E+00 0.  1.
          5    1    1    2  502    0 -0.53052750690E+02 -0.74620095336E+01  0.34665048044E+02  0.63984619229E+02  0.47000000000E+01 0.  1.
         -5    1    1    2    0  502  0.29804834957E+02 -0.19488938075E+02 -0.57031984945E+02  0.67400921365E+02  0.47000000000E+01 0.  1.
        -11    1    1    2    0    0  0.44588611893E+02  0.32219389883E+02  0.10116405265E+02  0.55933666521E+02  0.00000000000E+00 0. -1.
         11    1    1    2    0    0 -0.21340696160E+02 -0.52684422751E+01 -0.40544130781E+02  0.46119500619E+02  0.00000000000E+00 0.  1.
<mgrwt>
<rscale>  0 0.12057953E+03</rscale>
<asrwt>0</asrwt>
<pdfrwt beam="1">  1        1 0.13895696E-01 0.12946768E+03</pdfrwt>
<pdfrwt beam="2">  1       -1 0.22017951E-01 0.12946768E+03</pdfrwt>
<totfact> 0.67049824E+03</totfact>
</mgrwt>
</event>
<event>
 6    1  0.7270761E-006  0.2110324E+03  0.7546771E-02  0.1144168E+00
         -1   -1    0    0    0  501 -0.00000000000E+00  0.00000000000E+00  0.57824567433E+02  0.57824567433E+02  0.00000000000E+00 0.  1.
          1   -1    0    0  501    0  0.00000000000E+00 -0.00000000000E+00 -0.72125480706E+03  0.72125480706E+03  0.00000000000E+00 0. -1.
          5    1    1    2  502    0  0.19915471366E+01 -0.90736360176E+02 -0.75854391201E+02  0.11837665303E+03  0.47000000000E+01 0. -1.
         -5    1    1    2    0  502  0.33226110636E+02 -0.75658140927E+02 -0.31635732030E+03  0.32700485137E+03  0.47000000000E+01 0. -1.
        -11    1    1    2    0    0  0.13975097803E+02  0.62954572383E+02 -0.16630606688E+03  0.17837121243E+03  0.00000000000E+00 0. -1.
         11    1    1    2    0    0 -0.49192755576E+02  0.10343992872E+03 -0.10491246125E+03  0.15532665766E+03  0.00000000000E+00 0.  1.
<mgrwt>
<rscale>  0 0.20674774E+03</rscale>
<asrwt>0</asrwt>
<pdfrwt beam="2">  1        1 0.11096228E+00 0.21103236E+03</pdfrwt>
<pdfrwt beam="1">  1       -1 0.88960871E-02 0.21103236E+03</pdfrwt>
<totfact> 0.19623343E+03</totfact>
</mgrwt>
</event>
<event>
 6    1  0.7270761E-006  0.1632659E+03  0.7546771E-02  0.1190743E+00
         -1   -1    0    0    0  501 -0.00000000000E+00  0.00000000000E+00  0.17091005660E+03  0.17091005660E+03  0.00000000000E+00 0.  1.
          1   -1    0    0  501    0  0.00000000000E+00 -0.00000000000E+00 -0.15806757266E+03  0.15806757266E+03  0.00000000000E+00 0. -1.
          5    1    1    2  502    0 -0.35828529614E+02 -0.27955322199E+02  0.18888609096E+02  0.49437365698E+02  0.47000000000E+01 0. -1.
         -5    1    1    2    0  502  0.10641755367E+03 -0.49767950520E+02  0.46338132764E+02  0.12637585677E+03  0.47000000000E+01 0. -1.
        -11    1    1    2    0    0 -0.67784275008E+02  0.56076994685E+02 -0.79349416516E+02  0.11847222110E+03  0.00000000000E+00 0. -1.
         11    1    1    2    0    0 -0.28047490428E+01  0.21646278033E+02  0.26965158593E+02  0.34692185688E+02  0.00000000000E+00 0.  1.
<mgrwt>
<rscale>  0 0.15820051E+03</rscale>
<asrwt>0</asrwt>
<pdfrwt beam="2">  1        1 0.24318088E-01 0.16326592E+03</pdfrwt>
<pdfrwt beam="1">  1       -1 0.26293855E-01 0.16326592E+03</pdfrwt>
<totfact> 0.24801747E+03</totfact>
</mgrwt>
</event>
<event>
 6    1  0.7270761E-006  0.1670522E+03  0.7546771E-02  0.1187573E+00
          1   -1    0    0  501    0  0.00000000000E+00  0.00000000000E+00  0.14140835148E+03  0.14140835148E+03  0.00000000000E+00 0. -1.
         -1   -1    0    0    0  501 -0.00000000000E+00 -0.00000000000E+00 -0.17169221636E+03  0.17169221636E+03  0.00000000000E+00 0.  1.
          5    1    1    2  502    0  0.62717669087E+02 -0.31659637522E+02  0.36836758128E+02  0.79466190378E+02  0.47000000000E+01 0. -1.
         -5    1    1    2    0  502 -0.72659989937E+01 -0.64273429032E+02 -0.61536900698E+02  0.89402173175E+02  0.47000000000E+01 0. -1.
        -11    1    1    2    0    0 -0.43823349763E+02  0.41608984465E+02 -0.45651866659E+02  0.75735635616E+02  0.00000000000E+00 0.  1.
         11    1    1    2    0    0 -0.11628320331E+02  0.54324082089E+02  0.40068144346E+02  0.68496568672E+02  0.00000000000E+00 0. -1.
<mgrwt>
<rscale>  0 0.16099902E+03</rscale>
<asrwt>0</asrwt>
<pdfrwt beam="1">  1        1 0.21755131E-01 0.16705217E+03</pdfrwt>
<pdfrwt beam="2">  1       -1 0.26414187E-01 0.16705217E+03</pdfrwt>
<totfact> 0.28374165E+03</totfact>
</mgrwt>
</event>
<event>
 6    1  0.1205009E-005  0.4096215E+03  0.7546771E-02  0.1040498E+00
         -2   -1    0    0    0  501 -0.00000000000E+00  0.00000000000E+00  0.27233840551E+02  0.27233840551E+02  0.00000000000E+00 0.  1.
          2   -1    0    0  501    0  0.00000000000E+00 -0.00000000000E+00 -0.15402689254E+04  0.15402689254E+04  0.00000000000E+00 0. -1.
          5    1    1    2  502    0  0.18208372392E+02 -0.39726682186E+01 -0.80489181304E+01  0.20837514272E+02  0.47000000000E+01 0.  1.
         -5    1    1    2    0  502  0.15346605917E+03  0.30149697803E+02 -0.79341208454E+03  0.80869379958E+03  0.47000000000E+01 0.  1.
        -11    1    1    2    0    0 -0.80285484302E+02 -0.25464398380E+02 -0.18168638454E+03  0.20026017303E+03  0.00000000000E+00 0.  1.
         11    1    1    2    0    0 -0.91388947258E+02 -0.71263120486E+00 -0.52988769761E+03  0.53771127904E+03  0.00000000000E+00 0. -1.
<mgrwt>
<rscale>  0 0.40962148E+03</rscale>
<asrwt>0</asrwt>
<pdfrwt beam="2">  1        2 0.23696448E+00 0.40962148E+03</pdfrwt>
<pdfrwt beam="1">  1       -2 0.41898211E-02 0.40962148E+03</pdfrwt>
<totfact> 0.33268060E+03</totfact>
</mgrwt>
</event>
<event>
 6    1  0.7270761E-006  0.1251493E+03  0.7546771E-02  0.1251561E+00
          1   -1    0    0  501    0  0.00000000000E+00  0.00000000000E+00  0.37254965670E+03  0.37254965670E+03  0.00000000000E+00 0. -1.
         -1   -1    0    0    0  501 -0.00000000000E+00 -0.00000000000E+00 -0.34618848988E+02  0.34618848988E+02  0.00000000000E+00 0.  1.
          5    1    1    2  502    0 -0.62602665108E+02 -0.10292497679E+01  0.51592222862E+02  0.81265001652E+02  0.47000000000E+01 0.  1.
         -5    1    1    2    0  502  0.60412445052E+02  0.68718545150E+01  0.76247753117E+02  0.97635525076E+02  0.47000000000E+01 0.  1.
        -11    1    1    2    0    0  0.14276115629E+02 -0.35140174361E+02  0.39515011219E+02  0.54772944446E+02  0.00000000000E+00 0.  1.
         11    1    1    2    0    0 -0.12085895574E+02  0.29297569613E+02  0.17057582052E+03  0.17349503452E+03  0.00000000000E+00 0. -1.
<mgrwt>
<rscale>  0 0.11501134E+03</rscale>
<asrwt>0</asrwt>
<pdfrwt beam="1">  1        1 0.57315329E-01 0.12514927E+03</pdfrwt>
<pdfrwt beam="2">  1       -1 0.53259770E-02 0.12514927E+03</pdfrwt>
<totfact> 0.10015450E+04</totfact>
</mgrwt>
</event>
<event>
 6    1  0.7270761E-006  0.1469538E+03  0.7546771E-02  0.1214459E+00
          2   -1    0    0  501    0  0.00000000000E+00  0.00000000000E+00  0.26745912026E+03  0.26745912026E+03  0.00000000000E+00 0. -1.
         -2   -1    0    0    0  501 -0.00000000000E+00 -0.00000000000E+00 -0.68058570777E+02  0.68058570777E+02  0.00000000000E+00 0.  1.
          5    1    1    2  502    0 -0.17139704486E+02  0.46481133722E+02  0.15060104540E+01  0.49785774368E+02  0.47000000000E+01 0. -1.
         -5    1    1    2    0  502  0.86640973427E+02 -0.12702799574E+02  0.77649236526E+02  0.11713032625E+03  0.47000000000E+01 0. -1.
        -11    1    1    2    0    0 -0.14265389875E+02 -0.51328624251E+02  0.29413739759E+02  0.60854721283E+02  0.00000000000E+00 0.  1.
         11    1    1    2    0    0 -0.55235879067E+02  0.17550290104E+02  0.90831562743E+02  0.10774686914E+03  0.00000000000E+00 0. -1.
<mgrwt>
<rscale>  0 0.13916364E+03</rscale>
<asrwt>0</asrwt>
<pdfrwt beam="1">  1        2 0.41147556E-01 0.14695384E+03</pdfrwt>
<pdfrwt beam="2">  1       -2 0.10470550E-01 0.14695384E+03</pdfrwt>
<totfact> 0.73009192E+03</totfact>
</mgrwt>
</event>
<event>
 6    1  0.7270761E-006  0.2032281E+03  0.7546771E-02  0.1151545E+00
          2   -1    0    0  501    0  0.00000000000E+00  0.00000000000E+00  0.54096238576E+03  0.54096238576E+03  0.00000000000E+00 0.  1.
         -2   -1    0    0    0  501 -0.00000000000E+00 -0.00000000000E+00 -0.68827991586E+02  0.68827991586E+02  0.00000000000E+00 0. -1.
          5    1    1    2  502    0 -0.11396206740E+03  0.69104722577E+02  0.23176624139E+03  0.26739576687E+03  0.47000000000E+01 0. -1.
         -5    1    1    2    0  502 -0.40500877487E+02 -0.26459640331E+02  0.12172904474E+02  0.50106918155E+02  0.47000000000E+01 0. -1.
        -11    1    1    2    0    0  0.21287774788E+02 -0.44623872941E+02  0.60223528347E+02  0.77918757422E+02  0.00000000000E+00 0.  1.
         11    1    1    2    0    0  0.13317517010E+03  0.19787906950E+01  0.16797171996E+03  0.21436893490E+03  0.00000000000E+00 0. -1.
<mgrwt>
<rscale>  0 0.19787432E+03</rscale>
<asrwt>0</asrwt>
<pdfrwt beam="1">  1        2 0.83224980E-01 0.20322807E+03</pdfrwt>
<pdfrwt beam="2">  1       -2 0.10588922E-01 0.20322807E+03</pdfrwt>
<totfact> 0.34009364E+03</totfact>
</mgrwt>
</event>
<event>
 6    1  0.7270761E-006  0.1138383E+03  0.7546771E-02  0.1263258E+00
          1   -1    0    0  501    0  0.00000000000E+00  0.00000000000E+00  0.73539063215E+02  0.73539063215E+02  0.00000000000E+00 0. -1.
         -1   -1    0    0    0  501 -0.00000000000E+00 -0.00000000000E+00 -0.16474678651E+03  0.16474678651E+03  0.00000000000E+00 0.  1.
          5    1    1    2  502    0  0.51747323115E+02 -0.29353487563E+02 -0.35353387350E+02  0.69364001318E+02  0.47000000000E+01 0. -1.
         -5    1    1    2    0  502 -0.50630291775E+02  0.13841924763E+02 -0.52979220303E+02  0.74725585379E+02  0.47000000000E+01 0.  1.
        -11    1    1    2    0    0 -0.17818618764E+02  0.49147149707E+02  0.12278636338E+02  0.53700190030E+02  0.00000000000E+00 0.  1.
         11    1    1    2    0    0  0.16701587423E+02 -0.33635586906E+02 -0.15153751976E+02  0.40496072994E+02  0.00000000000E+00 0. -1.
<mgrwt>
<rscale>  0 0.10856107E+03</rscale>
<asrwt>0</asrwt>
<pdfrwt beam="1">  1        1 0.11313702E-01 0.11383830E+03</pdfrwt>
<pdfrwt beam="2">  1       -1 0.25345659E-01 0.11383830E+03</pdfrwt>
<totfact> 0.69039820E+03</totfact>
</mgrwt>
</event>
<event>
 6    1  0.7270761E-006  0.1253650E+03  0.7546771E-02  0.1250719E+00
          1   -1    0    0  501    0  0.00000000000E+00  0.00000000000E+00  0.15928286054E+03  0.15928286054E+03  0.00000000000E+00 0. -1.
         -1   -1    0    0    0  501 -0.00000000000E+00 -0.00000000000E+00 -0.77870243247E+02  0.77870243247E+02  0.00000000000E+00 0.  1.
          5    1    1    2  502    0 -0.44664681170E+02  0.48262329080E+02 -0.38270307302E+01  0.66037279748E+02  0.47000000000E+01 0. -1.
         -5    1    1    2    0  502  0.39604919804E+02 -0.40202134097E+02  0.21472959034E+02  0.60563514002E+02  0.47000000000E+01 0. -1.
        -11    1    1    2    0    0 -0.32944492345E+02 -0.12079849363E+02 -0.12769330094E+01  0.35112574591E+02  0.00000000000E+00 0.  1.
         11    1    1    2    0    0  0.38004253711E+02  0.40196543799E+01  0.65043621998E+02  0.75439735446E+02  0.00000000000E+00 0. -1.
<mgrwt>
<rscale>  0 0.11549531E+03</rscale>
<asrwt>0</asrwt>
<pdfrwt beam="1">  1        1 0.24505055E-01 0.12536500E+03</pdfrwt>
<pdfrwt beam="2">  1       -1 0.11980037E-01 0.12536500E+03</pdfrwt>
<totfact> 0.84645282E+03</totfact>
</mgrwt>
</event>
<event>
 6    1  0.7270761E-006  0.1570776E+03  0.7546771E-02  0.1213519E+00
          4   -1    0    0  501    0  0.00000000000E+00  0.00000000000E+00  0.19505668902E+03  0.19505668902E+03  0.00000000000E+00 0. -1.
         -4   -1    0    0    0  501 -0.00000000000E+00 -0.00000000000E+00 -0.10179427365E+03  0.10179427365E+03  0.00000000000E+00 0.  1.
          5    1    1    2  502    0  0.38075734369E+02  0.11356564665E+02 -0.38794935411E+02  0.55730333951E+02  0.47000000000E+01 0. -1.
         -5    1    1    2    0  502  0.62373568441E+01 -0.95523150852E+02  0.33248413002E+02  0.10144517700E+03  0.47000000000E+01 0. -1.
        -11    1    1    2    0    0 -0.95730047719E+01  0.36870361301E+02  0.25811203700E+02  0.46013956571E+02  0.00000000000E+00 0.  1.
         11    1    1    2    0    0 -0.34740086441E+02  0.47296224886E+02  0.72997734078E+02  0.93661495156E+02  0.00000000000E+00 0. -1.
<mgrwt>
<rscale>  0 0.13985860E+03</rscale>
<asrwt>0</asrwt>
<pdfrwt beam="1">  1        4 0.30008721E-01 0.15707762E+03</pdfrwt>
<pdfrwt beam="2">  1       -4 0.15660658E-01 0.15707762E+03</pdfrwt>
<totfact> 0.63262992E+02</totfact>
</mgrwt>
</event>
<event>
 6    1  0.7270761E-006  0.1711284E+03  0.7546771E-02  0.1199643E+00
          2   -1    0    0  501    0  0.00000000000E+00  0.00000000000E+00  0.22161448777E+03  0.22161448777E+03  0.00000000000E+00 0. -1.
         -2   -1    0    0    0  501 -0.00000000000E+00 -0.00000000000E+00 -0.97653461239E+02  0.97653461239E+02  0.00000000000E+00 0.  1.
          5    1    1    2  502    0 -0.86295362734E+02  0.36851818117E+01  0.41683904588E+02  0.96021393950E+02  0.47000000000E+01 0. -1.
         -5    1    1    2    0  502  0.60673913367E+02 -0.39604980381E+02 -0.22902189094E+02  0.76134607766E+02  0.47000000000E+01 0.  1.
        -11    1    1    2    0    0  0.36351166551E+02 -0.91764915103E+01  0.64505894845E+01  0.38042415943E+02  0.00000000000E+00 0.  1.
         11    1    1    2    0    0 -0.10729717185E+02  0.45096290080E+02  0.98728721555E+02  0.10906953135E+03  0.00000000000E+00 0. -1.
<mgrwt>
<rscale>  0 0.15067750E+03</rscale>
<asrwt>0</asrwt>
<pdfrwt beam="1">  1        2 0.34094536E-01 0.17112842E+03</pdfrwt>
<pdfrwt beam="2">  1       -2 0.15023610E-01 0.17112842E+03</pdfrwt>
<totfact> 0.50401390E+03</totfact>
</mgrwt>
</event>
<event>
 6    1  0.7605638E-006  0.2463823E+03  0.7546771E-02  0.1115613E+00
          1   -1    0    0  501    0  0.00000000000E+00  0.00000000000E+00  0.57956468921E+03  0.57956468921E+03  0.00000000000E+00 0. -1.
         -1   -1    0    0    0  501 -0.00000000000E+00 -0.00000000000E+00 -0.26185277508E+02  0.26185277508E+02  0.00000000000E+00 0.  1.
          5    1    1    2  502    0  0.17725265998E+02 -0.36437292938E+02  0.81421671476E+02  0.91068325763E+02  0.47000000000E+01 0.  1.
         -5    1    1    2    0  502 -0.31225618417E+02  0.90886921135E+02  0.18938974042E+03  0.21242889506E+03  0.47000000000E+01 0.  1.
        -11    1    1    2    0    0 -0.36650052496E+02 -0.34703820184E+02  0.10188099060E+03  0.11369836291E+03  0.00000000000E+00 0.  1.
         11    1    1    2    0    0  0.50150404916E+02 -0.19745808014E+02  0.18068700920E+03  0.18855438298E+03  0.00000000000E+00 0. -1.
<mgrwt>
<rscale>  0 0.24638232E+03</rscale>
<asrwt>0</asrwt>
<pdfrwt beam="1">  1        1 0.89163788E-01 0.24638232E+03</pdfrwt>
<pdfrwt beam="2">  1       -1 0.40285047E-02 0.24638232E+03</pdfrwt>
<totfact> 0.88972933E+03</totfact>
</mgrwt>
</event>
<event>
 6    1  0.7270761E-006  0.1730631E+03  0.7546771E-02  0.1181280E+00
         -1   -1    0    0    0  501 -0.00000000000E+00  0.00000000000E+00  0.70491249781E+02  0.70491249781E+02  0.00000000000E+00 0. -1.
          1   -1    0    0  501    0  0.00000000000E+00 -0.00000000000E+00 -0.38764833363E+03  0.38764833363E+03  0.00000000000E+00 0.  1.
          5    1    1    2  502    0  0.34247116909E+02 -0.42370561577E+02 -0.93829548955E+02  0.10860112229E+03  0.47000000000E+01 0.  1.
         -5    1    1    2    0  502  0.85302620448E+02  0.48275021797E+02 -0.24787520698E+02  0.10121030564E+03  0.47000000000E+01 0.  1.
        -11    1    1    2    0    0 -0.48737424235E+02 -0.44196348340E+02 -0.11376923615E+03  0.13142333439E+03  0.00000000000E+00 0.  1.
         11    1    1    2    0    0 -0.70812313121E+02  0.38291888120E+02 -0.84770778045E+02  0.11690482110E+03  0.00000000000E+00 0. -1.
<mgrwt>
<rscale>  0 0.16675024E+03</rscale>
<asrwt>0</asrwt>
<pdfrwt beam="2">  1        1 0.59638203E-01 0.17306307E+03</pdfrwt>
<pdfrwt beam="1">  1       -1 0.10844808E-01 0.17306307E+03</pdfrwt>
<totfact> 0.33191214E+03</totfact>
</mgrwt>
</event>
<event>
 6    1  0.7270761E-006  0.1809378E+03  0.7546771E-02  0.1172603E+00
         -2   -1    0    0    0  501 -0.00000000000E+00  0.00000000000E+00  0.94196434267E+02  0.94196434267E+02  0.00000000000E+00 0.  1.
          2   -1    0    0  501    0  0.00000000000E+00 -0.00000000000E+00 -0.31488981104E+03  0.31488981104E+03  0.00000000000E+00 0. -1.
          5    1    1    2  502    0 -0.10495050057E+03  0.15015632709E+02 -0.25582886156E+02  0.10916341356E+03  0.47000000000E+01 0. -1.
         -5    1    1    2    0  502 -0.15001195097E+02 -0.67167288041E+02 -0.58095960215E+02  0.90187089045E+02  0.47000000000E+01 0. -1.
        -11    1    1    2    0    0  0.15493553717E+02  0.41900499077E+02 -0.11521017825E+02  0.46134974600E+02  0.00000000000E+00 0.  1.
         11    1    1    2    0    0  0.10445814195E+03  0.10251156256E+02 -0.12549351258E+03  0.16360076811E+03  0.00000000000E+00 0. -1.
<mgrwt>
<rscale>  0 0.17512843E+03</rscale>
<asrwt>0</asrwt>
<pdfrwt beam="2">  1        2 0.48444587E-01 0.18093776E+03</pdfrwt>
<pdfrwt beam="1">  1       -2 0.14491759E-01 0.18093776E+03</pdfrwt>
<totfact> 0.36789189E+03</totfact>
</mgrwt>
</event>
<event>
 6    1  0.7270761E-006  0.1255134E+03  0.7546771E-02  0.1247346E+00
          2   -1    0    0  501    0  0.00000000000E+00  0.00000000000E+00  0.61900440877E+02  0.61900440877E+02  0.00000000000E+00 0.  1.
         -2   -1    0    0    0  501 -0.00000000000E+00 -0.00000000000E+00 -0.20829360897E+03  0.20829360897E+03  0.00000000000E+00 0. -1.
          5    1    1    2  502    0  0.50259627669E+02 -0.40201539649E+02 -0.75637919815E+02  0.99425242658E+02  0.47000000000E+01 0.  1.
         -5    1    1    2    0  502 -0.39230417604E+02  0.42826863097E+02 -0.35572347437E+02  0.68268937082E+02  0.47000000000E+01 0.  1.
        -11    1    1    2    0    0  0.26139779056E+02  0.26242852493E+02  0.88140438635E+01  0.38074436638E+02  0.00000000000E+00 0.  1.
         11    1    1    2    0    0 -0.37168989121E+02 -0.28868175941E+02 -0.43996944708E+02  0.64425433472E+02  0.00000000000E+00 0. -1.
<mgrwt>
<rscale>  0 0.11746084E+03</rscale>
<asrwt>0</asrwt>
<pdfrwt beam="1">  1        2 0.95231448E-02 0.12551340E+03</pdfrwt>
<pdfrwt beam="2">  1       -2 0.32045170E-01 0.12551340E+03</pdfrwt>
<totfact> 0.58153137E+03</totfact>
</mgrwt>
</event>
<event>
 6    1  0.7270761E-006  0.1301757E+03  0.7546771E-02  0.1241466E+00
         -1   -1    0    0    0  501 -0.00000000000E+00  0.00000000000E+00  0.25730351139E+03  0.25730351139E+03  0.00000000000E+00 0.  1.
          1   -1    0    0  501    0  0.00000000000E+00 -0.00000000000E+00 -0.50279529666E+02  0.50279529666E+02  0.00000000000E+00 0. -1.
          5    1    1    2  502    0  0.78341830711E+01 -0.79001672340E+02  0.62251931931E+02  0.10099520625E+03  0.47000000000E+01 0.  1.
         -5    1    1    2    0  502  0.10416689409E+02  0.47568666517E+02  0.61830597652E+02  0.78844139024E+02  0.47000000000E+01 0.  1.
        -11    1    1    2    0    0 -0.10606311597E+02  0.57698946452E+02  0.81409235971E+02  0.10034503460E+03  0.00000000000E+00 0.  1.
         11    1    1    2    0    0 -0.76445608828E+01 -0.26265940628E+02  0.15322161728E+01  0.27398661182E+02  0.00000000000E+00 0. -1.
<mgrwt>
<rscale>  0 0.12099410E+03</rscale>
<asrwt>0</asrwt>
<pdfrwt beam="2">  1        1 0.77353124E-02 0.13017571E+03</pdfrwt>
<pdfrwt beam="1">  1       -1 0.39585155E-01 0.13017571E+03</pdfrwt>
<totfact> 0.54372196E+03</totfact>
</mgrwt>
</event>
<event>
 6    1  0.7270761E-006  0.2369084E+03  0.7546771E-02  0.1124788E+00
         -3   -1    0    0    0  501 -0.00000000000E+00  0.00000000000E+00  0.10249429056E+03  0.10249429056E+03  0.00000000000E+00 0.  1.
          3   -1    0    0  501    0  0.00000000000E+00 -0.00000000000E+00 -0.52102528578E+03  0.52102528578E+03  0.00000000000E+00 0. -1.
          5    1    1    2  502    0 -0.14936935047E+02  0.27725122507E+02 -0.15982031942E+02  0.35627374189E+02  0.47000000000E+01 0.  1.
         -5    1    1    2    0  502  0.18251543157E+03  0.83716616324E+02 -0.24613618933E+03  0.31768768989E+03  0.47000000000E+01 0.  1.
        -11    1    1    2    0    0 -0.88128887036E+02 -0.88349965375E+01 -0.45920095324E+02  0.99766793316E+02  0.00000000000E+00 0.  1.
         11    1    1    2    0    0 -0.79449609488E+02 -0.10260674229E+03 -0.11049267862E+03  0.17043771895E+03  0.00000000000E+00 0. -1.
<mgrwt>
<rscale>  0 0.23265047E+03</rscale>
<asrwt>0</asrwt>
<pdfrwt beam="2">  1        3 0.80157738E-01 0.23690836E+03</pdfrwt>
<pdfrwt beam="1">  1       -3 0.15768352E-01 0.23690836E+03</pdfrwt>
<totfact> 0.12551131E+02</totfact>
</mgrwt>
</event>
<event>
 6    1  0.7270761E-006  0.3507894E+03  0.7546771E-02  0.1062292E+00
         -2   -1    0    0    0  501 -0.00000000000E+00  0.00000000000E+00  0.46954663783E+02  0.46954663783E+02  0.00000000000E+00 0.  1.
          2   -1    0    0  501    0  0.00000000000E+00 -0.00000000000E+00 -0.65517013460E+03  0.65517013460E+03  0.00000000000E+00 0. -1.
          5    1    1    2  502    0  0.10372069999E+02  0.14415920545E+03 -0.27941388629E+03  0.31461669727E+03  0.47000000000E+01 0.  1.
         -5    1    1    2    0  502  0.30674936479E+02 -0.13483121344E+02 -0.25958055860E+02  0.42645714359E+02  0.47000000000E+01 0.  1.
        -11    1    1    2    0    0 -0.67232846348E+02 -0.74753573371E+02 -0.15634794823E+03  0.18588446216E+03  0.00000000000E+00 0.  1.
         11    1    1    2    0    0  0.26185839870E+02 -0.55922510734E+02 -0.14649558044E+03  0.15897792459E+03  0.00000000000E+00 0. -1.
<mgrwt>
<rscale>  0 0.35078936E+03</rscale>
<asrwt>0</asrwt>
<pdfrwt beam="2">  1        2 0.10079541E+00 0.35078936E+03</pdfrwt>
<pdfrwt beam="1">  1       -2 0.72237940E-02 0.35078936E+03</pdfrwt>
<totfact> 0.50636571E+03</totfact>
</mgrwt>
</event>
<event>
 6    1  0.7270761E-006  0.1370328E+03  0.7546771E-02  0.1228836E+00
          1   -1    0    0  501    0  0.00000000000E+00  0.00000000000E+00  0.41703650651E+02  0.41703650651E+02  0.00000000000E+00 0. -1.
         -1   -1    0    0    0  501 -0.00000000000E+00 -0.00000000000E+00 -0.43397286031E+03  0.43397286031E+03  0.00000000000E+00 0.  1.
          5    1    1    2  502    0 -0.33264051818E+02  0.20365079842E+02 -0.23923920143E+03  0.24244322866E+03  0.47000000000E+01 0. -1.
         -5    1    1    2    0  502  0.59536845054E+02  0.29242838425E+02 -0.74171779967E+02  0.99615874547E+02  0.47000000000E+01 0. -1.
        -11    1    1    2    0    0 -0.16256451894E+02  0.14311344951E+02 -0.63539435768E+02  0.67129328316E+02  0.00000000000E+00 0.  1.
         11    1    1    2    0    0 -0.10016341342E+02 -0.63919263219E+02 -0.15318792493E+02  0.66488079441E+02  0.00000000000E+00 0. -1.
<mgrwt>
<rscale>  0 0.12907411E+03</rscale>
<asrwt>0</asrwt>
<pdfrwt beam="1">  1        1 0.64159464E-02 0.13703279E+03</pdfrwt>
<pdfrwt beam="2">  1       -1 0.66765054E-01 0.13703279E+03</pdfrwt>
<totfact> 0.26827156E+03</totfact>
</mgrwt>
</event>
<event>
 6    1  0.7270761E-006  0.1716248E+03  0.7546771E-02  0.1182444E+00
         -3   -1    0    0    0  501 -0.00000000000E+00  0.00000000000E+00  0.53538429382E+03  0.53538429382E+03  0.00000000000E+00 0.  1.
          3   -1    0    0  501    0  0.00000000000E+00 -0.00000000000E+00 -0.52001931060E+02  0.52001931060E+02  0.00000000000E+00 0. -1.
          5    1    1    2  502    0 -0.15948563297E+02  0.14734291018E+01 -0.48603162041E+01  0.17385060776E+02  0.47000000000E+01 0.  1.
         -5    1    1    2    0  502 -0.52942420162E+00  0.11496696319E+03  0.34354315025E+03  0.36230052304E+03  0.47000000000E+01 0.  1.
        -11    1    1    2    0    0  0.78783796542E+01  0.87680335536E+01  0.47551417597E+02  0.48990658231E+02  0.00000000000E+00 0.  1.
         11    1    1    2    0    0  0.85996078449E+01 -0.12520842584E+03  0.97148111124E+02  0.15870998284E+03  0.00000000000E+00 0. -1.
<mgrwt>
<rscale>  0 0.16566590E+03</rscale>
<asrwt>0</asrwt>
<pdfrwt beam="2">  1        3 0.80002974E-02 0.17162482E+03</pdfrwt>
<pdfrwt beam="1">  1       -3 0.82366811E-01 0.17162482E+03</pdfrwt>
<totfact> 0.35771720E+02</totfact>
</mgrwt>
</event>
<event>
 6    1  0.7270761E-006  0.1670923E+03  0.7546771E-02  0.1186252E+00
         -1   -1    0    0    0  501 -0.00000000000E+00  0.00000000000E+00  0.22348549879E+03  0.22348549879E+03  0.00000000000E+00 0.  1.
          1   -1    0    0  501    0  0.00000000000E+00 -0.00000000000E+00 -0.14142627784E+03  0.14142627784E+03  0.00000000000E+00 0. -1.
          5    1    1    2  502    0 -0.12069069498E+02  0.71015299467E+02  0.39232391899E+01  0.72293270798E+02  0.47000000000E+01 0.  1.
         -5    1    1    2    0  502  0.51980607158E+02  0.32431924772E+02  0.12314976387E+03  0.13762909433E+03  0.47000000000E+01 0.  1.
        -11    1    1    2    0    0 -0.10373676640E+02 -0.86693927117E+02  0.12496145671E+02  0.88202062463E+02  0.00000000000E+00 0.  1.
         11    1    1    2    0    0 -0.29537861021E+02 -0.16753297121E+02 -0.57509927785E+02  0.66787349041E+02  0.00000000000E+00 0. -1.
<mgrwt>
<rscale>  0 0.16218440E+03</rscale>
<asrwt>0</asrwt>
<pdfrwt beam="2">  1        1 0.21757889E-01 0.16709234E+03</pdfrwt>
<pdfrwt beam="1">  1       -1 0.34382385E-01 0.16709234E+03</pdfrwt>
<totfact> 0.18169722E+03</totfact>
</mgrwt>
</event>
<event>
 6    1  0.7270761E-006  0.1921892E+03  0.7546771E-02  0.1160334E+00
          2   -1    0    0  501    0  0.00000000000E+00  0.00000000000E+00  0.67441401268E+03  0.67441401268E+03  0.00000000000E+00 0. -1.
         -2   -1    0    0    0  501 -0.00000000000E+00 -0.00000000000E+00 -0.55375808162E+02  0.55375808162E+02  0.00000000000E+00 0.  1.
          5    1    1    2  502    0  0.51853927415E+02  0.31640300701E+02  0.15805675589E+03  0.16939293521E+03  0.47000000000E+01 0. -1.
         -5    1    1    2    0  502  0.93722728665E+02 -0.42562365014E+02  0.52352218515E+02  0.11557832655E+03  0.47000000000E+01 0. -1.
        -11    1    1    2    0    0 -0.20221292555E+02  0.20425821603E+02  0.16746579781E+02  0.33265038631E+02  0.00000000000E+00 0.  1.
         11    1    1    2    0    0 -0.12535536352E+03 -0.95037572902E+01  0.39188265033E+03  0.41155352045E+03  0.00000000000E+00 0. -1.
<mgrwt>
<rscale>  0 0.18793878E+03</rscale>
<asrwt>0</asrwt>
<pdfrwt beam="1">  1        2 0.10375600E+00 0.19218919E+03</pdfrwt>
<pdfrwt beam="2">  1       -2 0.85193556E-02 0.19218919E+03</pdfrwt>
<totfact> 0.37073736E+03</totfact>
</mgrwt>
</event>
<event>
 6    1  0.7270761E-006  0.1373214E+03  0.7546771E-02  0.1228877E+00
         -3   -1    0    0    0  501 -0.00000000000E+00  0.00000000000E+00  0.10670691470E+04  0.10670691470E+04  0.00000000000E+00 0.  1.
          3   -1    0    0  501    0  0.00000000000E+00 -0.00000000000E+00 -0.30434965076E+02  0.30434965076E+02  0.00000000000E+00 0. -1.
          5    1    1    2  502    0  0.46987446544E+02  0.14728299603E+02  0.12696880316E+03  0.13626411823E+03  0.47000000000E+01 0.  1.
         -5    1    1    2    0  502  0.79061458575E+01 -0.29541804721E+02  0.82270028343E+03  0.82328189080E+03  0.47000000000E+01 0.  1.
        -11    1    1    2    0    0 -0.77147951565E+02 -0.38027711058E+00  0.77616396239E+02  0.10943608183E+03  0.00000000000E+00 0.  1.
         11    1    1    2    0    0  0.22254359163E+02  0.15193782229E+02  0.93486991239E+01  0.28522021238E+02  0.00000000000E+00 0. -1.
<mgrwt>
<rscale>  0 0.12904667E+03</rscale>
<asrwt>0</asrwt>
<pdfrwt beam="2">  1        3 0.46823031E-02 0.13732141E+03</pdfrwt>
<pdfrwt beam="1">  1       -3 0.16416446E+00 0.13732141E+03</pdfrwt>
<totfact> 0.16180533E+02</totfact>
</mgrwt>
</event>
<event>
 6    1  0.7270761E-006  0.1697503E+03  0.7546771E-02  0.1184415E+00
          1   -1    0    0  501    0  0.00000000000E+00  0.00000000000E+00  0.22518983373E+03  0.22518983373E+03  0.00000000000E+00 0. -1.
         -1   -1    0    0    0  501 -0.00000000000E+00 -0.00000000000E+00 -0.11174750596E+03  0.11174750596E+03  0.00000000000E+00 0.  1.
          5    1    1    2  502    0 -0.61610003070E+02  0.55835543251E+02  0.86796765397E+02  0.12028785829E+03  0.47000000000E+01 0. -1.
         -5    1    1    2    0  502  0.11613592637E+02  0.47519293679E+02 -0.31346738731E+02  0.58289508788E+02  0.47000000000E+01 0. -1.
        -11    1    1    2    0    0  0.13982612832E+02 -0.99264996852E+02  0.13776898619E+02  0.10118723238E+03  0.00000000000E+00 0.  1.
         11    1    1    2    0    0  0.36013797601E+02 -0.40898400781E+01  0.44215402480E+02  0.57172740235E+02  0.00000000000E+00 0. -1.
<mgrwt>
<rscale>  0 0.16385223E+03</rscale>
<asrwt>0</asrwt>
<pdfrwt beam="1">  1        1 0.34644590E-01 0.16975032E+03</pdfrwt>
<pdfrwt beam="2">  1       -1 0.17191924E-01 0.16975032E+03</pdfrwt>
<totfact> 0.31781417E+03</totfact>
</mgrwt>
</event>
<event>
 6    1  0.7270761E-006  0.1307494E+03  0.7546771E-02  0.1242316E+00
          1   -1    0    0  501    0  0.00000000000E+00  0.00000000000E+00  0.26690150217E+02  0.26690150217E+02  0.00000000000E+00 0. -1.
         -1   -1    0    0    0  501 -0.00000000000E+00 -0.00000000000E+00 -0.47571976087E+03  0.47571976087E+03  0.00000000000E+00 0.  1.
          5    1    1    2  502    0 -0.11215674182E+02 -0.74230044717E+02 -0.97480158389E+02  0.12312742248E+03  0.47000000000E+01 0.  1.
         -5    1    1    2    0  502  0.28064521691E+01  0.36805418387E+02 -0.17745415364E+03  0.18131348996E+03  0.47000000000E+01 0.  1.
        -11    1    1    2    0    0  0.17388205545E+02 -0.81729947890E+01 -0.15510318680E+01  0.19275716219E+02  0.00000000000E+00 0. -1.
         11    1    1    2    0    0 -0.89789835321E+01  0.45597621119E+02 -0.17254426675E+03  0.17869328243E+03  0.00000000000E+00 0.  1.
<mgrwt>
<rscale>  0 0.12047498E+03</rscale>
<asrwt>0</asrwt>
<pdfrwt beam="1">  1        1 0.41061772E-02 0.13074935E+03</pdfrwt>
<pdfrwt beam="2">  1       -1 0.73187651E-01 0.13074935E+03</pdfrwt>
<totfact> 0.41043674E+03</totfact>
</mgrwt>
</event>
<event>
 6    1  0.7270761E-006  0.1703212E+03  0.7546771E-02  0.1183248E+00
         -1   -1    0    0    0  501 -0.00000000000E+00  0.00000000000E+00  0.44651628586E+02  0.44651628586E+02  0.00000000000E+00 0.  1.
          1   -1    0    0  501    0  0.00000000000E+00 -0.00000000000E+00 -0.66593212427E+03  0.66593212427E+03  0.00000000000E+00 0. -1.
          5    1    1    2  502    0 -0.37025665007E+02  0.56788763332E+01 -0.54396053326E+02  0.66213066106E+02  0.47000000000E+01 0. -1.
         -5    1    1    2    0  502  0.54047565987E+02 -0.12010810115E+03 -0.14133872460E+03  0.19325066732E+03  0.47000000000E+01 0. -1.
        -11    1    1    2    0    0 -0.52870290449E+02  0.93062898827E+02 -0.32800907774E+03  0.34503032596E+03  0.00000000000E+00 0. -1.
         11    1    1    2    0    0  0.35848389470E+02  0.21366325989E+02 -0.97536640022E+02  0.10608969347E+03  0.00000000000E+00 0.  1.
<mgrwt>
<rscale>  0 0.16492304E+03</rscale>
<asrwt>0</asrwt>
<pdfrwt beam="2">  1        1 0.10245109E+00 0.17032124E+03</pdfrwt>
<pdfrwt beam="1">  1       -1 0.68694820E-02 0.17032124E+03</pdfrwt>
<totfact> 0.32446090E+03</totfact>
</mgrwt>
</event>
<event>
 6    1  0.7270761E-006  0.1686161E+03  0.7546771E-02  0.1185454E+00
         -3   -1    0    0    0  501 -0.00000000000E+00  0.00000000000E+00  0.24094400576E+03  0.24094400576E+03  0.00000000000E+00 0.  1.
          3   -1    0    0  501    0  0.00000000000E+00 -0.00000000000E+00 -0.14522679980E+03  0.14522679980E+03  0.00000000000E+00 0. -1.
          5    1    1    2  502    0  0.39661296147E+02 -0.62364616407E+02  0.65398059906E+02  0.98799595298E+02  0.47000000000E+01 0. -1.
         -5    1    1    2    0  502 -0.84856834939E+02 -0.41386756573E+02  0.88373010980E+02  0.12940411557E+03  0.47000000000E+01 0. -1.
        -11    1    1    2    0    0 -0.14698418578E+02 -0.13762001612E+01  0.11224051357E+02  0.18544992975E+02  0.00000000000E+00 0.  1.
         11    1    1    2    0    0  0.59893957369E+02  0.10512757314E+03 -0.69277916277E+02  0.13942210172E+03  0.00000000000E+00 0. -1.
<mgrwt>
<rscale>  0 0.16290678E+03</rscale>
<asrwt>0</asrwt>
<pdfrwt beam="2">  1        3 0.22342585E-01 0.16861611E+03</pdfrwt>
<pdfrwt beam="1">  1       -3 0.37068308E-01 0.16861611E+03</pdfrwt>
<totfact> 0.31703552E+02</totfact>
</mgrwt>
</event>
<event>
 6    1  0.7270761E-006  0.2481043E+03  0.7546771E-02  0.1114509E+00
         -2   -1    0    0    0  501 -0.00000000000E+00  0.00000000000E+00  0.41646073048E+02  0.41646073048E+02  0.00000000000E+00 0.  1.
          2   -1    0    0  501    0  0.00000000000E+00 -0.00000000000E+00 -0.36951719224E+03  0.36951719224E+03  0.00000000000E+00 0. -1.
          5    1    1    2  502    0 -0.58305051493E+01 -0.82435987451E+00 -0.14399268789E+03  0.14418966164E+03  0.47000000000E+01 0.  1.
         -5    1    1    2    0  502 -0.47555365236E+02 -0.14470038338E+02  0.57768255021E+01  0.50262873825E+02  0.47000000000E+01 0.  1.
        -11    1    1    2    0    0 -0.74777273797E+00  0.43694410803E+02 -0.76859770078E+02  0.88414845789E+02  0.00000000000E+00 0. -1.
         11    1    1    2    0    0  0.54133643123E+02 -0.28400012591E+02 -0.11279548672E+03  0.12829588403E+03  0.00000000000E+00 0.  1.
<mgrwt>
<rscale>  0 0.24810433E+03</rscale>
<asrwt>0</asrwt>
<pdfrwt beam="2">  1        2 0.56848799E-01 0.24810433E+03</pdfrwt>
<pdfrwt beam="1">  1       -2 0.64070882E-02 0.24810433E+03</pdfrwt>
<totfact> 0.11486223E+04</totfact>
</mgrwt>
</event>
<event>
 6    1  0.7270761E-006  0.2995765E+03  0.7546771E-02  0.1085453E+00
          1   -1    0    0  501    0  0.00000000000E+00  0.00000000000E+00  0.30194976814E+03  0.30194976814E+03  0.00000000000E+00 0. -1.
         -1   -1    0    0    0  501 -0.00000000000E+00 -0.00000000000E+00 -0.74305449233E+02  0.74305449233E+02  0.00000000000E+00 0.  1.
          5    1    1    2  502    0 -0.70231197132E+02 -0.99818354979E+02  0.12675257227E+03  0.17602394615E+03  0.47000000000E+01 0. -1.
         -5    1    1    2    0  502  0.34723744940E+02  0.43672197598E+01  0.13934321465E+02  0.37961380188E+02  0.47000000000E+01 0. -1.
        -11    1    1    2    0    0  0.62751980101E+02  0.56572478967E+02  0.33797955920E+02  0.90997572536E+02  0.00000000000E+00 0.  1.
         11    1    1    2    0    0 -0.27244527908E+02  0.38878656252E+02  0.53159469250E+02  0.71272318496E+02  0.00000000000E+00 0. -1.
<mgrwt>
<rscale>  0 0.29957646E+03</rscale>
<asrwt>0</asrwt>
<pdfrwt beam="1">  1        1 0.46453810E-01 0.29957646E+03</pdfrwt>
<pdfrwt beam="2">  1       -1 0.11431608E-01 0.29957646E+03</pdfrwt>
<totfact> 0.42866077E+03</totfact>
</mgrwt>
</event>
<event>
 6    1  0.7270761E-006  0.1577549E+03  0.7546771E-02  0.1199515E+00
          3   -1    0    0  501    0  0.00000000000E+00  0.00000000000E+00  0.95344599467E+02  0.95344599467E+02  0.00000000000E+00 0. -1.
         -3   -1    0    0    0  501 -0.00000000000E+00 -0.00000000000E+00 -0.22190349949E+03  0.22190349949E+03  0.00000000000E+00 0.  1.
          5    1    1    2  502    0  0.52216137252E+02 -0.96404292215E+02 -0.81655437141E+02  0.13678454943E+03  0.47000000000E+01 0. -1.
         -5    1    1    2    0  502  0.22348344292E+02  0.35551740252E+02 -0.32798233716E+01  0.42381858959E+02  0.47000000000E+01 0. -1.
        -11    1    1    2    0    0 -0.42489777131E+02  0.52869301784E+01 -0.57784266656E+02  0.71919081364E+02  0.00000000000E+00 0.  1.
         11    1    1    2    0    0 -0.32074704413E+02  0.55565621785E+02  0.16160627145E+02  0.66162609208E+02  0.00000000000E+00 0. -1.
<mgrwt>
<rscale>  0 0.15078201E+03</rscale>
<asrwt>0</asrwt>
<pdfrwt beam="1">  1        3 0.14668400E-01 0.15775488E+03</pdfrwt>
<pdfrwt beam="2">  1       -3 0.34138999E-01 0.15775488E+03</pdfrwt>
<totfact> 0.76752487E+02</totfact>
</mgrwt>
</event>
<event>
 6    1  0.7270761E-006  0.2346114E+03  0.7546771E-02  0.1123435E+00
         -2   -1    0    0    0  501 -0.00000000000E+00  0.00000000000E+00  0.25409262582E+02  0.25409262582E+02  0.00000000000E+00 0.  1.
          2   -1    0    0  501    0  0.00000000000E+00 -0.00000000000E+00 -0.54155954444E+03  0.54155954444E+03  0.00000000000E+00 0. -1.
          5    1    1    2  502    0  0.16222153176E+01  0.33258112552E+02 -0.11417973872E+02  0.35513289913E+02  0.47000000000E+01 0. -1.
         -5    1    1    2    0  502  0.34578168219E+01 -0.65281825005E+02 -0.21930854821E+03  0.22889299354E+03  0.47000000000E+01 0. -1.
        -11    1    1    2    0    0 -0.43735826726E+02  0.83812555424E+01 -0.20920124435E+03  0.21388835551E+03  0.00000000000E+00 0. -1.
         11    1    1    2    0    0  0.38655794586E+02  0.23642456910E+02 -0.76222515418E+02  0.88674168056E+02  0.00000000000E+00 0.  1.
<mgrwt>
<rscale>  0 0.23461141E+03</rscale>
<asrwt>0</asrwt>
<pdfrwt beam="2">  1        2 0.83316846E-01 0.23461141E+03</pdfrwt>
<pdfrwt beam="1">  1       -2 0.39091177E-02 0.23461141E+03</pdfrwt>
<totfact> 0.15919179E+04</totfact>
</mgrwt>
</event>
<event>
 6    1  0.7270761E-006  0.1513290E+03  0.7546771E-02  0.1207812E+00
         -2   -1    0    0    0  501 -0.00000000000E+00  0.00000000000E+00  0.21354494638E+03  0.21354494638E+03  0.00000000000E+00 0.  1.
          2   -1    0    0  501    0  0.00000000000E+00 -0.00000000000E+00 -0.12855260503E+03  0.12855260503E+03  0.00000000000E+00 0. -1.
          5    1    1    2  502    0 -0.67775411506E+02 -0.50885046522E+02  0.57581786008E+02  0.10256971504E+03  0.47000000000E+01 0. -1.
         -5    1    1    2    0  502  0.53152969867E+02 -0.33134857838E+02  0.82094096083E+02  0.10336676265E+03  0.47000000000E+01 0. -1.
        -11    1    1    2    0    0  0.36557196249E+02  0.80627487416E+01  0.40741581351E+01  0.37656809204E+02  0.00000000000E+00 0. -1.
         11    1    1    2    0    0 -0.21934754610E+02  0.75957155619E+02 -0.58757698881E+02  0.98504264513E+02  0.00000000000E+00 0.  1.
<mgrwt>
<rscale>  0 0.14418047E+03</rscale>
<asrwt>0</asrwt>
<pdfrwt beam="2">  1        2 0.19777324E-01 0.15132905E+03</pdfrwt>
<pdfrwt beam="1">  1       -2 0.32853069E-01 0.15132905E+03</pdfrwt>
<totfact> 0.23666979E+03</totfact>
</mgrwt>
</event>
<event>
 6    1  0.7270761E-006  0.1334042E+03  0.7546771E-02  0.1235145E+00
         -2   -1    0    0    0  501 -0.00000000000E+00  0.00000000000E+00  0.43430011469E+02  0.43430011469E+02  0.00000000000E+00 0.  1.
          2   -1    0    0  501    0  0.00000000000E+00 -0.00000000000E+00 -0.33602631675E+03  0.33602631675E+03  0.00000000000E+00 0. -1.
          5    1    1    2  502    0  0.59599753134E+02  0.66654653026E+02 -0.82956947950E+02  0.12206112631E+03  0.47000000000E+01 0. -1.
         -5    1    1    2    0  502 -0.33300936367E+02 -0.28159078088E+02 -0.41492038972E+02  0.60378517204E+02  0.47000000000E+01 0. -1.
        -11    1    1    2    0    0 -0.58291202329E+02 -0.27933005333E+02 -0.81306579916E+02  0.10386951908E+03  0.00000000000E+00 0. -1.
         11    1    1    2    0    0  0.31992385562E+02 -0.10562569604E+02 -0.86840738448E+02  0.93147165630E+02  0.00000000000E+00 0.  1.
<mgrwt>
<rscale>  0 0.12495186E+03</rscale>
<asrwt>0</asrwt>
<pdfrwt beam="2">  1        2 0.51696354E-01 0.13340417E+03</pdfrwt>
<pdfrwt beam="1">  1       -2 0.66815405E-02 0.13340417E+03</pdfrwt>
<totfact> 0.11425834E+04</totfact>
</mgrwt>
</event>
<event>
 6    1  0.7270761E-006  0.1308684E+03  0.7546771E-02  0.1239294E+00
         -2   -1    0    0    0  501 -0.00000000000E+00  0.00000000000E+00  0.67261589629E+02  0.67261589629E+02  0.00000000000E+00 0.  1.
          2   -1    0    0  501    0  0.00000000000E+00 -0.00000000000E+00 -0.21335326327E+03  0.21335326327E+03  0.00000000000E+00 0. -1.
          5    1    1    2  502    0 -0.23931131715E+00 -0.72430932192E+02  0.62503838274E+01  0.72852278661E+02  0.47000000000E+01 0.  1.
         -5    1    1    2    0  502 -0.16144212273E+02  0.37389524977E+02 -0.51045733481E+02  0.65470367912E+02  0.47000000000E+01 0.  1.
        -11    1    1    2    0    0 -0.18241630149E+02  0.77235430506E+01 -0.95823793549E+02  0.97849934072E+02  0.00000000000E+00 0. -1.
         11    1    1    2    0    0  0.34625153739E+02  0.27317864164E+02 -0.54725304413E+01  0.44442272257E+02  0.00000000000E+00 0.  1.
<mgrwt>
<rscale>  0 0.12233498E+03</rscale>
<asrwt>0</asrwt>
<pdfrwt beam="2">  1        2 0.32823579E-01 0.13086837E+03</pdfrwt>
<pdfrwt beam="1">  1       -2 0.10347937E-01 0.13086837E+03</pdfrwt>
<totfact> 0.93932393E+03</totfact>
</mgrwt>
</event>
<event>
 6    1  0.7270761E-006  0.1258036E+03  0.7546771E-02  0.1250647E+00
         -4   -1    0    0    0  501 -0.00000000000E+00  0.00000000000E+00  0.15833040549E+03  0.15833040549E+03  0.00000000000E+00 0. -1.
          4   -1    0    0  501    0  0.00000000000E+00 -0.00000000000E+00 -0.73437238892E+02  0.73437238892E+02  0.00000000000E+00 0.  1.
          5    1    1    2  502    0  0.39637874240E+02 -0.14406444913E+02 -0.23746371608E+02  0.48628046370E+02  0.47000000000E+01 0.  1.
         -5    1    1    2    0  502 -0.30258204752E+02  0.24911555634E+02  0.79940405013E+02  0.89155498499E+02  0.47000000000E+01 0.  1.
        -11    1    1    2    0    0  0.83098598444E+00 -0.46476497720E+02  0.32019170491E+02  0.56444509538E+02  0.00000000000E+00 0. -1.
         11    1    1    2    0    0 -0.10210655472E+02  0.35971386999E+02 -0.33200372982E+01  0.37539589974E+02  0.00000000000E+00 0.  1.
<mgrwt>
<rscale>  0 0.11553658E+03</rscale>
<asrwt>0</asrwt>
<pdfrwt beam="2">  1        4 0.11298037E-01 0.12580356E+03</pdfrwt>
<pdfrwt beam="1">  1       -4 0.24358524E-01 0.12580356E+03</pdfrwt>
<totfact> 0.15677556E+03</totfact>
</mgrwt>
</event>
<event>
 6    1  0.7270761E-006  0.2585915E+03  0.7546771E-02  0.1107992E+00
         -1   -1    0    0    0  501 -0.00000000000E+00  0.00000000000E+00  0.23031657913E+02  0.23031657913E+02  0.00000000000E+00 0.  1.
          1   -1    0    0  501    0  0.00000000000E+00 -0.00000000000E+00 -0.72584411022E+03  0.72584411022E+03  0.00000000000E+00 0. -1.
          5    1    1    2  502    0 -0.20164538224E+02 -0.31716736228E+02 -0.29946638900E+02  0.48285102673E+02  0.47000000000E+01 0.  1.
         -5    1    1    2    0  502 -0.29938497291E+02  0.75572202096E+02 -0.29829300128E+03  0.30920587957E+03  0.47000000000E+01 0.  1.
        -11    1    1    2    0    0 -0.38557716945E+01 -0.57598814114E+02 -0.19747160873E+03  0.20573654663E+03  0.00000000000E+00 0. -1.
         11    1    1    2    0    0  0.53958807209E+02  0.13743348247E+02 -0.17710120339E+03  0.18564823926E+03  0.00000000000E+00 0.  1.
<mgrwt>
<rscale>  0 0.25859152E+03</rscale>
<asrwt>0</asrwt>
<pdfrwt beam="2">  1        1 0.11166834E+00 0.25859152E+03</pdfrwt>
<pdfrwt beam="1">  1       -1 0.35433314E-02 0.25859152E+03</pdfrwt>
<totfact> 0.78303987E+03</totfact>
</mgrwt>
</event>
<event>
 6    1  0.7270761E-006  0.1909910E+03  0.7546771E-02  0.1162445E+00
         -4   -1    0    0    0  501 -0.00000000000E+00  0.00000000000E+00  0.42256913772E+03  0.42256913772E+03  0.00000000000E+00 0.  1.
          4   -1    0    0  501    0  0.00000000000E+00 -0.00000000000E+00 -0.77360220031E+02  0.77360220031E+02  0.00000000000E+00 0. -1.
          5    1    1    2  502    0  0.69748071283E+02  0.14677291746E+03  0.13983784399E+03  0.21443832530E+03  0.47000000000E+01 0. -1.
         -5    1    1    2    0  502  0.85271602085E+01 -0.25421317210E+02  0.36300478342E+02  0.45373676926E+02  0.47000000000E+01 0. -1.
        -11    1    1    2    0    0 -0.33451915684E+02  0.53265259840E+01  0.51090616442E+02  0.61299703347E+02  0.00000000000E+00 0.  1.
         11    1    1    2    0    0 -0.44823315808E+02 -0.12667812623E+03  0.11797997892E+03  0.17881765218E+03  0.00000000000E+00 0. -1.
<mgrwt>
<rscale>  0 0.18564920E+03</rscale>
<asrwt>0</asrwt>
<pdfrwt beam="2">  1        4 0.11901573E-01 0.19099102E+03</pdfrwt>
<pdfrwt beam="1">  1       -4 0.65010635E-01 0.19099102E+03</pdfrwt>
<totfact> 0.22264927E+02</totfact>
</mgrwt>
</event>
<event>
 6    1  0.7270761E-006  0.2394285E+03  0.7546771E-02  0.1122944E+00
          2   -1    0    0  501    0  0.00000000000E+00  0.00000000000E+00  0.78623262045E+03  0.78623262045E+03  0.00000000000E+00 0. -1.
         -2   -1    0    0    0  501 -0.00000000000E+00 -0.00000000000E+00 -0.98037544787E+02  0.98037544787E+02  0.00000000000E+00 0.  1.
          5    1    1    2  502    0  0.99145056483E+01 -0.20876822274E+03  0.12097274833E+03  0.24153460225E+03  0.47000000000E+01 0. -1.
         -5    1    1    2    0  502  0.15133030835E+02  0.61060522158E+01 -0.12731312632E+02  0.21224250687E+02  0.47000000000E+01 0. -1.
        -11    1    1    2    0    0  0.33369932469E+02  0.68712661395E+02  0.17293957078E+03  0.18905839672E+03  0.00000000000E+00 0.  1.
         11    1    1    2    0    0 -0.58417468952E+02  0.13394950913E+03  0.40701406919E+03  0.43245291558E+03  0.00000000000E+00 0. -1.
<mgrwt>
<rscale>  0 0.23532993E+03</rscale>
<asrwt>0</asrwt>
<pdfrwt beam="1">  1        2 0.12095886E+00 0.23942850E+03</pdfrwt>
<pdfrwt beam="2">  1       -2 0.15082700E-01 0.23942850E+03</pdfrwt>
<totfact> 0.12313698E+03</totfact>
</mgrwt>
</event>
<event>
 6    1  0.7270761E-006  0.1737414E+03  0.7546771E-02  0.1180747E+00
         -4   -1    0    0    0  501 -0.00000000000E+00  0.00000000000E+00  0.14623205683E+03  0.14623205683E+03  0.00000000000E+00 0.  1.
          4   -1    0    0  501    0  0.00000000000E+00 -0.00000000000E+00 -0.21099946546E+03  0.21099946546E+03  0.00000000000E+00 0. -1.
          5    1    1    2  502    0 -0.57551566432E+02 -0.94519168614E+02  0.32023327556E+02  0.11529804657E+03  0.47000000000E+01 0. -1.
         -5    1    1    2    0  502 -0.48923063349E+02  0.37733772288E+02  0.36671559193E+01  0.62071263328E+02  0.47000000000E+01 0. -1.
        -11    1    1    2    0    0  0.77239966519E+02  0.80476803497E+02 -0.76327870898E+02  0.13516091227E+03  0.00000000000E+00 0.  1.
         11    1    1    2    0    0  0.29234663261E+02 -0.23691407172E+02 -0.24130021212E+02  0.44701300132E+02  0.00000000000E+00 0. -1.
<mgrwt>
<rscale>  0 0.16724946E+03</rscale>
<asrwt>0</asrwt>
<pdfrwt beam="2">  1        4 0.32461456E-01 0.17374136E+03</pdfrwt>
<pdfrwt beam="1">  1       -4 0.22497240E-01 0.17374136E+03</pdfrwt>
<totfact> 0.28937431E+02</totfact>
</mgrwt>
</event>
<event>
 6    1  0.7270761E-006  0.1918479E+03  0.7546771E-02  0.1161391E+00
          3   -1    0    0  501    0  0.00000000000E+00  0.00000000000E+00  0.36483328194E+02  0.36483328194E+02  0.00000000000E+00 0. -1.
         -3   -1    0    0    0  501 -0.00000000000E+00 -0.00000000000E+00 -0.95130073938E+03  0.95130073938E+03  0.00000000000E+00 0.  1.
          5    1    1    2  502    0 -0.69161347704E+02  0.24441540212E+02 -0.29514830812E+03  0.30416326979E+03  0.47000000000E+01 0.  1.
         -5    1    1    2    0  502  0.19387849897E+02  0.11229505198E+03 -0.28946801465E+03  0.31112680523E+03  0.47000000000E+01 0.  1.
        -11    1    1    2    0    0 -0.22369616871E+01 -0.33889313463E+02 -0.17997545146E+03  0.18315199342E+03  0.00000000000E+00 0.  1.
         11    1    1    2    0    0  0.52010459494E+02 -0.10284727873E+03 -0.15022563696E+03  0.18934199914E+03  0.00000000000E+00 0. -1.
<mgrwt>
<rscale>  0 0.18678722E+03</rscale>
<asrwt>0</asrwt>
<pdfrwt beam="1">  1        3 0.56128203E-02 0.19184794E+03</pdfrwt>
<pdfrwt beam="2">  1       -3 0.14635394E+00 0.19184794E+03</pdfrwt>
<totfact> 0.16800350E+02</totfact>
</mgrwt>
</event>
<event>
 6    1  0.7270761E-006  0.1765865E+03  0.7546771E-02  0.1193553E+00
         -1   -1    0    0    0  501 -0.00000000000E+00  0.00000000000E+00  0.29770199920E+03  0.29770199920E+03  0.00000000000E+00 0.  1.
          1   -1    0    0  501    0  0.00000000000E+00 -0.00000000000E+00 -0.69527839899E+02  0.69527839899E+02  0.00000000000E+00 0. -1.
          5    1    1    2  502    0 -0.15958745294E+02 -0.68527289850E+02  0.17528488814E+02  0.72663669916E+02  0.47000000000E+01 0. -1.
         -5    1    1    2    0  502 -0.39377560042E+02  0.69333539010E+02  0.15418509681E+03  0.17364580601E+03  0.47000000000E+01 0.  1.
        -11    1    1    2    0    0  0.33074444463E+02 -0.10125847950E+02 -0.20538396249E+02  0.40227818655E+02  0.00000000000E+00 0. -1.
         11    1    1    2    0    0  0.22261860873E+02  0.93195987902E+01  0.76998969932E+02  0.80692544523E+02  0.00000000000E+00 0.  1.
<mgrwt>
<rscale>  0 0.15577317E+03</rscale>
<asrwt>0</asrwt>
<pdfrwt beam="2">  1        1 0.10696591E-01 0.17658653E+03</pdfrwt>
<pdfrwt beam="1">  1       -1 0.45800307E-01 0.17658653E+03</pdfrwt>
<totfact> 0.27686504E+03</totfact>
</mgrwt>
</event>
<event>
 6    1  0.7270761E-006  0.1286623E+03  0.7546771E-02  0.1243204E+00
         -1   -1    0    0    0  501 -0.00000000000E+00  0.00000000000E+00  0.25928399807E+02  0.25928399807E+02  0.00000000000E+00 0.  1.
          1   -1    0    0  501    0  0.00000000000E+00 -0.00000000000E+00 -0.49891229281E+03  0.49891229281E+03  0.00000000000E+00 0. -1.
          5    1    1    2  502    0  0.25456962465E+02 -0.28695023057E+02 -0.22545865718E+03  0.22874692869E+03  0.47000000000E+01 0. -1.
         -5    1    1    2    0  502 -0.39344684674E+02  0.16851540415E+01 -0.12183157645E+02  0.41489315329E+02  0.47000000000E+01 0. -1.
        -11    1    1    2    0    0  0.38307191635E+02 -0.14377589747E+02 -0.58773014583E+02  0.71613010418E+02  0.00000000000E+00 0.  1.
         11    1    1    2    0    0 -0.24419469426E+02  0.41387458763E+02 -0.17656906360E+03  0.18299143819E+03  0.00000000000E+00 0. -1.
<mgrwt>
<rscale>  0 0.11993498E+03</rscale>
<asrwt>0</asrwt>
<pdfrwt beam="2">  1        1 0.76755737E-01 0.12866233E+03</pdfrwt>
<pdfrwt beam="1">  1       -1 0.39889846E-02 0.12866233E+03</pdfrwt>
<totfact> 0.10597607E+04</totfact>
</mgrwt>
</event>
<event>
 6    1  0.7270761E-006  0.2441453E+03  0.7546771E-02  0.1119651E+00
         -1   -1    0    0    0  501 -0.00000000000E+00  0.00000000000E+00  0.19669020860E+03  0.19669020860E+03  0.00000000000E+00 0.  1.
          1   -1    0    0  501    0  0.00000000000E+00 -0.00000000000E+00 -0.31503253265E+03  0.31503253265E+03  0.00000000000E+00 0. -1.
          5    1    1    2  502    0 -0.13206325875E+03  0.12216534451E+03 -0.30957251455E+02  0.18260754949E+03  0.47000000000E+01 0.  1.
         -5    1    1    2    0  502 -0.50088846979E+01  0.36561700581E+02  0.49942007780E+02  0.62274722130E+02  0.47000000000E+01 0.  1.
        -11    1    1    2    0    0  0.89019703938E+02 -0.65302414968E+02 -0.25312215011E+02  0.11326791831E+03  0.00000000000E+00 0. -1.
         11    1    1    2    0    0  0.48052439513E+02 -0.93424630121E+02 -0.11201486536E+03  0.15357255132E+03  0.00000000000E+00 0.  1.
<mgrwt>
<rscale>  0 0.24021257E+03</rscale>
<asrwt>0</asrwt>
<pdfrwt beam="2">  1        1 0.48466543E-01 0.24414526E+03</pdfrwt>
<pdfrwt beam="1">  1       -1 0.30260032E-01 0.24414526E+03</pdfrwt>
<totfact> 0.83053421E+02</totfact>
</mgrwt>
</event>
<event>
 6    1  0.7270761E-006  0.1274861E+03  0.7546771E-02  0.1246549E+00
          1   -1    0    0  501    0  0.00000000000E+00  0.00000000000E+00  0.28398348740E+02  0.28398348740E+02  0.00000000000E+00 0. -1.
         -1   -1    0    0    0  501 -0.00000000000E+00 -0.00000000000E+00 -0.44046548880E+03  0.44046548880E+03  0.00000000000E+00 0.  1.
          5    1    1    2  502    0  0.17522189589E+02  0.25439122975E+02 -0.27718060430E+03  0.27893611008E+03  0.47000000000E+01 0. -1.
         -5    1    1    2    0  502 -0.22434956793E+02 -0.85881757893E+00  0.32883735316E+01  0.23172575481E+02  0.47000000000E+01 0. -1.
        -11    1    1    2    0    0  0.11455684674E+02 -0.42747723522E+02 -0.14050062162E+03  0.14730589009E+03  0.00000000000E+00 0.  1.
         11    1    1    2    0    0 -0.65429174700E+01  0.18167418126E+02  0.23257123305E+01  0.19449261894E+02  0.00000000000E+00 0. -1.
<mgrwt>
<rscale>  0 0.11793165E+03</rscale>
<asrwt>0</asrwt>
<pdfrwt beam="1">  1        1 0.43689770E-02 0.12748609E+03</pdfrwt>
<pdfrwt beam="2">  1       -1 0.67763917E-01 0.12748609E+03</pdfrwt>
<totfact> 0.43806082E+03</totfact>
</mgrwt>
</event>
<event>
 6    1  0.7270761E-006  0.1901008E+03  0.7546771E-02  0.1163434E+00
         -2   -1    0    0    0  501 -0.00000000000E+00  0.00000000000E+00  0.12625513470E+03  0.12625513470E+03  0.00000000000E+00 0. -1.
          2   -1    0    0  501    0  0.00000000000E+00 -0.00000000000E+00 -0.26630163077E+03  0.26630163077E+03  0.00000000000E+00 0.  1.
          5    1    1    2  502    0  0.44705827586E+02 -0.74253900736E+02  0.18299125487E+02  0.88708515872E+02  0.47000000000E+01 0.  1.
         -5    1    1    2    0  502 -0.58901389874E+02 -0.68267487474E+02 -0.52506529592E+02  0.10444543659E+03  0.47000000000E+01 0.  1.
        -11    1    1    2    0    0  0.43661961991E+02  0.99421611091E+02 -0.40795406339E+02  0.11599693468E+03  0.00000000000E+00 0.  1.
         11    1    1    2    0    0 -0.29466399703E+02  0.43099777119E+02 -0.65043685623E+02  0.83405878322E+02  0.00000000000E+00 0. -1.
<mgrwt>
<rscale>  0 0.18458944E+03</rscale>
<asrwt>0</asrwt>
<pdfrwt beam="2">  1        2 0.40969481E-01 0.19010077E+03</pdfrwt>
<pdfrwt beam="1">  1       -2 0.19423867E-01 0.19010077E+03</pdfrwt>
<totfact> 0.27067374E+03</totfact>
</mgrwt>
</event>
<event>
 6    1  0.7270761E-006  0.1330414E+03  0.7546771E-02  0.1235899E+00
         -2   -1    0    0    0  501 -0.00000000000E+00  0.00000000000E+00  0.17817305912E+03  0.17817305912E+03  0.00000000000E+00 0. -1.
          2   -1    0    0  501    0  0.00000000000E+00 -0.00000000000E+00 -0.77705191216E+02  0.77705191216E+02  0.00000000000E+00 0.  1.
          5    1    1    2  502    0 -0.76372364227E+01 -0.92408233186E+01  0.85818129986E+02  0.86778808647E+02  0.47000000000E+01 0. -1.
         -5    1    1    2    0  502  0.49474308655E+02  0.27239514196E+02 -0.21980033758E+02  0.60785773290E+02  0.47000000000E+01 0. -1.
        -11    1    1    2    0    0  0.20154950547E+02 -0.45385501845E+01 -0.15804955782E+02  0.26011864536E+02  0.00000000000E+00 0.  1.
         11    1    1    2    0    0 -0.61992022780E+02 -0.13460140693E+02  0.52434727458E+02  0.82301803864E+02  0.00000000000E+00 0. -1.
<mgrwt>
<rscale>  0 0.12447081E+03</rscale>
<asrwt>0</asrwt>
<pdfrwt beam="2">  1        2 0.11954645E-01 0.13304136E+03</pdfrwt>
<pdfrwt beam="1">  1       -2 0.27411240E-01 0.13304136E+03</pdfrwt>
<totfact> 0.58611411E+03</totfact>
</mgrwt>
</event>
<event>
 6    1  0.7270761E-006  0.1504091E+03  0.7546771E-02  0.1208059E+00
         -2   -1    0    0    0  501 -0.00000000000E+00  0.00000000000E+00  0.27787451921E+03  0.27787451921E+03  0.00000000000E+00 0.  1.
          2   -1    0    0  501    0  0.00000000000E+00 -0.00000000000E+00 -0.72727737514E+02  0.72727737514E+02  0.00000000000E+00 0. -1.
          5    1    1    2  502    0  0.27312913509E+02  0.32881150659E+02  0.10775773238E+03  0.11602148164E+03  0.47000000000E+01 0. -1.
         -5    1    1    2    0  502  0.45573496583E+02 -0.73930070969E+02  0.43335208776E+02  0.97173192311E+02  0.47000000000E+01 0. -1.
        -11    1    1    2    0    0 -0.57268494127E+02  0.52283267627E+02 -0.25874775043E+01  0.77588114638E+02  0.00000000000E+00 0. -1.
         11    1    1    2    0    0 -0.15617915965E+02 -0.11234347316E+02  0.56641318046E+02  0.59819468141E+02  0.00000000000E+00 0.  1.
<mgrwt>
<rscale>  0 0.14398967E+03</rscale>
<asrwt>0</asrwt>
<pdfrwt beam="2">  1        2 0.11188883E-01 0.15040908E+03</pdfrwt>
<pdfrwt beam="1">  1       -2 0.42749925E-01 0.15040908E+03</pdfrwt>
<totfact> 0.28215214E+03</totfact>
</mgrwt>
</event>
<event>
 6    1  0.7270761E-006  0.1350179E+03  0.7546771E-02  0.1232822E+00
         -2   -1    0    0    0  501 -0.00000000000E+00  0.00000000000E+00  0.22442448694E+02  0.22442448694E+02  0.00000000000E+00 0. -1.
          2   -1    0    0  501    0  0.00000000000E+00 -0.00000000000E+00 -0.64244318305E+03  0.64244318305E+03  0.00000000000E+00 0.  1.
          5    1    1    2  502    0  0.65403637916E+02 -0.49557296346E+02 -0.13562029262E+03  0.15858283402E+03  0.47000000000E+01 0. -1.
         -5    1    1    2    0  502 -0.40703809984E+02  0.49182224703E+01 -0.18061568680E+03  0.18527035752E+03  0.47000000000E+01 0. -1.
        -11    1    1    2    0    0  0.28636723925E+02  0.12072258618E+02 -0.17692106870E+03  0.17962980247E+03  0.00000000000E+00 0.  1.
         11    1    1    2    0    0 -0.53336551857E+02  0.32566815258E+02 -0.12684368623E+03  0.14140263773E+03  0.00000000000E+00 0. -1.
<mgrwt>
<rscale>  0 0.12644890E+03</rscale>
<asrwt>0</asrwt>
<pdfrwt beam="2">  1        2 0.98837419E-01 0.13501786E+03</pdfrwt>
<pdfrwt beam="1">  1       -2 0.34526842E-02 0.13501786E+03</pdfrwt>
<totfact> 0.15148789E+04</totfact>
</mgrwt>
</event>
<event>
 6    1  0.7270761E-006  0.1447066E+03  0.7546771E-02  0.1216757E+00
          2   -1    0    0  501    0  0.00000000000E+00  0.00000000000E+00  0.88140520107E+03  0.88140520107E+03  0.00000000000E+00 0. -1.
         -2   -1    0    0    0  501 -0.00000000000E+00 -0.00000000000E+00 -0.22868909418E+02  0.22868909418E+02  0.00000000000E+00 0.  1.
          5    1    1    2  502    0 -0.24635412550E+02 -0.53127542897E+02  0.85368307433E+02  0.10363048432E+03  0.47000000000E+01 0. -1.
         -5    1    1    2    0  502  0.81102282350E+02  0.69934064777E+01  0.21017694553E+03  0.22543940731E+03  0.47000000000E+01 0. -1.
        -11    1    1    2    0    0 -0.72256558061E+02  0.97818059114E+01  0.43954405509E+03  0.44555097382E+03  0.00000000000E+00 0. -1.
         11    1    1    2    0    0  0.15789688262E+02  0.36352330508E+02  0.12344698360E+03  0.12965324503E+03  0.00000000000E+00 0.  1.
<mgrwt>
<rscale>  0 0.13748234E+03</rscale>
<asrwt>0</asrwt>
<pdfrwt beam="1">  1        2 0.13560077E+00 0.14470659E+03</pdfrwt>
<pdfrwt beam="2">  1       -2 0.35182944E-02 0.14470659E+03</pdfrwt>
<totfact> 0.10059745E+04</totfact>
</mgrwt>
</event>
<event>
 6    1  0.7270761E-006  0.1729820E+03  0.7546771E-02  0.1180842E+00
         -2   -1    0    0    0  501 -0.00000000000E+00  0.00000000000E+00  0.35112197631E+03  0.35112197631E+03  0.00000000000E+00 0.  1.
          2   -1    0    0  501    0  0.00000000000E+00 -0.00000000000E+00 -0.77511812845E+02  0.77511812845E+02  0.00000000000E+00 0. -1.
          5    1    1    2  502    0 -0.40069874516E+02 -0.12146822177E+02  0.12195004132E+02  0.43862834593E+02  0.47000000000E+01 0. -1.
         -5    1    1    2    0  502  0.49329624146E+02 -0.10707139085E+03  0.17460554719E+03  0.21072940390E+03  0.47000000000E+01 0. -1.
        -11    1    1    2    0    0  0.24706294529E+01  0.24907633724E+02 -0.19290538022E+02  0.31600934872E+02  0.00000000000E+00 0. -1.
         11    1    1    2    0    0 -0.11730379083E+02  0.94310579305E+02  0.10610015016E+03  0.14244061579E+03  0.00000000000E+00 0.  1.
<mgrwt>
<rscale>  0 0.16716069E+03</rscale>
<asrwt>0</asrwt>
<pdfrwt beam="2">  1        2 0.11924894E-01 0.17298197E+03</pdfrwt>
<pdfrwt beam="1">  1       -2 0.54018765E-01 0.17298197E+03</pdfrwt>
<totfact> 0.16588553E+03</totfact>
</mgrwt>
</event>
<event>
 6    1  0.7270761E-006  0.1340510E+03  0.7546771E-02  0.1233343E+00
         -1   -1    0    0    0  501 -0.00000000000E+00  0.00000000000E+00  0.16168103288E+03  0.16168103288E+03  0.00000000000E+00 0.  1.
          1   -1    0    0  501    0  0.00000000000E+00 -0.00000000000E+00 -0.92868484144E+02  0.92868484144E+02  0.00000000000E+00 0. -1.
          5    1    1    2  502    0 -0.80403211548E+02 -0.27247335528E+02  0.33161969962E+02  0.91262807169E+02  0.47000000000E+01 0. -1.
         -5    1    1    2    0  502  0.32580654705E+02  0.34884544390E+02  0.33056434927E+02  0.58251595586E+02  0.47000000000E+01 0. -1.
        -11    1    1    2    0    0  0.50655215597E+02  0.22824256402E+01 -0.37863124630E+02  0.63283303807E+02  0.00000000000E+00 0. -1.
         11    1    1    2    0    0 -0.28326587537E+01 -0.99196345015E+01  0.40457268474E+02  0.41751810459E+02  0.00000000000E+00 0.  1.
<mgrwt>
<rscale>  0 0.12611105E+03</rscale>
<asrwt>0</asrwt>
<pdfrwt beam="2">  1        1 0.14287459E-01 0.13405103E+03</pdfrwt>
<pdfrwt beam="1">  1       -1 0.24874005E-01 0.13405103E+03</pdfrwt>
<totfact> 0.53144064E+03</totfact>
</mgrwt>
</event>
<event>
 6    1  0.7270761E-006  0.1525494E+03  0.7546771E-02  0.1206324E+00
         -2   -1    0    0    0  501 -0.00000000000E+00  0.00000000000E+00  0.15105102219E+03  0.15105102219E+03  0.00000000000E+00 0.  1.
          2   -1    0    0  501    0  0.00000000000E+00 -0.00000000000E+00 -0.14888878837E+03  0.14888878837E+03  0.00000000000E+00 0. -1.
          5    1    1    2  502    0  0.47164317366E+02  0.18102675586E+02 -0.34750061954E+02  0.61496638133E+02  0.47000000000E+01 0. -1.
         -5    1    1    2    0  502  0.40237419569E+02 -0.14778847397E+02  0.91705599684E+02  0.10133839982E+03  0.47000000000E+01 0. -1.
        -11    1    1    2    0    0  0.21601283182E+01  0.99462231252E+01  0.18168781210E+02  0.20825420031E+02  0.00000000000E+00 0.  1.
         11    1    1    2    0    0 -0.89561865253E+02 -0.13270051314E+02 -0.72962085119E+02  0.11627935257E+03  0.00000000000E+00 0. -1.
<mgrwt>
<rscale>  0 0.14533634E+03</rscale>
<asrwt>0</asrwt>
<pdfrwt beam="2">  1        2 0.22905968E-01 0.15254939E+03</pdfrwt>
<pdfrwt beam="1">  1       -2 0.23238619E-01 0.15254939E+03</pdfrwt>
<totfact> 0.37154785E+03</totfact>
</mgrwt>
</event>
<event>
 6    1  0.7270761E-006  0.1345431E+03  0.7546771E-02  0.1233156E+00
          2   -1    0    0  501    0  0.00000000000E+00  0.00000000000E+00  0.35538840085E+03  0.35538840085E+03  0.00000000000E+00 0. -1.
         -2   -1    0    0    0  501 -0.00000000000E+00 -0.00000000000E+00 -0.41917549305E+02  0.41917549305E+02  0.00000000000E+00 0.  1.
          5    1    1    2  502    0 -0.26697775481E+02 -0.29836215404E+02  0.20744894906E+02  0.45336647758E+02  0.47000000000E+01 0.  1.
         -5    1    1    2    0  502  0.54520424791E+02  0.71094166347E+02  0.11412828466E+03  0.14516959932E+03  0.47000000000E+01 0.  1.
        -11    1    1    2    0    0  0.30301610516E+02 -0.33885749909E+02  0.71620055476E+02  0.84828438587E+02  0.00000000000E+00 0. -1.
         11    1    1    2    0    0 -0.58124259826E+02 -0.73722010339E+01  0.10697761650E+03  0.12197126449E+03  0.00000000000E+00 0.  1.
<mgrwt>
<rscale>  0 0.12623210E+03</rscale>
<asrwt>0</asrwt>
<pdfrwt beam="1">  1        2 0.54675136E-01 0.13454314E+03</pdfrwt>
<pdfrwt beam="2">  1       -2 0.64488540E-02 0.13454314E+03</pdfrwt>
<totfact> 0.11371006E+04</totfact>
</mgrwt>
</event>
<event>
 6    1  0.7270761E-006  0.3452796E+03  0.7546771E-02  0.1064569E+00
          1   -1    0    0  501    0  0.00000000000E+00  0.00000000000E+00  0.32462948718E+03  0.32462948718E+03  0.00000000000E+00 0. -1.
         -1   -1    0    0    0  501 -0.00000000000E+00 -0.00000000000E+00 -0.91810806410E+02  0.91810806410E+02  0.00000000000E+00 0.  1.
          5    1    1    2  502    0  0.13240196472E+02 -0.24379001532E+02  0.53157934659E+02  0.60145611107E+02  0.47000000000E+01 0.  1.
         -5    1    1    2    0  502  0.92583558054E+02  0.89480934131E+02  0.18782197819E+02  0.13020527543E+03  0.47000000000E+01 0.  1.
        -11    1    1    2    0    0 -0.10311841506E+03 -0.10277602747E+02  0.11203420642E+03  0.15261290919E+03  0.00000000000E+00 0. -1.
         11    1    1    2    0    0 -0.27053394673E+01 -0.54824329852E+02  0.48844341870E+02  0.73476497862E+02  0.00000000000E+00 0.  1.
<mgrwt>
<rscale>  0 0.34527957E+03</rscale>
<asrwt>0</asrwt>
<pdfrwt beam="1">  1        1 0.49942998E-01 0.34527957E+03</pdfrwt>
<pdfrwt beam="2">  1       -1 0.14124740E-01 0.34527957E+03</pdfrwt>
<totfact> 0.28109771E+03</totfact>
</mgrwt>
</event>
<event>
 6    1  0.7270761E-006  0.2347053E+03  0.7546771E-02  0.1123371E+00
          4   -1    0    0  501    0  0.00000000000E+00  0.00000000000E+00  0.39443729991E+03  0.39443729991E+03  0.00000000000E+00 0. -1.
         -4   -1    0    0    0  501 -0.00000000000E+00 -0.00000000000E+00 -0.34914649467E+02  0.34914649467E+02  0.00000000000E+00 0.  1.
          5    1    1    2  502    0  0.11958884155E+01  0.10438403870E+02  0.17199737870E+03  0.17238207187E+03  0.47000000000E+01 0.  1.
         -5    1    1    2    0  502 -0.27552510195E+02 -0.51936031155E+02  0.20691406385E+02  0.62503731475E+02  0.47000000000E+01 0.  1.
        -11    1    1    2    0    0  0.33245155019E+01  0.52895139437E+02  0.15900025458E+03  0.16760080291E+03  0.00000000000E+00 0. -1.
         11    1    1    2    0    0  0.23032106278E+02 -0.11397512153E+02  0.78336107747E+01  0.26865343114E+02  0.00000000000E+00 0.  1.
<mgrwt>
<rscale>  0 0.23470526E+03</rscale>
<asrwt>0</asrwt>
<pdfrwt beam="1">  1        4 0.60682658E-01 0.23470526E+03</pdfrwt>
<pdfrwt beam="2">  1       -4 0.53714848E-02 0.23470526E+03</pdfrwt>
<totfact> 0.10095807E+03</totfact>
</mgrwt>
</event>
<event>
 6    1  0.7270761E-006  0.1293113E+03  0.7546771E-02  0.1243655E+00
          3   -1    0    0  501    0  0.00000000000E+00  0.00000000000E+00  0.33806714869E+03  0.33806714869E+03  0.00000000000E+00 0. -1.
         -3   -1    0    0    0  501 -0.00000000000E+00 -0.00000000000E+00 -0.37474061439E+02  0.37474061439E+02  0.00000000000E+00 0.  1.
          5    1    1    2  502    0  0.50945305225E+01 -0.39903026443E+02  0.21456973220E+01  0.40557364036E+02  0.47000000000E+01 0. -1.
         -5    1    1    2    0  502 -0.37677419437E+02  0.33986002938E+02  0.15382772248E+03  0.16204843268E+03  0.47000000000E+01 0. -1.
        -11    1    1    2    0    0 -0.96374904154E+01  0.16001977391E+02 -0.31306110102E+01  0.18940570932E+02  0.00000000000E+00 0.  1.
         11    1    1    2    0    0  0.42220379330E+02 -0.10084953885E+02  0.14775027846E+03  0.15399484248E+03  0.00000000000E+00 0. -1.
<mgrwt>
<rscale>  0 0.11966252E+03</rscale>
<asrwt>0</asrwt>
<pdfrwt beam="1">  1        3 0.52010329E-01 0.12931126E+03</pdfrwt>
<pdfrwt beam="2">  1       -3 0.57652404E-02 0.12931126E+03</pdfrwt>
<totfact> 0.15276858E+03</totfact>
</mgrwt>
</event>
<event>
 6    1  0.7270761E-006  0.2084828E+03  0.7546771E-02  0.1147152E+00
          1   -1    0    0  501    0  0.00000000000E+00  0.00000000000E+00  0.46591515859E+02  0.46591515859E+02  0.00000000000E+00 0. -1.
         -1   -1    0    0    0  501 -0.00000000000E+00 -0.00000000000E+00 -0.84670959866E+03  0.84670959866E+03  0.00000000000E+00 0.  1.
          5    1    1    2  502    0  0.40684480614E+02 -0.15325970143E+03 -0.25483368572E+03  0.30017671533E+03  0.47000000000E+01 0. -1.
         -5    1    1    2    0  502  0.10511328346E+02 -0.43466048772E+01 -0.19758124475E+03  0.19796418685E+03  0.47000000000E+01 0.  1.
        -11    1    1    2    0    0 -0.59759567524E+02  0.45150062481E+02 -0.14446524178E+03  0.16272658091E+03  0.00000000000E+00 0.  1.
         11    1    1    2    0    0  0.85637585643E+01  0.11245624383E+03 -0.20323791055E+03  0.23243363143E+03  0.00000000000E+00 0. -1.
<mgrwt>
<rscale>  0 0.20309720E+03</rscale>
<asrwt>0</asrwt>
<pdfrwt beam="1">  1        1 0.71679259E-02 0.20848283E+03</pdfrwt>
<pdfrwt beam="2">  1       -1 0.13026301E+00 0.20848283E+03</pdfrwt>
<totfact> 0.54691273E+02</totfact>
</mgrwt>
</event>
<event>
 6    1  0.7270761E-006  0.2804410E+03  0.7546771E-02  0.1097295E+00
          1   -1    0    0  501    0  0.00000000000E+00  0.00000000000E+00  0.24745583089E+03  0.24745583089E+03  0.00000000000E+00 0. -1.
         -1   -1    0    0    0  501 -0.00000000000E+00 -0.00000000000E+00 -0.30555218819E+03  0.30555218819E+03  0.00000000000E+00 0.  1.
          5    1    1    2  502    0  0.10872308574E+03  0.91714493595E+00 -0.86006152835E+02  0.13871084620E+03  0.47000000000E+01 0. -1.
         -5    1    1    2    0  502  0.14081920380E+03 -0.28239435021E+02  0.31169301829E+02  0.14704125008E+03  0.47000000000E+01 0. -1.
        -11    1    1    2    0    0 -0.18450406695E+03  0.39686136882E+02  0.33284277336E+02  0.19163659175E+03  0.00000000000E+00 0. -1.
         11    1    1    2    0    0 -0.65038222589E+02 -0.12363846797E+02 -0.36543783633E+02  0.75619331043E+02  0.00000000000E+00 0.  1.
<mgrwt>
<rscale>  0 0.27707985E+03</rscale>
<asrwt>0</asrwt>
<pdfrwt beam="1">  1        1 0.38070128E-01 0.28044105E+03</pdfrwt>
<pdfrwt beam="2">  1       -1 0.47008029E-01 0.28044105E+03</pdfrwt>
<totfact> 0.51733866E+02</totfact>
</mgrwt>
</event>
<event>
 6    1  0.7270761E-006  0.3432141E+03  0.7546771E-02  0.1065435E+00
          1   -1    0    0  501    0  0.00000000000E+00  0.00000000000E+00  0.37966458372E+02  0.37966458372E+02  0.00000000000E+00 0. -1.
         -1   -1    0    0    0  501 -0.00000000000E+00 -0.00000000000E+00 -0.77565761921E+03  0.77565761921E+03  0.00000000000E+00 0.  1.
          5    1    1    2  502    0  0.12770028255E+03  0.37619890655E+02 -0.35509630545E+03  0.37925992997E+03  0.47000000000E+01 0. -1.
         -5    1    1    2    0  502 -0.25547956309E+02  0.31589128487E+02 -0.15130644378E+03  0.15673640624E+03  0.47000000000E+01 0. -1.
        -11    1    1    2    0    0 -0.59987794553E+02  0.23247528649E+00 -0.15491816791E+03  0.16612714494E+03  0.00000000000E+00 0.  1.
         11    1    1    2    0    0 -0.42164531693E+02 -0.69441494429E+02 -0.76370243704E+02  0.11150059643E+03  0.00000000000E+00 0. -1.
<mgrwt>
<rscale>  0 0.34321406E+03</rscale>
<asrwt>0</asrwt>
<pdfrwt beam="1">  1        1 0.58409937E-02 0.34321406E+03</pdfrwt>
<pdfrwt beam="2">  1       -1 0.11933194E+00 0.34321406E+03</pdfrwt>
<totfact> 0.90114091E+02</totfact>
</mgrwt>
</event>
<event>
 6    1  0.7270761E-006  0.1753875E+03  0.7546771E-02  0.1201488E+00
         -2   -1    0    0    0  501 -0.00000000000E+00  0.00000000000E+00  0.25005660468E+03  0.25005660468E+03  0.00000000000E+00 0.  1.
          2   -1    0    0  501    0  0.00000000000E+00 -0.00000000000E+00 -0.85784600506E+02  0.85784600506E+02  0.00000000000E+00 0. -1.
          5    1    1    2  502    0 -0.24612567982E+02 -0.15525583347E+02 -0.26299827819E+02  0.39504343866E+02  0.47000000000E+01 0. -1.
         -5    1    1    2    0  502  0.54433065106E+02  0.21432539772E+02  0.19578863119E+03  0.20439567129E+03  0.47000000000E+01 0.  1.
        -11    1    1    2    0    0  0.23613260637E+02  0.17240074030E+02  0.11406070087E+02  0.31383190808E+02  0.00000000000E+00 0.  1.
         11    1    1    2    0    0 -0.53433757762E+02 -0.23147030454E+02 -0.16622869279E+02  0.60557999227E+02  0.00000000000E+00 0. -1.
<mgrwt>
<rscale>  0 0.14917683E+03</rscale>
<asrwt>0</asrwt>
<pdfrwt beam="2">  1        2 0.13197631E-01 0.17538747E+03</pdfrwt>
<pdfrwt beam="1">  1       -2 0.38470246E-01 0.17538747E+03</pdfrwt>
<totfact> 0.28490871E+03</totfact>
</mgrwt>
</event>
<event>
 6    1  0.7270761E-006  0.1493686E+03  0.7546771E-02  0.1210324E+00
         -2   -1    0    0    0  501 -0.00000000000E+00  0.00000000000E+00  0.27818670042E+03  0.27818670042E+03  0.00000000000E+00 0.  1.
          2   -1    0    0  501    0  0.00000000000E+00 -0.00000000000E+00 -0.82877286910E+02  0.82877286910E+02  0.00000000000E+00 0. -1.
          5    1    1    2  502    0  0.21790007589E+02 -0.14230739739E+02  0.71979257751E+00  0.26456123782E+02  0.47000000000E+01 0.  1.
         -5    1    1    2    0  502 -0.10314607392E+03  0.60141100934E+01  0.18423601881E+03  0.21128247139E+03  0.47000000000E+01 0.  1.
        -11    1    1    2    0    0  0.13553111394E+02  0.21601938534E+02 -0.33027328423E+02  0.41726909779E+02  0.00000000000E+00 0. -1.
         11    1    1    2    0    0  0.67802954941E+02 -0.13385308889E+02  0.43380930541E+02  0.81598482384E+02  0.00000000000E+00 0.  1.
<mgrwt>
<rscale>  0 0.14225702E+03</rscale>
<asrwt>0</asrwt>
<pdfrwt beam="2">  1        2 0.12750352E-01 0.14936863E+03</pdfrwt>
<pdfrwt beam="1">  1       -2 0.42797954E-01 0.14936863E+03</pdfrwt>
<totfact> 0.24040959E+03</totfact>
</mgrwt>
</event>
<event>
 6    1  0.7270761E-006  0.1291423E+03  0.7546771E-02  0.1242522E+00
         -1   -1    0    0    0  501 -0.00000000000E+00  0.00000000000E+00  0.20783959599E+02  0.20783959599E+02  0.00000000000E+00 0.  1.
          1   -1    0    0  501    0  0.00000000000E+00 -0.00000000000E+00 -0.61977824899E+03  0.61977824899E+03  0.00000000000E+00 0. -1.
          5    1    1    2  502    0 -0.45009088234E+01 -0.24475502788E+02 -0.45730724710E+01  0.25735411572E+02  0.47000000000E+01 0. -1.
         -5    1    1    2    0  502  0.36363177458E+02  0.32974574531E+02 -0.31679589934E+03  0.32061087798E+03  0.47000000000E+01 0. -1.
        -11    1    1    2    0    0 -0.38669524470E+02  0.28818043405E+02 -0.83562947193E+02  0.96480971658E+02  0.00000000000E+00 0.  1.
         11    1    1    2    0    0  0.68072558357E+01 -0.37317115148E+02 -0.19406237038E+03  0.19773494737E+03  0.00000000000E+00 0. -1.
<mgrwt>
<rscale>  0 0.12034931E+03</rscale>
<asrwt>0</asrwt>
<pdfrwt beam="2">  1        1 0.95350507E-01 0.12914231E+03</pdfrwt>
<pdfrwt beam="1">  1       -1 0.31975320E-02 0.12914231E+03</pdfrwt>
<totfact> 0.10966065E+04</totfact>
</mgrwt>
</event>
<event>
 6    1  0.7270761E-006  0.1685547E+03  0.7546771E-02  0.1192279E+00
          1   -1    0    0  501    0  0.00000000000E+00  0.00000000000E+00  0.59477985847E+02  0.59477985847E+02  0.00000000000E+00 0. -1.
         -1   -1    0    0    0  501 -0.00000000000E+00 -0.00000000000E+00 -0.38815351385E+03  0.38815351385E+03  0.00000000000E+00 0.  1.
          5    1    1    2  502    0  0.58275679693E+02  0.14683256870E+02 -0.40583043698E+02  0.72668606095E+02  0.47000000000E+01 0. -1.
         -5    1    1    2    0  502 -0.19727817961E+02 -0.92209620373E+02 -0.19905974320E+03  0.22031493879E+03  0.47000000000E+01 0.  1.
        -11    1    1    2    0    0  0.24835872875E+02 -0.16697633166E+01 -0.20263555825E+02  0.32097046370E+02  0.00000000000E+00 0.  1.
         11    1    1    2    0    0 -0.63383734608E+02  0.79196126820E+02 -0.68769185278E+02  0.12255090844E+03  0.00000000000E+00 0. -1.
<mgrwt>
<rscale>  0 0.15686783E+03</rscale>
<asrwt>0</asrwt>
<pdfrwt beam="1">  1        1 0.91504597E-02 0.16855472E+03</pdfrwt>
<pdfrwt beam="2">  1       -1 0.59715923E-01 0.16855472E+03</pdfrwt>
<totfact> 0.20812244E+03</totfact>
</mgrwt>
</event>
<event>
 6    1  0.7866440E-006  0.4259446E+03  0.7546771E-02  0.1035859E+00
         -1   -1    0    0    0  501 -0.00000000000E+00  0.00000000000E+00  0.23607125007E+03  0.23607125007E+03  0.00000000000E+00 0.  1.
          1   -1    0    0  501    0  0.00000000000E+00 -0.00000000000E+00 -0.75364951926E+03  0.75364951926E+03  0.00000000000E+00 0. -1.
          5    1    1    2  502    0 -0.38609538062E+03  0.35784291238E+01 -0.24247585083E+03  0.45595951172E+03  0.47000000000E+01 0. -1.
         -5    1    1    2    0  502 -0.19825994094E+02  0.28552278984E+02 -0.19435623007E+01  0.35130757342E+02  0.47000000000E+01 0. -1.
        -11    1    1    2    0    0  0.80723101219E+02  0.21981190589E+02 -0.83962330777E+02  0.11852875094E+03  0.00000000000E+00 0. -1.
         11    1    1    2    0    0  0.32519827349E+03 -0.54111898696E+02 -0.18919652528E+03  0.38010174933E+03  0.00000000000E+00 0.  1.
<mgrwt>
<rscale>  0 0.42372948E+03</rscale>
<asrwt>0</asrwt>
<pdfrwt beam="2">  1        1 0.11594608E+00 0.42594460E+03</pdfrwt>
<pdfrwt beam="1">  1       -1 0.36318653E-01 0.42594460E+03</pdfrwt>
<totfact> 0.18345146E+02</totfact>
</mgrwt>
</event>
<event>
 6    1  0.7270761E-006  0.1622199E+03  0.7546771E-02  0.1209313E+00
          2   -1    0    0  501    0  0.00000000000E+00  0.00000000000E+00  0.96148018691E+03  0.96148018691E+03  0.00000000000E+00 0. -1.
         -2   -1    0    0    0  501 -0.00000000000E+00 -0.00000000000E+00 -0.18393735997E+02  0.18393735997E+02  0.00000000000E+00 0.  1.
          5    1    1    2  502    0 -0.46172264304E+02 -0.59720769177E+02  0.41303849341E+03  0.41990634110E+03  0.47000000000E+01 0. -1.
         -5    1    1    2    0  502  0.16833962894E+02  0.53696442712E+02  0.71769242654E+02  0.91321434820E+02  0.47000000000E+01 0.  1.
        -11    1    1    2    0    0 -0.30606718641E+02 -0.14973441133E+02  0.18178940644E+03  0.18495503091E+03  0.00000000000E+00 0.  1.
         11    1    1    2    0    0  0.59945020051E+02  0.20997767598E+02  0.27648930842E+03  0.28369111608E+03  0.00000000000E+00 0. -1.
<mgrwt>
<rscale>  0 0.14302685E+03</rscale>
<asrwt>0</asrwt>
<pdfrwt beam="1">  1        2 0.14791999E+00 0.16221991E+03</pdfrwt>
<pdfrwt beam="2">  1       -2 0.28298063E-02 0.16221991E+03</pdfrwt>
<totfact> 0.12444596E+04</totfact>
</mgrwt>
</event>
<event>
 6    1  0.7270761E-006  0.1918357E+03  0.7546771E-02  0.1161652E+00
         -2   -1    0    0    0  501 -0.00000000000E+00  0.00000000000E+00  0.20098597075E+03  0.20098597075E+03  0.00000000000E+00 0.  1.
          2   -1    0    0  501    0  0.00000000000E+00 -0.00000000000E+00 -0.22389107458E+03  0.22389107458E+03  0.00000000000E+00 0. -1.
          5    1    1    2  502    0 -0.99143176233E+02 -0.64825216849E+02  0.27650686189E+02  0.12173055730E+03  0.47000000000E+01 0.  1.
         -5    1    1    2    0  502 -0.44686975753E+02  0.42712970712E+02  0.70076629620E+02  0.93563602367E+02  0.47000000000E+01 0.  1.
        -11    1    1    2    0    0  0.19768423788E+01  0.26363687328E+02 -0.34890059324E+02  0.43775200227E+02  0.00000000000E+00 0.  1.
         11    1    1    2    0    0  0.14185330961E+03 -0.42514411920E+01 -0.85742360315E+02  0.16580768544E+03  0.00000000000E+00 0. -1.
<mgrwt>
<rscale>  0 0.18650492E+03</rscale>
<asrwt>0</asrwt>
<pdfrwt beam="2">  1        2 0.34444780E-01 0.19183573E+03</pdfrwt>
<pdfrwt beam="1">  1       -2 0.30920919E-01 0.19183573E+03</pdfrwt>
<totfact> 0.14430031E+03</totfact>
</mgrwt>
</event>
<event>
 6    1  0.7270761E-006  0.1654732E+03  0.7546771E-02  0.1189733E+00
         -1   -1    0    0    0  501 -0.00000000000E+00  0.00000000000E+00  0.59251512844E+03  0.59251512844E+03  0.00000000000E+00 0.  1.
          1   -1    0    0  501    0  0.00000000000E+00 -0.00000000000E+00 -0.40497032383E+02  0.40497032383E+02  0.00000000000E+00 0. -1.
          5    1    1    2  502    0 -0.54909069586E+02 -0.51201601608E+02  0.32178218380E+03  0.33045797576E+03  0.47000000000E+01 0.  1.
         -5    1    1    2    0  502  0.33125021894E+01 -0.44157534024E+02  0.19079167309E+02  0.48445485931E+02  0.47000000000E+01 0.  1.
        -11    1    1    2    0    0  0.67257745298E+02  0.42348090682E+02  0.84980523999E+02  0.11635572417E+03  0.00000000000E+00 0. -1.
         11    1    1    2    0    0 -0.15661177902E+02  0.53011044950E+02  0.12617622095E+03  0.13775297497E+03  0.00000000000E+00 0.  1.
<mgrwt>
<rscale>  0 0.15908571E+03</rscale>
<asrwt>0</asrwt>
<pdfrwt beam="2">  1        1 0.62303131E-02 0.16547318E+03</pdfrwt>
<pdfrwt beam="1">  1       -1 0.91156167E-01 0.16547318E+03</pdfrwt>
<totfact> 0.14914101E+03</totfact>
</mgrwt>
</event>
<event>
 6    1  0.7270761E-006  0.1568428E+03  0.7546771E-02  0.1200310E+00
         -2   -1    0    0    0  501 -0.00000000000E+00  0.00000000000E+00  0.93860606861E+02  0.93860606861E+02  0.00000000000E+00 0.  1.
          2   -1    0    0  501    0  0.00000000000E+00 -0.00000000000E+00 -0.22183203750E+03  0.22183203750E+03  0.00000000000E+00 0. -1.
          5    1    1    2  502    0  0.11504705505E+03 -0.18013466915E+01 -0.54962531117E+02  0.12760109542E+03  0.47000000000E+01 0. -1.
         -5    1    1    2    0  502 -0.25225023742E+02  0.32122646849E+02 -0.11084700139E+02  0.42580827147E+02  0.47000000000E+01 0. -1.
        -11    1    1    2    0    0 -0.95429552550E+02 -0.44883836184E+02 -0.71306322848E+02  0.12730259200E+03  0.00000000000E+00 0. -1.
         11    1    1    2    0    0  0.56075212415E+01  0.14562536027E+02  0.93821234650E+01  0.18208129797E+02  0.00000000000E+00 0.  1.
<mgrwt>
<rscale>  0 0.15013281E+03</rscale>
<asrwt>0</asrwt>
<pdfrwt beam="2">  1        2 0.34128005E-01 0.15684276E+03</pdfrwt>
<pdfrwt beam="1">  1       -2 0.14440094E-01 0.15684276E+03</pdfrwt>
<totfact> 0.53459730E+03</totfact>
</mgrwt>
</event>
<event>
 6    1  0.7270761E-006  0.1835600E+03  0.7546771E-02  0.1192871E+00
         -1   -1    0    0    0  501 -0.00000000000E+00  0.00000000000E+00  0.83620044095E+02  0.83620044095E+02  0.00000000000E+00 0.  1.
          1   -1    0    0  501    0  0.00000000000E+00 -0.00000000000E+00 -0.24520413752E+03  0.24520413752E+03  0.00000000000E+00 0. -1.
          5    1    1    2  502    0  0.35433348841E+02  0.73767703250E+02 -0.60558746656E+02  0.10191490592E+03  0.47000000000E+01 0. -1.
         -5    1    1    2    0  502 -0.64540444713E+01 -0.94332286948E+02 -0.11841168880E+02  0.95407223685E+02  0.47000000000E+01 0.  1.
        -11    1    1    2    0    0 -0.50939001497E+02  0.29309702478E+02 -0.90411146230E+02  0.10783327824E+03  0.00000000000E+00 0. -1.
         11    1    1    2    0    0  0.21959697127E+02 -0.87451187798E+01  0.12269683418E+01  0.23668773768E+02  0.00000000000E+00 0.  1.
<mgrwt>
<rscale>  0 0.15635830E+03</rscale>
<asrwt>0</asrwt>
<pdfrwt beam="2">  1        1 0.37723713E-01 0.18356000E+03</pdfrwt>
<pdfrwt beam="1">  1       -1 0.12864622E-01 0.18356000E+03</pdfrwt>
<totfact> 0.45307815E+03</totfact>
</mgrwt>
</event>
<event>
 6    1  0.7270761E-006  0.1275900E+03  0.7546771E-02  0.1244506E+00
         -2   -1    0    0    0  501 -0.00000000000E+00  0.00000000000E+00  0.35524725687E+02  0.35524725687E+02  0.00000000000E+00 0.  1.
          2   -1    0    0  501    0  0.00000000000E+00 -0.00000000000E+00 -0.41991245277E+03  0.41991245277E+03  0.00000000000E+00 0. -1.
          5    1    1    2  502    0 -0.49309898442E+02  0.48878033014E+02 -0.67929490386E+02  0.97247282017E+02  0.47000000000E+01 0.  1.
         -5    1    1    2    0  502  0.52801879999E+02 -0.23531427764E+02 -0.57595309111E+02  0.81737850814E+02  0.47000000000E+01 0.  1.
        -11    1    1    2    0    0 -0.35745980767E+02 -0.21534536340E+02 -0.22752291357E+03  0.23131836848E+03  0.00000000000E+00 0.  1.
         11    1    1    2    0    0  0.32253999210E+02 -0.38120689093E+01 -0.31340014015E+02  0.45133677148E+02  0.00000000000E+00 0. -1.
<mgrwt>
<rscale>  0 0.11915002E+03</rscale>
<asrwt>0</asrwt>
<pdfrwt beam="2">  1        2 0.64601916E-01 0.12758998E+03</pdfrwt>
<pdfrwt beam="1">  1       -2 0.54653424E-02 0.12758998E+03</pdfrwt>
<totfact> 0.12178722E+04</totfact>
</mgrwt>
</event>
<event>
 6    1  0.7270761E-006  0.1329282E+03  0.7546771E-02  0.1236494E+00
          1   -1    0    0  501    0  0.00000000000E+00  0.00000000000E+00  0.80941571992E+02  0.80941571992E+02  0.00000000000E+00 0. -1.
         -1   -1    0    0    0  501 -0.00000000000E+00 -0.00000000000E+00 -0.16911637618E+03  0.16911637618E+03  0.00000000000E+00 0.  1.
          5    1    1    2  502    0 -0.35011774904E+02 -0.76048260875E+02 -0.42381021498E+02  0.93954261996E+02  0.47000000000E+01 0.  1.
         -5    1    1    2    0  502  0.98567326106E+00  0.46388954268E+02 -0.38975064172E+01  0.46799435746E+02  0.47000000000E+01 0.  1.
        -11    1    1    2    0    0  0.54288792918E+02 -0.65411238702E+01 -0.70661013234E+01  0.55136096397E+02  0.00000000000E+00 0. -1.
         11    1    1    2    0    0 -0.20262691275E+02  0.36200430477E+02 -0.34830174952E+02  0.54168154035E+02  0.00000000000E+00 0.  1.
<mgrwt>
<rscale>  0 0.12409260E+03</rscale>
<asrwt>0</asrwt>
<pdfrwt beam="1">  1        1 0.12452550E-01 0.13292818E+03</pdfrwt>
<pdfrwt beam="2">  1       -1 0.26017904E-01 0.13292818E+03</pdfrwt>
<totfact> 0.59003774E+03</totfact>
</mgrwt>
</event>
<event>
 6    1  0.7270761E-006  0.2124766E+03  0.7546771E-02  0.1168109E+00
         -2   -1    0    0    0  501 -0.00000000000E+00  0.00000000000E+00  0.56609754761E+02  0.56609754761E+02  0.00000000000E+00 0.  1.
          2   -1    0    0  501    0  0.00000000000E+00 -0.00000000000E+00 -0.46448557010E+03  0.46448557010E+03  0.00000000000E+00 0. -1.
          5    1    1    2  502    0 -0.44631237902E+02  0.87156124459E+01 -0.20253005242E+03  0.20762567623E+03  0.47000000000E+01 0. -1.
         -5    1    1    2    0  502  0.10245947060E+03 -0.16361989752E+02 -0.31646512219E+02  0.10857831073E+03  0.47000000000E+01 0.  1.
        -11    1    1    2    0    0 -0.79145776781E+02  0.19424197343E+02 -0.11160799681E+03  0.13819442238E+03  0.00000000000E+00 0. -1.
         11    1    1    2    0    0  0.21317544079E+02 -0.11777820038E+02 -0.62091253887E+02  0.66696915518E+02  0.00000000000E+00 0.  1.
<mgrwt>
<rscale>  0 0.17968428E+03</rscale>
<asrwt>0</asrwt>
<pdfrwt beam="2">  1        2 0.71459320E-01 0.21247658E+03</pdfrwt>
<pdfrwt beam="1">  1       -2 0.87091929E-02 0.21247658E+03</pdfrwt>
<totfact> 0.55018699E+03</totfact>
</mgrwt>
</event>
<event>
 6    1  0.7270761E-006  0.1333814E+03  0.7546771E-02  0.1234610E+00
         -2   -1    0    0    0  501 -0.00000000000E+00  0.00000000000E+00  0.35317702015E+02  0.35317702015E+02  0.00000000000E+00 0.  1.
          2   -1    0    0  501    0  0.00000000000E+00 -0.00000000000E+00 -0.39850996768E+03  0.39850996768E+03  0.00000000000E+00 0. -1.
          5    1    1    2  502    0  0.34917332012E+01  0.16514697433E+02 -0.20279989278E+03  0.20355543211E+03  0.47000000000E+01 0. -1.
         -5    1    1    2    0  502 -0.41493222656E+02  0.10351362944E+02 -0.49223399548E+01  0.43303090788E+02  0.47000000000E+01 0. -1.
        -11    1    1    2    0    0  0.63687985284E+02 -0.37475805484E+01 -0.12727034176E+03  0.14236552856E+03  0.00000000000E+00 0.  1.
         11    1    1    2    0    0 -0.25686495830E+02 -0.23118479829E+02 -0.28199691174E+02  0.44603618238E+02  0.00000000000E+00 0. -1.
<mgrwt>
<rscale>  0 0.12529442E+03</rscale>
<asrwt>0</asrwt>
<pdfrwt beam="2">  1        2 0.61309227E-01 0.13338142E+03</pdfrwt>
<pdfrwt beam="1">  1       -2 0.54334925E-02 0.13338142E+03</pdfrwt>
<totfact> 0.13039130E+04</totfact>
</mgrwt>
</event>
<event>
 6    1  0.7270761E-006  0.1269342E+03  0.7546771E-02  0.1246787E+00
          1   -1    0    0  501    0  0.00000000000E+00  0.00000000000E+00  0.10741147237E+03  0.10741147237E+03  0.00000000000E+00 0. -1.
         -1   -1    0    0    0  501 -0.00000000000E+00 -0.00000000000E+00 -0.12284131178E+03  0.12284131178E+03  0.00000000000E+00 0.  1.
          5    1    1    2  502    0 -0.41958320190E+01 -0.59595093160E+02  0.66302214289E+01  0.60292868328E+02  0.47000000000E+01 0. -1.
         -5    1    1    2    0  502 -0.16919404231E+02  0.53165392190E+02 -0.46423150021E+02  0.72732551338E+02  0.47000000000E+01 0. -1.
        -11    1    1    2    0    0  0.28594931409E+02 -0.35668884498E+02 -0.40421275522E+01  0.45894206810E+02  0.00000000000E+00 0.  1.
         11    1    1    2    0    0 -0.74796951590E+01  0.42098585468E+02  0.28405216734E+02  0.51333157664E+02  0.00000000000E+00 0. -1.
<mgrwt>
<rscale>  0 0.11779062E+03</rscale>
<asrwt>0</asrwt>
<pdfrwt beam="1">  1        1 0.16524842E-01 0.12693418E+03</pdfrwt>
<pdfrwt beam="2">  1       -1 0.18898663E-01 0.12693418E+03</pdfrwt>
<totfact> 0.68415099E+03</totfact>
</mgrwt>
</event>
<event>
 6    1  0.7270761E-006  0.3048972E+03  0.7546771E-02  0.1082818E+00
         -1   -1    0    0    0  501 -0.00000000000E+00  0.00000000000E+00  0.13421574104E+03  0.13421574104E+03  0.00000000000E+00 0.  1.
          1   -1    0    0  501    0  0.00000000000E+00 -0.00000000000E+00 -0.17315837828E+03  0.17315837828E+03  0.00000000000E+00 0. -1.
          5    1    1    2  502    0  0.39206031876E+02  0.75581303640E+02 -0.22149530753E+02  0.88104132184E+02  0.47000000000E+01 0. -1.
         -5    1    1    2    0  502 -0.22045278809E+02  0.31274332166E+01  0.61704647353E+02  0.65767230908E+02  0.47000000000E+01 0. -1.
        -11    1    1    2    0    0 -0.36068830354E+02  0.50967399526E+01  0.10164247963E+01  0.36441328195E+02  0.00000000000E+00 0.  1.
         11    1    1    2    0    0  0.18908077287E+02 -0.83805476809E+02 -0.79514178630E+02  0.11706142803E+03  0.00000000000E+00 0. -1.
<mgrwt>
<rscale>  0 0.30489723E+03</rscale>
<asrwt>0</asrwt>
<pdfrwt beam="2">  1        1 0.26639751E-01 0.30489723E+03</pdfrwt>
<pdfrwt beam="1">  1       -1 0.20648575E-01 0.30489723E+03</pdfrwt>
<totfact> 0.33694170E+03</totfact>
</mgrwt>
</event>
<event>
 6    1  0.7270761E-006  0.1487514E+03  0.7546771E-02  0.1211428E+00
          2   -1    0    0  501    0  0.00000000000E+00  0.00000000000E+00  0.70152382803E+03  0.70152382803E+03  0.00000000000E+00 0. -1.
         -2   -1    0    0    0  501 -0.00000000000E+00 -0.00000000000E+00 -0.26045517259E+02  0.26045517259E+02  0.00000000000E+00 0.  1.
          5    1    1    2  502    0 -0.23090193367E+02  0.39604397070E+02  0.38318697197E+02  0.59933945739E+02  0.47000000000E+01 0. -1.
         -5    1    1    2    0  502  0.57934875103E+02  0.33112182119E+02  0.34118518969E+03  0.34768130525E+03  0.47000000000E+01 0. -1.
        -11    1    1    2    0    0 -0.46458141366E+01 -0.35998956451E+02  0.23223831290E+02  0.43091238023E+02  0.00000000000E+00 0.  1.
         11    1    1    2    0    0 -0.30198867600E+02 -0.36717622738E+02  0.27275059260E+03  0.27686285628E+03  0.00000000000E+00 0. -1.
<mgrwt>
<rscale>  0 0.14142220E+03</rscale>
<asrwt>0</asrwt>
<pdfrwt beam="1">  1        2 0.10792673E+00 0.14875145E+03</pdfrwt>
<pdfrwt beam="2">  1       -2 0.40070032E-02 0.14875145E+03</pdfrwt>
<totfact> 0.11027994E+04</totfact>
</mgrwt>
</event>
<event>
 6    1  0.7270761E-006  0.1744244E+03  0.7546771E-02  0.1178934E+00
          1   -1    0    0  501    0  0.00000000000E+00  0.00000000000E+00  0.45600325244E+03  0.45600325244E+03  0.00000000000E+00 0. -1.
         -1   -1    0    0    0  501 -0.00000000000E+00 -0.00000000000E+00 -0.60751330728E+02  0.60751330728E+02  0.00000000000E+00 0.  1.
          5    1    1    2  502    0  0.97303614902E+02 -0.39398697137E+02  0.12180679750E+03  0.16087024811E+03  0.47000000000E+01 0.  1.
         -5    1    1    2    0  502 -0.27680440364E+02 -0.60352214354E+02  0.44035325006E+02  0.79811004282E+02  0.47000000000E+01 0.  1.
        -11    1    1    2    0    0  0.18458401316E+02  0.46977962403E+02  0.66141235566E+02  0.83200388057E+02  0.00000000000E+00 0.  1.
         11    1    1    2    0    0 -0.88081575854E+02  0.52772949087E+02  0.16326856364E+03  0.19287294272E+03  0.00000000000E+00 0. -1.
<mgrwt>
<rscale>  0 0.16896271E+03</rscale>
<asrwt>0</asrwt>
<pdfrwt beam="1">  1        1 0.70154344E-01 0.17442436E+03</pdfrwt>
<pdfrwt beam="2">  1       -1 0.93463589E-02 0.17442436E+03</pdfrwt>
<totfact> 0.33894992E+03</totfact>
</mgrwt>
</event>
<event>
 6    1  0.7270761E-006  0.1888769E+03  0.7546771E-02  0.1164531E+00
          2   -1    0    0  501    0  0.00000000000E+00  0.00000000000E+00  0.27791206114E+03  0.27791206114E+03  0.00000000000E+00 0.  1.
         -2   -1    0    0    0  501 -0.00000000000E+00 -0.00000000000E+00 -0.12638127274E+03  0.12638127274E+03  0.00000000000E+00 0. -1.
          5    1    1    2  502    0 -0.95398937535E+02 -0.73742246693E+02  0.10334407310E+03  0.15887404972E+03  0.47000000000E+01 0.  1.
         -5    1    1    2    0  502  0.37397413875E+02 -0.55428319368E+02  0.38166935886E+02  0.77134104956E+02  0.47000000000E+01 0.  1.
        -11    1    1    2    0    0  0.28407073527E+02  0.23658659940E+02 -0.33965837500E+02  0.50203307994E+02  0.00000000000E+00 0. -1.
         11    1    1    2    0    0  0.29594450133E+02  0.10551190612E+03  0.43985616912E+02  0.11808187120E+03  0.00000000000E+00 0.  1.
<mgrwt>
<rscale>  0 0.18342259E+03</rscale>
<asrwt>0</asrwt>
<pdfrwt beam="1">  1        2 0.42755702E-01 0.18887690E+03</pdfrwt>
<pdfrwt beam="2">  1       -2 0.19443273E-01 0.18887690E+03</pdfrwt>
<totfact> 0.25806789E+03</totfact>
</mgrwt>
</event>
<event>
 6    1  0.7270761E-006  0.1611332E+03  0.7546771E-02  0.1195000E+00
          2   -1    0    0  501    0  0.00000000000E+00  0.00000000000E+00  0.38852206693E+03  0.38852206693E+03  0.00000000000E+00 0.  1.
         -2   -1    0    0    0  501 -0.00000000000E+00 -0.00000000000E+00 -0.70035392614E+02  0.70035392614E+02  0.00000000000E+00 0. -1.
          5    1    1    2  502    0 -0.23901861797E+02 -0.17859164196E+02  0.76546140044E+02  0.82290037664E+02  0.47000000000E+01 0. -1.
         -5    1    1    2    0  502 -0.64843597860E+02  0.67488206015E+02 -0.53702929521E+01  0.93863092751E+02  0.47000000000E+01 0. -1.
        -11    1    1    2    0    0 -0.47307366477E+00  0.14726786493E+02  0.85374418244E+02  0.86636558851E+02  0.00000000000E+00 0.  1.
         11    1    1    2    0    0  0.89218533322E+02 -0.64355828311E+02  0.16193640898E+03  0.19576777028E+03  0.00000000000E+00 0. -1.
<mgrwt>
<rscale>  0 0.15454235E+03</rscale>
<asrwt>0</asrwt>
<pdfrwt beam="1">  1        2 0.59772624E-01 0.16113325E+03</pdfrwt>
<pdfrwt beam="2">  1       -2 0.10774676E-01 0.16113325E+03</pdfrwt>
<totfact> 0.47118167E+03</totfact>
</mgrwt>
</event>
<event>
 6    1  0.7270761E-006  0.2945892E+03  0.7546771E-02  0.1087977E+00
         -1   -1    0    0    0  501 -0.00000000000E+00  0.00000000000E+00  0.41579222196E+03  0.41579222196E+03  0.00000000000E+00 0.  1.
          1   -1    0    0  501    0  0.00000000000E+00 -0.00000000000E+00 -0.52179183847E+02  0.52179183847E+02  0.00000000000E+00 0. -1.
          5    1    1    2  502    0  0.28941727997E+02  0.12317192284E+03  0.17174353265E+03  0.21337028191E+03  0.47000000000E+01 0. -1.
         -5    1    1    2    0  502 -0.18391049901E+02 -0.18764013763E+02  0.19938834285E+02  0.33316152863E+02  0.47000000000E+01 0.  1.
        -11    1    1    2    0    0 -0.40534933300E+02 -0.22524442720E+02  0.91848443970E+02  0.10289104916E+03  0.00000000000E+00 0.  1.
         11    1    1    2    0    0  0.29984255204E+02 -0.81883466354E+02  0.80082227201E+02  0.11839392187E+03  0.00000000000E+00 0. -1.
<mgrwt>
<rscale>  0 0.29458920E+03</rscale>
<asrwt>0</asrwt>
<pdfrwt beam="2">  1        1 0.80275670E-02 0.29458920E+03</pdfrwt>
<pdfrwt beam="1">  1       -1 0.63968032E-01 0.29458920E+03</pdfrwt>
<totfact> 0.22189363E+03</totfact>
</mgrwt>
</event>
<event>
 6    1  0.7270761E-006  0.1288567E+03  0.7546771E-02  0.1243116E+00
          1   -1    0    0  501    0  0.00000000000E+00  0.00000000000E+00  0.52708231755E+03  0.52708231755E+03  0.00000000000E+00 0. -1.
         -1   -1    0    0    0  501 -0.00000000000E+00 -0.00000000000E+00 -0.24192449922E+02  0.24192449922E+02  0.00000000000E+00 0.  1.
          5    1    1    2  502    0  0.43650477384E+01  0.31220669472E+02  0.21984055951E+03  0.22213902280E+03  0.47000000000E+01 0. -1.
         -5    1    1    2    0  502 -0.22465752091E+02 -0.56717172137E+02  0.58824807155E+02  0.84876354593E+02  0.47000000000E+01 0. -1.
        -11    1    1    2    0    0 -0.12467795421E+01  0.50863640286E+02  0.68657487264E+02  0.85454753641E+02  0.00000000000E+00 0.  1.
         11    1    1    2    0    0  0.19347483894E+02 -0.25367137621E+02  0.15556701370E+03  0.15880463644E+03  0.00000000000E+00 0. -1.
<mgrwt>
<rscale>  0 0.11998875E+03</rscale>
<asrwt>0</asrwt>
<pdfrwt beam="1">  1        1 0.81089579E-01 0.12885672E+03</pdfrwt>
<pdfrwt beam="2">  1       -1 0.37219158E-02 0.12885672E+03</pdfrwt>
<totfact> 0.10917499E+04</totfact>
</mgrwt>
</event>
<event>
 6    1  0.7270761E-006  0.1363410E+03  0.7546771E-02  0.1224550E+00
          2   -1    0    0  501    0  0.00000000000E+00  0.00000000000E+00  0.91304839082E+03  0.91304839082E+03  0.00000000000E+00 0. -1.
         -2   -1    0    0    0  501 -0.00000000000E+00 -0.00000000000E+00 -0.18216595722E+02  0.18216595722E+02  0.00000000000E+00 0.  1.
          5    1    1    2  502    0 -0.47586926220E+02  0.16974385555E+02  0.28069856152E+03  0.28524799343E+03  0.47000000000E+01 0. -1.
         -5    1    1    2    0  502  0.37781823672E+02  0.59863085813E+02  0.13928871147E+03  0.15631535557E+03  0.47000000000E+01 0.  1.
        -11    1    1    2    0    0 -0.14539082665E+02  0.14514010048E+02  0.43345860802E+02  0.47967750219E+02  0.00000000000E+00 0.  1.
         11    1    1    2    0    0  0.24344185213E+02 -0.91351481415E+02  0.43149866129E+03  0.44173388732E+03  0.00000000000E+00 0. -1.
<mgrwt>
<rscale>  0 0.13197819E+03</rscale>
<asrwt>0</asrwt>
<pdfrwt beam="1">  1        2 0.14046895E+00 0.13634105E+03</pdfrwt>
<pdfrwt beam="2">  1       -2 0.28025539E-02 0.13634105E+03</pdfrwt>
<totfact> 0.13383004E+04</totfact>
</mgrwt>
</event>
<event>
 6    1  0.7270761E-006  0.1965168E+03  0.7546771E-02  0.1157957E+00
          1   -1    0    0  501    0  0.00000000000E+00  0.00000000000E+00  0.97212219238E+02  0.97212219238E+02  0.00000000000E+00 0. -1.
         -1   -1    0    0    0  501 -0.00000000000E+00 -0.00000000000E+00 -0.41640812994E+03  0.41640812994E+03  0.00000000000E+00 0.  1.
          5    1    1    2  502    0  0.50663701876E+02 -0.49592210051E+02 -0.43066513198E+02  0.83084370038E+02  0.47000000000E+01 0.  1.
         -5    1    1    2    0  502 -0.35201747626E+02 -0.10125560261E+03 -0.22522731439E+03  0.24948204994E+03  0.47000000000E+01 0.  1.
        -11    1    1    2    0    0 -0.42413846221E+02  0.12091796262E+03 -0.18723827949E+02  0.12950162072E+03  0.00000000000E+00 0.  1.
         11    1    1    2    0    0  0.26951891970E+02  0.29929850045E+02 -0.32178255169E+02  0.51552308486E+02  0.00000000000E+00 0. -1.
<mgrwt>
<rscale>  0 0.19055999E+03</rscale>
<asrwt>0</asrwt>
<pdfrwt beam="1">  1        1 0.14955726E-01 0.19651678E+03</pdfrwt>
<pdfrwt beam="2">  1       -1 0.64062790E-01 0.19651678E+03</pdfrwt>
<totfact> 0.95225661E+02</totfact>
</mgrwt>
</event>
<event>
 6    1  0.7270761E-006  0.2038314E+03  0.7546771E-02  0.1150588E+00
          1   -1    0    0  501    0  0.00000000000E+00  0.00000000000E+00  0.15727430913E+03  0.15727430913E+03  0.00000000000E+00 0. -1.
         -1   -1    0    0    0  501 -0.00000000000E+00 -0.00000000000E+00 -0.26288984976E+03  0.26288984976E+03  0.00000000000E+00 0.  1.
          5    1    1    2  502    0 -0.12507576489E+01 -0.93420992149E+02 -0.45743891989E+02  0.10413279898E+03  0.47000000000E+01 0. -1.
         -5    1    1    2    0  502  0.10583357904E+03 -0.28989352318E+02 -0.70572789726E+02  0.13055166659E+03  0.47000000000E+01 0. -1.
        -11    1    1    2    0    0 -0.56810197132E+02  0.17823560018E+02  0.33415745825E+02  0.68276568887E+02  0.00000000000E+00 0. -1.
         11    1    1    2    0    0 -0.47772624257E+02  0.10458678445E+03 -0.22714604741E+02  0.11720312444E+03  0.00000000000E+00 0.  1.
<mgrwt>
<rscale>  0 0.19899692E+03</rscale>
<asrwt>0</asrwt>
<pdfrwt beam="1">  1        1 0.24196048E-01 0.20383137E+03</pdfrwt>
<pdfrwt beam="2">  1       -1 0.40444592E-01 0.20383137E+03</pdfrwt>
<totfact> 0.12015501E+03</totfact>
</mgrwt>
</event>
<event>
 6    1  0.7270761E-006  0.1513573E+03  0.7546771E-02  0.1207889E+00
         -2   -1    0    0    0  501 -0.00000000000E+00  0.00000000000E+00  0.26841184451E+03  0.26841184451E+03  0.00000000000E+00 0.  1.
          2   -1    0    0  501    0  0.00000000000E+00 -0.00000000000E+00 -0.79641122882E+02  0.79641122882E+02  0.00000000000E+00 0. -1.
          5    1    1    2  502    0  0.10724121320E+03 -0.46062179005E+02  0.14167878977E+03  0.18362290602E+03  0.47000000000E+01 0.  1.
         -5    1    1    2    0  502 -0.28513445203E+02  0.13186666323E+02  0.18520594350E+02  0.36769649728E+02  0.47000000000E+01 0.  1.
        -11    1    1    2    0    0 -0.74461056252E+02  0.20803174147E+02 -0.17983830212E+02  0.79376565193E+02  0.00000000000E+00 0. -1.
         11    1    1    2    0    0 -0.42667117477E+01  0.12072338535E+02  0.46555167717E+02  0.48283846450E+02  0.00000000000E+00 0.  1.
<mgrwt>
<rscale>  0 0.14412089E+03</rscale>
<asrwt>0</asrwt>
<pdfrwt beam="2">  1        2 0.12252481E-01 0.15135731E+03</pdfrwt>
<pdfrwt beam="1">  1       -2 0.41294130E-01 0.15135731E+03</pdfrwt>
<totfact> 0.27024042E+03</totfact>
</mgrwt>
</event>
<event>
 6    1  0.7270761E-006  0.2681973E+03  0.7546771E-02  0.1102316E+00
         -2   -1    0    0    0  501 -0.00000000000E+00  0.00000000000E+00  0.30939675310E+02  0.30939675310E+02  0.00000000000E+00 0.  1.
          2   -1    0    0  501    0  0.00000000000E+00 -0.00000000000E+00 -0.58120999704E+03  0.58120999704E+03  0.00000000000E+00 0. -1.
          5    1    1    2  502    0 -0.26790420910E+02 -0.13426388262E+02 -0.11970814562E+02  0.32609583799E+02  0.47000000000E+01 0. -1.
         -5    1    1    2    0  502  0.89420594528E+02 -0.31666287674E+01 -0.23766064986E+03  0.25398965482E+03  0.47000000000E+01 0. -1.
        -11    1    1    2    0    0 -0.59072668966E+02 -0.28373898328E+02 -0.24660171895E+03  0.25516086321E+03  0.00000000000E+00 0. -1.
         11    1    1    2    0    0 -0.35575046518E+01  0.44966915357E+02 -0.54037138354E+02  0.70389570517E+02  0.00000000000E+00 0.  1.
<mgrwt>
<rscale>  0 0.26819730E+03</rscale>
<asrwt>0</asrwt>
<pdfrwt beam="2">  1        2 0.89416921E-01 0.26819730E+03</pdfrwt>
<pdfrwt beam="1">  1       -2 0.47599501E-02 0.26819730E+03</pdfrwt>
<totfact> 0.10983922E+04</totfact>
</mgrwt>
</event>
<event>
 6    1  0.7270761E-006  0.1437965E+03  0.7546771E-02  0.1221064E+00
          2   -1    0    0  501    0  0.00000000000E+00  0.00000000000E+00  0.83359862744E+02  0.83359862744E+02  0.00000000000E+00 0. -1.
         -2   -1    0    0    0  501 -0.00000000000E+00 -0.00000000000E+00 -0.34973345609E+03  0.34973345609E+03  0.00000000000E+00 0.  1.
          5    1    1    2  502    0 -0.53186174292E+02 -0.60919520618E+02 -0.18185040944E+03  0.19907691615E+03  0.47000000000E+01 0. -1.
         -5    1    1    2    0  502 -0.65287268218E+01  0.61229983144E+02 -0.10553425457E+03  0.12227552493E+03  0.47000000000E+01 0.  1.
        -11    1    1    2    0    0  0.11097358873E+02 -0.40975369346E+02  0.23089763577E+02  0.48324625700E+02  0.00000000000E+00 0.  1.
         11    1    1    2    0    0  0.48617542240E+02  0.40664906820E+02 -0.20786929084E+01  0.63416252052E+02  0.00000000000E+00 0. -1.
<mgrwt>
<rscale>  0 0.13440338E+03</rscale>
<asrwt>0</asrwt>
<pdfrwt beam="1">  1        2 0.12824594E-01 0.14379654E+03</pdfrwt>
<pdfrwt beam="2">  1       -2 0.53805147E-01 0.14379654E+03</pdfrwt>
<totfact> 0.15201906E+03</totfact>
</mgrwt>
</event>
<event>
 6    1  0.7270761E-006  0.1261855E+03  0.7546771E-02  0.1247622E+00
         -2   -1    0    0    0  501 -0.00000000000E+00  0.00000000000E+00  0.38745225120E+02  0.38745225120E+02  0.00000000000E+00 0.  1.
          2   -1    0    0  501    0  0.00000000000E+00 -0.00000000000E+00 -0.42751300827E+03  0.42751300827E+03  0.00000000000E+00 0. -1.
          5    1    1    2  502    0  0.50741584228E+02 -0.39556869103E+02 -0.24411159374E+02  0.68974263064E+02  0.47000000000E+01 0. -1.
         -5    1    1    2    0  502 -0.33489685422E+02  0.42078718719E+02 -0.71153966442E+02  0.89314917786E+02  0.47000000000E+01 0. -1.
        -11    1    1    2    0    0 -0.15109187911E+01  0.41322468699E+02 -0.83791135594E+02  0.93438662764E+02  0.00000000000E+00 0.  1.
         11    1    1    2    0    0 -0.15740980015E+02 -0.43844318315E+02 -0.20941152174E+03  0.21453038978E+03  0.00000000000E+00 0. -1.
<mgrwt>
<rscale>  0 0.11729814E+03</rscale>
<asrwt>0</asrwt>
<pdfrwt beam="2">  1        2 0.65771228E-01 0.12618546E+03</pdfrwt>
<pdfrwt beam="1">  1       -2 0.59608043E-02 0.12618546E+03</pdfrwt>
<totfact> 0.10471332E+04</totfact>
</mgrwt>
</event>
<event>
 6    1  0.7270761E-006  0.1261005E+03  0.7546771E-02  0.1248272E+00
         -1   -1    0    0    0  501 -0.00000000000E+00  0.00000000000E+00  0.85741788539E+02  0.85741788539E+02  0.00000000000E+00 0.  1.
          1   -1    0    0  501    0  0.00000000000E+00 -0.00000000000E+00 -0.16407652679E+03  0.16407652679E+03  0.00000000000E+00 0. -1.
          5    1    1    2  502    0  0.29921617302E+02  0.47251736450E+02 -0.59287911528E+00  0.56129059186E+02  0.47000000000E+01 0. -1.
         -5    1    1    2    0  502 -0.45580726930E+02 -0.52805743759E+02  0.35811519066E+01  0.70006884593E+02  0.47000000000E+01 0. -1.
        -11    1    1    2    0    0  0.31702203266E+02  0.26355320886E+02 -0.33030802751E+01  0.41358710936E+02  0.00000000000E+00 0.  1.
         11    1    1    2    0    0 -0.16043093639E+02 -0.20801313577E+02 -0.78019930770E+02  0.82323660617E+02  0.00000000000E+00 0. -1.
<mgrwt>
<rscale>  0 0.11691683E+03</rscale>
<asrwt>0</asrwt>
<pdfrwt beam="2">  1        1 0.25242542E-01 0.12610054E+03</pdfrwt>
<pdfrwt beam="1">  1       -1 0.13191045E-01 0.12610054E+03</pdfrwt>
<totfact> 0.70318997E+03</totfact>
</mgrwt>
</event>
<event>
 6    1  0.7270761E-006  0.2469072E+03  0.7546771E-02  0.1115275E+00
         -2   -1    0    0    0  501 -0.00000000000E+00  0.00000000000E+00  0.52117768249E+02  0.52117768249E+02  0.00000000000E+00 0.  1.
          2   -1    0    0  501    0  0.00000000000E+00 -0.00000000000E+00 -0.29242986070E+03  0.29242986070E+03  0.00000000000E+00 0. -1.
          5    1    1    2  502    0 -0.80561311080E+02 -0.44165680769E+02 -0.54297676675E+02  0.10682256266E+03  0.47000000000E+01 0. -1.
         -5    1    1    2    0  502  0.29613847671E+02  0.29364359094E+02 -0.44084710366E+02  0.60867045656E+02  0.47000000000E+01 0. -1.
        -11    1    1    2    0    0  0.18716900269E+02  0.32608807562E+02 -0.13402152389E+03  0.13919563769E+03  0.00000000000E+00 0. -1.
         11    1    1    2    0    0  0.32230563140E+02 -0.17807485887E+02 -0.79081815169E+01  0.37662382942E+02  0.00000000000E+00 0.  1.
<mgrwt>
<rscale>  0 0.24690720E+03</rscale>
<asrwt>0</asrwt>
<pdfrwt beam="2">  1        2 0.44989209E-01 0.24690720E+03</pdfrwt>
<pdfrwt beam="1">  1       -2 0.80181183E-02 0.24690720E+03</pdfrwt>
<totfact> 0.10435025E+04</totfact>
</mgrwt>
</event>
<event>
 6    1  0.7270761E-006  0.1345124E+03  0.7546771E-02  0.1233695E+00
          1   -1    0    0  501    0  0.00000000000E+00  0.00000000000E+00  0.93940736794E+02  0.93940736794E+02  0.00000000000E+00 0. -1.
         -1   -1    0    0    0  501 -0.00000000000E+00 -0.00000000000E+00 -0.18040820298E+03  0.18040820298E+03  0.00000000000E+00 0.  1.
          5    1    1    2  502    0  0.38013433179E+02  0.18867811873E+02 -0.67830242596E+02  0.80150154320E+02  0.47000000000E+01 0. -1.
         -5    1    1    2    0  502 -0.81926476752E+02  0.44121814841E+01 -0.35737567927E+02  0.89614054142E+02  0.47000000000E+01 0. -1.
        -11    1    1    2    0    0 -0.19301891184E+02 -0.33081808150E+02  0.13138463861E+02  0.40491829625E+02  0.00000000000E+00 0. -1.
         11    1    1    2    0    0  0.63214934757E+02  0.98018147921E+01  0.39618804779E+01  0.64092901685E+02  0.00000000000E+00 0.  1.
<mgrwt>
<rscale>  0 0.12588321E+03</rscale>
<asrwt>0</asrwt>
<pdfrwt beam="1">  1        1 0.14452421E-01 0.13451243E+03</pdfrwt>
<pdfrwt beam="2">  1       -1 0.27755108E-01 0.13451243E+03</pdfrwt>
<totfact> 0.43697830E+03</totfact>
</mgrwt>
</event>
<event>
 6    1  0.7270761E-006  0.1255470E+03  0.7546771E-02  0.1249720E+00
          1   -1    0    0  501    0  0.00000000000E+00  0.00000000000E+00  0.19471897876E+02  0.19471897876E+02  0.00000000000E+00 0. -1.
         -1   -1    0    0    0  501 -0.00000000000E+00 -0.00000000000E+00 -0.11434357761E+04  0.11434357761E+04  0.00000000000E+00 0.  1.
          5    1    1    2  502    0 -0.43035483639E+02  0.27366056674E+02 -0.87200014702E+03  0.87350289084E+03  0.47000000000E+01 0.  1.
         -5    1    1    2    0  502  0.37343438014E+02 -0.17167123024E+02 -0.13237148602E+03  0.13868504889E+03  0.47000000000E+01 0.  1.
        -11    1    1    2    0    0  0.16935421784E+02 -0.40765075952E+02 -0.25117077374E+02  0.50788458376E+02  0.00000000000E+00 0.  1.
         11    1    1    2    0    0 -0.11243376160E+02  0.30566142303E+02 -0.94475167796E+02  0.99931275849E+02  0.00000000000E+00 0. -1.
<mgrwt>
<rscale>  0 0.11607292E+03</rscale>
<asrwt>0</asrwt>
<pdfrwt beam="1">  1        1 0.29956759E-02 0.12554700E+03</pdfrwt>
<pdfrwt beam="2">  1       -1 0.17591323E+00 0.12554700E+03</pdfrwt>
<totfact> 0.81981858E+02</totfact>
</mgrwt>
</event>
<event>
 6    1  0.7270761E-006  0.3320899E+03  0.7546771E-02  0.1116906E+00
          2   -1    0    0  501    0  0.00000000000E+00  0.00000000000E+00  0.22826854496E+03  0.22826854496E+03  0.00000000000E+00 0. -1.
         -2   -1    0    0    0  501 -0.00000000000E+00 -0.00000000000E+00 -0.22133073286E+03  0.22133073286E+03  0.00000000000E+00 0.  1.
          5    1    1    2  502    0  0.28697276271E+02  0.47908086454E+02  0.13317401431E+03  0.14448573113E+03  0.47000000000E+01 0. -1.
         -5    1    1    2    0  502 -0.47753728600E+02 -0.17666026195E+02 -0.18461408329E+03  0.19156449783E+03  0.47000000000E+01 0.  1.
        -11    1    1    2    0    0  0.42069357364E+02 -0.31207131181E+01 -0.33381590877E+01  0.42316816816E+02  0.00000000000E+00 0.  1.
         11    1    1    2    0    0 -0.23012905035E+02 -0.27121347140E+02  0.61716040166E+02  0.71232232048E+02  0.00000000000E+00 0. -1.
<mgrwt>
<rscale>  0 0.24438454E+03</rscale>
<asrwt>0</asrwt>
<pdfrwt beam="1">  1        2 0.35118238E-01 0.33208986E+03</pdfrwt>
<pdfrwt beam="2">  1       -2 0.34050882E-01 0.33208986E+03</pdfrwt>
<totfact> 0.11958708E+03</totfact>
</mgrwt>
</event>
<event>
 6    1  0.7270761E-006  0.3332888E+03  0.7546771E-02  0.1083461E+00
         -2   -1    0    0    0  501 -0.00000000000E+00  0.00000000000E+00  0.24345833706E+03  0.24345833706E+03  0.00000000000E+00 0.  1.
          2   -1    0    0  501    0  0.00000000000E+00 -0.00000000000E+00 -0.36874766823E+03  0.36874766823E+03  0.00000000000E+00 0. -1.
          5    1    1    2  502    0  0.35807013746E+02  0.16914053658E+03 -0.99217107535E+02  0.19939104237E+03  0.47000000000E+01 0. -1.
         -5    1    1    2    0  502  0.14778103849E+02  0.34176152259E+02  0.13000854201E+03  0.13531708219E+03  0.47000000000E+01 0.  1.
        -11    1    1    2    0    0  0.82166536314E+01  0.71618946214E+01 -0.77930443471E+01  0.13399166827E+02  0.00000000000E+00 0.  1.
         11    1    1    2    0    0 -0.58801771227E+02 -0.21047858346E+03 -0.14828772130E+03  0.26409871390E+03  0.00000000000E+00 0. -1.
<mgrwt>
<rscale>  0 0.30358758E+03</rscale>
<asrwt>0</asrwt>
<pdfrwt beam="2">  1        2 0.56730410E-01 0.33328879E+03</pdfrwt>
<pdfrwt beam="1">  1       -2 0.37455129E-01 0.33328879E+03</pdfrwt>
<totfact> 0.59193152E+02</totfact>
</mgrwt>
</event>
<event>
 6    1  0.7270761E-006  0.3450897E+03  0.7546771E-02  0.1064649E+00
          2   -1    0    0  501    0  0.00000000000E+00  0.00000000000E+00  0.60528449959E+02  0.60528449959E+02  0.00000000000E+00 0. -1.
         -2   -1    0    0    0  501 -0.00000000000E+00 -0.00000000000E+00 -0.49186339636E+03  0.49186339636E+03  0.00000000000E+00 0.  1.
          5    1    1    2  502    0  0.55162257261E+02 -0.79641565559E+02 -0.92072450272E+02  0.13373511016E+03  0.47000000000E+01 0. -1.
         -5    1    1    2    0  502 -0.14198005695E+02  0.25346412749E+02 -0.10696904538E+03  0.11094363738E+03  0.47000000000E+01 0. -1.
        -11    1    1    2    0    0  0.71209976697E+02 -0.98985308805E+01 -0.95273538004E+02  0.11935614244E+03  0.00000000000E+00 0. -1.
         11    1    1    2    0    0 -0.11217422826E+03  0.64193683691E+02 -0.13701991274E+03  0.18835695634E+03  0.00000000000E+00 0.  1.
<mgrwt>
<rscale>  0 0.34508972E+03</rscale>
<asrwt>0</asrwt>
<pdfrwt beam="1">  1        2 0.93120688E-02 0.34508972E+03</pdfrwt>
<pdfrwt beam="2">  1       -2 0.75671295E-01 0.34508972E+03</pdfrwt>
<totfact> 0.11345603E+03</totfact>
</mgrwt>
</event>
<event>
 6    1  0.7270761E-006  0.3762809E+03  0.7546771E-02  0.1052533E+00
          1   -1    0    0  501    0  0.00000000000E+00  0.00000000000E+00  0.82550867157E+03  0.82550867157E+03  0.00000000000E+00 0. -1.
         -1   -1    0    0    0  501 -0.00000000000E+00 -0.00000000000E+00 -0.18133485999E+03  0.18133485999E+03  0.00000000000E+00 0.  1.
          5    1    1    2  502    0  0.51350824971E+02 -0.12032719109E+03  0.58899864060E+02  0.14355077195E+03  0.47000000000E+01 0. -1.
         -5    1    1    2    0  502 -0.71943616380E+02 -0.23398293450E+03  0.14087235566E+03  0.28247302201E+03  0.47000000000E+01 0. -1.
        -11    1    1    2    0    0  0.60168889459E+02  0.16403064958E+03  0.25751624617E+03  0.31119281210E+03  0.00000000000E+00 0. -1.
         11    1    1    2    0    0 -0.39576098050E+02  0.19027947600E+03  0.18688534568E+03  0.26962692550E+03  0.00000000000E+00 0.  1.
<mgrwt>
<rscale>  0 0.37570361E+03</rscale>
<asrwt>0</asrwt>
<pdfrwt beam="1">  1        1 0.12700133E+00 0.37628092E+03</pdfrwt>
<pdfrwt beam="2">  1       -1 0.27897671E-01 0.37628092E+03</pdfrwt>
<totfact> 0.25297220E+02</totfact>
</mgrwt>
</event>
<event>
 6    1  0.1925131E-005  0.1939855E+03  0.7546771E-02  0.1159643E+00
          3   -1    0    0  501    0  0.00000000000E+00  0.00000000000E+00  0.27492601263E+03  0.27492601263E+03  0.00000000000E+00 0. -1.
         -3   -1    0    0    0  501 -0.00000000000E+00 -0.00000000000E+00 -0.12298861818E+03  0.12298861818E+03  0.00000000000E+00 0.  1.
          5    1    1    2  502    0  0.58093278966E+02  0.86298165092E+02 -0.10447178855E+01  0.10414117243E+03  0.47000000000E+01 0. -1.
         -5    1    1    2    0  502 -0.35986446840E+02  0.60388256213E+02  0.76505784629E+02  0.10400476396E+03  0.47000000000E+01 0. -1.
        -11    1    1    2    0    0 -0.81150012494E-01 -0.98346540361E+02  0.20986695578E+01  0.98368963603E+02  0.00000000000E+00 0.  1.
         11    1    1    2    0    0 -0.22025682113E+02 -0.48339880944E+02  0.74377658154E+02  0.91399730824E+02  0.00000000000E+00 0. -1.
<mgrwt>
<rscale>  0 0.18869576E+03</rscale>
<asrwt>0</asrwt>
<pdfrwt beam="1">  1        3 0.42296309E-01 0.19398546E+03</pdfrwt>
<pdfrwt beam="2">  1       -3 0.18921326E-01 0.19398546E+03</pdfrwt>
<totfact> 0.33564766E+02</totfact>
</mgrwt>
</event>
<event>
 6    1  0.7270761E-006  0.1258419E+03  0.7546771E-02  0.1249318E+00
          2   -1    0    0  501    0  0.00000000000E+00  0.00000000000E+00  0.36862123401E+03  0.36862123401E+03  0.00000000000E+00 0. -1.
         -2   -1    0    0    0  501 -0.00000000000E+00 -0.00000000000E+00 -0.32921088230E+02  0.32921088230E+02  0.00000000000E+00 0.  1.
          5    1    1    2  502    0  0.44161626168E+02  0.47516881490E+02  0.50541015973E+02  0.82368607782E+02  0.47000000000E+01 0.  1.
         -5    1    1    2    0  502 -0.31725364967E+02 -0.39982140656E+02  0.11218709707E+03  0.12334141682E+03  0.47000000000E+01 0.  1.
        -11    1    1    2    0    0 -0.50922770827E+02 -0.95441200212E+01  0.11606384006E+03  0.12710245389E+03  0.00000000000E+00 0.  1.
         11    1    1    2    0    0  0.38486509627E+02  0.20093791871E+01  0.56908192676E+02  0.68729843748E+02  0.00000000000E+00 0. -1.
<mgrwt>
<rscale>  0 0.11630638E+03</rscale>
<asrwt>0</asrwt>
<pdfrwt beam="1">  1        2 0.56710956E-01 0.12584187E+03</pdfrwt>
<pdfrwt beam="2">  1       -2 0.50647831E-02 0.12584187E+03</pdfrwt>
<totfact> 0.15669125E+04</totfact>
</mgrwt>
</event>
<event>
 6    1  0.7270761E-006  0.1298516E+03  0.7546771E-02  0.1241339E+00
          1   -1    0    0  501    0  0.00000000000E+00  0.00000000000E+00  0.61862618526E+02  0.61862618526E+02  0.00000000000E+00 0. -1.
         -1   -1    0    0    0  501 -0.00000000000E+00 -0.00000000000E+00 -0.31407654079E+03  0.31407654079E+03  0.00000000000E+00 0.  1.
          5    1    1    2  502    0 -0.54895316388E+02 -0.15526564299E+01 -0.67782224449E+02  0.87363759389E+02  0.47000000000E+01 0.  1.
         -5    1    1    2    0  502  0.59675472819E+02 -0.32778266717E+02 -0.17753078724E+03  0.19019686444E+03  0.47000000000E+01 0.  1.
        -11    1    1    2    0    0 -0.30566039855E+02 -0.10028811158E+02 -0.28242130979E+02  0.42807450378E+02  0.00000000000E+00 0.  1.
         11    1    1    2    0    0  0.25785883425E+02  0.44359734304E+02  0.21341220405E+02  0.55571085106E+02  0.00000000000E+00 0. -1.
<mgrwt>
<rscale>  0 0.12107171E+03</rscale>
<asrwt>0</asrwt>
<pdfrwt beam="1">  1        1 0.95173261E-02 0.12985155E+03</pdfrwt>
<pdfrwt beam="2">  1       -1 0.48319467E-01 0.12985155E+03</pdfrwt>
<totfact> 0.28914554E+03</totfact>
</mgrwt>
</event>
<event>
 6    1  0.7270761E-006  0.1411691E+03  0.7546771E-02  0.1220705E+00
          1   -1    0    0  501    0  0.00000000000E+00  0.00000000000E+00  0.92536298180E+02  0.92536298180E+02  0.00000000000E+00 0. -1.
         -1   -1    0    0    0  501 -0.00000000000E+00 -0.00000000000E+00 -0.31501684415E+03  0.31501684415E+03  0.00000000000E+00 0.  1.
          5    1    1    2  502    0 -0.31535659057E+02 -0.14604144117E+02 -0.59435517917E+01  0.35569574434E+02  0.47000000000E+01 0.  1.
         -5    1    1    2    0  502  0.32665679771E+02 -0.50984469139E+02 -0.24440546172E+03  0.25183840542E+03  0.47000000000E+01 0.  1.
        -11    1    1    2    0    0  0.50258135619E+01  0.18072949946E+02 -0.35827106237E+02  0.40440967633E+02  0.00000000000E+00 0.  1.
         11    1    1    2    0    0 -0.61558342760E+01  0.47515663309E+02  0.63695573781E+02  0.79704194837E+02  0.00000000000E+00 0. -1.
<mgrwt>
<rscale>  0 0.13465701E+03</rscale>
<asrwt>0</asrwt>
<pdfrwt beam="1">  1        1 0.14236354E-01 0.14116911E+03</pdfrwt>
<pdfrwt beam="2">  1       -1 0.48464130E-01 0.14116911E+03</pdfrwt>
<totfact> 0.17003363E+03</totfact>
</mgrwt>
</event>
<event>
 6    1  0.7270761E-006  0.1619299E+03  0.7546771E-02  0.1211889E+00
          1   -1    0    0  501    0  0.00000000000E+00  0.00000000000E+00  0.76025115269E+03  0.76025115269E+03  0.00000000000E+00 0. -1.
         -1   -1    0    0    0  501 -0.00000000000E+00 -0.00000000000E+00 -0.21670696180E+02  0.21670696180E+02  0.00000000000E+00 0.  1.
          5    1    1    2  502    0  0.43033059937E+02 -0.15180829506E+02  0.49993379841E+03  0.50203405723E+03  0.47000000000E+01 0. -1.
         -5    1    1    2    0  502 -0.29723190346E+02 -0.11516626007E+01  0.81037586034E+01  0.31185818485E+02  0.47000000000E+01 0.  1.
        -11    1    1    2    0    0 -0.36693738048E+02  0.43507305393E+02  0.12835388155E+03  0.14040667699E+03  0.00000000000E+00 0.  1.
         11    1    1    2    0    0  0.23383868457E+02 -0.27174813286E+02  0.10218901795E+03  0.10829529616E+03  0.00000000000E+00 0. -1.
<mgrwt>
<rscale>  0 0.14107549E+03</rscale>
<asrwt>0</asrwt>
<pdfrwt beam="1">  1        1 0.11696170E+00 0.16192985E+03</pdfrwt>
<pdfrwt beam="2">  1       -1 0.33339539E-02 0.16192985E+03</pdfrwt>
<totfact> 0.78200288E+03</totfact>
</mgrwt>
</event>
<event>
 6    1  0.7270761E-006  0.1430205E+03  0.7546771E-02  0.1219719E+00
         -2   -1    0    0    0  501 -0.00000000000E+00  0.00000000000E+00  0.25593104517E+02  0.25593104517E+02  0.00000000000E+00 0.  1.
          2   -1    0    0  501    0  0.00000000000E+00 -0.00000000000E+00 -0.65404366803E+03  0.65404366803E+03  0.00000000000E+00 0. -1.
          5    1    1    2  502    0 -0.57716391994E+02 -0.90915734630E+01 -0.98353130642E+02  0.11449570699E+03  0.47000000000E+01 0. -1.
         -5    1    1    2    0  502  0.54110366562E+02 -0.60322692495E+02 -0.22042257101E+03  0.23489350526E+03  0.47000000000E+01 0. -1.
        -11    1    1    2    0    0 -0.66700171494E+01  0.89546014685E+02 -0.21675651463E+03  0.23461961663E+03  0.00000000000E+00 0.  1.
         11    1    1    2    0    0  0.10276042581E+02 -0.20131748727E+02 -0.92918347233E+02  0.95627943670E+02  0.00000000000E+00 0. -1.
<mgrwt>
<rscale>  0 0.13535557E+03</rscale>
<asrwt>0</asrwt>
<pdfrwt beam="2">  1        2 0.10062211E+00 0.14302054E+03</pdfrwt>
<pdfrwt beam="1">  1       -2 0.39374002E-02 0.14302054E+03</pdfrwt>
<totfact> 0.12262569E+04</totfact>
</mgrwt>
</event>
<event>
 6    1  0.7270761E-006  0.1282655E+03  0.7546771E-02  0.1244162E+00
          2   -1    0    0  501    0  0.00000000000E+00  0.00000000000E+00  0.31969602973E+02  0.31969602973E+02  0.00000000000E+00 0. -1.
         -2   -1    0    0    0  501 -0.00000000000E+00 -0.00000000000E+00 -0.83051186351E+03  0.83051186351E+03  0.00000000000E+00 0.  1.
          5    1    1    2  502    0  0.51565864395E+02  0.15482163979E+02 -0.33574151320E+03  0.34006350797E+03  0.47000000000E+01 0.  1.
         -5    1    1    2    0  502 -0.73745466738E+02  0.28046985096E+01 -0.40175901122E+03  0.40850783749E+03  0.47000000000E+01 0.  1.
        -11    1    1    2    0    0  0.15402618947E+02 -0.91103037932E+00  0.23070679866E+02  0.27754763848E+02  0.00000000000E+00 0. -1.
         11    1    1    2    0    0  0.67769833958E+01 -0.17375832110E+02 -0.84112415991E+02  0.86155357171E+02  0.00000000000E+00 0.  1.
<mgrwt>
<rscale>  0 0.11935667E+03</rscale>
<asrwt>0</asrwt>
<pdfrwt beam="1">  1        2 0.49184004E-02 0.12826549E+03</pdfrwt>
<pdfrwt beam="2">  1       -2 0.12777106E+00 0.12826549E+03</pdfrwt>
<totfact> 0.74328312E+02</totfact>
</mgrwt>
</event>
<event>
 6    1  0.7270761E-006  0.1304742E+03  0.7546771E-02  0.1241339E+00
         -1   -1    0    0    0  501 -0.00000000000E+00  0.00000000000E+00  0.11180625331E+03  0.11180625331E+03  0.00000000000E+00 0.  1.
          1   -1    0    0  501    0  0.00000000000E+00 -0.00000000000E+00 -0.12649493718E+03  0.12649493718E+03  0.00000000000E+00 0. -1.
          5    1    1    2  502    0 -0.22119208001E+02 -0.35061278667E+01 -0.42592657799E+02  0.48350561461E+02  0.47000000000E+01 0.  1.
         -5    1    1    2    0  502  0.27292733584E+02  0.40551331120E+02  0.69128482996E+02  0.84794698675E+02  0.47000000000E+01 0.  1.
        -11    1    1    2    0    0 -0.21571720560E+02 -0.62987171810E+00  0.21714974470E+02  0.30614963376E+02  0.00000000000E+00 0.  1.
         11    1    1    2    0    0  0.16398194976E+02 -0.36415331535E+02 -0.62939483537E+02  0.74540966973E+02  0.00000000000E+00 0. -1.
<mgrwt>
<rscale>  0 0.12107183E+03</rscale>
<asrwt>0</asrwt>
<pdfrwt beam="2">  1        1 0.19460760E-01 0.13047417E+03</pdfrwt>
<pdfrwt beam="1">  1       -1 0.17200962E-01 0.13047417E+03</pdfrwt>
<totfact> 0.64593143E+03</totfact>
</mgrwt>
</event>
<event>
 6    1  0.7270761E-006  0.1438469E+03  0.7546771E-02  0.1218479E+00
         -2   -1    0    0    0  501 -0.00000000000E+00  0.00000000000E+00  0.39041215699E+02  0.39041215699E+02  0.00000000000E+00 0.  1.
          2   -1    0    0  501    0  0.00000000000E+00 -0.00000000000E+00 -0.43155600474E+03  0.43155600474E+03  0.00000000000E+00 0. -1.
          5    1    1    2  502    0  0.58783528398E+00  0.62010249906E+02 -0.82409219388E+02  0.10324236574E+03  0.47000000000E+01 0. -1.
         -5    1    1    2    0  502 -0.68946627293E+02 -0.42148472277E+02 -0.13660842179E+03  0.15878942671E+03  0.47000000000E+01 0. -1.
        -11    1    1    2    0    0  0.90198009936E+02 -0.85451566136E+01 -0.14433536561E+03  0.17041537039E+03  0.00000000000E+00 0. -1.
         11    1    1    2    0    0 -0.21839217928E+02 -0.11316621015E+02 -0.29161782248E+02  0.38150057598E+02  0.00000000000E+00 0.  1.
<mgrwt>
<rscale>  0 0.13624059E+03</rscale>
<asrwt>0</asrwt>
<pdfrwt beam="2">  1        2 0.66393235E-01 0.14384691E+03</pdfrwt>
<pdfrwt beam="1">  1       -2 0.60063406E-02 0.14384691E+03</pdfrwt>
<totfact> 0.10343965E+04</totfact>
</mgrwt>
</event>
<event>
 6    1  0.7270761E-006  0.1768084E+03  0.7546771E-02  0.1176729E+00
          2   -1    0    0  501    0  0.00000000000E+00  0.00000000000E+00  0.15356369270E+03  0.15356369270E+03  0.00000000000E+00 0. -1.
         -2   -1    0    0    0  501 -0.00000000000E+00 -0.00000000000E+00 -0.18085308056E+03  0.18085308056E+03  0.00000000000E+00 0.  1.
          5    1    1    2  502    0  0.78126687474E+01 -0.56544718874E+02 -0.36187185863E+02  0.67749136129E+02  0.47000000000E+01 0.  1.
         -5    1    1    2    0  502 -0.11040750207E+03 -0.14947826581E+02  0.57409459566E+01  0.11166155334E+03  0.47000000000E+01 0.  1.
        -11    1    1    2    0    0  0.61331121829E+02  0.43857526654E+02 -0.43345624524E+02  0.86970295586E+02  0.00000000000E+00 0.  1.
         11    1    1    2    0    0  0.41263711495E+02  0.27635018802E+02  0.46502476565E+02  0.68035788209E+02  0.00000000000E+00 0. -1.
<mgrwt>
<rscale>  0 0.17107711E+03</rscale>
<asrwt>0</asrwt>
<pdfrwt beam="1">  1        2 0.23625184E-01 0.17680843E+03</pdfrwt>
<pdfrwt beam="2">  1       -2 0.27823551E-01 0.17680843E+03</pdfrwt>
<totfact> 0.26339878E+03</totfact>
</mgrwt>
</event>
<event>
 6    1  0.7270761E-006  0.3409642E+03  0.7546771E-02  0.1066386E+00
          2   -1    0    0  501    0  0.00000000000E+00  0.00000000000E+00  0.54688831340E+03  0.54688831340E+03  0.00000000000E+00 0.  1.
         -2   -1    0    0    0  501 -0.00000000000E+00 -0.00000000000E+00 -0.53144566154E+02  0.53144566154E+02  0.00000000000E+00 0. -1.
          5    1    1    2  502    0  0.11666221191E+03  0.42828463300E+02  0.75091448487E+02  0.14527616663E+03  0.47000000000E+01 0.  1.
         -5    1    1    2    0  502  0.89141059755E+00 -0.23943011699E+02  0.91223646960E+02  0.94434666234E+02  0.47000000000E+01 0.  1.
        -11    1    1    2    0    0 -0.54943765206E+02 -0.38380357189E+02  0.80063718000E+02  0.10441296899E+03  0.00000000000E+00 0. -1.
         11    1    1    2    0    0 -0.62609857298E+02  0.19494905587E+02  0.24736493380E+03  0.25590907770E+03  0.00000000000E+00 0.  1.
<mgrwt>
<rscale>  0 0.34096417E+03</rscale>
<asrwt>0</asrwt>
<pdfrwt beam="1">  1        2 0.84136660E-01 0.34096417E+03</pdfrwt>
<pdfrwt beam="2">  1       -2 0.81760875E-02 0.34096417E+03</pdfrwt>
<totfact> 0.51511098E+03</totfact>
</mgrwt>
</event>
<event>
 6    1  0.7270761E-006  0.1477205E+03  0.7546771E-02  0.1212975E+00
         -1   -1    0    0    0  501 -0.00000000000E+00  0.00000000000E+00  0.37421963437E+02  0.37421963437E+02  0.00000000000E+00 0.  1.
          1   -1    0    0  501    0  0.00000000000E+00 -0.00000000000E+00 -0.52527058443E+03  0.52527058443E+03  0.00000000000E+00 0. -1.
          5    1    1    2  502    0 -0.48882732882E+02 -0.37217448119E+02 -0.93403581195E+02  0.11189718048E+03  0.47000000000E+01 0. -1.
         -5    1    1    2    0  502  0.76310586277E+02 -0.36566796812E+02 -0.90477983392E+02  0.12397093081E+03  0.47000000000E+01 0. -1.
        -11    1    1    2    0    0  0.30372934946E+02  0.35781262478E+02 -0.83826913873E+02  0.96071668098E+02  0.00000000000E+00 0.  1.
         11    1    1    2    0    0 -0.57800788341E+02  0.38002982453E+02 -0.22014014253E+03  0.23075276848E+03  0.00000000000E+00 0. -1.
<mgrwt>
<rscale>  0 0.14026346E+03</rscale>
<asrwt>0</asrwt>
<pdfrwt beam="2">  1        1 0.80810859E-01 0.14772047E+03</pdfrwt>
<pdfrwt beam="1">  1       -1 0.57572251E-02 0.14772047E+03</pdfrwt>
<totfact> 0.58099118E+03</totfact>
</mgrwt>
</event>
<event>
 6    1  0.7270761E-006  0.1273858E+03  0.7546771E-02  0.1247404E+00
          3   -1    0    0  501    0  0.00000000000E+00  0.00000000000E+00  0.33064069060E+02  0.33064069060E+02  0.00000000000E+00 0.  1.
         -3   -1    0    0    0  501 -0.00000000000E+00 -0.00000000000E+00 -0.40229746151E+03  0.40229746151E+03  0.00000000000E+00 0. -1.
          5    1    1    2  502    0 -0.47518388318E+02 -0.39054733910E+02 -0.77207786160E+02  0.98825106692E+02  0.47000000000E+01 0.  1.
         -5    1    1    2    0  502  0.47805625100E+02  0.14506759393E+02 -0.20085088898E+03  0.20702413740E+03  0.47000000000E+01 0.  1.
        -11    1    1    2    0    0 -0.10000003376E+01  0.52286168525E+02 -0.86921893910E+02  0.10144091414E+03  0.00000000000E+00 0. -1.
         11    1    1    2    0    0  0.71276355513E+00 -0.27738194008E+02 -0.42528234007E+01  0.28071372349E+02  0.00000000000E+00 0.  1.
<mgrwt>
<rscale>  0 0.11742643E+03</rscale>
<asrwt>0</asrwt>
<pdfrwt beam="1">  1        3 0.50867801E-02 0.12738577E+03</pdfrwt>
<pdfrwt beam="2">  1       -3 0.61891914E-01 0.12738577E+03</pdfrwt>
<totfact> 0.13033903E+03</totfact>
</mgrwt>
</event>
<event>
 6    1  0.7270761E-006  0.1330138E+03  0.7546771E-02  0.1234304E+00
         -1   -1    0    0    0  501 -0.00000000000E+00  0.00000000000E+00  0.88550870743E+02  0.88550870743E+02  0.00000000000E+00 0.  1.
          1   -1    0    0  501    0  0.00000000000E+00 -0.00000000000E+00 -0.20893511718E+03  0.20893511718E+03  0.00000000000E+00 0. -1.
          5    1    1    2  502    0 -0.11838185033E+02  0.29234077003E+02 -0.35499392982E+02  0.47718662860E+02  0.47000000000E+01 0.  1.
         -5    1    1    2    0  502  0.47032420165E+02 -0.57983384741E+02  0.41232751017E+02  0.85418681851E+02  0.47000000000E+01 0.  1.
        -11    1    1    2    0    0 -0.64877352870E+02  0.17511378234E+02 -0.56341855349E+02  0.87693351785E+02  0.00000000000E+00 0.  1.
         11    1    1    2    0    0  0.29683117737E+02  0.11237929505E+02 -0.69775749126E+02  0.76655291430E+02  0.00000000000E+00 0. -1.
<mgrwt>
<rscale>  0 0.12549071E+03</rscale>
<asrwt>0</asrwt>
<pdfrwt beam="2">  1        1 0.32143864E-01 0.13301384E+03</pdfrwt>
<pdfrwt beam="1">  1       -1 0.13623211E-01 0.13301384E+03</pdfrwt>
<totfact> 0.49681772E+03</totfact>
</mgrwt>
</event>
<event>
 6    1  0.7270761E-006  0.1371949E+03  0.7546771E-02  0.1228927E+00
          2   -1    0    0  501    0  0.00000000000E+00  0.00000000000E+00  0.47437743544E+02  0.47437743544E+02  0.00000000000E+00 0. -1.
         -2   -1    0    0    0  501 -0.00000000000E+00 -0.00000000000E+00 -0.31845087000E+03  0.31845087000E+03  0.00000000000E+00 0.  1.
          5    1    1    2  502    0 -0.43547972465E+02  0.25983214166E+02 -0.10708335023E+03  0.11857692533E+03  0.47000000000E+01 0.  1.
         -5    1    1    2    0  502  0.74612611779E+02  0.21286048428E+02 -0.63771811424E+02  0.10054387911E+03  0.47000000000E+01 0.  1.
        -11    1    1    2    0    0  0.19427930744E+01 -0.41635657952E+02 -0.55250258576E+00  0.41684622070E+02  0.00000000000E+00 0. -1.
         11    1    1    2    0    0 -0.33007432388E+02 -0.56336046422E+01 -0.99605462216E+02  0.10508318703E+03  0.00000000000E+00 0.  1.
<mgrwt>
<rscale>  0 0.12901315E+03</rscale>
<asrwt>0</asrwt>
<pdfrwt beam="1">  1        2 0.72981145E-02 0.13719490E+03</pdfrwt>
<pdfrwt beam="2">  1       -2 0.48992441E-01 0.13719490E+03</pdfrwt>
<totfact> 0.36589476E+03</totfact>
</mgrwt>
</event>
<event>
 6    1  0.7270761E-006  0.3235019E+03  0.7546771E-02  0.1075361E+00
         -2   -1    0    0    0  501 -0.00000000000E+00  0.00000000000E+00  0.14932446538E+03  0.14932446538E+03  0.00000000000E+00 0. -1.
          2   -1    0    0  501    0  0.00000000000E+00 -0.00000000000E+00 -0.70096119828E+03  0.70096119828E+03  0.00000000000E+00 0.  1.
          5    1    1    2  502    0 -0.79573307555E+02  0.72945189178E+02 -0.31274586346E+02  0.11248600647E+03  0.47000000000E+01 0.  1.
         -5    1    1    2    0  502 -0.20767245344E+03  0.77946361827E+01 -0.16985542956E+03  0.26844284535E+03  0.47000000000E+01 0.  1.
        -11    1    1    2    0    0  0.27732691305E+03 -0.57295409701E+02 -0.29850524499E+03  0.41145882171E+03  0.00000000000E+00 0. -1.
         11    1    1    2    0    0  0.99188479398E+01 -0.23444415660E+02 -0.52001472011E+02  0.57897990133E+02  0.00000000000E+00 0.  1.
<mgrwt>
<rscale>  0 0.32062716E+03</rscale>
<asrwt>0</asrwt>
<pdfrwt beam="2">  1        2 0.10784018E+00 0.32350194E+03</pdfrwt>
<pdfrwt beam="1">  1       -2 0.22972995E-01 0.32350194E+03</pdfrwt>
<totfact> 0.69277891E+02</totfact>
</mgrwt>
</event>
<event>
 6    1  0.7270761E-006  0.1488698E+03  0.7546771E-02  0.1217984E+00
         -2   -1    0    0    0  501 -0.00000000000E+00  0.00000000000E+00  0.29019250920E+03  0.29019250920E+03  0.00000000000E+00 0.  1.
          2   -1    0    0  501    0  0.00000000000E+00 -0.00000000000E+00 -0.10307950361E+03  0.10307950361E+03  0.00000000000E+00 0. -1.
          5    1    1    2  502    0 -0.55461756620E+02  0.72059237133E+01  0.38009369673E+02  0.67784467003E+02  0.47000000000E+01 0. -1.
         -5    1    1    2    0  502  0.56850863868E+02  0.47259246596E+02  0.19636067731E+03  0.20986915615E+03  0.47000000000E+01 0.  1.
        -11    1    1    2    0    0  0.88843207076E+01 -0.40440706481E+02  0.20119954920E+02  0.46034709526E+02  0.00000000000E+00 0.  1.
         11    1    1    2    0    0 -0.10273427956E+02 -0.14024463827E+02 -0.67376996314E+02  0.69583680126E+02  0.00000000000E+00 0. -1.
<mgrwt>
<rscale>  0 0.13659607E+03</rscale>
<asrwt>0</asrwt>
<pdfrwt beam="2">  1        2 0.15858385E-01 0.14886979E+03</pdfrwt>
<pdfrwt beam="1">  1       -2 0.44645001E-01 0.14886979E+03</pdfrwt>
<totfact> 0.17123056E+03</totfact>
</mgrwt>
</event>
<event>
 6    1  0.7270761E-006  0.1470072E+03  0.7546771E-02  0.1212944E+00
         -2   -1    0    0    0  501 -0.00000000000E+00  0.00000000000E+00  0.27670968474E+03  0.27670968474E+03  0.00000000000E+00 0. -1.
          2   -1    0    0  501    0  0.00000000000E+00 -0.00000000000E+00 -0.96820665566E+02  0.96820665566E+02  0.00000000000E+00 0.  1.
          5    1    1    2  502    0  0.66890581057E+02  0.38807976938E+02  0.40793870270E+02  0.87559344217E+02  0.47000000000E+01 0. -1.
         -5    1    1    2    0  502  0.71528829743E+01 -0.16833062043E+02  0.16100270207E+03  0.16210637183E+03  0.47000000000E+01 0. -1.
        -11    1    1    2    0    0 -0.77552572474E+02 -0.50544306343E+02 -0.21703538228E+02  0.95079818955E+02  0.00000000000E+00 0. -1.
         11    1    1    2    0    0  0.35091084418E+01  0.28569391448E+02 -0.20401494533E+00  0.28784815300E+02  0.00000000000E+00 0.  1.
<mgrwt>
<rscale>  0 0.14028636E+03</rscale>
<asrwt>0</asrwt>
<pdfrwt beam="2">  1        2 0.14895487E-01 0.14700719E+03</pdfrwt>
<pdfrwt beam="1">  1       -2 0.42570720E-01 0.14700719E+03</pdfrwt>
<totfact> 0.20183385E+03</totfact>
</mgrwt>
</event>
<event>
 6    1  0.7270761E-006  0.1434631E+03  0.7546771E-02  0.1219307E+00
         -1   -1    0    0    0  501 -0.00000000000E+00  0.00000000000E+00  0.46242064106E+03  0.46242064106E+03  0.00000000000E+00 0.  1.
          1   -1    0    0  501    0  0.00000000000E+00 -0.00000000000E+00 -0.41016724969E+02  0.41016724969E+02  0.00000000000E+00 0. -1.
          5    1    1    2  502    0 -0.43575051290E+02 -0.57331934412E+02  0.20854075115E+03  0.22067412781E+03  0.47000000000E+01 0.  1.
         -5    1    1    2    0  502 -0.26721223520E+02  0.61034239116E+02  0.11014869978E+03  0.12881781008E+03  0.47000000000E+01 0.  1.
        -11    1    1    2    0    0  0.63610293305E+02 -0.41682677691E+02  0.65912914913E+02  0.10063909472E+03  0.00000000000E+00 0.  1.
         11    1    1    2    0    0  0.66859815049E+01  0.37980372987E+02  0.36801550250E+02  0.53306333412E+02  0.00000000000E+00 0. -1.
<mgrwt>
<rscale>  0 0.13564893E+03</rscale>
<asrwt>0</asrwt>
<pdfrwt beam="2">  1        1 0.63102657E-02 0.14346306E+03</pdfrwt>
<pdfrwt beam="1">  1       -1 0.71141633E-01 0.14346306E+03</pdfrwt>
<totfact> 0.24272706E+03</totfact>
</mgrwt>
</event>
<event>
 6    1  0.7270761E-006  0.1473090E+03  0.7546771E-02  0.1210013E+00
         -2   -1    0    0    0  501 -0.00000000000E+00  0.00000000000E+00  0.99603702630E+02  0.99603702630E+02  0.00000000000E+00 0.  1.
          2   -1    0    0  501    0  0.00000000000E+00 -0.00000000000E+00 -0.20328027245E+03  0.20328027245E+03  0.00000000000E+00 0. -1.
          5    1    1    2  502    0  0.53714162546E+02  0.55426744759E+02 -0.12834103052E+02  0.78384561578E+02  0.47000000000E+01 0.  1.
         -5    1    1    2    0  502 -0.66349919735E+02  0.21375282381E+02 -0.59982999837E+01  0.70123349524E+02  0.47000000000E+01 0.  1.
        -11    1    1    2    0    0  0.14288024409E+01 -0.17396181793E+02  0.24115320557E+02  0.29769402126E+02  0.00000000000E+00 0.  1.
         11    1    1    2    0    0  0.11206954749E+02 -0.59405845347E+02 -0.10895948734E+03  0.12460666185E+03  0.00000000000E+00 0. -1.
<mgrwt>
<rscale>  0 0.14249338E+03</rscale>
<asrwt>0</asrwt>
<pdfrwt beam="2">  1        2 0.31273888E-01 0.14730900E+03</pdfrwt>
<pdfrwt beam="1">  1       -2 0.15323647E-01 0.14730900E+03</pdfrwt>
<totfact> 0.53103604E+03</totfact>
</mgrwt>
</event>
<event>
 6    1  0.7270761E-006  0.1662980E+03  0.7546771E-02  0.1188295E+00
         -1   -1    0    0    0  501 -0.00000000000E+00  0.00000000000E+00  0.25599889931E+03  0.25599889931E+03  0.00000000000E+00 0.  1.
          1   -1    0    0  501    0  0.00000000000E+00 -0.00000000000E+00 -0.11581234344E+03  0.11581234344E+03  0.00000000000E+00 0. -1.
          5    1    1    2  502    0 -0.17209401006E+02  0.64379432402E+01 -0.95359770740E+01  0.21228175968E+02  0.47000000000E+01 0.  1.
         -5    1    1    2    0  502  0.11964752291E+03  0.32753725666E+02  0.16446170518E+03  0.20605358224E+03  0.47000000000E+01 0.  1.
        -11    1    1    2    0    0 -0.84276479413E+01  0.27299387799E+02 -0.45645903280E+01  0.28932979606E+02  0.00000000000E+00 0.  1.
         11    1    1    2    0    0 -0.94010473966E+02 -0.66491056705E+02 -0.10174581909E+02  0.11559650494E+03  0.00000000000E+00 0. -1.
<mgrwt>
<rscale>  0 0.16035658E+03</rscale>
<asrwt>0</asrwt>
<pdfrwt beam="2">  1        1 0.17817284E-01 0.16629797E+03</pdfrwt>
<pdfrwt beam="1">  1       -1 0.39384446E-01 0.16629797E+03</pdfrwt>
<totfact> 0.18527978E+03</totfact>
</mgrwt>
</event>
<event>
 6    1  0.7270761E-006  0.2993197E+03  0.7546771E-02  0.1087261E+00
          2   -1    0    0  501    0  0.00000000000E+00  0.00000000000E+00  0.44328735763E+03  0.44328735763E+03  0.00000000000E+00 0.  1.
         -2   -1    0    0    0  501 -0.00000000000E+00 -0.00000000000E+00 -0.23754599262E+03  0.23754599262E+03  0.00000000000E+00 0. -1.
          5    1    1    2  502    0  0.66973986619E+02  0.72412221787E+02 -0.15203204483E+02  0.99911321552E+02  0.47000000000E+01 0.  1.
         -5    1    1    2    0  502 -0.34160382658E+02  0.19757215881E+03 -0.26828184004E+02  0.20234507935E+03  0.47000000000E+01 0.  1.
        -11    1    1    2    0    0 -0.58001915087E+01 -0.15821577790E+03  0.86207486728E+02  0.18027092214E+03  0.00000000000E+00 0. -1.
         11    1    1    2    0    0 -0.27013412452E+02 -0.11176860269E+03  0.16156526677E+03  0.19830602721E+03  0.00000000000E+00 0.  1.
<mgrwt>
<rscale>  0 0.29599291E+03</rscale>
<asrwt>0</asrwt>
<pdfrwt beam="1">  1        2 0.68198055E-01 0.29931972E+03</pdfrwt>
<pdfrwt beam="2">  1       -2 0.36545537E-01 0.29931972E+03</pdfrwt>
<totfact> 0.50666570E+02</totfact>
</mgrwt>
</event>
<event>
 6    1  0.7270761E-006  0.2704068E+03  0.7546771E-02  0.1101047E+00
         -1   -1    0    0    0  501 -0.00000000000E+00  0.00000000000E+00  0.58088227881E+02  0.58088227881E+02  0.00000000000E+00 0.  1.
          1   -1    0    0  501    0  0.00000000000E+00 -0.00000000000E+00 -0.31469294364E+03  0.31469294364E+03  0.00000000000E+00 0. -1.
          5    1    1    2  502    0 -0.53102348137E+01  0.36724130272E+01  0.29389598880E+02  0.30455274314E+02  0.47000000000E+01 0. -1.
         -5    1    1    2    0  502 -0.13079624916E+02 -0.69150424549E+02 -0.11712536120E+03  0.13672343632E+03  0.47000000000E+01 0. -1.
        -11    1    1    2    0    0  0.55227780382E+02  0.56800732607E+02 -0.11998256258E+03  0.14377846249E+03  0.00000000000E+00 0.  1.
         11    1    1    2    0    0 -0.36837920652E+02  0.86772789150E+01 -0.48886390856E+02  0.61823998400E+02  0.00000000000E+00 0. -1.
<mgrwt>
<rscale>  0 0.27040677E+03</rscale>
<asrwt>0</asrwt>
<pdfrwt beam="2">  1        1 0.48414298E-01 0.27040677E+03</pdfrwt>
<pdfrwt beam="1">  1       -1 0.89366506E-02 0.27040677E+03</pdfrwt>
<totfact> 0.59391665E+03</totfact>
</mgrwt>
</event>
<event>
 6    1  0.7270761E-006  0.1315299E+03  0.7546771E-02  0.1238890E+00
          1   -1    0    0  501    0  0.00000000000E+00  0.00000000000E+00  0.27821397165E+03  0.27821397165E+03  0.00000000000E+00 0. -1.
         -1   -1    0    0    0  501 -0.00000000000E+00 -0.00000000000E+00 -0.91556026757E+02  0.91556026757E+02  0.00000000000E+00 0.  1.
          5    1    1    2  502    0  0.46415286820E+02  0.87197161093E+01 -0.16267001668E+02  0.50170884414E+02  0.47000000000E+01 0. -1.
         -5    1    1    2    0  502 -0.82632661637E+02  0.10329471021E+02 -0.10657053372E+02  0.84086369451E+02  0.47000000000E+01 0. -1.
        -11    1    1    2    0    0  0.31757179075E+02  0.31585173489E+02  0.69065307552E+02  0.82317424124E+02  0.00000000000E+00 0.  1.
         11    1    1    2    0    0  0.44601957427E+01 -0.50634360620E+02  0.14451669238E+03  0.15319532042E+03  0.00000000000E+00 0. -1.
<mgrwt>
<rscale>  0 0.12258637E+03</rscale>
<asrwt>0</asrwt>
<pdfrwt beam="1">  1        1 0.42802149E-01 0.13152987E+03</pdfrwt>
<pdfrwt beam="2">  1       -1 0.14085543E-01 0.13152987E+03</pdfrwt>
<totfact> 0.33082073E+03</totfact>
</mgrwt>
</event>
<event>
 6    1  0.7270761E-006  0.1434591E+03  0.7546771E-02  0.1219973E+00
         -1   -1    0    0    0  501 -0.00000000000E+00  0.00000000000E+00  0.39206789255E+02  0.39206789255E+02  0.00000000000E+00 0.  1.
          1   -1    0    0  501    0  0.00000000000E+00 -0.00000000000E+00 -0.45496662713E+03  0.45496662713E+03  0.00000000000E+00 0. -1.
          5    1    1    2  502    0  0.70682489214E+02 -0.26778954059E+02 -0.14743083035E+03  0.16574397847E+03  0.47000000000E+01 0.  1.
         -5    1    1    2    0  502 -0.34684326641E+02 -0.33719402017E+02 -0.14769879668E+02  0.50796062174E+02  0.47000000000E+01 0.  1.
        -11    1    1    2    0    0 -0.21382205211E+02  0.77557848130E+02 -0.13655257220E+03  0.15848982138E+03  0.00000000000E+00 0. -1.
         11    1    1    2    0    0 -0.14615957361E+02 -0.17059492054E+02 -0.11700655566E+03  0.11914355437E+03  0.00000000000E+00 0.  1.
<mgrwt>
<rscale>  0 0.13517510E+03</rscale>
<asrwt>0</asrwt>
<pdfrwt beam="2">  1        1 0.69994866E-01 0.14345912E+03</pdfrwt>
<pdfrwt beam="1">  1       -1 0.60318137E-02 0.14345912E+03</pdfrwt>
<totfact> 0.65244749E+03</totfact>
</mgrwt>
</event>
<event>
 6    1  0.7270761E-006  0.1681359E+03  0.7546771E-02  0.1207624E+00
          3   -1    0    0  501    0  0.00000000000E+00  0.00000000000E+00  0.11198590778E+03  0.11198590778E+03  0.00000000000E+00 0. -1.
         -3   -1    0    0    0  501 -0.00000000000E+00 -0.00000000000E+00 -0.15118517707E+03  0.15118517707E+03  0.00000000000E+00 0.  1.
          5    1    1    2  502    0  0.30075146079E+02 -0.10782437376E+03 -0.34716788468E+02  0.11729431099E+03  0.47000000000E+01 0. -1.
         -5    1    1    2    0  502  0.10092423407E+00  0.54303501086E+02 -0.59607243324E+00  0.54509868081E+02  0.47000000000E+01 0.  1.
        -11    1    1    2    0    0 -0.24069616450E+02  0.16116520709E+01  0.22348874756E+02  0.32884891079E+02  0.00000000000E+00 0. -1.
         11    1    1    2    0    0 -0.61064538634E+01  0.51909220603E+02 -0.26235283137E+02  0.58482014703E+02  0.00000000000E+00 0.  1.
<mgrwt>
<rscale>  0 0.14432589E+03</rscale>
<asrwt>0</asrwt>
<pdfrwt beam="1">  1        3 0.17228601E-01 0.16813589E+03</pdfrwt>
<pdfrwt beam="2">  1       -3 0.23259258E-01 0.16813589E+03</pdfrwt>
<totfact> 0.11898283E+03</totfact>
</mgrwt>
</event>
<event>
 6    1  0.7270761E-006  0.1285111E+03  0.7546771E-02  0.1243397E+00
         -1   -1    0    0    0  501 -0.00000000000E+00  0.00000000000E+00  0.18476500741E+03  0.18476500741E+03  0.00000000000E+00 0.  1.
          1   -1    0    0  501    0  0.00000000000E+00 -0.00000000000E+00 -0.72243983742E+02  0.72243983742E+02  0.00000000000E+00 0. -1.
          5    1    1    2  502    0 -0.51977016483E+01  0.16845027992E+02  0.11684237190E+03  0.11825819609E+03  0.47000000000E+01 0.  1.
         -5    1    1    2    0  502  0.29442913331E+02  0.54745144899E+00 -0.25638962645E+02  0.39327232982E+02  0.47000000000E+01 0.  1.
        -11    1    1    2    0    0 -0.43321114001E+02  0.49461409714E+01 -0.20611100406E+02  0.48228629348E+02  0.00000000000E+00 0. -1.
         11    1    1    2    0    0  0.19075902318E+02 -0.22338620412E+02  0.41928714810E+02  0.51194932726E+02  0.00000000000E+00 0.  1.
<mgrwt>
<rscale>  0 0.11981824E+03</rscale>
<asrwt>0</asrwt>
<pdfrwt beam="2">  1        1 0.11114459E-01 0.12851111E+03</pdfrwt>
<pdfrwt beam="1">  1       -1 0.28425386E-01 0.12851111E+03</pdfrwt>
<totfact> 0.59007638E+03</totfact>
</mgrwt>
</event>
<event>
 6    1  0.7270761E-006  0.1339333E+03  0.7546771E-02  0.1234110E+00
          4   -1    0    0  501    0  0.00000000000E+00  0.00000000000E+00  0.21479752384E+03  0.21479752384E+03  0.00000000000E+00 0. -1.
         -4   -1    0    0    0  501 -0.00000000000E+00 -0.00000000000E+00 -0.12303615574E+03  0.12303615574E+03  0.00000000000E+00 0.  1.
          5    1    1    2  502    0 -0.27223962365E+01  0.70741289285E+02 -0.63581128184E+01  0.71233819564E+02  0.47000000000E+01 0. -1.
         -5    1    1    2    0  502  0.35526366798E+02 -0.35554405498E+02 -0.59457670163E+02  0.77997070646E+02  0.47000000000E+01 0. -1.
        -11    1    1    2    0    0  0.23953849922E+01  0.29695226822E+02  0.47358779327E+02  0.55949962865E+02  0.00000000000E+00 0.  1.
         11    1    1    2    0    0 -0.35199355553E+02 -0.64882110610E+02  0.11021837176E+03  0.13265282651E+03  0.00000000000E+00 0. -1.
<mgrwt>
<rscale>  0 0.12561583E+03</rscale>
<asrwt>0</asrwt>
<pdfrwt beam="1">  1        4 0.33045773E-01 0.13393335E+03</pdfrwt>
<pdfrwt beam="2">  1       -4 0.18928639E-01 0.13393335E+03</pdfrwt>
<totfact> 0.36512331E+02</totfact>
</mgrwt>
</event>
<event>
 6    1  0.7270761E-006  0.2443497E+03  0.7546771E-02  0.1118973E+00
         -1   -1    0    0    0  501 -0.00000000000E+00  0.00000000000E+00  0.18671950639E+03  0.18671950639E+03  0.00000000000E+00 0.  1.
          1   -1    0    0  501    0  0.00000000000E+00 -0.00000000000E+00 -0.31233997447E+03  0.31233997447E+03  0.00000000000E+00 0. -1.
          5    1    1    2  502    0  0.70902251058E+02 -0.20625587723E+03 -0.39242303818E+02  0.22165438075E+03  0.47000000000E+01 0.  1.
         -5    1    1    2    0  502 -0.16971959665E+02  0.33432107506E+01  0.15697537972E+02  0.23827026071E+02  0.47000000000E+01 0.  1.
        -11    1    1    2    0    0  0.21549095348E+01  0.96033737236E+02 -0.91087169410E+02  0.13237822613E+03  0.00000000000E+00 0. -1.
         11    1    1    2    0    0 -0.56085200928E+02  0.10687892924E+03 -0.10988532828E+02  0.12119984791E+03  0.00000000000E+00 0.  1.
<mgrwt>
<rscale>  0 0.24123465E+03</rscale>
<asrwt>0</asrwt>
<pdfrwt beam="2">  1        1 0.48052304E-01 0.24434968E+03</pdfrwt>
<pdfrwt beam="1">  1       -1 0.28726078E-01 0.24434968E+03</pdfrwt>
<totfact> 0.91721849E+02</totfact>
</mgrwt>
</event>
<event>
 6    1  0.7270761E-006  0.1404722E+03  0.7546771E-02  0.1223300E+00
          3   -1    0    0  501    0  0.00000000000E+00  0.00000000000E+00  0.26972543797E+03  0.26972543797E+03  0.00000000000E+00 0. -1.
         -3   -1    0    0    0  501 -0.00000000000E+00 -0.00000000000E+00 -0.78255731097E+02  0.78255731097E+02  0.00000000000E+00 0.  1.
          5    1    1    2  502    0  0.95849229257E+02 -0.23719818223E+02  0.29975274473E+02  0.10329720038E+03  0.47000000000E+01 0.  1.
         -5    1    1    2    0  502 -0.36301899662E+02  0.19758964959E-01 -0.11536869238E+02  0.38379912210E+02  0.47000000000E+01 0.  1.
        -11    1    1    2    0    0 -0.13756384764E+02 -0.16240124213E+02 -0.16591490414E+01  0.21347892912E+02  0.00000000000E+00 0.  1.
         11    1    1    2    0    0 -0.45790944831E+02  0.39940183471E+02  0.17469045068E+03  0.18495616357E+03  0.00000000000E+00 0. -1.
<mgrwt>
<rscale>  0 0.13284087E+03</rscale>
<asrwt>0</asrwt>
<pdfrwt beam="1">  1        3 0.41496221E-01 0.14047217E+03</pdfrwt>
<pdfrwt beam="2">  1       -3 0.12039343E-01 0.14047217E+03</pdfrwt>
<totfact> 0.72627602E+02</totfact>
</mgrwt>
</event>
<event>
 6    1  0.7270761E-006  0.2804467E+03  0.7546771E-02  0.1095445E+00
          2   -1    0    0  501    0  0.00000000000E+00  0.00000000000E+00  0.19477633398E+02  0.19477633398E+02  0.00000000000E+00 0. -1.
         -2   -1    0    0    0  501 -0.00000000000E+00 -0.00000000000E+00 -0.10094957056E+04  0.10094957056E+04  0.00000000000E+00 0.  1.
          5    1    1    2  502    0  0.32743978282E+02  0.17896086471E+02 -0.29709559898E+03  0.29946673097E+03  0.47000000000E+01 0. -1.
         -5    1    1    2    0  502 -0.66297776367E+02 -0.74552641550E+02 -0.46340582010E+03  0.47404697617E+03  0.47000000000E+01 0. -1.
        -11    1    1    2    0    0 -0.20275109683E+02  0.53158673918E+02 -0.98123762696E+02  0.11342485394E+03  0.00000000000E+00 0.  1.
         11    1    1    2    0    0  0.53828907768E+02  0.34978811616E+01 -0.13139289044E+03  0.14203477793E+03  0.00000000000E+00 0. -1.
<mgrwt>
<rscale>  0 0.28044670E+03</rscale>
<asrwt>0</asrwt>
<pdfrwt beam="1">  1        2 0.29965581E-02 0.28044670E+03</pdfrwt>
<pdfrwt beam="2">  1       -2 0.15530708E+00 0.28044670E+03</pdfrwt>
<totfact> 0.90968685E+02</totfact>
</mgrwt>
</event>
<event>
 6    1  0.7270761E-006  0.1296459E+03  0.7546771E-02  0.1240391E+00
         -3   -1    0    0    0  501 -0.00000000000E+00  0.00000000000E+00  0.25307421113E+03  0.25307421113E+03  0.00000000000E+00 0.  1.
          3   -1    0    0  501    0  0.00000000000E+00 -0.00000000000E+00 -0.56347928922E+02  0.56347928922E+02  0.00000000000E+00 0. -1.
          5    1    1    2  502    0  0.15769230020E+02 -0.10983322909E+02 -0.17775292826E+02  0.26596109351E+02  0.47000000000E+01 0. -1.
         -5    1    1    2    0  502  0.97805311196E+01  0.33671519992E+02  0.16868906954E+03  0.17235870221E+03  0.47000000000E+01 0. -1.
        -11    1    1    2    0    0 -0.55191170569E+01 -0.41034076380E+02 -0.14862113646E+02  0.43990209132E+02  0.00000000000E+00 0. -1.
         11    1    1    2    0    0 -0.20030644083E+02  0.18345879298E+02  0.60674619144E+02  0.66477119356E+02  0.00000000000E+00 0.  1.
<mgrwt>
<rscale>  0 0.12165556E+03</rscale>
<asrwt>0</asrwt>
<pdfrwt beam="2">  1        3 0.86689123E-02 0.12964586E+03</pdfrwt>
<pdfrwt beam="1">  1       -3 0.38934493E-01 0.12964586E+03</pdfrwt>
<totfact> 0.13961489E+03</totfact>
</mgrwt>
</event>
<event>
 6    1  0.7270761E-006  0.1335655E+03  0.7546771E-02  0.1234338E+00
          2   -1    0    0  501    0  0.00000000000E+00  0.00000000000E+00  0.49003472642E+03  0.49003472642E+03  0.00000000000E+00 0. -1.
         -2   -1    0    0    0  501 -0.00000000000E+00 -0.00000000000E+00 -0.29320703903E+02  0.29320703903E+02  0.00000000000E+00 0.  1.
          5    1    1    2  502    0 -0.28376653367E+02 -0.20641608661E+02  0.21126397075E+02  0.41227722685E+02  0.47000000000E+01 0.  1.
         -5    1    1    2    0  502  0.20258807992E+02  0.66994451663E+02  0.27190984921E+03  0.28081262783E+03  0.47000000000E+01 0.  1.
        -11    1    1    2    0    0 -0.69309903527E+01  0.27620431059E+02  0.43473112659E+02  0.51969590756E+02  0.00000000000E+00 0.  1.
         11    1    1    2    0    0  0.15048835728E+02 -0.73973274061E+02  0.12420466357E+03  0.14534548904E+03  0.00000000000E+00 0. -1.
<mgrwt>
<rscale>  0 0.12546891E+03</rscale>
<asrwt>0</asrwt>
<pdfrwt beam="1">  1        2 0.75389952E-01 0.13356551E+03</pdfrwt>
<pdfrwt beam="2">  1       -2 0.45108779E-02 0.13356551E+03</pdfrwt>
<totfact> 0.13791666E+04</totfact>
</mgrwt>
</event>
<event>
 6    1  0.7270761E-006  0.1257727E+03  0.7546771E-02  0.1248360E+00
          1   -1    0    0  501    0  0.00000000000E+00  0.00000000000E+00  0.38088032091E+03  0.38088032091E+03  0.00000000000E+00 0. -1.
         -1   -1    0    0    0  501 -0.00000000000E+00 -0.00000000000E+00 -0.81497929087E+02  0.81497929087E+02  0.00000000000E+00 0.  1.
          5    1    1    2  502    0  0.42009441466E+02  0.53946092590E+02 -0.24566692382E+02  0.72805126554E+02  0.47000000000E+01 0. -1.
         -5    1    1    2    0  502 -0.35226577658E+02 -0.41715462885E+02  0.26388850878E+01  0.54864791367E+02  0.47000000000E+01 0. -1.
        -11    1    1    2    0    0 -0.29477218098E+02 -0.41470662539E+02  0.24052371411E+03  0.24584625132E+03  0.00000000000E+00 0. -1.
         11    1    1    2    0    0  0.22694354290E+02  0.29240032835E+02  0.80786485008E+02  0.88862080759E+02  0.00000000000E+00 0.  1.
<mgrwt>
<rscale>  0 0.11686512E+03</rscale>
<asrwt>0</asrwt>
<pdfrwt beam="1">  1        1 0.58596971E-01 0.12577273E+03</pdfrwt>
<pdfrwt beam="2">  1       -1 0.12538143E-01 0.12577273E+03</pdfrwt>
<totfact> 0.26781691E+03</totfact>
</mgrwt>
</event>
<event>
 6    1  0.7270761E-006  0.1290281E+03  0.7546771E-02  0.1241965E+00
          2   -1    0    0  501    0  0.00000000000E+00  0.00000000000E+00  0.36385292174E+03  0.36385292174E+03  0.00000000000E+00 0. -1.
         -2   -1    0    0    0  501 -0.00000000000E+00 -0.00000000000E+00 -0.35791942279E+02  0.35791942279E+02  0.00000000000E+00 0.  1.
          5    1    1    2  502    0  0.45202198654E+02  0.51048165594E+02  0.13683827871E+03  0.15295737476E+03  0.47000000000E+01 0. -1.
         -5    1    1    2    0  502 -0.52820324354E+02 -0.19973085882E+02  0.61197793783E+02  0.83403661721E+02  0.47000000000E+01 0. -1.
        -11    1    1    2    0    0  0.39679684685E+02 -0.38044674652E+02  0.41510168218E+02  0.68883733287E+02  0.00000000000E+00 0.  1.
         11    1    1    2    0    0 -0.32061558985E+02  0.69695949399E+01  0.88514738746E+02  0.94400094245E+02  0.00000000000E+00 0. -1.
<mgrwt>
<rscale>  0 0.12068892E+03</rscale>
<asrwt>0</asrwt>
<pdfrwt beam="1">  1        2 0.55977370E-01 0.12902811E+03</pdfrwt>
<pdfrwt beam="2">  1       -2 0.55064529E-02 0.12902811E+03</pdfrwt>
<totfact> 0.14040910E+04</totfact>
</mgrwt>
</event>
<event>
 6    1  0.7270761E-006  0.1412413E+03  0.7546771E-02  0.1223069E+00
         -2   -1    0    0    0  501 -0.00000000000E+00  0.00000000000E+00  0.58235015126E+02  0.58235015126E+02  0.00000000000E+00 0.  1.
          2   -1    0    0  501    0  0.00000000000E+00 -0.00000000000E+00 -0.28208099161E+03  0.28208099161E+03  0.00000000000E+00 0. -1.
          5    1    1    2  502    0  0.25516619101E+02 -0.57380567310E+02 -0.19820875450E+02  0.66019576330E+02  0.47000000000E+01 0. -1.
         -5    1    1    2    0  502  0.40196244539E+02  0.59723635005E+02 -0.75197913027E+02  0.10420876536E+03  0.47000000000E+01 0. -1.
        -11    1    1    2    0    0 -0.27881452819E+02 -0.41769586538E+02 -0.34009410409E+02  0.60652401166E+02  0.00000000000E+00 0.  1.
         11    1    1    2    0    0 -0.37831410821E+02  0.39426518843E+02 -0.94817777594E+02  0.10943526388E+03  0.00000000000E+00 0. -1.
<mgrwt>
<rscale>  0 0.13300152E+03</rscale>
<asrwt>0</asrwt>
<pdfrwt beam="2">  1        2 0.43397075E-01 0.14124135E+03</pdfrwt>
<pdfrwt beam="1">  1       -2 0.89592333E-02 0.14124135E+03</pdfrwt>
<totfact> 0.87881454E+03</totfact>
</mgrwt>
</event>
<event>
 6    1  0.7270761E-006  0.1340071E+03  0.7546771E-02  0.1234075E+00
         -1   -1    0    0    0  501 -0.00000000000E+00  0.00000000000E+00  0.17829574492E+02  0.17829574492E+02  0.00000000000E+00 0.  1.
          1   -1    0    0  501    0  0.00000000000E+00 -0.00000000000E+00 -0.83421109620E+03  0.83421109620E+03  0.00000000000E+00 0. -1.
          5    1    1    2  502    0  0.63356661123E+02  0.31946815792E+01 -0.26008242063E+03  0.26774844168E+03  0.47000000000E+01 0. -1.
         -5    1    1    2    0  502 -0.39289339497E+02 -0.45059120167E+02 -0.10180745627E+03  0.11815593366E+03  0.47000000000E+01 0. -1.
        -11    1    1    2    0    0  0.72113136504E+01 -0.26849879008E+02 -0.13686530816E+03  0.13966041538E+03  0.00000000000E+00 0. -1.
         11    1    1    2    0    0 -0.31278635276E+02  0.68714317596E+02 -0.31762633665E+03  0.32647587997E+03  0.00000000000E+00 0.  1.
<mgrwt>
<rscale>  0 0.12563834E+03</rscale>
<asrwt>0</asrwt>
<pdfrwt beam="2">  1        1 0.12834011E+00 0.13400710E+03</pdfrwt>
<pdfrwt beam="1">  1       -1 0.27430127E-02 0.13400710E+03</pdfrwt>
<totfact> 0.89423337E+03</totfact>
</mgrwt>
</event>
<event>
 6    1  0.7270761E-006  0.1609991E+03  0.7546771E-02  0.1195256E+00
         -2   -1    0    0    0  501 -0.00000000000E+00  0.00000000000E+00  0.30394328238E+03  0.30394328238E+03  0.00000000000E+00 0.  1.
          2   -1    0    0  501    0  0.00000000000E+00 -0.00000000000E+00 -0.77887380907E+02  0.77887380907E+02  0.00000000000E+00 0. -1.
          5    1    1    2  502    0  0.25157420991E+02 -0.42774403728E+02  0.21575353290E+02  0.54315111294E+02  0.47000000000E+01 0.  1.
         -5    1    1    2    0  502  0.72469621081E+02  0.70460182836E+02  0.15031487515E+03  0.18119915848E+03  0.47000000000E+01 0.  1.
        -11    1    1    2    0    0 -0.62963454371E+02 -0.58708052888E+02  0.19410244697E+02  0.88248454147E+02  0.00000000000E+00 0.  1.
         11    1    1    2    0    0 -0.34663587701E+02  0.31022273780E+02  0.34755428339E+02  0.58067939362E+02  0.00000000000E+00 0. -1.
<mgrwt>
<rscale>  0 0.15432612E+03</rscale>
<asrwt>0</asrwt>
<pdfrwt beam="2">  1        2 0.11982674E-01 0.16099913E+03</pdfrwt>
<pdfrwt beam="1">  1       -2 0.46760505E-01 0.16099913E+03</pdfrwt>
<totfact> 0.21900566E+03</totfact>
</mgrwt>
</event>
<event>
 6    1  0.7270761E-006  0.1386559E+03  0.7546771E-02  0.1240162E+00
          1   -1    0    0  501    0  0.00000000000E+00  0.00000000000E+00  0.30162831057E+03  0.30162831057E+03  0.00000000000E+00 0. -1.
         -1   -1    0    0    0  501 -0.00000000000E+00 -0.00000000000E+00 -0.56596277884E+02  0.56596277884E+02  0.00000000000E+00 0.  1.
          5    1    1    2  502    0 -0.17329101079E+02  0.20528332312E+02 -0.41125740276E+02  0.49347002796E+02  0.47000000000E+01 0.  1.
         -5    1    1    2    0  502 -0.20889381734E+02  0.25662366605E+02  0.92783036450E+02  0.98618989965E+02  0.47000000000E+01 0.  1.
        -11    1    1    2    0    0  0.23579278218E+01 -0.24790575973E+02  0.20040957534E+02  0.31965175732E+02  0.00000000000E+00 0.  1.
         11    1    1    2    0    0  0.35860554991E+02 -0.21400122943E+02  0.17333377898E+03  0.17829341996E+03  0.00000000000E+00 0. -1.
<mgrwt>
<rscale>  0 0.12179687E+03</rscale>
<asrwt>0</asrwt>
<pdfrwt beam="1">  1        1 0.46404354E-01 0.13865590E+03</pdfrwt>
<pdfrwt beam="2">  1       -1 0.87071199E-02 0.13865590E+03</pdfrwt>
<totfact> 0.62844309E+03</totfact>
</mgrwt>
</event>
<event>
 6    1  0.7270761E-006  0.1332409E+03  0.7546771E-02  0.1235474E+00
          1   -1    0    0  501    0  0.00000000000E+00  0.00000000000E+00  0.33105501877E+03  0.33105501877E+03  0.00000000000E+00 0. -1.
         -1   -1    0    0    0  501 -0.00000000000E+00 -0.00000000000E+00 -0.41919336653E+02  0.41919336653E+02  0.00000000000E+00 0.  1.
          5    1    1    2  502    0 -0.27139800190E+02  0.13945620779E+02 -0.11882022486E+02  0.33080531308E+02  0.47000000000E+01 0. -1.
         -5    1    1    2    0  502 -0.18451937758E+02 -0.20277206764E+02  0.17661611196E+03  0.17879312102E+03  0.47000000000E+01 0. -1.
        -11    1    1    2    0    0  0.28096995392E+02 -0.23650316440E+02  0.12073221005E+03  0.12619447358E+03  0.00000000000E+00 0. -1.
         11    1    1    2    0    0  0.17494742555E+02  0.29981902425E+02  0.36693825889E+01  0.34906229511E+02  0.00000000000E+00 0.  1.
<mgrwt>
<rscale>  0 0.12474157E+03</rscale>
<asrwt>0</asrwt>
<pdfrwt beam="1">  1        1 0.50931540E-01 0.13324085E+03</pdfrwt>
<pdfrwt beam="2">  1       -1 0.64491289E-02 0.13324085E+03</pdfrwt>
<totfact> 0.87715602E+03</totfact>
</mgrwt>
</event>
<event>
 6    1  0.7270761E-006  0.2566112E+03  0.7546771E-02  0.1109197E+00
         -2   -1    0    0    0  501 -0.00000000000E+00  0.00000000000E+00  0.44116604579E+02  0.44116604579E+02  0.00000000000E+00 0. -1.
          2   -1    0    0  501    0  0.00000000000E+00 -0.00000000000E+00 -0.37315489389E+03  0.37315489389E+03  0.00000000000E+00 0.  1.
          5    1    1    2  502    0  0.60859994730E+02  0.27160835954E+01  0.33137337190E+00  0.61102503033E+02  0.47000000000E+01 0.  1.
         -5    1    1    2    0  502 -0.27714617089E+01 -0.12463052932E+02 -0.12276242129E+03  0.12351401041E+03  0.47000000000E+01 0.  1.
        -11    1    1    2    0    0 -0.69146023440E+01  0.22805351298E+02 -0.51377240633E+01  0.24378104560E+02  0.00000000000E+00 0. -1.
         11    1    1    2    0    0 -0.51173930677E+02 -0.13058381961E+02 -0.20146951734E+03  0.20827688046E+03  0.00000000000E+00 0.  1.
<mgrwt>
<rscale>  0 0.25661120E+03</rscale>
<asrwt>0</asrwt>
<pdfrwt beam="2">  1        2 0.57408445E-01 0.25661120E+03</pdfrwt>
<pdfrwt beam="1">  1       -2 0.67871700E-02 0.25661120E+03</pdfrwt>
<totfact> 0.10416010E+04</totfact>
</mgrwt>
</event>
<event>
 6    1  0.7270761E-006  0.1701027E+03  0.7546771E-02  0.1184314E+00
          1   -1    0    0  501    0  0.00000000000E+00  0.00000000000E+00  0.63539183079E+03  0.63539183079E+03  0.00000000000E+00 0. -1.
         -1   -1    0    0    0  501 -0.00000000000E+00 -0.00000000000E+00 -0.39722285082E+02  0.39722285082E+02  0.00000000000E+00 0.  1.
          5    1    1    2  502    0  0.83474854904E+02  0.81047358210E+02  0.22898580293E+03  0.25689163789E+03  0.47000000000E+01 0. -1.
         -5    1    1    2    0  502  0.25822402592E+02 -0.44129805413E+02  0.65937600335E+02  0.83570888109E+02  0.47000000000E+01 0. -1.
        -11    1    1    2    0    0 -0.68488116348E+02 -0.35431831437E+02  0.83733825612E+02  0.11383053330E+03  0.00000000000E+00 0.  1.
         11    1    1    2    0    0 -0.40809141147E+02 -0.14857213601E+01  0.21701231683E+03  0.22082105657E+03  0.00000000000E+00 0. -1.
<mgrwt>
<rscale>  0 0.16394483E+03</rscale>
<asrwt>0</asrwt>
<pdfrwt beam="1">  1        1 0.97752582E-01 0.17010267E+03</pdfrwt>
<pdfrwt beam="2">  1       -1 0.61111212E-02 0.17010267E+03</pdfrwt>
<totfact> 0.41320981E+03</totfact>
</mgrwt>
</event>
<event>
 6    1  0.7270761E-006  0.1352665E+03  0.7546771E-02  0.1232160E+00
          1   -1    0    0  501    0  0.00000000000E+00  0.00000000000E+00  0.41052637694E+03  0.41052637694E+03  0.00000000000E+00 0. -1.
         -1   -1    0    0    0  501 -0.00000000000E+00 -0.00000000000E+00 -0.35079268897E+02  0.35079268897E+02  0.00000000000E+00 0.  1.
          5    1    1    2  502    0 -0.55932143059E+01 -0.14120630478E+02 -0.14793743353E+02  0.21716838945E+02  0.47000000000E+01 0.  1.
         -5    1    1    2    0  502  0.15474351697E+02 -0.36620884222E+02  0.22304250121E+03  0.22660669026E+03  0.47000000000E+01 0.  1.
        -11    1    1    2    0    0 -0.33375275106E+02  0.33127402017E+02  0.16038707875E+03  0.16713871120E+03  0.00000000000E+00 0. -1.
         11    1    1    2    0    0  0.23494137714E+02  0.17614112683E+02  0.68112714334E+01  0.30143405433E+02  0.00000000000E+00 0.  1.
<mgrwt>
<rscale>  0 0.12688011E+03</rscale>
<asrwt>0</asrwt>
<pdfrwt beam="1">  1        1 0.63157901E-01 0.13526651E+03</pdfrwt>
<pdfrwt beam="2">  1       -1 0.53968109E-02 0.13526651E+03</pdfrwt>
<totfact> 0.87433276E+03</totfact>
</mgrwt>
</event>
<event>
 6    1  0.7270761E-006  0.1337777E+03  0.7546771E-02  0.1233288E+00
         -2   -1    0    0    0  501 -0.00000000000E+00  0.00000000000E+00  0.42836075519E+02  0.42836075519E+02  0.00000000000E+00 0.  1.
          2   -1    0    0  501    0  0.00000000000E+00 -0.00000000000E+00 -0.33794465766E+03  0.33794465766E+03  0.00000000000E+00 0. -1.
          5    1    1    2  502    0 -0.44807259823E+01  0.41527119295E+02 -0.65375871761E+02  0.77721767547E+02  0.47000000000E+01 0.  1.
         -5    1    1    2    0  502  0.15790909018E+02 -0.87814010289E+02 -0.81310495348E+02  0.12080620789E+03  0.47000000000E+01 0.  1.
        -11    1    1    2    0    0 -0.29681653036E+02  0.59586773027E+02 -0.55706284434E+02  0.86803076974E+02  0.00000000000E+00 0.  1.
         11    1    1    2    0    0  0.18371470001E+02 -0.13299882033E+02 -0.92715930595E+02  0.95449680765E+02  0.00000000000E+00 0. -1.
<mgrwt>
<rscale>  0 0.12614688E+03</rscale>
<asrwt>0</asrwt>
<pdfrwt beam="2">  1        2 0.51991485E-01 0.13377768E+03</pdfrwt>
<pdfrwt beam="1">  1       -2 0.65901655E-02 0.13377768E+03</pdfrwt>
<totfact> 0.11600510E+04</totfact>
</mgrwt>
</event>
<event>
 6    1  0.7270761E-006  0.1411101E+03  0.7546771E-02  0.1238423E+00
         -1   -1    0    0    0  501 -0.00000000000E+00  0.00000000000E+00  0.56976538192E+02  0.56976538192E+02  0.00000000000E+00 0.  1.
          1   -1    0    0  501    0  0.00000000000E+00 -0.00000000000E+00 -0.25563156860E+03  0.25563156860E+03  0.00000000000E+00 0. -1.
          5    1    1    2  502    0  0.77183846898E+01 -0.41792730137E+02  0.30514103950E+02  0.52530051346E+02  0.47000000000E+01 0.  1.
         -5    1    1    2    0  502  0.40401757270E+02 -0.26127997347E+01 -0.93503562422E+02  0.10200066127E+03  0.47000000000E+01 0.  1.
        -11    1    1    2    0    0 -0.51446878014E+02  0.17991045045E+02 -0.92442548379E+02  0.10731301743E+03  0.00000000000E+00 0.  1.
         11    1    1    2    0    0  0.33267360537E+01  0.26414484827E+02 -0.43223023558E+02  0.50764376751E+02  0.00000000000E+00 0. -1.
<mgrwt>
<rscale>  0 0.12287803E+03</rscale>
<asrwt>0</asrwt>
<pdfrwt beam="2">  1        1 0.39327934E-01 0.14111013E+03</pdfrwt>
<pdfrwt beam="1">  1       -1 0.87656212E-02 0.14111013E+03</pdfrwt>
<totfact> 0.76428109E+03</totfact>
</mgrwt>
</event>
<event>
 6    1  0.7270761E-006  0.1290178E+03  0.7546771E-02  0.1244258E+00
          2   -1    0    0  501    0  0.00000000000E+00  0.00000000000E+00  0.11210723735E+04  0.11210723735E+04  0.00000000000E+00 0. -1.
         -2   -1    0    0    0  501 -0.00000000000E+00 -0.00000000000E+00 -0.11178785947E+02  0.11178785947E+02  0.00000000000E+00 0.  1.
          5    1    1    2  502    0 -0.23211609260E+02 -0.44868177891E+02  0.14107483084E+03  0.14992041251E+03  0.47000000000E+01 0. -1.
         -5    1    1    2    0  502 -0.54345341014E+01  0.59145813243E+02  0.53911368680E+03  0.54239599803E+03  0.47000000000E+01 0. -1.
        -11    1    1    2    0    0  0.34418021577E+02 -0.48545042823E+02  0.27884951430E+03  0.28512852017E+03  0.00000000000E+00 0.  1.
         11    1    1    2    0    0 -0.57718782148E+01  0.34267407471E+02  0.15085555558E+03  0.15480622869E+03  0.00000000000E+00 0. -1.
<mgrwt>
<rscale>  0 0.11929916E+03</rscale>
<asrwt>0</asrwt>
<pdfrwt beam="1">  1        2 0.17247258E+00 0.12901780E+03</pdfrwt>
<pdfrwt beam="2">  1       -2 0.17198141E-02 0.12901780E+03</pdfrwt>
<totfact> 0.20418880E+04</totfact>
</mgrwt>
</event>
<event>
 6    1  0.7270761E-006  0.3131640E+03  0.7546771E-02  0.1080286E+00
          1   -1    0    0  501    0  0.00000000000E+00  0.00000000000E+00  0.32031164106E+03  0.32031164106E+03  0.00000000000E+00 0. -1.
         -1   -1    0    0    0  501 -0.00000000000E+00 -0.00000000000E+00 -0.31518933456E+03  0.31518933456E+03  0.00000000000E+00 0.  1.
          5    1    1    2  502    0  0.59398252964E+02 -0.19048921266E+01 -0.55655953789E+02  0.81556460574E+02  0.47000000000E+01 0.  1.
         -5    1    1    2    0  502  0.17342209249E+03 -0.16617769132E+03 -0.22987205170E+02  0.24133120158E+03  0.47000000000E+01 0.  1.
        -11    1    1    2    0    0 -0.19541080222E+03  0.12192305844E+03  0.99880723455E+02  0.25105133483E+03  0.00000000000E+00 0. -1.
         11    1    1    2    0    0 -0.37409543237E+02  0.46159525004E+02 -0.16115257994E+02  0.61561978639E+02  0.00000000000E+00 0.  1.
<mgrwt>
<rscale>  0 0.31012447E+03</rscale>
<asrwt>0</asrwt>
<pdfrwt beam="1">  1        1 0.49278714E-01 0.31316401E+03</pdfrwt>
<pdfrwt beam="2">  1       -1 0.48490667E-01 0.31316401E+03</pdfrwt>
<totfact> 0.35192755E+02</totfact>
</mgrwt>
</event>
<event>
 6    1  0.7270761E-006  0.1993971E+03  0.7546771E-02  0.1154675E+00
          1   -1    0    0  501    0  0.00000000000E+00  0.00000000000E+00  0.94800979966E+03  0.94800979966E+03  0.00000000000E+00 0. -1.
         -1   -1    0    0    0  501 -0.00000000000E+00 -0.00000000000E+00 -0.42635179320E+02  0.42635179320E+02  0.00000000000E+00 0.  1.
          5    1    1    2  502    0 -0.12385483498E+02  0.67099014024E+02  0.23188481885E+03  0.24176090895E+03  0.47000000000E+01 0. -1.
         -5    1    1    2    0  502 -0.81800996092E+02  0.56441183592E+02  0.76638443044E+02  0.12558881765E+03  0.47000000000E+01 0. -1.
        -11    1    1    2    0    0 -0.43596481682E+01 -0.53809749734E+02  0.12334510037E+03  0.13464215345E+03  0.00000000000E+00 0. -1.
         11    1    1    2    0    0  0.98546127759E+02 -0.69730447882E+02  0.47350625807E+03  0.48865309893E+03  0.00000000000E+00 0.  1.
<mgrwt>
<rscale>  0 0.19425910E+03</rscale>
<asrwt>0</asrwt>
<pdfrwt beam="1">  1        1 0.14584765E+00 0.19939714E+03</pdfrwt>
<pdfrwt beam="2">  1       -1 0.65592591E-02 0.19939714E+03</pdfrwt>
<totfact> 0.20366778E+03</totfact>
</mgrwt>
</event>
<event>
 6    1  0.7270761E-006  0.1521711E+03  0.7546771E-02  0.1207009E+00
          2   -1    0    0  501    0  0.00000000000E+00  0.00000000000E+00  0.45709353490E+02  0.45709353490E+02  0.00000000000E+00 0.  1.
         -2   -1    0    0    0  501 -0.00000000000E+00 -0.00000000000E+00 -0.43047661992E+03  0.43047661992E+03  0.00000000000E+00 0. -1.
          5    1    1    2  502    0  0.40859857994E+02  0.23924484867E+02 -0.13200086948E+03  0.14031474803E+03  0.47000000000E+01 0. -1.
         -5    1    1    2    0  502 -0.79737185401E+02  0.53660420787E+02 -0.11681468905E+03  0.15134470943E+03  0.47000000000E+01 0. -1.
        -11    1    1    2    0    0 -0.18233238304E+02 -0.63050999098E+02 -0.76876970315E+02  0.10108386632E+03  0.00000000000E+00 0. -1.
         11    1    1    2    0    0  0.57110565711E+02 -0.14533906556E+02 -0.59074737581E+02  0.83442649622E+02  0.00000000000E+00 0.  1.
<mgrwt>
<rscale>  0 0.14480229E+03</rscale>
<asrwt>0</asrwt>
<pdfrwt beam="1">  1        2 0.70322081E-02 0.15217114E+03</pdfrwt>
<pdfrwt beam="2">  1       -2 0.66227173E-01 0.15217114E+03</pdfrwt>
<totfact> 0.20903839E+03</totfact>
</mgrwt>
</event>
<event>
 6    1  0.7270761E-006  0.1463682E+03  0.7546771E-02  0.1215060E+00
         -2   -1    0    0    0  501 -0.00000000000E+00  0.00000000000E+00  0.71442649875E+02  0.71442649875E+02  0.00000000000E+00 0.  1.
          2   -1    0    0  501    0  0.00000000000E+00 -0.00000000000E+00 -0.25875070711E+03  0.25875070711E+03  0.00000000000E+00 0. -1.
          5    1    1    2  502    0  0.25883166547E+02  0.49243590265E+02 -0.81716161770E+00  0.55835716578E+02  0.47000000000E+01 0.  1.
         -5    1    1    2    0  502  0.48334279640E+02 -0.66389085091E+02 -0.64105912983E+02  0.10428504824E+03  0.47000000000E+01 0.  1.
        -11    1    1    2    0    0 -0.91529129502E+02  0.22673515643E+02 -0.78927442555E+02  0.12296833351E+03  0.00000000000E+00 0.  1.
         11    1    1    2    0    0  0.17311683315E+02 -0.55280208161E+01 -0.43457540080E+02  0.47104258652E+02  0.00000000000E+00 0. -1.
<mgrwt>
<rscale>  0 0.13872145E+03</rscale>
<asrwt>0</asrwt>
<pdfrwt beam="2">  1        2 0.39807802E-01 0.14636821E+03</pdfrwt>
<pdfrwt beam="1">  1       -2 0.10991177E-01 0.14636821E+03</pdfrwt>
<totfact> 0.70015276E+03</totfact>
</mgrwt>
</event>
<event>
 6    1  0.7270761E-006  0.3062118E+03  0.7546771E-02  0.1082176E+00
         -2   -1    0    0    0  501 -0.00000000000E+00  0.00000000000E+00  0.12241620765E+04  0.12241620765E+04  0.00000000000E+00 0.  1.
          2   -1    0    0  501    0  0.00000000000E+00 -0.00000000000E+00 -0.19148954574E+02  0.19148954574E+02  0.00000000000E+00 0. -1.
          5    1    1    2  502    0 -0.76288507564E+02  0.19244888872E+02  0.94046142224E+03  0.94375848545E+03  0.47000000000E+01 0. -1.
         -5    1    1    2    0  502  0.31891583897E+02  0.37094120184E+01  0.94361691749E+02  0.99785027588E+02  0.47000000000E+01 0. -1.
        -11    1    1    2    0    0  0.12586722809E+02 -0.44048870257E+02  0.14947884696E+03  0.15634146683E+03  0.00000000000E+00 0.  1.
         11    1    1    2    0    0  0.31810200857E+02  0.21094569366E+02  0.20711160995E+02  0.43426051226E+02  0.00000000000E+00 0. -1.
<mgrwt>
<rscale>  0 0.30621185E+03</rscale>
<asrwt>0</asrwt>
<pdfrwt beam="2">  1        2 0.29459940E-02 0.30621185E+03</pdfrwt>
<pdfrwt beam="1">  1       -2 0.18833257E+00 0.30621185E+03</pdfrwt>
<totfact> 0.55163361E+02</totfact>
</mgrwt>
</event>
<event>
 6    1  0.7270761E-006  0.1313886E+03  0.7546771E-02  0.1238897E+00
          2   -1    0    0  501    0  0.00000000000E+00  0.00000000000E+00  0.35932262795E+03  0.35932262795E+03  0.00000000000E+00 0. -1.
         -2   -1    0    0    0  501 -0.00000000000E+00 -0.00000000000E+00 -0.45800863910E+02  0.45800863910E+02  0.00000000000E+00 0.  1.
          5    1    1    2  502    0  0.56222217178E+02 -0.98243202345E+01 -0.64665590697E+00  0.57270962418E+02  0.47000000000E+01 0. -1.
         -5    1    1    2    0  502 -0.40335445349E+02 -0.27400889025E+02  0.87343172213E+02  0.10014328037E+03  0.47000000000E+01 0. -1.
        -11    1    1    2    0    0  0.18639225013E+02  0.54174674949E+02  0.10078032795E+03  0.11592666051E+03  0.00000000000E+00 0.  1.
         11    1    1    2    0    0 -0.34525996841E+02 -0.16949465690E+02  0.12604491978E+03  0.13178258856E+03  0.00000000000E+00 0. -1.
<mgrwt>
<rscale>  0 0.12258248E+03</rscale>
<asrwt>0</asrwt>
<pdfrwt beam="1">  1        2 0.55280403E-01 0.13138858E+03</pdfrwt>
<pdfrwt beam="2">  1       -2 0.70462870E-02 0.13138858E+03</pdfrwt>
<totfact> 0.98000276E+03</totfact>
</mgrwt>
</event>
<event>
 6    1  0.7270761E-006  0.2069422E+03  0.7546771E-02  0.1147956E+00
          2   -1    0    0  501    0  0.00000000000E+00  0.00000000000E+00  0.30404429731E+03  0.30404429731E+03  0.00000000000E+00 0. -1.
         -2   -1    0    0    0  501 -0.00000000000E+00 -0.00000000000E+00 -0.14728565588E+03  0.14728565588E+03  0.00000000000E+00 0.  1.
          5    1    1    2  502    0  0.98594586648E+02 -0.22188748393E+02 -0.39097581543E+02  0.10846171654E+03  0.47000000000E+01 0.  1.
         -5    1    1    2    0  502  0.60233582616E+02  0.66617908408E+02  0.40134698478E+02  0.98483065637E+02  0.47000000000E+01 0.  1.
        -11    1    1    2    0    0  0.35602090849E+01  0.11856167674E+02 -0.12604256076E+00  0.12379809666E+02  0.00000000000E+00 0.  1.
         11    1    1    2    0    0 -0.16238837835E+03 -0.56285327689E+02  0.15584756706E+03  0.23200536135E+03  0.00000000000E+00 0. -1.
<mgrwt>
<rscale>  0 0.20212822E+03</rscale>
<asrwt>0</asrwt>
<pdfrwt beam="1">  1        2 0.46776046E-01 0.20694218E+03</pdfrwt>
<pdfrwt beam="2">  1       -2 0.22659332E-01 0.20694218E+03</pdfrwt>
<totfact> 0.18069261E+03</totfact>
</mgrwt>
</event>
<event>
 6    1  0.7270761E-006  0.2205821E+03  0.7546771E-02  0.1136824E+00
         -2   -1    0    0    0  501 -0.00000000000E+00  0.00000000000E+00  0.61923762786E+03  0.61923762786E+03  0.00000000000E+00 0.  1.
          2   -1    0    0  501    0  0.00000000000E+00 -0.00000000000E+00 -0.77244179936E+02  0.77244179936E+02  0.00000000000E+00 0. -1.
          5    1    1    2  502    0 -0.61247632813E+02  0.13444294634E+02  0.15593522130E+03  0.16813656600E+03  0.47000000000E+01 0.  1.
         -5    1    1    2    0  502 -0.16055890678E+02  0.15104227897E+03  0.21169833212E+03  0.26059515630E+03  0.47000000000E+01 0.  1.
        -11    1    1    2    0    0  0.40667877028E+02 -0.11351971186E+03  0.54244946114E+02  0.13222373229E+03  0.00000000000E+00 0. -1.
         11    1    1    2    0    0  0.36635646463E+02 -0.50966861742E+02  0.12011494839E+03  0.13552635321E+03  0.00000000000E+00 0.  1.
<mgrwt>
<rscale>  0 0.21610093E+03</rscale>
<asrwt>0</asrwt>
<pdfrwt beam="2">  1        2 0.11883720E-01 0.22058209E+03</pdfrwt>
<pdfrwt beam="1">  1       -2 0.95267324E-01 0.22058209E+03</pdfrwt>
<totfact> 0.49507535E+02</totfact>
</mgrwt>
</event>
<event>
 6    1  0.7270761E-006  0.1464558E+03  0.7546771E-02  0.1215221E+00
         -1   -1    0    0    0  501 -0.00000000000E+00  0.00000000000E+00  0.22648694044E+03  0.22648694044E+03  0.00000000000E+00 0.  1.
          1   -1    0    0  501    0  0.00000000000E+00 -0.00000000000E+00 -0.80088439535E+02  0.80088439535E+02  0.00000000000E+00 0. -1.
          5    1    1    2  502    0 -0.22374686739E+02 -0.10139406999E+03  0.65837360980E+02  0.12303671053E+03  0.47000000000E+01 0. -1.
         -5    1    1    2    0  502  0.52878216183E+01  0.27027670485E+02 -0.15349613365E+02  0.31877212233E+02  0.47000000000E+01 0. -1.
        -11    1    1    2    0    0 -0.20229721722E+02  0.77314887417E+02  0.61917764308E+02  0.10109719578E+03  0.00000000000E+00 0. -1.
         11    1    1    2    0    0  0.37316586843E+02 -0.29484879081E+01  0.33992988978E+02  0.50564261432E+02  0.00000000000E+00 0.  1.
<mgrwt>
<rscale>  0 0.13860345E+03</rscale>
<asrwt>0</asrwt>
<pdfrwt beam="2">  1        1 0.12321299E-01 0.14645583E+03</pdfrwt>
<pdfrwt beam="1">  1       -1 0.34844144E-01 0.14645583E+03</pdfrwt>
<totfact> 0.36819061E+03</totfact>
</mgrwt>
</event>
<event>
 6    1  0.7270761E-006  0.1483323E+03  0.7546771E-02  0.1212161E+00
          2   -1    0    0  501    0  0.00000000000E+00  0.00000000000E+00  0.57897862244E+02  0.57897862244E+02  0.00000000000E+00 0.  1.
         -2   -1    0    0    0  501 -0.00000000000E+00 -0.00000000000E+00 -0.31890309538E+03  0.31890309538E+03  0.00000000000E+00 0. -1.
          5    1    1    2  502    0 -0.43142089114E+02  0.24147839193E+02 -0.99874080011E+02  0.11154048525E+03  0.47000000000E+01 0. -1.
         -5    1    1    2    0  502  0.75463858605E+02  0.48874123075E+02 -0.70443569097E+02  0.11431474222E+03  0.47000000000E+01 0. -1.
        -11    1    1    2    0    0 -0.29310588578E+02 -0.85650244742E+02 -0.10006012094E+03  0.13493369790E+03  0.00000000000E+00 0. -1.
         11    1    1    2    0    0 -0.30111809129E+01  0.12628282474E+02  0.93725369125E+01  0.16012032254E+02  0.00000000000E+00 0.  1.
<mgrwt>
<rscale>  0 0.14087160E+03</rscale>
<asrwt>0</asrwt>
<pdfrwt beam="1">  1        2 0.89073633E-02 0.14833234E+03</pdfrwt>
<pdfrwt beam="2">  1       -2 0.49062015E-01 0.14833234E+03</pdfrwt>
<totfact> 0.28546908E+03</totfact>
</mgrwt>
</event>
<event>
 6    1  0.7270761E-006  0.1251932E+03  0.7546771E-02  0.1250585E+00
         -2   -1    0    0    0  501 -0.00000000000E+00  0.00000000000E+00  0.52244858228E+02  0.52244858228E+02  0.00000000000E+00 0.  1.
          2   -1    0    0  501    0  0.00000000000E+00 -0.00000000000E+00 -0.25971991643E+03  0.25971991643E+03  0.00000000000E+00 0. -1.
          5    1    1    2  502    0  0.44327477837E+02 -0.39132863085E+02 -0.45460388842E+02  0.74733146718E+02  0.47000000000E+01 0. -1.
         -5    1    1    2    0  502 -0.42369650637E+02  0.45680581237E+02 -0.14813922192E+02  0.64214056778E+02  0.47000000000E+01 0. -1.
        -11    1    1    2    0    0  0.15275026176E+02 -0.25668025331E+02 -0.72729682993E+01  0.30741991103E+02  0.00000000000E+00 0.  1.
         11    1    1    2    0    0 -0.17232853376E+02  0.19120307180E+02 -0.13992777887E+03  0.14227558006E+03  0.00000000000E+00 0. -1.
<mgrwt>
<rscale>  0 0.11557240E+03</rscale>
<asrwt>0</asrwt>
<pdfrwt beam="2">  1        2 0.39956910E-01 0.12519318E+03</pdfrwt>
<pdfrwt beam="1">  1       -2 0.80376705E-02 0.12519318E+03</pdfrwt>
<totfact> 0.11246680E+04</totfact>
</mgrwt>
</event>
<event>
 6    1  0.8516054E-006  0.3842511E+03  0.7546771E-02  0.1049374E+00
         -1   -1    0    0    0  501 -0.00000000000E+00  0.00000000000E+00  0.23728909631E+02  0.23728909631E+02  0.00000000000E+00 0.  1.
          1   -1    0    0  501    0  0.00000000000E+00 -0.00000000000E+00 -0.15555807043E+04  0.15555807043E+04  0.00000000000E+00 0. -1.
          5    1    1    2  502    0 -0.15378833513E+03 -0.63182080950E+02 -0.53822478541E+03  0.56333900718E+03  0.47000000000E+01 0.  1.
         -5    1    1    2    0  502  0.16894301602E+02 -0.15556189797E+02 -0.21760548489E+03  0.21886445468E+03  0.47000000000E+01 0.  1.
        -11    1    1    2    0    0  0.12457301301E+03  0.28151025564E+02 -0.48914061788E+03  0.50553878177E+03  0.00000000000E+00 0.  1.
         11    1    1    2    0    0  0.12321020514E+02  0.50587245183E+02 -0.28688090651E+03  0.29156737033E+03  0.00000000000E+00 0. -1.
<mgrwt>
<rscale>  0 0.38425114E+03</rscale>
<asrwt>0</asrwt>
<pdfrwt beam="2">  1        1 0.23932019E+00 0.38425114E+03</pdfrwt>
<pdfrwt beam="1">  1       -1 0.36506002E-02 0.38425114E+03</pdfrwt>
<totfact> 0.18481799E+03</totfact>
</mgrwt>
</event>
<event>
 6    1  0.7270761E-006  0.1346553E+03  0.7546771E-02  0.1232895E+00
         -4   -1    0    0    0  501 -0.00000000000E+00  0.00000000000E+00  0.17672476656E+03  0.17672476656E+03  0.00000000000E+00 0.  1.
          4   -1    0    0  501    0  0.00000000000E+00 -0.00000000000E+00 -0.81089840095E+02  0.81089840095E+02  0.00000000000E+00 0. -1.
          5    1    1    2  502    0 -0.24026093637E+02 -0.38915309132E+02  0.12486949847E+02  0.47641036688E+02  0.47000000000E+01 0.  1.
         -5    1    1    2    0  502  0.73337615287E+02  0.48043304114E+02  0.46724958124E+02  0.99457913702E+02  0.47000000000E+01 0.  1.
        -11    1    1    2    0    0 -0.54907413684E+02 -0.36545029943E+02  0.46797017575E+02  0.80872270556E+02  0.00000000000E+00 0.  1.
         11    1    1    2    0    0  0.55958920334E+01  0.27417034961E+02 -0.10373999080E+02  0.29843385710E+02  0.00000000000E+00 0. -1.
<mgrwt>
<rscale>  0 0.12640134E+03</rscale>
<asrwt>0</asrwt>
<pdfrwt beam="2">  1        4 0.12475360E-01 0.13465530E+03</pdfrwt>
<pdfrwt beam="1">  1       -4 0.27188426E-01 0.13465530E+03</pdfrwt>
<totfact> 0.10963079E+03</totfact>
</mgrwt>
</event>
<event>
 6    1  0.7270761E-006  0.1296831E+03  0.7546771E-02  0.1242485E+00
         -1   -1    0    0    0  501 -0.00000000000E+00  0.00000000000E+00  0.61761525387E+02  0.61761525387E+02  0.00000000000E+00 0.  1.
          1   -1    0    0  501    0  0.00000000000E+00 -0.00000000000E+00 -0.21437405418E+03  0.21437405418E+03  0.00000000000E+00 0. -1.
          5    1    1    2  502    0 -0.34190781926E+01 -0.56248532411E+02 -0.70138352226E+02  0.90094760930E+02  0.47000000000E+01 0.  1.
         -5    1    1    2    0  502 -0.28781300153E+02  0.43748029331E+02  0.88919774089E+01  0.53323639890E+02  0.47000000000E+01 0.  1.
        -11    1    1    2    0    0 -0.15243869433E+02 -0.84138466985E+01 -0.76957888229E+02  0.78903009652E+02  0.00000000000E+00 0. -1.
         11    1    1    2    0    0  0.47444247779E+02  0.20914349778E+02 -0.14408265751E+02  0.53814169099E+02  0.00000000000E+00 0.  1.
<mgrwt>
<rscale>  0 0.12037177E+03</rscale>
<asrwt>0</asrwt>
<pdfrwt beam="2">  1        1 0.32980623E-01 0.12968315E+03</pdfrwt>
<pdfrwt beam="1">  1       -1 0.95017733E-02 0.12968315E+03</pdfrwt>
<totfact> 0.83578024E+03</totfact>
</mgrwt>
</event>
<event>
 6    1  0.7270761E-006  0.1856237E+03  0.7546771E-02  0.1167267E+00
         -2   -1    0    0    0  501 -0.00000000000E+00  0.00000000000E+00  0.49208927348E+03  0.49208927348E+03  0.00000000000E+00 0.  1.
          2   -1    0    0  501    0  0.00000000000E+00 -0.00000000000E+00 -0.62980904853E+02  0.62980904853E+02  0.00000000000E+00 0. -1.
          5    1    1    2  502    0  0.72136801617E+02 -0.13750681392E+02  0.98675302241E+02  0.12309226076E+03  0.47000000000E+01 0.  1.
         -5    1    1    2    0  502 -0.14584620764E+02 -0.11090557732E+03  0.13924892552E+03  0.17867599587E+03  0.47000000000E+01 0.  1.
        -11    1    1    2    0    0 -0.75231370935E+02  0.57919752483E+02  0.90096938292E+02  0.13088894220E+03  0.00000000000E+00 0.  1.
         11    1    1    2    0    0  0.17679190083E+02  0.66736506230E+02  0.10108720257E+03  0.12241297950E+03  0.00000000000E+00 0. -1.
<mgrwt>
<rscale>  0 0.18055489E+03</rscale>
<asrwt>0</asrwt>
<pdfrwt beam="2">  1        2 0.96893703E-02 0.18562366E+03</pdfrwt>
<pdfrwt beam="1">  1       -2 0.75706040E-01 0.18562366E+03</pdfrwt>
<totfact> 0.10584729E+03</totfact>
</mgrwt>
</event>
<event>
 6    1  0.7270761E-006  0.3324205E+03  0.7546771E-02  0.1070071E+00
         -2   -1    0    0    0  501 -0.00000000000E+00  0.00000000000E+00  0.81483575856E+03  0.81483575856E+03  0.00000000000E+00 0.  1.
          2   -1    0    0  501    0  0.00000000000E+00 -0.00000000000E+00 -0.33903575377E+02  0.33903575377E+02  0.00000000000E+00 0. -1.
          5    1    1    2  502    0 -0.69052023840E+01  0.11509581471E+03  0.41094200003E+03  0.42683737626E+03  0.47000000000E+01 0. -1.
         -5    1    1    2    0  502  0.19874433252E+02 -0.26135412568E+02  0.22750405233E+03  0.22990919232E+03  0.47000000000E+01 0. -1.
        -11    1    1    2    0    0  0.30667963114E+02 -0.37878484238E+02  0.10329186634E+03  0.11421257891E+03  0.00000000000E+00 0.  1.
         11    1    1    2    0    0 -0.43637193982E+02 -0.51081917906E+02  0.39194264492E+02  0.77780186453E+02  0.00000000000E+00 0. -1.
<mgrwt>
<rscale>  0 0.33242049E+03</rscale>
<asrwt>0</asrwt>
<pdfrwt beam="2">  1        2 0.52159353E-02 0.33242049E+03</pdfrwt>
<pdfrwt beam="1">  1       -2 0.12535933E+00 0.33242049E+03</pdfrwt>
<totfact> 0.74476640E+02</totfact>
</mgrwt>
</event>
<event>
 6    1  0.7270761E-006  0.1323042E+03  0.7546771E-02  0.1233836E+00
         -2   -1    0    0    0  501 -0.00000000000E+00  0.00000000000E+00  0.16608891073E+02  0.16608891073E+02  0.00000000000E+00 0.  1.
          2   -1    0    0  501    0  0.00000000000E+00 -0.00000000000E+00 -0.87311687213E+03  0.87311687213E+03  0.00000000000E+00 0. -1.
          5    1    1    2  502    0 -0.59752979646E+01  0.69676118709E+02 -0.12756048154E+03  0.14554804071E+03  0.47000000000E+01 0. -1.
         -5    1    1    2    0  502  0.91703545984E+01 -0.26435535612E+02 -0.31739747627E+03  0.31866311504E+03  0.47000000000E+01 0. -1.
        -11    1    1    2    0    0 -0.26912725314E+02  0.23501322708E+02 -0.17395157398E+03  0.17758309898E+03  0.00000000000E+00 0.  1.
         11    1    1    2    0    0  0.23717668680E+02 -0.66741905804E+02 -0.23759844927E+03  0.24793150847E+03  0.00000000000E+00 0. -1.
<mgrwt>
<rscale>  0 0.12579220E+03</rscale>
<asrwt>0</asrwt>
<pdfrwt beam="2">  1        2 0.13432572E+00 0.13230424E+03</pdfrwt>
<pdfrwt beam="1">  1       -2 0.25552131E-02 0.13230424E+03</pdfrwt>
<totfact> 0.16206184E+04</totfact>
</mgrwt>
</event>
<event>
 6    1  0.7270761E-006  0.1870304E+03  0.7546771E-02  0.1166444E+00
         -1   -1    0    0    0  501 -0.00000000000E+00  0.00000000000E+00  0.30300572767E+02  0.30300572767E+02  0.00000000000E+00 0.  1.
          1   -1    0    0  501    0  0.00000000000E+00 -0.00000000000E+00 -0.10399629559E+04  0.10399629559E+04  0.00000000000E+00 0. -1.
          5    1    1    2  502    0 -0.77268163412E+02  0.90493162984E+02 -0.55926455496E+03  0.57180268805E+03  0.47000000000E+01 0.  1.
         -5    1    1    2    0  502  0.16481518460E+02  0.34649517510E+02 -0.38579774696E+02  0.54614270388E+02  0.47000000000E+01 0.  1.
        -11    1    1    2    0    0  0.25790223475E+02 -0.93694653789E+02 -0.15641034620E+03  0.18414130491E+03  0.00000000000E+00 0.  1.
         11    1    1    2    0    0  0.34996421477E+02 -0.31448026705E+02 -0.25540770732E+03  0.25970526536E+03  0.00000000000E+00 0. -1.
<mgrwt>
<rscale>  0 0.18141123E+03</rscale>
<asrwt>0</asrwt>
<pdfrwt beam="2">  1        1 0.15999429E+00 0.18703038E+03</pdfrwt>
<pdfrwt beam="1">  1       -1 0.46616269E-02 0.18703038E+03</pdfrwt>
<totfact> 0.28992051E+03</totfact>
</mgrwt>
</event>
<event>
 6    1  0.7270761E-006  0.1566236E+03  0.7546771E-02  0.1201132E+00
         -1   -1    0    0    0  501 -0.00000000000E+00  0.00000000000E+00  0.11128765159E+03  0.11128765159E+03  0.00000000000E+00 0.  1.
          1   -1    0    0  501    0  0.00000000000E+00 -0.00000000000E+00 -0.26101360812E+03  0.26101360812E+03  0.00000000000E+00 0. -1.
          5    1    1    2  502    0 -0.40559222772E+02 -0.93541459667E+02  0.33403588129E+02  0.10739154961E+03  0.47000000000E+01 0.  1.
         -5    1    1    2    0  502  0.48759140023E+02 -0.46723472009E+00 -0.12667753600E+02  0.50598755176E+02  0.47000000000E+01 0.  1.
        -11    1    1    2    0    0 -0.73365844919E+01 -0.17161863749E+02 -0.22386817144E+02  0.29146605655E+02  0.00000000000E+00 0.  1.
         11    1    1    2    0    0 -0.86333275963E+00  0.11117055814E+03 -0.14807497392E+03  0.18516434927E+03  0.00000000000E+00 0. -1.
<mgrwt>
<rscale>  0 0.14946471E+03</rscale>
<asrwt>0</asrwt>
<pdfrwt beam="2">  1        1 0.40155939E-01 0.15662363E+03</pdfrwt>
<pdfrwt beam="1">  1       -1 0.17121178E-01 0.15662363E+03</pdfrwt>
<totfact> 0.26535288E+03</totfact>
</mgrwt>
</event>
<event>
 6    1  0.7270761E-006  0.1351908E+03  0.7546771E-02  0.1232779E+00
          1   -1    0    0  501    0  0.00000000000E+00  0.00000000000E+00  0.22406030573E+03  0.22406030573E+03  0.00000000000E+00 0. -1.
         -1   -1    0    0    0  501 -0.00000000000E+00 -0.00000000000E+00 -0.63669770073E+02  0.63669770073E+02  0.00000000000E+00 0.  1.
          5    1    1    2  502    0  0.51838401265E+00 -0.67803088330E+02  0.61664914651E+02  0.91772431634E+02  0.47000000000E+01 0. -1.
         -5    1    1    2    0  502  0.45487051696E+02  0.44801706778E+02  0.24520318205E+02  0.68553634528E+02  0.47000000000E+01 0. -1.
        -11    1    1    2    0    0 -0.21471830159E+02  0.47606026163E+02  0.76450659385E+02  0.92585509329E+02  0.00000000000E+00 0. -1.
         11    1    1    2    0    0 -0.24533605549E+02 -0.24604644611E+02 -0.22453565857E+01  0.34818500310E+02  0.00000000000E+00 0.  1.
<mgrwt>
<rscale>  0 0.12647708E+03</rscale>
<asrwt>0</asrwt>
<pdfrwt beam="1">  1        1 0.34470816E-01 0.13519080E+03</pdfrwt>
<pdfrwt beam="2">  1       -1 0.97953493E-02 0.13519080E+03</pdfrwt>
<totfact> 0.75773069E+03</totfact>
</mgrwt>
</event>
<event>
 6    1  0.7270761E-006  0.1672986E+03  0.7546771E-02  0.1187646E+00
         -2   -1    0    0    0  501 -0.00000000000E+00  0.00000000000E+00  0.50750397664E+02  0.50750397664E+02  0.00000000000E+00 0.  1.
          2   -1    0    0  501    0  0.00000000000E+00 -0.00000000000E+00 -0.47779498555E+03  0.47779498555E+03  0.00000000000E+00 0. -1.
          5    1    1    2  502    0  0.17119766539E+02 -0.10529262797E+02 -0.12425706984E+03  0.12595976019E+03  0.47000000000E+01 0.  1.
         -5    1    1    2    0  502  0.37157030801E+02  0.10756148544E+03 -0.85901617177E+02  0.14265796831E+03  0.47000000000E+01 0.  1.
        -11    1    1    2    0    0  0.51640324906E+00 -0.26931416550E+02 -0.16040165185E+01  0.26984083062E+02  0.00000000000E+00 0.  1.
         11    1    1    2    0    0 -0.54793200589E+02 -0.70100806095E+02 -0.21528188435E+03  0.23294357166E+03  0.00000000000E+00 0. -1.
<mgrwt>
<rscale>  0 0.16093444E+03</rscale>
<asrwt>0</asrwt>
<pdfrwt beam="2">  1        2 0.73506924E-01 0.16729857E+03</pdfrwt>
<pdfrwt beam="1">  1       -2 0.78077532E-02 0.16729857E+03</pdfrwt>
<totfact> 0.62503887E+03</totfact>
</mgrwt>
</event>
<event>
 6    1  0.7270761E-006  0.1252264E+03  0.7546771E-02  0.1249648E+00
         -1   -1    0    0    0  501 -0.00000000000E+00  0.00000000000E+00  0.47948050671E+03  0.47948050671E+03  0.00000000000E+00 0.  1.
          1   -1    0    0  501    0  0.00000000000E+00 -0.00000000000E+00 -0.24810892954E+02  0.24810892954E+02  0.00000000000E+00 0. -1.
          5    1    1    2  502    0 -0.16478476743E+02  0.55579755246E+02  0.96925704021E+02  0.11303685898E+03  0.47000000000E+01 0. -1.
         -5    1    1    2    0  502  0.23223514383E+02 -0.59118696009E+02  0.17844424761E+03  0.18946976366E+03  0.47000000000E+01 0. -1.
        -11    1    1    2    0    0 -0.29226546849E+02  0.28119780593E+02  0.15586720694E+03  0.16105744100E+03  0.00000000000E+00 0.  1.
         11    1    1    2    0    0  0.22481509209E+02 -0.24580839830E+02  0.23432455184E+02  0.40727336017E+02  0.00000000000E+00 0. -1.
<mgrwt>
<rscale>  0 0.11611449E+03</rscale>
<asrwt>0</asrwt>
<pdfrwt beam="2">  1        1 0.38170608E-02 0.12522638E+03</pdfrwt>
<pdfrwt beam="1">  1       -1 0.73766225E-01 0.12522638E+03</pdfrwt>
<totfact> 0.44534836E+03</totfact>
</mgrwt>
</event>
<event>
 6    1  0.7270761E-006  0.1382271E+03  0.7546771E-02  0.1227753E+00
         -3   -1    0    0    0  501 -0.00000000000E+00  0.00000000000E+00  0.42100793343E+03  0.42100793343E+03  0.00000000000E+00 0.  1.
          3   -1    0    0  501    0  0.00000000000E+00 -0.00000000000E+00 -0.37788819696E+02  0.37788819696E+02  0.00000000000E+00 0. -1.
          5    1    1    2  502    0  0.37587089004E+01 -0.85770811232E+02  0.19176931664E+03  0.21016260551E+03  0.47000000000E+01 0. -1.
         -5    1    1    2    0  502  0.31713771173E+02  0.38614307967E+02  0.74176281911E+02  0.89560252679E+02  0.47000000000E+01 0. -1.
        -11    1    1    2    0    0 -0.56501091529E+02  0.31695310995E+02  0.36872183300E+02  0.74542095385E+02  0.00000000000E+00 0. -1.
         11    1    1    2    0    0  0.21028611456E+02  0.15461192270E+02  0.80401331882E+02  0.84531799547E+02  0.00000000000E+00 0.  1.
<mgrwt>
<rscale>  0 0.12979990E+03</rscale>
<asrwt>0</asrwt>
<pdfrwt beam="2">  1        3 0.58136649E-02 0.13822710E+03</pdfrwt>
<pdfrwt beam="1">  1       -3 0.64770448E-01 0.13822710E+03</pdfrwt>
<totfact> 0.97206982E+02</totfact>
</mgrwt>
</event>
<event>
 6    1  0.7270761E-006  0.1272728E+03  0.7546771E-02  0.1239779E+00
         -1   -1    0    0    0  501 -0.00000000000E+00  0.00000000000E+00  0.12329341528E+03  0.12329341528E+03  0.00000000000E+00 0. -1.
          1   -1    0    0  501    0  0.00000000000E+00 -0.00000000000E+00 -0.12116363897E+03  0.12116363897E+03  0.00000000000E+00 0.  1.
          5    1    1    2  502    0 -0.17917395834E+02 -0.72463287770E+02  0.47920796480E+02  0.88828226838E+02  0.47000000000E+01 0. -1.
         -5    1    1    2    0  502 -0.23367361390E+02  0.33560251379E+02 -0.12966522846E+02  0.43157209892E+02  0.47000000000E+01 0.  1.
        -11    1    1    2    0    0 -0.13432355206E+02  0.29798968064E+02  0.17934176149E+02  0.37283258150E+02  0.00000000000E+00 0. -1.
         11    1    1    2    0    0  0.54717112430E+02  0.91040683261E+01 -0.50758673469E+02  0.75188359372E+02  0.00000000000E+00 0.  1.
<mgrwt>
<rscale>  0 0.12203365E+03</rscale>
<asrwt>0</asrwt>
<pdfrwt beam="2">  1        1 0.18640560E-01 0.12727276E+03</pdfrwt>
<pdfrwt beam="1">  1       -1 0.18968218E-01 0.12727276E+03</pdfrwt>
<totfact> 0.58311596E+03</totfact>
</mgrwt>
</event>
<event>
 6    1  0.7270761E-006  0.1497817E+03  0.7546771E-02  0.1209661E+00
         -1   -1    0    0    0  501 -0.00000000000E+00  0.00000000000E+00  0.25038308103E+02  0.25038308103E+02  0.00000000000E+00 0.  1.
          1   -1    0    0  501    0  0.00000000000E+00 -0.00000000000E+00 -0.76481387777E+03  0.76481387777E+03  0.00000000000E+00 0. -1.
          5    1    1    2  502    0 -0.59278637527E+02 -0.43244681021E+02 -0.75403970630E+02  0.10531812802E+03  0.47000000000E+01 0.  1.
         -5    1    1    2    0  502  0.11278607085E+02 -0.23889426025E+02 -0.26786682442E+03  0.26920742427E+03  0.47000000000E+01 0.  1.
        -11    1    1    2    0    0  0.97811607732E+01 -0.20375902378E+02 -0.13612701306E+03  0.13799062355E+03  0.00000000000E+00 0. -1.
         11    1    1    2    0    0  0.38218869669E+02  0.87510009424E+02 -0.26037776156E+03  0.27733601004E+03  0.00000000000E+00 0.  1.
<mgrwt>
<rscale>  0 0.14276116E+03</rscale>
<asrwt>0</asrwt>
<pdfrwt beam="2">  1        1 0.11766369E+00 0.14978168E+03</pdfrwt>
<pdfrwt beam="1">  1       -1 0.38520470E-02 0.14978168E+03</pdfrwt>
<totfact> 0.62444649E+03</totfact>
</mgrwt>
</event>
<event>
 6    1  0.7270761E-006  0.2474134E+03  0.7546771E-02  0.1117372E+00
          1   -1    0    0  501    0  0.00000000000E+00  0.00000000000E+00  0.13614673594E+04  0.13614673594E+04  0.00000000000E+00 0. -1.
         -1   -1    0    0    0  501 -0.00000000000E+00 -0.00000000000E+00 -0.43999649281E+02  0.43999649281E+02  0.00000000000E+00 0.  1.
          5    1    1    2  502    0 -0.19008774283E+03  0.12402731421E+03  0.70566428750E+03  0.74128287535E+03  0.47000000000E+01 0. -1.
         -5    1    1    2    0  502  0.14902445490E+02 -0.18490537870E+01  0.10877871395E+03  0.10991087522E+03  0.47000000000E+01 0. -1.
        -11    1    1    2    0    0  0.10250688876E+03 -0.10762172515E+03  0.25231485273E+03  0.29283593167E+03  0.00000000000E+00 0.  1.
         11    1    1    2    0    0  0.72678408582E+02 -0.14556535276E+02  0.25070985594E+03  0.26143732644E+03  0.00000000000E+00 0. -1.
<mgrwt>
<rscale>  0 0.24367014E+03</rscale>
<asrwt>0</asrwt>
<pdfrwt beam="1">  1        1 0.20945648E+00 0.24741342E+03</pdfrwt>
<pdfrwt beam="2">  1       -1 0.67691779E-02 0.24741342E+03</pdfrwt>
<totfact> 0.98780232E+02</totfact>
</mgrwt>
</event>
<event>
 6    1  0.7270761E-006  0.1284595E+03  0.7546771E-02  0.1253236E+00
         -1   -1    0    0    0  501 -0.00000000000E+00  0.00000000000E+00  0.19059021450E+03  0.19059021450E+03  0.00000000000E+00 0.  1.
          1   -1    0    0  501    0  0.00000000000E+00 -0.00000000000E+00 -0.56914050361E+02  0.56914050361E+02  0.00000000000E+00 0. -1.
          5    1    1    2  502    0 -0.39671187818E+02  0.20180808904E+02  0.10293385827E+03  0.11224320634E+03  0.47000000000E+01 0. -1.
         -5    1    1    2    0  502  0.13041958909E+02 -0.33115858526E+02 -0.19577042591E+02  0.40891360637E+02  0.47000000000E+01 0. -1.
        -11    1    1    2    0    0 -0.17847090561E+02 -0.13603454495E+02  0.32706319793E+02  0.39664542984E+02  0.00000000000E+00 0.  1.
         11    1    1    2    0    0  0.44476319470E+02  0.26538504118E+02  0.17613028673E+02  0.54705154907E+02  0.00000000000E+00 0. -1.
<mgrwt>
<rscale>  0 0.11405721E+03</rscale>
<asrwt>0</asrwt>
<pdfrwt beam="2">  1        1 0.87560078E-02 0.12845948E+03</pdfrwt>
<pdfrwt beam="1">  1       -1 0.29321571E-01 0.12845948E+03</pdfrwt>
<totfact> 0.76840619E+03</totfact>
</mgrwt>
</event>
<event>
 6    1  0.7270761E-006  0.2413866E+03  0.7546771E-02  0.1118873E+00
          2   -1    0    0  501    0  0.00000000000E+00  0.00000000000E+00  0.17723787231E+03  0.17723787231E+03  0.00000000000E+00 0. -1.
         -2   -1    0    0    0  501 -0.00000000000E+00 -0.00000000000E+00 -0.82188260751E+02  0.82188260751E+02  0.00000000000E+00 0.  1.
          5    1    1    2  502    0  0.45361523485E+02  0.37384512410E+02 -0.34098285394E+02  0.68117931911E+02  0.47000000000E+01 0. -1.
         -5    1    1    2    0  502 -0.10491399584E+02 -0.27449058979E+02  0.48731610971E+02  0.57099739158E+02  0.47000000000E+01 0.  1.
        -11    1    1    2    0    0 -0.26617516387E+02  0.40644785934E+02  0.14478278941E+02  0.50696265773E+02  0.00000000000E+00 0.  1.
         11    1    1    2    0    0 -0.82526075135E+01 -0.50580239365E+02  0.65938007042E+02  0.83512196221E+02  0.00000000000E+00 0. -1.
<mgrwt>
<rscale>  0 0.24138660E+03</rscale>
<asrwt>0</asrwt>
<pdfrwt beam="1">  1        2 0.27267365E-01 0.24138660E+03</pdfrwt>
<pdfrwt beam="2">  1       -2 0.12644348E-01 0.24138660E+03</pdfrwt>
<totfact> 0.87057450E+03</totfact>
</mgrwt>
</event>
<event>
 6    1  0.7270761E-006  0.1489953E+03  0.7546771E-02  0.1211354E+00
         -2   -1    0    0    0  501 -0.00000000000E+00  0.00000000000E+00  0.38481151700E+03  0.38481151700E+03  0.00000000000E+00 0.  1.
          2   -1    0    0  501    0  0.00000000000E+00 -0.00000000000E+00 -0.90475166960E+02  0.90475166960E+02  0.00000000000E+00 0. -1.
          5    1    1    2  502    0 -0.47166213363E+02 -0.12908077952E+02  0.45503066110E+02  0.66961848726E+02  0.47000000000E+01 0.  1.
         -5    1    1    2    0  502  0.23486601677E+01  0.80470702770E+02  0.27312998423E+03  0.28478611008E+03  0.47000000000E+01 0.  1.
        -11    1    1    2    0    0  0.25623590498E+02 -0.50938559480E+02  0.29390775872E+02  0.64149223988E+02  0.00000000000E+00 0.  1.
         11    1    1    2    0    0  0.19193962697E+02 -0.16624065338E+02 -0.53687476166E+02  0.59389501172E+02  0.00000000000E+00 0. -1.
<mgrwt>
<rscale>  0 0.14147794E+03</rscale>
<asrwt>0</asrwt>
<pdfrwt beam="2">  1        2 0.13919257E-01 0.14899532E+03</pdfrwt>
<pdfrwt beam="1">  1       -2 0.59201771E-01 0.14899532E+03</pdfrwt>
<totfact> 0.11373586E+03</totfact>
</mgrwt>
</event>
<event>
 6    1  0.7270761E-006  0.2516847E+03  0.7546771E-02  0.1112245E+00
         -2   -1    0    0    0  501 -0.00000000000E+00  0.00000000000E+00  0.18685521086E+03  0.18685521086E+03  0.00000000000E+00 0.  1.
          2   -1    0    0  501    0  0.00000000000E+00 -0.00000000000E+00 -0.84751676339E+02  0.84751676339E+02  0.00000000000E+00 0. -1.
          5    1    1    2  502    0 -0.15870555532E+01  0.73271586675E+01  0.93117910477E+02  0.93537378897E+02  0.47000000000E+01 0. -1.
         -5    1    1    2    0  502 -0.25597549363E+02 -0.88254265154E+01 -0.37056958085E+02  0.46134919845E+02  0.47000000000E+01 0. -1.
        -11    1    1    2    0    0 -0.52435844634E+01 -0.55647643609E+02  0.33120748018E+02  0.64970296032E+02  0.00000000000E+00 0.  1.
         11    1    1    2    0    0  0.32428189379E+02  0.57145911456E+02  0.12921834108E+02  0.66964292420E+02  0.00000000000E+00 0. -1.
<mgrwt>
<rscale>  0 0.25168466E+03</rscale>
<asrwt>0</asrwt>
<pdfrwt beam="2">  1        2 0.13038719E-01 0.25168466E+03</pdfrwt>
<pdfrwt beam="1">  1       -2 0.28746955E-01 0.25168466E+03</pdfrwt>
<totfact> 0.50453875E+03</totfact>
</mgrwt>
</event>
<event>
 6    1  0.7270761E-006  0.1662270E+03  0.7546771E-02  0.1188599E+00
          2   -1    0    0  501    0  0.00000000000E+00  0.00000000000E+00  0.46779518106E+03  0.46779518106E+03  0.00000000000E+00 0. -1.
         -2   -1    0    0    0  501 -0.00000000000E+00 -0.00000000000E+00 -0.55183443276E+02  0.55183443276E+02  0.00000000000E+00 0.  1.
          5    1    1    2  502    0 -0.79585467132E+02  0.41143277096E+02  0.48357886055E+02  0.10191756950E+03  0.47000000000E+01 0. -1.
         -5    1    1    2    0  502  0.33676530328E+02  0.58343947586E+02  0.10135268706E+03  0.12178908855E+03  0.47000000000E+01 0. -1.
        -11    1    1    2    0    0  0.12153701789E+02 -0.41435235565E+02  0.20828354327E+03  0.21271254220E+03  0.00000000000E+00 0. -1.
         11    1    1    2    0    0  0.33755235016E+02 -0.58051989117E+02  0.54617621405E+02  0.86559424093E+02  0.00000000000E+00 0.  1.
<mgrwt>
<rscale>  0 0.16008625E+03</rscale>
<asrwt>0</asrwt>
<pdfrwt beam="1">  1        2 0.71968487E-01 0.16622699E+03</pdfrwt>
<pdfrwt beam="2">  1       -2 0.84897608E-02 0.16622699E+03</pdfrwt>
<totfact> 0.56146895E+03</totfact>
</mgrwt>
</event>
<event>
 6    1  0.7270761E-006  0.1441417E+03  0.7546771E-02  0.1216922E+00
          3   -1    0    0  501    0  0.00000000000E+00  0.00000000000E+00  0.31106602466E+03  0.31106602466E+03  0.00000000000E+00 0. -1.
         -3   -1    0    0    0  501 -0.00000000000E+00 -0.00000000000E+00 -0.71326126513E+02  0.71326126513E+02  0.00000000000E+00 0.  1.
          5    1    1    2  502    0  0.63481999063E+02  0.52455692233E+02  0.64316645565E+02  0.10459581612E+03  0.47000000000E+01 0. -1.
         -5    1    1    2    0  502 -0.34517662704E+02  0.13225782001E+02 -0.24926750852E+02  0.44831052365E+02  0.47000000000E+01 0. -1.
        -11    1    1    2    0    0 -0.26626788375E+02 -0.45515211565E+00  0.51255994620E+01  0.27119454133E+02  0.00000000000E+00 0.  1.
         11    1    1    2    0    0 -0.23375479830E+01 -0.65226322118E+02  0.19522440397E+03  0.20584582856E+03  0.00000000000E+00 0. -1.
<mgrwt>
<rscale>  0 0.13736318E+03</rscale>
<asrwt>0</asrwt>
<pdfrwt beam="1">  1        3 0.47856311E-01 0.14414168E+03</pdfrwt>
<pdfrwt beam="2">  1       -3 0.10973250E-01 0.14414168E+03</pdfrwt>
<totfact> 0.64370324E+02</totfact>
</mgrwt>
</event>
<event>
 6    1  0.7270761E-006  0.1852780E+03  0.7546771E-02  0.1167841E+00
          2   -1    0    0  501    0  0.00000000000E+00  0.00000000000E+00  0.16534171116E+03  0.16534171116E+03  0.00000000000E+00 0. -1.
         -2   -1    0    0    0  501 -0.00000000000E+00 -0.00000000000E+00 -0.18679218402E+03  0.18679218402E+03  0.00000000000E+00 0.  1.
          5    1    1    2  502    0  0.71873569568E+02  0.29388405775E+02  0.62672424166E+02  0.99897002694E+02  0.47000000000E+01 0.  1.
         -5    1    1    2    0  502  0.44163274724E+02  0.42989974047E+02 -0.58954774360E+02  0.85418312573E+02  0.47000000000E+01 0.  1.
        -11    1    1    2    0    0 -0.60411561194E+02 -0.28294248430E+02 -0.58203494855E+02  0.88531169842E+02  0.00000000000E+00 0.  1.
         11    1    1    2    0    0 -0.55625283098E+02 -0.44084131391E+02  0.33035372184E+02  0.78287410071E+02  0.00000000000E+00 0. -1.
<mgrwt>
<rscale>  0 0.17996128E+03</rscale>
<asrwt>0</asrwt>
<pdfrwt beam="1">  1        2 0.25437186E-01 0.18527802E+03</pdfrwt>
<pdfrwt beam="2">  1       -2 0.28737259E-01 0.18527802E+03</pdfrwt>
<totfact> 0.22937418E+03</totfact>
</mgrwt>
</event>
<event>
 6    1  0.7270761E-006  0.3041478E+03  0.7546771E-02  0.1084716E+00
          2   -1    0    0  501    0  0.00000000000E+00  0.00000000000E+00  0.14170927457E+04  0.14170927457E+04  0.00000000000E+00 0. -1.
         -2   -1    0    0    0  501 -0.00000000000E+00 -0.00000000000E+00 -0.67832504116E+02  0.67832504116E+02  0.00000000000E+00 0.  1.
          5    1    1    2  502    0 -0.19059395748E+02 -0.24536160050E+01  0.20673580597E+02  0.28614117713E+02  0.47000000000E+01 0.  1.
         -5    1    1    2    0  502  0.60680236826E+02  0.27658480341E+03  0.46226865814E+03  0.54212143189E+03  0.47000000000E+01 0.  1.
        -11    1    1    2    0    0  0.21229341527E+02 -0.17232676612E+02  0.89567750168E+02  0.93648448760E+02  0.00000000000E+00 0.  1.
         11    1    1    2    0    0 -0.62850182605E+02 -0.25689851079E+03  0.77675025271E+03  0.82054125149E+03  0.00000000000E+00 0. -1.
<mgrwt>
<rscale>  0 0.30105185E+03</rscale>
<asrwt>0</asrwt>
<pdfrwt beam="1">  1        2 0.21801425E+00 0.30414776E+03</pdfrwt>
<pdfrwt beam="2">  1       -2 0.10435771E-01 0.30414776E+03</pdfrwt>
<totfact> 0.93693544E+02</totfact>
</mgrwt>
</event>
<event>
 6    1  0.7270761E-006  0.1312091E+03  0.7546771E-02  0.1239032E+00
          2   -1    0    0  501    0  0.00000000000E+00  0.00000000000E+00  0.10425417175E+03  0.10425417175E+03  0.00000000000E+00 0. -1.
         -2   -1    0    0    0  501 -0.00000000000E+00 -0.00000000000E+00 -0.20532990330E+03  0.20532990330E+03  0.00000000000E+00 0.  1.
          5    1    1    2  502    0  0.25797236949E+02 -0.21538562883E+02 -0.13124567265E+01  0.33959088149E+02  0.47000000000E+01 0.  1.
         -5    1    1    2    0  502 -0.65808753649E+02  0.30055169340E+02 -0.14805940393E+03  0.16485685413E+03  0.47000000000E+01 0.  1.
        -11    1    1    2    0    0 -0.26764672007E+01  0.26452120581E+02 -0.11880364970E+02  0.29120804106E+02  0.00000000000E+00 0.  1.
         11    1    1    2    0    0  0.42687983900E+02 -0.34968727039E+02  0.60176494076E+02  0.81647328673E+02  0.00000000000E+00 0. -1.
<mgrwt>
<rscale>  0 0.12249834E+03</rscale>
<asrwt>0</asrwt>
<pdfrwt beam="1">  1        2 0.16039103E-01 0.13120909E+03</pdfrwt>
<pdfrwt beam="2">  1       -2 0.31589216E-01 0.13120909E+03</pdfrwt>
<totfact> 0.32096834E+03</totfact>
</mgrwt>
</event>
<event>
 6    1  0.7270761E-006  0.1390054E+03  0.7546771E-02  0.1226141E+00
          2   -1    0    0  501    0  0.00000000000E+00  0.00000000000E+00  0.27906655636E+03  0.27906655636E+03  0.00000000000E+00 0. -1.
         -2   -1    0    0    0  501 -0.00000000000E+00 -0.00000000000E+00 -0.94599074493E+02  0.94599074493E+02  0.00000000000E+00 0.  1.
          5    1    1    2  502    0 -0.90561745615E+02  0.24510934926E+02 -0.21853072768E+02  0.96446163683E+02  0.47000000000E+01 0.  1.
         -5    1    1    2    0  502  0.30197022061E+02 -0.31914035831E+02  0.50169578552E+00  0.44189450359E+02  0.47000000000E+01 0.  1.
        -11    1    1    2    0    0  0.65721877216E+02  0.39161367089E+02  0.13358430449E+03  0.15394071659E+03  0.00000000000E+00 0.  1.
         11    1    1    2    0    0 -0.53571536615E+01 -0.31758266183E+02  0.72234554354E+02  0.79089300218E+02  0.00000000000E+00 0. -1.
<mgrwt>
<rscale>  0 0.13088999E+03</rscale>
<asrwt>0</asrwt>
<pdfrwt beam="1">  1        2 0.42933316E-01 0.13900538E+03</pdfrwt>
<pdfrwt beam="2">  1       -2 0.14553704E-01 0.13900538E+03</pdfrwt>
<totfact> 0.41021656E+03</totfact>
</mgrwt>
</event>
<event>
 6    1  0.7270761E-006  0.1352779E+03  0.7546771E-02  0.1233513E+00
          2   -1    0    0  501    0  0.00000000000E+00  0.00000000000E+00  0.66632924926E+03  0.66632924926E+03  0.00000000000E+00 0. -1.
         -2   -1    0    0    0  501 -0.00000000000E+00 -0.00000000000E+00 -0.22007336768E+02  0.22007336768E+02  0.00000000000E+00 0.  1.
          5    1    1    2  502    0 -0.33227653458E+02  0.85628637700E+02  0.17578372030E+03  0.19838938195E+03  0.47000000000E+01 0. -1.
         -5    1    1    2    0  502  0.93066126374E+01 -0.39768774523E+02  0.12038394478E+03  0.12721066240E+03  0.47000000000E+01 0. -1.
        -11    1    1    2    0    0  0.41285530955E+02  0.10696782232E+02  0.14753491653E+03  0.15357560943E+03  0.00000000000E+00 0. -1.
         11    1    1    2    0    0 -0.17364490134E+02 -0.56556645409E+02  0.20061933088E+03  0.20916093225E+03  0.00000000000E+00 0.  1.
<mgrwt>
<rscale>  0 0.12600091E+03</rscale>
<asrwt>0</asrwt>
<pdfrwt beam="1">  1        2 0.10251218E+00 0.13527787E+03</pdfrwt>
<pdfrwt beam="2">  1       -2 0.33857446E-02 0.13527787E+03</pdfrwt>
<totfact> 0.14946736E+04</totfact>
</mgrwt>
</event>
<event>
 6    1  0.7270761E-006  0.1349624E+03  0.7546771E-02  0.1233070E+00
          4   -1    0    0  501    0  0.00000000000E+00  0.00000000000E+00  0.19346710716E+03  0.19346710716E+03  0.00000000000E+00 0. -1.
         -4   -1    0    0    0  501 -0.00000000000E+00 -0.00000000000E+00 -0.73470342515E+02  0.73470342515E+02  0.00000000000E+00 0.  1.
          5    1    1    2  502    0 -0.39699397992E+02  0.43249808614E+02  0.62503440501E+02  0.85879905802E+02  0.47000000000E+01 0.  1.
         -5    1    1    2    0  502  0.64261355394E+02  0.13160169436E+01  0.39803397085E+01  0.64569240370E+02  0.47000000000E+01 0.  1.
        -11    1    1    2    0    0 -0.27574136316E+02  0.15607768887E+02  0.45880251902E+02  0.55757806250E+02  0.00000000000E+00 0. -1.
         11    1    1    2    0    0  0.30121789132E+01 -0.60173594445E+02  0.76327325285E+01  0.60730497249E+02  0.00000000000E+00 0.  1.
<mgrwt>
<rscale>  0 0.12628810E+03</rscale>
<asrwt>0</asrwt>
<pdfrwt beam="1">  1        4 0.29764170E-01 0.13496241E+03</pdfrwt>
<pdfrwt beam="2">  1       -4 0.11303130E-01 0.13496241E+03</pdfrwt>
<totfact> 0.10954503E+03</totfact>
</mgrwt>
</event>
<event>
 6    1  0.7270761E-006  0.1573707E+03  0.7546771E-02  0.1200552E+00
         -2   -1    0    0    0  501 -0.00000000000E+00  0.00000000000E+00  0.42177113687E+03  0.42177113687E+03  0.00000000000E+00 0.  1.
          2   -1    0    0  501    0  0.00000000000E+00 -0.00000000000E+00 -0.48914053426E+02  0.48914053426E+02  0.00000000000E+00 0. -1.
          5    1    1    2  502    0 -0.21995960101E+02  0.28233774074E+02  0.14189356710E+01  0.36125775254E+02  0.47000000000E+01 0.  1.
         -5    1    1    2    0  502 -0.66960606768E+02 -0.63258230976E+02  0.19376336066E+03  0.21459649713E+03  0.47000000000E+01 0.  1.
        -11    1    1    2    0    0 -0.15092702477E+02  0.19209954938E+02  0.33557858903E+02  0.41508335680E+02  0.00000000000E+00 0. -1.
         11    1    1    2    0    0  0.10404926935E+03  0.15814501963E+02  0.14411692821E+03  0.17845458223E+03  0.00000000000E+00 0.  1.
<mgrwt>
<rscale>  0 0.14993607E+03</rscale>
<asrwt>0</asrwt>
<pdfrwt beam="2">  1        2 0.75252393E-02 0.15737067E+03</pdfrwt>
<pdfrwt beam="1">  1       -2 0.64887865E-01 0.15737067E+03</pdfrwt>
<totfact> 0.20055371E+03</totfact>
</mgrwt>
</event>
<event>
 6    1  0.7270761E-006  0.7279435E+03  0.7546771E-02  0.1029283E+00
          2   -1    0    0  501    0  0.00000000000E+00  0.00000000000E+00  0.25778390013E+03  0.25778390013E+03  0.00000000000E+00 0. -1.
         -2   -1    0    0    0  501 -0.00000000000E+00 -0.00000000000E+00 -0.70266426079E+03  0.70266426079E+03  0.00000000000E+00 0.  1.
          5    1    1    2  502    0 -0.20306041764E+02  0.14750544703E+02  0.19944110847E+03  0.20106904199E+03  0.47000000000E+01 0. -1.
         -5    1    1    2    0  502  0.61427284307E+02 -0.57426986815E+01 -0.65447505426E+03  0.65739331948E+03  0.47000000000E+01 0.  1.
        -11    1    1    2    0    0 -0.13609854221E+02  0.18393440648E+02 -0.35386258503E+02  0.42139459912E+02  0.00000000000E+00 0.  1.
         11    1    1    2    0    0 -0.27511388322E+02 -0.27401286669E+02  0.45539843628E+02  0.59846339539E+02  0.00000000000E+00 0. -1.
<mgrwt>
<rscale>  0 0.44480269E+03</rscale>
<asrwt>0</asrwt>
<pdfrwt beam="1">  1        2 0.39659062E-01 0.72794350E+03</pdfrwt>
<pdfrwt beam="2">  1       -2 0.10810219E+00 0.72794350E+03</pdfrwt>
<totfact> 0.90045743E+01</totfact>
</mgrwt>
</event>
<event>
 6    1  0.7270761E-006  0.2843676E+03  0.7546771E-02  0.1095288E+00
         -2   -1    0    0    0  501 -0.00000000000E+00  0.00000000000E+00  0.71860307375E+02  0.71860307375E+02  0.00000000000E+00 0.  1.
          2   -1    0    0  501    0  0.00000000000E+00 -0.00000000000E+00 -0.10698326572E+04  0.10698326572E+04  0.00000000000E+00 0. -1.
          5    1    1    2  502    0 -0.45848750122E+01  0.13130750865E+02 -0.85071598754E+01  0.16967600488E+02  0.47000000000E+01 0.  1.
         -5    1    1    2    0  502 -0.12590017652E+03 -0.23270392354E+03 -0.49499121790E+03  0.56128456800E+03  0.47000000000E+01 0.  1.
        -11    1    1    2    0    0  0.55483457826E+02  0.23644360476E+02 -0.11222196299E+03  0.12740187931E+03  0.00000000000E+00 0.  1.
         11    1    1    2    0    0  0.75001593707E+02  0.19592881220E+03 -0.38225200906E+03  0.43603891677E+03  0.00000000000E+00 0. -1.
<mgrwt>
<rscale>  0 0.28073496E+03</rscale>
<asrwt>0</asrwt>
<pdfrwt beam="2">  1        2 0.16458963E+00 0.28436764E+03</pdfrwt>
<pdfrwt beam="1">  1       -2 0.11055432E-01 0.28436764E+03</pdfrwt>
<totfact> 0.13450867E+03</totfact>
</mgrwt>
</event>
<event>
 6    1  0.7270761E-006  0.1354265E+03  0.7546771E-02  0.1231829E+00
          1   -1    0    0  501    0  0.00000000000E+00  0.00000000000E+00  0.26982177410E+03  0.26982177410E+03  0.00000000000E+00 0. -1.
         -1   -1    0    0    0  501 -0.00000000000E+00 -0.00000000000E+00 -0.53585915151E+02  0.53585915151E+02  0.00000000000E+00 0.  1.
          5    1    1    2  502    0  0.57487437582E+02  0.54787077722E+01  0.11542730215E+03  0.12915252146E+03  0.47000000000E+01 0.  1.
         -5    1    1    2    0  502 -0.32510870713E+02  0.40260970441E+02  0.52247418298E+01  0.52223465822E+02  0.47000000000E+01 0.  1.
        -11    1    1    2    0    0 -0.21283457959E+02 -0.68921265186E+01  0.10026382723E+03  0.10272936310E+03  0.00000000000E+00 0. -1.
         11    1    1    2    0    0 -0.36931089100E+01 -0.38847551694E+02 -0.46800122622E+01  0.39302338872E+02  0.00000000000E+00 0.  1.
<mgrwt>
<rscale>  0 0.12709627E+03</rscale>
<asrwt>0</asrwt>
<pdfrwt beam="1">  1        1 0.41511042E-01 0.13542649E+03</pdfrwt>
<pdfrwt beam="2">  1       -1 0.82439871E-02 0.13542649E+03</pdfrwt>
<totfact> 0.78229230E+03</totfact>
</mgrwt>
</event>
<event>
 6    1  0.7270761E-006  0.1601796E+03  0.7546771E-02  0.1196057E+00
         -3   -1    0    0    0  501 -0.00000000000E+00  0.00000000000E+00  0.39264927549E+02  0.39264927549E+02  0.00000000000E+00 0.  1.
          3   -1    0    0  501    0  0.00000000000E+00 -0.00000000000E+00 -0.56400707476E+03  0.56400707476E+03  0.00000000000E+00 0. -1.
          5    1    1    2  502    0  0.70582374083E+02 -0.10629715318E+03 -0.19459449752E+03  0.23274463425E+03  0.47000000000E+01 0.  1.
         -5    1    1    2    0  502 -0.27896401834E+02  0.15677264848E+02 -0.56017222807E+02  0.64683886087E+02  0.47000000000E+01 0.  1.
        -11    1    1    2    0    0 -0.63086918151E+02  0.95339529441E+02 -0.23924411794E+03  0.26515529993E+03  0.00000000000E+00 0. -1.
         11    1    1    2    0    0  0.20400945902E+02 -0.47196411093E+01 -0.34886308939E+02  0.40688182035E+02  0.00000000000E+00 0.  1.
<mgrwt>
<rscale>  0 0.15365126E+03</rscale>
<asrwt>0</asrwt>
<pdfrwt beam="2">  1        3 0.86770323E-01 0.16017956E+03</pdfrwt>
<pdfrwt beam="1">  1       -3 0.60407578E-02 0.16017956E+03</pdfrwt>
<totfact> 0.49910276E+02</totfact>
</mgrwt>
</event>
<event>
 6    1  0.7270761E-006  0.1312958E+03  0.7546771E-02  0.1239322E+00
          2   -1    0    0  501    0  0.00000000000E+00  0.00000000000E+00  0.34351910940E+03  0.34351910940E+03  0.00000000000E+00 0. -1.
         -2   -1    0    0    0  501 -0.00000000000E+00 -0.00000000000E+00 -0.42351316765E+02  0.42351316765E+02  0.00000000000E+00 0.  1.
          5    1    1    2  502    0  0.67923083564E+02 -0.19764539996E+02  0.53537154064E+02  0.88839738784E+02  0.47000000000E+01 0.  1.
         -5    1    1    2    0  502 -0.37729577769E+02  0.46284803039E+02  0.59175598716E+02  0.84200032746E+02  0.47000000000E+01 0.  1.
        -11    1    1    2    0    0  0.91851599148E+01 -0.50167509427E+02  0.77869304099E+02  0.93084771502E+02  0.00000000000E+00 0. -1.
         11    1    1    2    0    0 -0.39378665709E+02  0.23647246383E+02  0.11058573575E+03  0.11974588313E+03  0.00000000000E+00 0.  1.
<mgrwt>
<rscale>  0 0.12231772E+03</rscale>
<asrwt>0</asrwt>
<pdfrwt beam="1">  1        2 0.52849092E-01 0.13129584E+03</pdfrwt>
<pdfrwt beam="2">  1       -2 0.65155874E-02 0.13129584E+03</pdfrwt>
<totfact> 0.11583464E+04</totfact>
</mgrwt>
</event>
<event>
 6    1  0.7270761E-006  0.2695718E+03  0.7546771E-02  0.1103422E+00
         -1   -1    0    0    0  501 -0.00000000000E+00  0.00000000000E+00  0.67133236006E+02  0.67133236006E+02  0.00000000000E+00 0.  1.
          1   -1    0    0  501    0  0.00000000000E+00 -0.00000000000E+00 -0.10536007681E+04  0.10536007681E+04  0.00000000000E+00 0. -1.
          5    1    1    2  502    0  0.39912394644E+02  0.12393230535E+02 -0.52889027681E+02  0.67571670531E+02  0.47000000000E+01 0.  1.
         -5    1    1    2    0  502 -0.19656106708E+02  0.22578999203E+03 -0.37070702624E+03  0.43452649210E+03  0.47000000000E+01 0.  1.
        -11    1    1    2    0    0 -0.96455100455E+01 -0.16671667859E+03 -0.48240921605E+03  0.51049597307E+03  0.00000000000E+00 0. -1.
         11    1    1    2    0    0 -0.10610777891E+02 -0.71466543978E+02 -0.80462262132E+02  0.10813986842E+03  0.00000000000E+00 0.  1.
<mgrwt>
<rscale>  0 0.26629007E+03</rscale>
<asrwt>0</asrwt>
<pdfrwt beam="2">  1        1 0.16209242E+00 0.26957179E+03</pdfrwt>
<pdfrwt beam="1">  1       -1 0.10328191E-01 0.26957179E+03</pdfrwt>
<totfact> 0.84728074E+02</totfact>
</mgrwt>
</event>
<event>
 6    1  0.7270761E-006  0.2671417E+03  0.7546771E-02  0.1116691E+00
          2   -1    0    0  501    0  0.00000000000E+00  0.00000000000E+00  0.50882056510E+03  0.50882056510E+03  0.00000000000E+00 0. -1.
         -2   -1    0    0    0  501 -0.00000000000E+00 -0.00000000000E+00 -0.10578050423E+03  0.10578050423E+03  0.00000000000E+00 0.  1.
          5    1    1    2  502    0 -0.36609699039E+02 -0.24904830606E+02  0.11126380999E+03  0.11984258869E+03  0.47000000000E+01 0. -1.
         -5    1    1    2    0  502  0.23373002067E+02  0.18796256697E+03  0.65434639328E+02  0.20044950943E+03  0.47000000000E+01 0.  1.
        -11    1    1    2    0    0 -0.38707770974E+02 -0.69303125726E+02  0.77926294458E+02  0.11123723359E+03  0.00000000000E+00 0.  1.
         11    1    1    2    0    0  0.51944467945E+02 -0.93754610638E+02  0.14841531709E+03  0.18307173762E+03  0.00000000000E+00 0. -1.
<mgrwt>
<rscale>  0 0.24471585E+03</rscale>
<asrwt>0</asrwt>
<pdfrwt beam="1">  1        2 0.78280086E-01 0.26714170E+03</pdfrwt>
<pdfrwt beam="2">  1       -2 0.16273924E-01 0.26714170E+03</pdfrwt>
<totfact> 0.18198016E+03</totfact>
</mgrwt>
</event>
<event>
 6    1  0.7270761E-006  0.1439621E+03  0.7546771E-02  0.1218969E+00
         -1   -1    0    0    0  501 -0.00000000000E+00  0.00000000000E+00  0.67627956287E+02  0.67627956287E+02  0.00000000000E+00 0.  1.
          1   -1    0    0  501    0  0.00000000000E+00 -0.00000000000E+00 -0.28575093357E+03  0.28575093357E+03  0.00000000000E+00 0. -1.
          5    1    1    2  502    0  0.84541902472E+01 -0.23489587723E+02  0.36513274106E+02  0.44480818901E+02  0.47000000000E+01 0.  1.
         -5    1    1    2    0  502 -0.48925340119E+02 -0.35345175897E+02 -0.91312292010E+02  0.10955818106E+03  0.47000000000E+01 0.  1.
        -11    1    1    2    0    0  0.35223762683E+02  0.73268232101E+02 -0.78062318483E+02  0.11270613497E+03  0.00000000000E+00 0.  1.
         11    1    1    2    0    0  0.52473871879E+01 -0.14433468481E+02 -0.85261640901E+02  0.86633754933E+02  0.00000000000E+00 0. -1.
<mgrwt>
<rscale>  0 0.13588952E+03</rscale>
<asrwt>0</asrwt>
<pdfrwt beam="2">  1        1 0.43961682E-01 0.14396208E+03</pdfrwt>
<pdfrwt beam="1">  1       -1 0.10404301E-01 0.14396208E+03</pdfrwt>
<totfact> 0.51343251E+03</totfact>
</mgrwt>
</event>
<event>
 6    1  0.7270761E-006  0.2461567E+03  0.7546771E-02  0.1115758E+00
          3   -1    0    0  501    0  0.00000000000E+00  0.00000000000E+00  0.44879299539E+02  0.44879299539E+02  0.00000000000E+00 0. -1.
         -3   -1    0    0    0  501 -0.00000000000E+00 -0.00000000000E+00 -0.33753371980E+03  0.33753371980E+03  0.00000000000E+00 0.  1.
          5    1    1    2  502    0  0.19392294146E+01 -0.28524556308E+01 -0.20381963460E+03  0.20390299302E+03  0.47000000000E+01 0. -1.
         -5    1    1    2    0  502  0.32323967285E+02  0.30506752251E+02 -0.71835760464E+01  0.45268030206E+02  0.47000000000E+01 0. -1.
        -11    1    1    2    0    0  0.14706016919E+02  0.16873340606E+02  0.62218905346E+01  0.23231196238E+02  0.00000000000E+00 0. -1.
         11    1    1    2    0    0 -0.48969213618E+02 -0.44527637226E+02 -0.87873100153E+02  0.11001079988E+03  0.00000000000E+00 0.  1.
<mgrwt>
<rscale>  0 0.24615667E+03</rscale>
<asrwt>0</asrwt>
<pdfrwt beam="1">  1        3 0.69045073E-02 0.24615667E+03</pdfrwt>
<pdfrwt beam="2">  1       -3 0.51928267E-01 0.24615667E+03</pdfrwt>
<totfact> 0.12613412E+03</totfact>
</mgrwt>
</event>
<event>
 6    1  0.7270761E-006  0.1303391E+03  0.7546771E-02  0.1239466E+00
          2   -1    0    0  501    0  0.00000000000E+00  0.00000000000E+00  0.28962068002E+03  0.28962068002E+03  0.00000000000E+00 0. -1.
         -2   -1    0    0    0  501 -0.00000000000E+00 -0.00000000000E+00 -0.84658997882E+02  0.84658997882E+02  0.00000000000E+00 0.  1.
          5    1    1    2  502    0 -0.20670425030E+02 -0.38098432486E+02 -0.40427217663E+02  0.59457606383E+02  0.47000000000E+01 0.  1.
         -5    1    1    2    0  502 -0.17296031978E+01  0.67439997384E+02  0.24335505198E+02  0.71871076154E+02  0.47000000000E+01 0.  1.
        -11    1    1    2    0    0 -0.20317517116E+02 -0.20103907680E+02  0.14933834395E+02  0.32248845181E+02  0.00000000000E+00 0.  1.
         11    1    1    2    0    0  0.42717545344E+02 -0.92376572171E+01  0.20611956021E+03  0.21070215018E+03  0.00000000000E+00 0. -1.
<mgrwt>
<rscale>  0 0.12222804E+03</rscale>
<asrwt>0</asrwt>
<pdfrwt beam="1">  1        2 0.44557027E-01 0.13033909E+03</pdfrwt>
<pdfrwt beam="2">  1       -2 0.13024461E-01 0.13033909E+03</pdfrwt>
<totfact> 0.47038652E+03</totfact>
</mgrwt>
</event>
<event>
 6    1  0.7270761E-006  0.2732341E+03  0.7546771E-02  0.1127181E+00
         -2   -1    0    0    0  501 -0.00000000000E+00  0.00000000000E+00  0.27092560123E+03  0.27092560123E+03  0.00000000000E+00 0.  1.
          2   -1    0    0  501    0  0.00000000000E+00 -0.00000000000E+00 -0.15442489467E+03  0.15442489467E+03  0.00000000000E+00 0. -1.
          5    1    1    2  502    0  0.26844412539E+02 -0.91312168385E+01 -0.91672108745E+02  0.96072197473E+02  0.47000000000E+01 0. -1.
         -5    1    1    2    0  502  0.42840991087E+02  0.83886335569E+02  0.15975640242E+03  0.18551675376E+03  0.47000000000E+01 0.  1.
        -11    1    1    2    0    0  0.19994576078E+02 -0.23098966239E+02  0.28567930773E+01  0.30683979216E+02  0.00000000000E+00 0. -1.
         11    1    1    2    0    0 -0.89679979704E+02 -0.51656152491E+02  0.45559619814E+02  0.11307756545E+03  0.00000000000E+00 0.  1.
<mgrwt>
<rscale>  0 0.22923262E+03</rscale>
<asrwt>0</asrwt>
<pdfrwt beam="2">  1        2 0.23757676E-01 0.27323409E+03</pdfrwt>
<pdfrwt beam="1">  1       -2 0.41680862E-01 0.27323409E+03</pdfrwt>
<totfact> 0.12534711E+03</totfact>
</mgrwt>
</event>
<event>
 6    1  0.7270761E-006  0.1600639E+03  0.7546771E-02  0.1196190E+00
          2   -1    0    0  501    0  0.00000000000E+00  0.00000000000E+00  0.23501367235E+03  0.23501367235E+03  0.00000000000E+00 0. -1.
         -2   -1    0    0    0  501 -0.00000000000E+00 -0.00000000000E+00 -0.10839379825E+03  0.10839379825E+03  0.00000000000E+00 0.  1.
          5    1    1    2  502    0  0.21823266763E+02  0.42046140121E+02 -0.77195220099E+01  0.48226692727E+02  0.47000000000E+01 0. -1.
         -5    1    1    2    0  502 -0.11120371372E+03  0.27406274594E+01  0.10897090118E+02  0.11186873360E+03  0.47000000000E+01 0. -1.
        -11    1    1    2    0    0  0.92185315304E+02 -0.63955888275E+02  0.86767288677E+02  0.14183458812E+03  0.00000000000E+00 0.  1.
         11    1    1    2    0    0 -0.28048683457E+01  0.19169120694E+02  0.36675017307E+02  0.41477456155E+02  0.00000000000E+00 0. -1.
<mgrwt>
<rscale>  0 0.15353938E+03</rscale>
<asrwt>0</asrwt>
<pdfrwt beam="1">  1        2 0.36155949E-01 0.16006389E+03</pdfrwt>
<pdfrwt beam="2">  1       -2 0.16675969E-01 0.16006389E+03</pdfrwt>
<totfact> 0.39685613E+03</totfact>
</mgrwt>
</event>
<event>
 6    1  0.7270761E-006  0.1274444E+03  0.7546771E-02  0.1245105E+00
          1   -1    0    0  501    0  0.00000000000E+00  0.00000000000E+00  0.18911348134E+02  0.18911348134E+02  0.00000000000E+00 0. -1.
         -1   -1    0    0    0  501 -0.00000000000E+00 -0.00000000000E+00 -0.71763990290E+03  0.71763990290E+03  0.00000000000E+00 0.  1.
          5    1    1    2  502    0  0.71725744832E+02 -0.13071663741E+02 -0.31462181157E+03  0.32299291816E+03  0.47000000000E+01 0.  1.
         -5    1    1    2    0  502 -0.53252575546E+02 -0.35018070989E+01 -0.18206366676E+03  0.18978242334E+03  0.47000000000E+01 0.  1.
        -11    1    1    2    0    0 -0.93238801331E+01  0.53418063253E+02 -0.85880304607E+02  0.10156697761E+03  0.00000000000E+00 0.  1.
         11    1    1    2    0    0 -0.91492891526E+01 -0.36844592413E+02 -0.11616277183E+03  0.12220893192E+03  0.00000000000E+00 0. -1.
<mgrwt>
<rscale>  0 0.11879095E+03</rscale>
<asrwt>0</asrwt>
<pdfrwt beam="1">  1        1 0.29094379E-02 0.12744444E+03</pdfrwt>
<pdfrwt beam="2">  1       -1 0.11040615E+00 0.12744444E+03</pdfrwt>
<totfact> 0.27518434E+03</totfact>
</mgrwt>
</event>
<event>
 6    1  0.7270761E-006  0.1286665E+03  0.7546771E-02  0.1242226E+00
         -2   -1    0    0    0  501 -0.00000000000E+00  0.00000000000E+00  0.17950001340E+03  0.17950001340E+03  0.00000000000E+00 0.  1.
          2   -1    0    0  501    0  0.00000000000E+00 -0.00000000000E+00 -0.95026400502E+02  0.95026400502E+02  0.00000000000E+00 0. -1.
          5    1    1    2  502    0  0.45483926959E+02 -0.30650979281E+02  0.12834564818E+03  0.13965301840E+03  0.47000000000E+01 0.  1.
         -5    1    1    2    0  502 -0.26645277462E+02  0.66563218495E+01 -0.15152699024E+02  0.31717057230E+02  0.47000000000E+01 0.  1.
        -11    1    1    2    0    0 -0.55975661998E+02  0.20909797658E+02 -0.73629026922E+01  0.60205537206E+02  0.00000000000E+00 0.  1.
         11    1    1    2    0    0  0.37137012501E+02  0.30848597732E+01 -0.21356433566E+02  0.42950801063E+02  0.00000000000E+00 0. -1.
<mgrwt>
<rscale>  0 0.12052946E+03</rscale>
<asrwt>0</asrwt>
<pdfrwt beam="2">  1        2 0.14619446E-01 0.12866646E+03</pdfrwt>
<pdfrwt beam="1">  1       -2 0.27615387E-01 0.12866646E+03</pdfrwt>
<totfact> 0.45446204E+03</totfact>
</mgrwt>
</event>
<event>
 6    1  0.7270761E-006  0.1683994E+03  0.7546771E-02  0.1185944E+00
          2   -1    0    0  501    0  0.00000000000E+00  0.00000000000E+00  0.31730302839E+03  0.31730302839E+03  0.00000000000E+00 0. -1.
         -2   -1    0    0    0  501 -0.00000000000E+00 -0.00000000000E+00 -0.10246527510E+03  0.10246527510E+03  0.00000000000E+00 0.  1.
          5    1    1    2  502    0  0.17294822171E+01 -0.83877841365E+02 -0.12468883577E+02  0.84947315663E+02  0.47000000000E+01 0. -1.
         -5    1    1    2    0  502  0.80182714002E+02  0.62311078399E+01  0.23002369333E+02  0.83781222984E+02  0.47000000000E+01 0. -1.
        -11    1    1    2    0    0 -0.58321360783E+02  0.50081359165E+02  0.48109672206E+02  0.90686626463E+02  0.00000000000E+00 0.  1.
         11    1    1    2    0    0 -0.23590835436E+02  0.27565374360E+02  0.15619459532E+03  0.16035313838E+03  0.00000000000E+00 0. -1.
<mgrwt>
<rscale>  0 0.16246274E+03</rscale>
<asrwt>0</asrwt>
<pdfrwt beam="1">  1        2 0.48815850E-01 0.16839942E+03</pdfrwt>
<pdfrwt beam="2">  1       -2 0.15763889E-01 0.16839942E+03</pdfrwt>
<totfact> 0.31676523E+03</totfact>
</mgrwt>
</event>
<event>
 6    1  0.7270761E-006  0.1873227E+03  0.7546771E-02  0.1166018E+00
         -1   -1    0    0    0  501 -0.00000000000E+00  0.00000000000E+00  0.13974419381E+03  0.13974419381E+03  0.00000000000E+00 0. -1.
          1   -1    0    0  501    0  0.00000000000E+00 -0.00000000000E+00 -0.25170825372E+03  0.25170825372E+03  0.00000000000E+00 0.  1.
          5    1    1    2  502    0  0.58268897760E+02 -0.49001021717E+02  0.55875091755E+02  0.94554113893E+02  0.47000000000E+01 0. -1.
         -5    1    1    2    0  502 -0.10687400799E+01 -0.78256508188E+02 -0.49770977527E+02  0.92867989550E+02  0.47000000000E+01 0. -1.
        -11    1    1    2    0    0 -0.58187148281E+02  0.14039881339E+03 -0.11476854319E+03  0.19044524024E+03  0.00000000000E+00 0.  1.
         11    1    1    2    0    0  0.98699060122E+00 -0.13141283481E+02 -0.32996309533E+01  0.13585103843E+02  0.00000000000E+00 0. -1.
<mgrwt>
<rscale>  0 0.18185690E+03</rscale>
<asrwt>0</asrwt>
<pdfrwt beam="2">  1        1 0.38724346E-01 0.18732268E+03</pdfrwt>
<pdfrwt beam="1">  1       -1 0.21499107E-01 0.18732268E+03</pdfrwt>
<totfact> 0.19364084E+03</totfact>
</mgrwt>
</event>
<event>
 6    1  0.7270761E-006  0.1258265E+03  0.7546771E-02  0.1249052E+00
         -1   -1    0    0    0  501 -0.00000000000E+00  0.00000000000E+00  0.24498872647E+03  0.24498872647E+03  0.00000000000E+00 0.  1.
          1   -1    0    0  501    0  0.00000000000E+00 -0.00000000000E+00 -0.52384393918E+02  0.52384393918E+02  0.00000000000E+00 0. -1.
          5    1    1    2  502    0 -0.11297926891E+02  0.47254516526E+02  0.13450944031E+03  0.14309266933E+03  0.47000000000E+01 0. -1.
         -5    1    1    2    0  502  0.25062120323E+02 -0.43248949820E+02  0.15169686830E+02  0.52447983127E+02  0.47000000000E+01 0. -1.
        -11    1    1    2    0    0 -0.10721425878E+02  0.12098023011E+02 -0.26203025198E+02  0.30788141600E+02  0.00000000000E+00 0. -1.
         11    1    1    2    0    0 -0.30427675537E+01 -0.16103589717E+02  0.69128230612E+02  0.71044326330E+02  0.00000000000E+00 0.  1.
<mgrwt>
<rscale>  0 0.11646096E+03</rscale>
<asrwt>0</asrwt>
<pdfrwt beam="2">  1        1 0.80591377E-02 0.12582649E+03</pdfrwt>
<pdfrwt beam="1">  1       -1 0.37690572E-01 0.12582649E+03</pdfrwt>
<totfact> 0.55912183E+03</totfact>
</mgrwt>
</event>
<event>
 6    1  0.7270761E-006  0.4441401E+03  0.7546771E-02  0.1029484E+00
          2   -1    0    0  501    0  0.00000000000E+00  0.00000000000E+00  0.13886661886E+04  0.13886661886E+04  0.00000000000E+00 0. -1.
         -2   -1    0    0    0  501 -0.00000000000E+00 -0.00000000000E+00 -0.35512574146E+02  0.35512574146E+02  0.00000000000E+00 0.  1.
          5    1    1    2  502    0  0.14355375151E+02 -0.34211187225E+02  0.33838552250E+03  0.34044578711E+03  0.47000000000E+01 0. -1.
         -5    1    1    2    0  502 -0.12123772833E+03 -0.11766110079E+03  0.52786188246E+03  0.55425894523E+03  0.47000000000E+01 0. -1.
        -11    1    1    2    0    0  0.75038506703E+02  0.84053429507E+02  0.39575613218E+03  0.41148350229E+03  0.00000000000E+00 0. -1.
         11    1    1    2    0    0  0.31843846478E+02  0.67818858506E+02  0.91150077275E+02  0.11799052807E+03  0.00000000000E+00 0.  1.
<mgrwt>
<rscale>  0 0.44414012E+03</rscale>
<asrwt>0</asrwt>
<pdfrwt beam="1">  1        2 0.21364091E+00 0.44414012E+03</pdfrwt>
<pdfrwt beam="2">  1       -2 0.54634740E-02 0.44414012E+03</pdfrwt>
<totfact> 0.26783035E+03</totfact>
</mgrwt>
</event>
<event>
 6    1  0.7270761E-006  0.1225842E+03  0.7546771E-02  0.1251098E+00
         -1   -1    0    0    0  501 -0.00000000000E+00  0.00000000000E+00  0.11159440724E+03  0.11159440724E+03  0.00000000000E+00 0.  1.
          1   -1    0    0  501    0  0.00000000000E+00 -0.00000000000E+00 -0.18527588566E+03  0.18527588566E+03  0.00000000000E+00 0. -1.
          5    1    1    2  502    0  0.10410927173E+02  0.59677357607E+02 -0.46433826930E+01  0.60937881637E+02  0.47000000000E+01 0. -1.
         -5    1    1    2    0  502  0.13188458299E+02 -0.39199363610E+02  0.61323120122E+02  0.74115724385E+02  0.47000000000E+01 0.  1.
        -11    1    1    2    0    0 -0.41957131101E+02  0.23335708255E+02 -0.72464268007E+02  0.86925406343E+02  0.00000000000E+00 0.  1.
         11    1    1    2    0    0  0.18357745630E+02 -0.43813702253E+02 -0.57896947847E+02  0.74891280532E+02  0.00000000000E+00 0. -1.
<mgrwt>
<rscale>  0 0.11527730E+03</rscale>
<asrwt>0</asrwt>
<pdfrwt beam="2">  1        1 0.28503982E-01 0.12258419E+03</pdfrwt>
<pdfrwt beam="1">  1       -1 0.17168370E-01 0.12258419E+03</pdfrwt>
<totfact> 0.39943281E+03</totfact>
</mgrwt>
</event>
<event>
 6    1  0.7270761E-006  0.1385649E+03  0.7546771E-02  0.1228307E+00
          2   -1    0    0  501    0  0.00000000000E+00  0.00000000000E+00  0.75697110866E+03  0.75697110866E+03  0.00000000000E+00 0. -1.
         -2   -1    0    0    0  501 -0.00000000000E+00 -0.00000000000E+00 -0.19669851051E+02  0.19669851051E+02  0.00000000000E+00 0.  1.
          5    1    1    2  502    0  0.61100334834E+02 -0.49094687160E+02  0.19480941564E+03  0.21003889555E+03  0.47000000000E+01 0.  1.
         -5    1    1    2    0  502 -0.55477531100E+02 -0.10440615958E+02  0.22629170879E+03  0.23327406711E+03  0.47000000000E+01 0.  1.
        -11    1    1    2    0    0  0.27372780671E+02  0.66345124259E+02  0.21262081557E+03  0.22440712077E+03  0.00000000000E+00 0. -1.
         11    1    1    2    0    0 -0.32995584405E+02 -0.68098211412E+01  0.10357931760E+03  0.10892087628E+03  0.00000000000E+00 0.  1.
<mgrwt>
<rscale>  0 0.12942779E+03</rscale>
<asrwt>0</asrwt>
<pdfrwt beam="1">  1        2 0.11645707E+00 0.13856488E+03</pdfrwt>
<pdfrwt beam="2">  1       -2 0.30261315E-02 0.13856488E+03</pdfrwt>
<totfact> 0.15172155E+04</totfact>
</mgrwt>
</event>
<event>
 6    1  0.7270761E-006  0.2170249E+03  0.7546771E-02  0.1139609E+00
         -1   -1    0    0    0  501 -0.00000000000E+00  0.00000000000E+00  0.85712327711E+02  0.85712327711E+02  0.00000000000E+00 0.  1.
          1   -1    0    0  501    0  0.00000000000E+00 -0.00000000000E+00 -0.50641575086E+03  0.50641575086E+03  0.00000000000E+00 0. -1.
          5    1    1    2  502    0 -0.17833035157E+02 -0.35225835006E+02  0.10912023627E+02  0.41231527432E+02  0.47000000000E+01 0. -1.
         -5    1    1    2    0  502 -0.85225427168E+02 -0.10918592685E+03 -0.22075302817E+03  0.26065097258E+03  0.47000000000E+01 0. -1.
        -11    1    1    2    0    0  0.14062073149E+02  0.59365267659E+02 -0.12817554706E+03  0.14195403401E+03  0.00000000000E+00 0. -1.
         11    1    1    2    0    0  0.88996389176E+02  0.85046494198E+02 -0.82686871544E+02  0.14829154456E+03  0.00000000000E+00 0.  1.
<mgrwt>
<rscale>  0 0.21249054E+03</rscale>
<asrwt>0</asrwt>
<pdfrwt beam="2">  1        1 0.77910117E-01 0.21702488E+03</pdfrwt>
<pdfrwt beam="1">  1       -1 0.13186512E-01 0.21702488E+03</pdfrwt>
<totfact> 0.17435849E+03</totfact>
</mgrwt>
</event>
<event>
 6    1  0.7270761E-006  0.1458529E+03  0.7546771E-02  0.1217259E+00
         -2   -1    0    0    0  501 -0.00000000000E+00  0.00000000000E+00  0.89349919750E+02  0.89349919750E+02  0.00000000000E+00 0.  1.
          2   -1    0    0  501    0  0.00000000000E+00 -0.00000000000E+00 -0.19524220527E+03  0.19524220527E+03  0.00000000000E+00 0. -1.
          5    1    1    2  502    0  0.44798309343E+02  0.33239091752E+02 -0.75645737733E+02  0.94106818975E+02  0.47000000000E+01 0.  1.
         -5    1    1    2    0  502 -0.11594362164E+02  0.34177192523E+02  0.42001378678E+02  0.55576213740E+02  0.47000000000E+01 0.  1.
        -11    1    1    2    0    0  0.82883154196E+01 -0.46659290450E+02  0.19167494109E+01  0.47428467043E+02  0.00000000000E+00 0.  1.
         11    1    1    2    0    0 -0.41492262599E+02 -0.20756993825E+02 -0.74164675874E+02  0.87480625259E+02  0.00000000000E+00 0. -1.
<mgrwt>
<rscale>  0 0.13711929E+03</rscale>
<asrwt>0</asrwt>
<pdfrwt beam="2">  1        2 0.30037262E-01 0.14585290E+03</pdfrwt>
<pdfrwt beam="1">  1       -2 0.13746142E-01 0.14585290E+03</pdfrwt>
<totfact> 0.66190499E+03</totfact>
</mgrwt>
</event>
<event>
 6    1  0.7270761E-006  0.2828105E+03  0.7546771E-02  0.1094164E+00
          1   -1    0    0  501    0  0.00000000000E+00  0.00000000000E+00  0.17212817667E+03  0.17212817667E+03  0.00000000000E+00 0. -1.
         -1   -1    0    0    0  501 -0.00000000000E+00 -0.00000000000E+00 -0.11616599175E+03  0.11616599175E+03  0.00000000000E+00 0.  1.
          5    1    1    2  502    0  0.26845519346E+02  0.10920842168E+03 -0.46436260553E+01  0.11265351543E+03  0.47000000000E+01 0. -1.
         -5    1    1    2    0  502 -0.20887543409E+02 -0.28861208701E+02 -0.61648506879E+01  0.36460310220E+02  0.47000000000E+01 0. -1.
        -11    1    1    2    0    0  0.37883879131E+02 -0.38944530603E+02  0.78922511416E+01  0.54901296797E+02  0.00000000000E+00 0.  1.
         11    1    1    2    0    0 -0.43841855068E+02 -0.41402682378E+02  0.58878410521E+02  0.84279045968E+02  0.00000000000E+00 0. -1.
<mgrwt>
<rscale>  0 0.28281047E+03</rscale>
<asrwt>0</asrwt>
<pdfrwt beam="1">  1        1 0.26481258E-01 0.28281047E+03</pdfrwt>
<pdfrwt beam="2">  1       -1 0.17871691E-01 0.28281047E+03</pdfrwt>
<totfact> 0.42836904E+03</totfact>
</mgrwt>
</event>
<event>
 6    1  0.7270761E-006  0.1546575E+03  0.7546771E-02  0.1202937E+00
          4   -1    0    0  501    0  0.00000000000E+00  0.00000000000E+00  0.73759606645E+02  0.73759606645E+02  0.00000000000E+00 0. -1.
         -4   -1    0    0    0  501 -0.00000000000E+00 -0.00000000000E+00 -0.32226274132E+03  0.32226274132E+03  0.00000000000E+00 0.  1.
          5    1    1    2  502    0  0.32020118313E+02 -0.13657316558E+02 -0.11213524197E+03  0.11750835189E+03  0.47000000000E+01 0.  1.
         -5    1    1    2    0  502 -0.15882813947E+02  0.10331529084E+03 -0.97641007460E+02  0.14311593006E+03  0.47000000000E+01 0.  1.
        -11    1    1    2    0    0  0.74748804396E+01  0.13659484125E+02 -0.23699007847E+02  0.28356627393E+02  0.00000000000E+00 0.  1.
         11    1    1    2    0    0 -0.23612184806E+02 -0.10331745841E+03 -0.15027877402E+02  0.10704143862E+03  0.00000000000E+00 0. -1.
<mgrwt>
<rscale>  0 0.14801236E+03</rscale>
<asrwt>0</asrwt>
<pdfrwt beam="1">  1        4 0.11347632E-01 0.15465750E+03</pdfrwt>
<pdfrwt beam="2">  1       -4 0.49578883E-01 0.15465750E+03</pdfrwt>
<totfact> 0.41101309E+02</totfact>
</mgrwt>
</event>
<event>
 6    1  0.7270761E-006  0.1358805E+03  0.7546771E-02  0.1227157E+00
         -1   -1    0    0    0  501 -0.00000000000E+00  0.00000000000E+00  0.12319221972E+03  0.12319221972E+03  0.00000000000E+00 0.  1.
          1   -1    0    0  501    0  0.00000000000E+00 -0.00000000000E+00 -0.15874358635E+03  0.15874358635E+03  0.00000000000E+00 0. -1.
          5    1    1    2  502    0  0.22357134335E+02  0.87050756510E+02  0.84706520337E+01  0.90396446891E+02  0.47000000000E+01 0. -1.
         -5    1    1    2    0  502 -0.48279424077E+00 -0.38469310353E+02  0.35124510157E+02  0.52306234266E+02  0.47000000000E+01 0. -1.
        -11    1    1    2    0    0 -0.19113728096E+02 -0.41804099269E+01  0.21574461488E+02  0.29125037637E+02  0.00000000000E+00 0.  1.
         11    1    1    2    0    0 -0.27606119986E+01 -0.44401036230E+02 -0.10072099030E+03  0.11010808728E+03  0.00000000000E+00 0. -1.
<mgrwt>
<rscale>  0 0.13020169E+03</rscale>
<asrwt>0</asrwt>
<pdfrwt beam="2">  1        1 0.24422090E-01 0.13588052E+03</pdfrwt>
<pdfrwt beam="1">  1       -1 0.18952649E-01 0.13588052E+03</pdfrwt>
<totfact> 0.41656836E+03</totfact>
</mgrwt>
</event>
<event>
 6    1  0.7270761E-006  0.1346265E+03  0.7546771E-02  0.1233186E+00
         -1   -1    0    0    0  501 -0.00000000000E+00  0.00000000000E+00  0.46214985915E+02  0.46214985915E+02  0.00000000000E+00 0.  1.
          1   -1    0    0  501    0  0.00000000000E+00 -0.00000000000E+00 -0.32380577257E+03  0.32380577257E+03  0.00000000000E+00 0. -1.
          5    1    1    2  502    0 -0.68709983835E+02 -0.57393890867E+02 -0.66794568519E+02  0.11179769663E+03  0.47000000000E+01 0.  1.
         -5    1    1    2    0  502  0.40661857892E+02  0.16030819959E+02 -0.48426399820E+02  0.65403211506E+02  0.47000000000E+01 0.  1.
        -11    1    1    2    0    0  0.10727911025E+02 -0.16206150033E+02 -0.11403859749E+03  0.11568288158E+03  0.00000000000E+00 0. -1.
         11    1    1    2    0    0  0.17320214917E+02  0.57569220941E+02 -0.48331220832E+02  0.77136968774E+02  0.00000000000E+00 0.  1.
<mgrwt>
<rscale>  0 0.12621294E+03</rscale>
<asrwt>0</asrwt>
<pdfrwt beam="2">  1        1 0.49816270E-01 0.13462648E+03</pdfrwt>
<pdfrwt beam="1">  1       -1 0.71099982E-02 0.13462648E+03</pdfrwt>
<totfact> 0.77967612E+03</totfact>
</mgrwt>
</event>
<event>
 6    1  0.7270761E-006  0.1422111E+03  0.7546771E-02  0.1217484E+00
          1   -1    0    0  501    0  0.00000000000E+00  0.00000000000E+00  0.66222463123E+03  0.66222463123E+03  0.00000000000E+00 0. -1.
         -1   -1    0    0    0  501 -0.00000000000E+00 -0.00000000000E+00 -0.26432877844E+02  0.26432877844E+02  0.00000000000E+00 0.  1.
          5    1    1    2  502    0 -0.78796022452E+02 -0.37979954323E+00  0.21507261286E+03  0.22910101746E+03  0.47000000000E+01 0. -1.
         -5    1    1    2    0  502  0.35080240557E+02 -0.51458877330E+02  0.13461430139E+03  0.14839723539E+03  0.47000000000E+01 0. -1.
        -11    1    1    2    0    0 -0.39538727682E+01  0.41193776512E+02  0.24147806476E+03  0.24499840018E+03  0.00000000000E+00 0. -1.
         11    1    1    2    0    0  0.47669654663E+02  0.10644900361E+02  0.44626774380E+02  0.66160856032E+02  0.00000000000E+00 0.  1.
<mgrwt>
<rscale>  0 0.13695612E+03</rscale>
<asrwt>0</asrwt>
<pdfrwt beam="1">  1        1 0.10188070E+00 0.14221109E+03</pdfrwt>
<pdfrwt beam="2">  1       -1 0.40665971E-02 0.14221109E+03</pdfrwt>
<totfact> 0.70783449E+03</totfact>
</mgrwt>
</event>
<event>
 6    1  0.7270761E-006  0.1371430E+03  0.7546771E-02  0.1229387E+00
          1   -1    0    0  501    0  0.00000000000E+00  0.00000000000E+00  0.72766034629E+02  0.72766034629E+02  0.00000000000E+00 0. -1.
         -1   -1    0    0    0  501 -0.00000000000E+00 -0.00000000000E+00 -0.24135534929E+03  0.24135534929E+03  0.00000000000E+00 0.  1.
          5    1    1    2  502    0 -0.49778636070E+02  0.32878055222E+02 -0.42004747723E+02  0.73112023330E+02  0.47000000000E+01 0. -1.
         -5    1    1    2    0  502  0.82964038418E+01 -0.71138739468E+02 -0.11284645472E+03  0.13373841225E+03  0.47000000000E+01 0. -1.
        -11    1    1    2    0    0 -0.13663785336E+02  0.75691866910E+01 -0.36879120053E+02  0.40050731738E+02  0.00000000000E+00 0.  1.
         11    1    1    2    0    0  0.55146017565E+02  0.30691497555E+02  0.23141007835E+02  0.67220216595E+02  0.00000000000E+00 0. -1.
<mgrwt>
<rscale>  0 0.12870726E+03</rscale>
<asrwt>0</asrwt>
<pdfrwt beam="1">  1        1 0.11194775E-01 0.13714302E+03</pdfrwt>
<pdfrwt beam="2">  1       -1 0.37131592E-01 0.13714302E+03</pdfrwt>
<totfact> 0.37292834E+03</totfact>
</mgrwt>
</event>
<event>
 6    1  0.7270761E-006  0.1309453E+03  0.7546771E-02  0.1240029E+00
          1   -1    0    0  501    0  0.00000000000E+00  0.00000000000E+00  0.33696454581E+03  0.33696454581E+03  0.00000000000E+00 0. -1.
         -1   -1    0    0    0  501 -0.00000000000E+00 -0.00000000000E+00 -0.47388285901E+02  0.47388285901E+02  0.00000000000E+00 0.  1.
          5    1    1    2  502    0  0.59335720058E+02 -0.21770836668E+01  0.96581111614E+02  0.11347012157E+03  0.47000000000E+01 0. -1.
         -5    1    1    2    0  502 -0.27860296259E+02  0.25225610402E+02 -0.15079026421E+02  0.40767567571E+02  0.47000000000E+01 0. -1.
        -11    1    1    2    0    0 -0.29594218935E+02  0.19521715396E+02  0.28309131545E+02  0.45368734776E+02  0.00000000000E+00 0.  1.
         11    1    1    2    0    0 -0.18812048642E+01 -0.42570242131E+02  0.17976504317E+03  0.18474640780E+03  0.00000000000E+00 0. -1.
<mgrwt>
<rscale>  0 0.12187904E+03</rscale>
<asrwt>0</asrwt>
<pdfrwt beam="1">  1        1 0.51840698E-01 0.13094531E+03</pdfrwt>
<pdfrwt beam="2">  1       -1 0.72905057E-02 0.13094531E+03</pdfrwt>
<totfact> 0.71331414E+03</totfact>
</mgrwt>
</event>
<event>
 6    1  0.7270761E-006  0.3409203E+03  0.7546771E-02  0.1066405E+00
          1   -1    0    0  501    0  0.00000000000E+00  0.00000000000E+00  0.11080665104E+04  0.11080665104E+04  0.00000000000E+00 0. -1.
         -1   -1    0    0    0  501 -0.00000000000E+00 -0.00000000000E+00 -0.26222851872E+02  0.26222851872E+02  0.00000000000E+00 0.  1.
          5    1    1    2  502    0  0.98012450602E+02  0.34650884461E+02  0.27593344069E+03  0.29490418437E+03  0.47000000000E+01 0.  1.
         -5    1    1    2    0  502 -0.10120442573E+02  0.55934669424E+02  0.39702795966E+03  0.40110397823E+03  0.47000000000E+01 0.  1.
        -11    1    1    2    0    0 -0.74973242209E+02 -0.17447207435E+02  0.14524603701E+03  0.16438309938E+03  0.00000000000E+00 0.  1.
         11    1    1    2    0    0 -0.12918765820E+02 -0.73138346450E+02  0.26363622119E+03  0.27389810032E+03  0.00000000000E+00 0. -1.
<mgrwt>
<rscale>  0 0.34092031E+03</rscale>
<asrwt>0</asrwt>
<pdfrwt beam="1">  1        1 0.17047174E+00 0.34092031E+03</pdfrwt>
<pdfrwt beam="2">  1       -1 0.40342858E-02 0.34092031E+03</pdfrwt>
<totfact> 0.32402021E+03</totfact>
</mgrwt>
</event>
<event>
 6    1  0.7270761E-006  0.1377463E+03  0.7546771E-02  0.1228147E+00
         -1   -1    0    0    0  501 -0.00000000000E+00  0.00000000000E+00  0.66881617243E+03  0.66881617243E+03  0.00000000000E+00 0.  1.
          1   -1    0    0  501    0  0.00000000000E+00 -0.00000000000E+00 -0.27773026131E+02  0.27773026131E+02  0.00000000000E+00 0. -1.
          5    1    1    2  502    0 -0.28837949537E+02 -0.67287601610E+02  0.34957350851E+03  0.35718759290E+03  0.47000000000E+01 0. -1.
         -5    1    1    2    0  502  0.50572131276E+02  0.29731513543E+02  0.15324558202E+03  0.16415785625E+03  0.47000000000E+01 0.  1.
        -11    1    1    2    0    0 -0.32471625528E+02 -0.20532025860E+02  0.93703502808E+02  0.10127347624E+03  0.00000000000E+00 0.  1.
         11    1    1    2    0    0  0.10737443789E+02  0.58088113927E+02  0.44520552954E+02  0.73970273178E+02  0.00000000000E+00 0. -1.
<mgrwt>
<rscale>  0 0.12953530E+03</rscale>
<asrwt>0</asrwt>
<pdfrwt beam="2">  1        1 0.42727738E-02 0.13774629E+03</pdfrwt>
<pdfrwt beam="1">  1       -1 0.10289478E+00 0.13774629E+03</pdfrwt>
<totfact> 0.19054081E+03</totfact>
</mgrwt>
</event>
<event>
 6    1  0.7270761E-006  0.1276194E+03  0.7546771E-02  0.1241358E+00
         -2   -1    0    0    0  501 -0.00000000000E+00  0.00000000000E+00  0.23930557466E+03  0.23930557466E+03  0.00000000000E+00 0.  1.
          2   -1    0    0  501    0  0.00000000000E+00 -0.00000000000E+00 -0.55844081802E+02  0.55844081802E+02  0.00000000000E+00 0. -1.
          5    1    1    2  502    0  0.20773702075E+02 -0.46154667780E+02  0.74056467833E+02  0.89823440614E+02  0.47000000000E+01 0. -1.
         -5    1    1    2    0  502 -0.46504504952E+02  0.46448322628E+02  0.20506284934E+02  0.69012414663E+02  0.47000000000E+01 0. -1.
        -11    1    1    2    0    0  0.36988077924E+02 -0.22190761779E+02  0.10029936815E+03  0.10918109300E+03  0.00000000000E+00 0.  1.
         11    1    1    2    0    0 -0.11257275047E+02  0.21897106931E+02 -0.11400628060E+02  0.27132708187E+02  0.00000000000E+00 0. -1.
<mgrwt>
<rscale>  0 0.12106014E+03</rscale>
<asrwt>0</asrwt>
<pdfrwt beam="2">  1        2 0.85913973E-02 0.12761941E+03</pdfrwt>
<pdfrwt beam="1">  1       -2 0.36816242E-01 0.12761941E+03</pdfrwt>
<totfact> 0.51248295E+03</totfact>
</mgrwt>
</event>
<event>
 6    1  0.7270761E-006  0.3963053E+03  0.7546771E-02  0.1045067E+00
         -2   -1    0    0    0  501 -0.00000000000E+00  0.00000000000E+00  0.88431595144E+02  0.88431595144E+02  0.00000000000E+00 0.  1.
          2   -1    0    0  501    0  0.00000000000E+00 -0.00000000000E+00 -0.44400965670E+03  0.44400965670E+03  0.00000000000E+00 0. -1.
          5    1    1    2  502    0  0.11559929133E+03  0.10678927762E+03 -0.59284484639E+02  0.16823758821E+03  0.47000000000E+01 0. -1.
         -5    1    1    2    0  502  0.55995517362E+01 -0.31385372241E+02 -0.14545902917E+02  0.35356327043E+02  0.47000000000E+01 0. -1.
        -11    1    1    2    0    0 -0.50486084238E+02 -0.99008998322E-01 -0.35236349228E+02  0.61566669647E+02  0.00000000000E+00 0.  1.
         11    1    1    2    0    0 -0.70712758826E+02 -0.75304896377E+02 -0.24651132477E+03  0.26728066694E+03  0.00000000000E+00 0. -1.
<mgrwt>
<rscale>  0 0.39630535E+03</rscale>
<asrwt>0</asrwt>
<pdfrwt beam="2">  1        2 0.68309176E-01 0.39630535E+03</pdfrwt>
<pdfrwt beam="1">  1       -2 0.13604861E-01 0.39630535E+03</pdfrwt>
<totfact> 0.28795311E+03</totfact>
</mgrwt>
</event>
<event>
 6    1  0.7270761E-006  0.1673377E+03  0.7546771E-02  0.1188099E+00
         -2   -1    0    0    0  501 -0.00000000000E+00  0.00000000000E+00  0.19226382775E+03  0.19226382775E+03  0.00000000000E+00 0.  1.
          2   -1    0    0  501    0  0.00000000000E+00 -0.00000000000E+00 -0.12859108086E+03  0.12859108086E+03  0.00000000000E+00 0. -1.
          5    1    1    2  502    0 -0.18994135777E+02 -0.12471477104E+02  0.36666997472E+02  0.43392091891E+02  0.47000000000E+01 0.  1.
         -5    1    1    2    0  502  0.12702659968E+03  0.39039569948E+02  0.27248386356E+02  0.13573654485E+03  0.47000000000E+01 0.  1.
        -11    1    1    2    0    0 -0.11572779838E-01  0.18682840243E+02 -0.14630574244E+02  0.23729777837E+02  0.00000000000E+00 0. -1.
         11    1    1    2    0    0 -0.10802089112E+03 -0.45250933087E+02  0.14387937309E+02  0.11799649403E+03  0.00000000000E+00 0.  1.
<mgrwt>
<rscale>  0 0.16053055E+03</rscale>
<asrwt>0</asrwt>
<pdfrwt beam="2">  1        2 0.19783243E-01 0.16733766E+03</pdfrwt>
<pdfrwt beam="1">  1       -2 0.29579050E-01 0.16733766E+03</pdfrwt>
<totfact> 0.28762695E+03</totfact>
</mgrwt>
</event>
<event>
 6    1  0.7270761E-006  0.1278619E+03  0.7546771E-02  0.1244244E+00
         -2   -1    0    0    0  501 -0.00000000000E+00  0.00000000000E+00  0.13511690881E+04  0.13511690881E+04  0.00000000000E+00 0.  1.
          2   -1    0    0  501    0  0.00000000000E+00 -0.00000000000E+00 -0.12481627182E+02  0.12481627182E+02  0.00000000000E+00 0. -1.
          5    1    1    2  502    0 -0.44458617180E+02  0.26744287427E+02  0.46175038446E+03  0.46467981783E+03  0.47000000000E+01 0. -1.
         -5    1    1    2    0  502  0.71281826564E+02 -0.24912083436E+02  0.61571965573E+03  0.62035030036E+03  0.47000000000E+01 0. -1.
        -11    1    1    2    0    0  0.76607627870E+01  0.33520590109E+02  0.18237286542E+03  0.18558604281E+03  0.00000000000E+00 0. -1.
         11    1    1    2    0    0 -0.34483972171E+02 -0.35352794100E+02  0.78844555310E+02  0.93034554276E+02  0.00000000000E+00 0.  1.
<mgrwt>
<rscale>  0 0.11930741E+03</rscale>
<asrwt>0</asrwt>
<pdfrwt beam="2">  1        2 0.19202514E-02 0.12786192E+03</pdfrwt>
<pdfrwt beam="1">  1       -2 0.20787205E+00 0.12786192E+03</pdfrwt>
<totfact> 0.72357804E+02</totfact>
</mgrwt>
</event>
<event>
 6    1  0.7270761E-006  0.1253580E+03  0.7546771E-02  0.1240483E+00
         -3   -1    0    0    0  501 -0.00000000000E+00  0.00000000000E+00  0.47750087294E+02  0.47750087294E+02  0.00000000000E+00 0.  1.
          3   -1    0    0  501    0  0.00000000000E+00 -0.00000000000E+00 -0.29729597311E+03  0.29729597311E+03  0.00000000000E+00 0. -1.
          5    1    1    2  502    0 -0.21458467026E+02  0.34545532408E+02 -0.67776280199E+00  0.40943973657E+02  0.47000000000E+01 0.  1.
         -5    1    1    2    0  502  0.25195629654E+02 -0.25836218773E+02 -0.15355214931E+03  0.15780583802E+03  0.47000000000E+01 0.  1.
        -11    1    1    2    0    0 -0.33519571275E+02  0.40565623748E+02 -0.36867851036E+02  0.64252392395E+02  0.00000000000E+00 0.  1.
         11    1    1    2    0    0  0.29782408647E+02 -0.49274937382E+02 -0.58448122663E+02  0.82043856331E+02  0.00000000000E+00 0. -1.
<mgrwt>
<rscale>  0 0.12159875E+03</rscale>
<asrwt>0</asrwt>
<pdfrwt beam="2">  1        3 0.45737842E-01 0.12535797E+03</pdfrwt>
<pdfrwt beam="1">  1       -3 0.73461673E-02 0.12535797E+03</pdfrwt>
<totfact> 0.13295431E+03</totfact>
</mgrwt>
</event>
<event>
 6    1  0.7270761E-006  0.1312602E+03  0.7546771E-02  0.1241219E+00
          1   -1    0    0  501    0  0.00000000000E+00  0.00000000000E+00  0.77864640709E+02  0.77864640709E+02  0.00000000000E+00 0. -1.
         -1   -1    0    0    0  501 -0.00000000000E+00 -0.00000000000E+00 -0.24937675365E+03  0.24937675365E+03  0.00000000000E+00 0.  1.
          5    1    1    2  502    0  0.30535557506E+02  0.32346384270E+02 -0.93238446277E+02  0.10341279762E+03  0.47000000000E+01 0. -1.
         -5    1    1    2    0  502 -0.67207412495E+02 -0.48453014123E+02 -0.96058269101E+02  0.12694019038E+03  0.47000000000E+01 0. -1.
        -11    1    1    2    0    0  0.23879487752E+02  0.34194116568E+02 -0.25058810579E+02  0.48656053383E+02  0.00000000000E+00 0.  1.
         11    1    1    2    0    0  0.12792367237E+02 -0.18087486716E+02  0.42843413011E+02  0.48232352977E+02  0.00000000000E+00 0. -1.
<mgrwt>
<rscale>  0 0.12114549E+03</rscale>
<asrwt>0</asrwt>
<pdfrwt beam="1">  1        1 0.11979175E-01 0.13126025E+03</pdfrwt>
<pdfrwt beam="2">  1       -1 0.38365655E-01 0.13126025E+03</pdfrwt>
<totfact> 0.32156941E+03</totfact>
</mgrwt>
</event>
<event>
 6    1  0.7270761E-006  0.1308243E+03  0.7546771E-02  0.1244850E+00
         -1   -1    0    0    0  501 -0.00000000000E+00  0.00000000000E+00  0.32573729372E+03  0.32573729372E+03  0.00000000000E+00 0.  1.
          1   -1    0    0  501    0  0.00000000000E+00 -0.00000000000E+00 -0.39732819494E+02  0.39732819494E+02  0.00000000000E+00 0. -1.
          5    1    1    2  502    0  0.55244044464E+02  0.29333961846E+02  0.38639106930E+02  0.73671272221E+02  0.47000000000E+01 0.  1.
         -5    1    1    2    0  502 -0.24550819095E+02 -0.59129808428E+01  0.17475470919E+03  0.17663239920E+03  0.47000000000E+01 0.  1.
        -11    1    1    2    0    0  0.14034751059E+02  0.21683866977E+02  0.22583827168E+02  0.34310254647E+02  0.00000000000E+00 0. -1.
         11    1    1    2    0    0 -0.44727976428E+02 -0.45104847980E+02  0.50026830932E+02  0.80856187146E+02  0.00000000000E+00 0.  1.
<mgrwt>
<rscale>  0 0.11894373E+03</rscale>
<asrwt>0</asrwt>
<pdfrwt beam="2">  1        1 0.61127417E-02 0.13082434E+03</pdfrwt>
<pdfrwt beam="1">  1       -1 0.50113428E-01 0.13082434E+03</pdfrwt>
<totfact> 0.49045955E+03</totfact>
</mgrwt>
</event>
<event>
 6    1  0.7270761E-006  0.1707356E+03  0.7546771E-02  0.1183569E+00
          1   -1    0    0  501    0  0.00000000000E+00  0.00000000000E+00  0.85067227591E+03  0.85067227591E+03  0.00000000000E+00 0. -1.
         -1   -1    0    0    0  501 -0.00000000000E+00 -0.00000000000E+00 -0.32974070305E+02  0.32974070305E+02  0.00000000000E+00 0.  1.
          5    1    1    2  502    0  0.82792167854E+02 -0.32308086200E+02  0.14217550489E+03  0.16773288194E+03  0.47000000000E+01 0.  1.
         -5    1    1    2    0  502 -0.34305884463E+02 -0.73424859334E+02  0.15632079157E+03  0.17614307694E+03  0.47000000000E+01 0.  1.
        -11    1    1    2    0    0 -0.21211608415E+02  0.10237209859E+02  0.20343705680E+02  0.31122325717E+02  0.00000000000E+00 0.  1.
         11    1    1    2    0    0 -0.27274674976E+02  0.95495735676E+02  0.49885820346E+03  0.50864806162E+03  0.00000000000E+00 0. -1.
<mgrwt>
<rscale>  0 0.16462806E+03</rscale>
<asrwt>0</asrwt>
<pdfrwt beam="1">  1        1 0.13087264E+00 0.17073557E+03</pdfrwt>
<pdfrwt beam="2">  1       -1 0.50729345E-02 0.17073557E+03</pdfrwt>
<totfact> 0.35523741E+03</totfact>
</mgrwt>
</event>
<event>
 6    1  0.7270761E-006  0.3900463E+03  0.7546771E-02  0.1047282E+00
          2   -1    0    0  501    0  0.00000000000E+00  0.00000000000E+00  0.96336936425E+03  0.96336936425E+03  0.00000000000E+00 0. -1.
         -2   -1    0    0    0  501 -0.00000000000E+00 -0.00000000000E+00 -0.39480210967E+02  0.39480210967E+02  0.00000000000E+00 0.  1.
          5    1    1    2  502    0  0.29820808647E+02  0.46200373247E+01  0.10776759584E+03  0.11201147301E+03  0.47000000000E+01 0. -1.
         -5    1    1    2    0  502 -0.22815599302E+02 -0.15678433105E+03  0.23769323574E+03  0.28569571637E+03  0.47000000000E+01 0. -1.
        -11    1    1    2    0    0  0.33727840823E+02  0.71000981436E+02  0.17862424592E+03  0.19515462547E+03  0.00000000000E+00 0.  1.
         11    1    1    2    0    0 -0.40733050168E+02  0.81163312290E+02  0.39980407579E+03  0.40998776037E+03  0.00000000000E+00 0. -1.
<mgrwt>
<rscale>  0 0.39004628E+03</rscale>
<asrwt>0</asrwt>
<pdfrwt beam="1">  1        2 0.14821065E+00 0.39004628E+03</pdfrwt>
<pdfrwt beam="2">  1       -2 0.60738793E-02 0.39004628E+03</pdfrwt>
<totfact> 0.40370436E+03</totfact>
</mgrwt>
</event>
<event>
 6    1  0.7270761E-006  0.4856513E+03  0.7546771E-02  0.1017593E+00
          2   -1    0    0  501    0  0.00000000000E+00  0.00000000000E+00  0.33748445282E+03  0.33748445282E+03  0.00000000000E+00 0. -1.
         -2   -1    0    0    0  501 -0.00000000000E+00 -0.00000000000E+00 -0.17471709945E+03  0.17471709945E+03  0.00000000000E+00 0.  1.
          5    1    1    2  502    0  0.10488892950E+03  0.73887035182E+02 -0.10774115918E+03  0.16760438205E+03  0.47000000000E+01 0.  1.
         -5    1    1    2    0  502  0.25768228891E+02 -0.27279642174E+02  0.15248359505E+02  0.40777235866E+02  0.47000000000E+01 0.  1.
        -11    1    1    2    0    0 -0.83102194322E+02  0.74745279257E+01  0.85744444070E+02  0.11964093345E+03  0.00000000000E+00 0.  1.
         11    1    1    2    0    0 -0.47554964074E+02 -0.54081920934E+02  0.16951570898E+03  0.18417900090E+03  0.00000000000E+00 0. -1.
<mgrwt>
<rscale>  0 0.48565133E+03</rscale>
<asrwt>0</asrwt>
<pdfrwt beam="1">  1        2 0.51920685E-01 0.48565133E+03</pdfrwt>
<pdfrwt beam="2">  1       -2 0.26879554E-01 0.48565133E+03</pdfrwt>
<totfact> 0.12081820E+03</totfact>
</mgrwt>
</event>
<event>
 6    1  0.7270761E-006  0.3206350E+03  0.7546771E-02  0.1075357E+00
         -2   -1    0    0    0  501 -0.00000000000E+00  0.00000000000E+00  0.15591807191E+03  0.15591807191E+03  0.00000000000E+00 0. -1.
          2   -1    0    0  501    0  0.00000000000E+00 -0.00000000000E+00 -0.16484104989E+03  0.16484104989E+03  0.00000000000E+00 0.  1.
          5    1    1    2  502    0 -0.21237571502E+02 -0.94517200727E+02  0.89654370453E+02  0.13207774914E+03  0.47000000000E+01 0. -1.
         -5    1    1    2    0  502 -0.27073002535E+01 -0.60928109536E+01 -0.37468531164E+02  0.38346220772E+02  0.47000000000E+01 0. -1.
        -11    1    1    2    0    0 -0.14124281256E+02  0.66012853528E+02 -0.70979217089E+02  0.97955303126E+02  0.00000000000E+00 0.  1.
         11    1    1    2    0    0  0.38069153012E+02  0.34597158153E+02  0.98703998229E+01  0.52379848758E+02  0.00000000000E+00 0. -1.
<mgrwt>
<rscale>  0 0.32063499E+03</rscale>
<asrwt>0</asrwt>
<pdfrwt beam="2">  1        2 0.25360162E-01 0.32063499E+03</pdfrwt>
<pdfrwt beam="1">  1       -2 0.23987396E-01 0.32063499E+03</pdfrwt>
<totfact> 0.32415536E+03</totfact>
</mgrwt>
</event>
<event>
 6    1  0.7270761E-006  0.3137365E+03  0.7546771E-02  0.1078569E+00
         -1   -1    0    0    0  501 -0.00000000000E+00  0.00000000000E+00  0.42515472526E+03  0.42515472526E+03  0.00000000000E+00 0.  1.
          1   -1    0    0  501    0  0.00000000000E+00 -0.00000000000E+00 -0.57879289254E+02  0.57879289254E+02  0.00000000000E+00 0. -1.
          5    1    1    2  502    0 -0.11665182639E+02 -0.63676129196E+00 -0.10521946665E+02  0.16409854130E+02  0.47000000000E+01 0.  1.
         -5    1    1    2    0  502 -0.49834645534E+02  0.73786257984E+02  0.30127631393E+03  0.31419327030E+03  0.47000000000E+01 0.  1.
        -11    1    1    2    0    0  0.27562563533E+02 -0.14502642192E+02  0.78698774948E+02  0.84637572728E+02  0.00000000000E+00 0.  1.
         11    1    1    2    0    0  0.33937264640E+02 -0.58646854500E+02 -0.21777062105E+01  0.67793317357E+02  0.00000000000E+00 0. -1.
<mgrwt>
<rscale>  0 0.31373653E+03</rscale>
<asrwt>0</asrwt>
<pdfrwt beam="2">  1        1 0.89045063E-02 0.31373653E+03</pdfrwt>
<pdfrwt beam="1">  1       -1 0.65408417E-01 0.31373653E+03</pdfrwt>
<totfact> 0.18465400E+03</totfact>
</mgrwt>
</event>
<event>
 6    1  0.7270761E-006  0.2373303E+03  0.7546771E-02  0.1121584E+00
         -1   -1    0    0    0  501 -0.00000000000E+00  0.00000000000E+00  0.13793260461E+03  0.13793260461E+03  0.00000000000E+00 0.  1.
          1   -1    0    0  501    0  0.00000000000E+00 -0.00000000000E+00 -0.10208907805E+03  0.10208907805E+03  0.00000000000E+00 0. -1.
          5    1    1    2  502    0  0.35373839184E+02 -0.79784073927E+02  0.34668191466E+02  0.94025424490E+02  0.47000000000E+01 0.  1.
         -5    1    1    2    0  502 -0.16565004058E+02  0.39759377722E+02  0.12526082651E+01  0.43345893736E+02  0.47000000000E+01 0.  1.
        -11    1    1    2    0    0  0.28160863921E+02  0.37299112237E+02 -0.20904140758E+02  0.51198057886E+02  0.00000000000E+00 0. -1.
         11    1    1    2    0    0 -0.46969699047E+02  0.27255839678E+01  0.20826867586E+02  0.51452306557E+02  0.00000000000E+00 0.  1.
<mgrwt>
<rscale>  0 0.23733025E+03</rscale>
<asrwt>0</asrwt>
<pdfrwt beam="2">  1        1 0.15706012E-01 0.23733025E+03</pdfrwt>
<pdfrwt beam="1">  1       -1 0.21220401E-01 0.23733025E+03</pdfrwt>
<totfact> 0.63104284E+03</totfact>
</mgrwt>
</event>
<event>
 6    1  0.7270761E-006  0.1287765E+03  0.7546771E-02  0.1241675E+00
         -2   -1    0    0    0  501 -0.00000000000E+00  0.00000000000E+00  0.21709326549E+02  0.21709326549E+02  0.00000000000E+00 0.  1.
          2   -1    0    0  501    0  0.00000000000E+00 -0.00000000000E+00 -0.65316037621E+03  0.65316037621E+03  0.00000000000E+00 0. -1.
          5    1    1    2  502    0 -0.12580386875E+01 -0.39569157550E+02 -0.26704738864E+02  0.47984726407E+02  0.47000000000E+01 0. -1.
         -5    1    1    2    0  502 -0.20418533386E+02  0.61696695479E+02 -0.23233728977E+03  0.24130085984E+03  0.47000000000E+01 0. -1.
        -11    1    1    2    0    0 -0.36396513608E+02 -0.11217289133E+02 -0.10417167171E+03  0.11091560289E+03  0.00000000000E+00 0.  1.
         11    1    1    2    0    0  0.58073085681E+02 -0.10910248796E+02 -0.26823734932E+03  0.27466851363E+03  0.00000000000E+00 0. -1.
<mgrwt>
<rscale>  0 0.12086617E+03</rscale>
<asrwt>0</asrwt>
<pdfrwt beam="2">  1        2 0.10048620E+00 0.12877646E+03</pdfrwt>
<pdfrwt beam="1">  1       -2 0.33398967E-02 0.12877646E+03</pdfrwt>
<totfact> 0.15550800E+04</totfact>
</mgrwt>
</event>
<event>
 6    1  0.7270761E-006  0.1402491E+03  0.7546771E-02  0.1233655E+00
          2   -1    0    0  501    0  0.00000000000E+00  0.00000000000E+00  0.12738362330E+03  0.12738362330E+03  0.00000000000E+00 0. -1.
         -2   -1    0    0    0  501 -0.00000000000E+00 -0.00000000000E+00 -0.16146025900E+03  0.16146025900E+03  0.00000000000E+00 0.  1.
          5    1    1    2  502    0  0.66419483620E+02 -0.95559942529E+01 -0.29099976405E+02  0.73292315131E+02  0.47000000000E+01 0. -1.
         -5    1    1    2    0  502 -0.68129796042E+02  0.20862916753E+01 -0.74399526241E+02  0.10101188656E+03  0.47000000000E+01 0.  1.
        -11    1    1    2    0    0 -0.30300589785E+02  0.33353422633E+02  0.17650131339E+02  0.48395285710E+02  0.00000000000E+00 0.  1.
         11    1    1    2    0    0  0.32010902207E+02 -0.25883720056E+02  0.51772735608E+02  0.66144394897E+02  0.00000000000E+00 0. -1.
<mgrwt>
<rscale>  0 0.12590951E+03</rscale>
<asrwt>0</asrwt>
<pdfrwt beam="1">  1        2 0.19597481E-01 0.14024909E+03</pdfrwt>
<pdfrwt beam="2">  1       -2 0.24840040E-01 0.14024909E+03</pdfrwt>
<totfact> 0.39255088E+03</totfact>
</mgrwt>
</event>
<event>
 6    1  0.7270761E-006  0.1755133E+03  0.7546771E-02  0.1178091E+00
         -2   -1    0    0    0  501 -0.00000000000E+00  0.00000000000E+00  0.93323464667E+02  0.93323464667E+02  0.00000000000E+00 0.  1.
          2   -1    0    0  501    0  0.00000000000E+00 -0.00000000000E+00 -0.29357056878E+03  0.29357056878E+03  0.00000000000E+00 0. -1.
          5    1    1    2  502    0  0.12988281474E+02 -0.15322329272E+02 -0.62898908654E+02  0.66195407241E+02  0.47000000000E+01 0. -1.
         -5    1    1    2    0  502  0.15433811437E+02  0.13520567137E+03 -0.64423589304E+02  0.15063620072E+03  0.47000000000E+01 0. -1.
        -11    1    1    2    0    0  0.26475208172E+01  0.14873530260E+02 -0.10073734259E+02  0.18157956681E+02  0.00000000000E+00 0. -1.
         11    1    1    2    0    0 -0.31069613728E+02 -0.13475687236E+03 -0.62850871893E+02  0.15190446881E+03  0.00000000000E+00 0.  1.
<mgrwt>
<rscale>  0 0.16976729E+03</rscale>
<asrwt>0</asrwt>
<pdfrwt beam="2">  1        2 0.45164702E-01 0.17551333E+03</pdfrwt>
<pdfrwt beam="1">  1       -2 0.14357456E-01 0.17551333E+03</pdfrwt>
<totfact> 0.40204626E+03</totfact>
</mgrwt>
</event>
<event>
 6    1  0.7270761E-006  0.4378815E+03  0.7546771E-02  0.1064377E+00
         -1   -1    0    0    0  501 -0.00000000000E+00  0.00000000000E+00  0.97399158694E+02  0.97399158694E+02  0.00000000000E+00 0.  1.
          1   -1    0    0  501    0  0.00000000000E+00 -0.00000000000E+00 -0.11114817736E+04  0.11114817736E+04  0.00000000000E+00 0. -1.
          5    1    1    2  502    0 -0.11051819147E+03  0.12022464244E+03 -0.24575964980E+03  0.29510698190E+03  0.47000000000E+01 0. -1.
         -5    1    1    2    0  502  0.68337592169E+02 -0.25796692186E+03 -0.24079660679E+03  0.35947469329E+03  0.47000000000E+01 0.  1.
        -11    1    1    2    0    0  0.55545734029E+02  0.65799074878E+02 -0.18520297256E+03  0.20424247322E+03  0.00000000000E+00 0. -1.
         11    1    1    2    0    0 -0.13365134733E+02  0.71943204535E+02 -0.34232338579E+03  0.35005678392E+03  0.00000000000E+00 0.  1.
<mgrwt>
<rscale>  0 0.34573950E+03</rscale>
<asrwt>0</asrwt>
<pdfrwt beam="2">  1        1 0.17099720E+00 0.43788147E+03</pdfrwt>
<pdfrwt beam="1">  1       -1 0.14984486E-01 0.43788147E+03</pdfrwt>
<totfact> 0.42171986E+02</totfact>
</mgrwt>
</event>
<event>
 6    1  0.7270761E-006  0.2414886E+03  0.7546771E-02  0.1118805E+00
         -2   -1    0    0    0  501 -0.00000000000E+00  0.00000000000E+00  0.46710116909E+02  0.46710116909E+02  0.00000000000E+00 0.  1.
          2   -1    0    0  501    0  0.00000000000E+00 -0.00000000000E+00 -0.31212045313E+03  0.31212045313E+03  0.00000000000E+00 0. -1.
          5    1    1    2  502    0  0.57746409447E+02 -0.10284634727E+02  0.58337879713E+01  0.59131587139E+02  0.47000000000E+01 0. -1.
         -5    1    1    2    0  502 -0.20080422079E+02 -0.59982986310E+01 -0.10097728470E+03  0.10323616112E+03  0.47000000000E+01 0. -1.
        -11    1    1    2    0    0  0.41573020319E+01  0.40584134408E+02 -0.11981083133E+03  0.12656615041E+03  0.00000000000E+00 0.  1.
         11    1    1    2    0    0 -0.41823289400E+02 -0.24301201050E+02 -0.50456008154E+02  0.69896671362E+02  0.00000000000E+00 0. -1.
<mgrwt>
<rscale>  0 0.24148857E+03</rscale>
<asrwt>0</asrwt>
<pdfrwt beam="2">  1        2 0.48018533E-01 0.24148857E+03</pdfrwt>
<pdfrwt beam="1">  1       -2 0.71861716E-02 0.24148857E+03</pdfrwt>
<totfact> 0.11523395E+04</totfact>
</mgrwt>
</event>
<event>
 6    1  0.7270761E-006  0.1749044E+03  0.7546771E-02  0.1178904E+00
         -1   -1    0    0    0  501 -0.00000000000E+00  0.00000000000E+00  0.89383455642E+03  0.89383455642E+03  0.00000000000E+00 0.  1.
          1   -1    0    0  501    0  0.00000000000E+00 -0.00000000000E+00 -0.38513624125E+02  0.38513624125E+02  0.00000000000E+00 0. -1.
          5    1    1    2  502    0 -0.25645774881E+02 -0.15627002439E+02  0.85315652399E+02  0.90569086993E+02  0.47000000000E+01 0. -1.
         -5    1    1    2    0  502  0.39720352620E+02  0.13715080986E+03  0.58439449253E+03  0.60160374331E+03  0.47000000000E+01 0. -1.
        -11    1    1    2    0    0 -0.35472127251E+02 -0.11857538822E+03  0.17893278821E+03  0.21756685685E+03  0.00000000000E+00 0.  1.
         11    1    1    2    0    0  0.21397549512E+02 -0.29484191970E+01  0.66779991524E+01  0.22608493395E+02  0.00000000000E+00 0. -1.
<mgrwt>
<rscale>  0 0.16899090E+03</rscale>
<asrwt>0</asrwt>
<pdfrwt beam="2">  1        1 0.59251736E-02 0.17490440E+03</pdfrwt>
<pdfrwt beam="1">  1       -1 0.13751299E+00 0.17490440E+03</pdfrwt>
<totfact> 0.61928598E+02</totfact>
</mgrwt>
</event>
<event>
 6    1  0.7270761E-006  0.2039499E+03  0.7546771E-02  0.1150622E+00
         -2   -1    0    0    0  501 -0.00000000000E+00  0.00000000000E+00  0.10248649613E+03  0.10248649613E+03  0.00000000000E+00 0.  1.
          2   -1    0    0  501    0  0.00000000000E+00 -0.00000000000E+00 -0.59418625125E+03  0.59418625125E+03  0.00000000000E+00 0. -1.
          5    1    1    2  502    0  0.38964671309E+02  0.94727549211E+02  0.13183963130E+01  0.10254453841E+03  0.47000000000E+01 0. -1.
         -5    1    1    2    0  502  0.96668170917E+02 -0.76983215946E+01 -0.40184482998E+02  0.10507560182E+03  0.47000000000E+01 0. -1.
        -11    1    1    2    0    0 -0.28254900050E+02  0.18789378665E+02 -0.85312806756E+02  0.91813153328E+02  0.00000000000E+00 0.  1.
         11    1    1    2    0    0 -0.10737794218E+03 -0.10581860628E+03 -0.36752086168E+03  0.39723945382E+03  0.00000000000E+00 0. -1.
<mgrwt>
<rscale>  0 0.19895706E+03</rscale>
<asrwt>0</asrwt>
<pdfrwt beam="2">  1        2 0.91413268E-01 0.20394987E+03</pdfrwt>
<pdfrwt beam="1">  1       -2 0.15767153E-01 0.20394987E+03</pdfrwt>
<totfact> 0.16005858E+03</totfact>
</mgrwt>
</event>
<event>
 6    1  0.7270761E-006  0.1693902E+03  0.7546771E-02  0.1187060E+00
         -1   -1    0    0    0  501 -0.00000000000E+00  0.00000000000E+00  0.75257953483E+02  0.75257953483E+02  0.00000000000E+00 0. -1.
          1   -1    0    0  501    0  0.00000000000E+00 -0.00000000000E+00 -0.40055489379E+03  0.40055489379E+03  0.00000000000E+00 0.  1.
          5    1    1    2  502    0 -0.25295529736E+02  0.41397612884E+02 -0.17044717683E+01  0.48771112363E+02  0.47000000000E+01 0.  1.
         -5    1    1    2    0  502 -0.81080975017E+02 -0.83240278551E+02 -0.65411761881E+02  0.13343109486E+03  0.47000000000E+01 0.  1.
        -11    1    1    2    0    0  0.76845039672E+02  0.10432612779E+02 -0.22841532229E+03  0.24122097543E+03  0.00000000000E+00 0.  1.
         11    1    1    2    0    0  0.29531465081E+02  0.31410052888E+02 -0.29765384365E+02  0.52389664617E+02  0.00000000000E+00 0. -1.
<mgrwt>
<rscale>  0 0.16145796E+03</rscale>
<asrwt>0</asrwt>
<pdfrwt beam="2">  1        1 0.61623830E-01 0.16939025E+03</pdfrwt>
<pdfrwt beam="1">  1       -1 0.11578147E-01 0.16939025E+03</pdfrwt>
<totfact> 0.28755149E+03</totfact>
</mgrwt>
</event>
<event>
 6    1  0.7270761E-006  0.1831191E+03  0.7546771E-02  0.1170445E+00
          2   -1    0    0  501    0  0.00000000000E+00  0.00000000000E+00  0.18421854892E+03  0.18421854892E+03  0.00000000000E+00 0. -1.
         -2   -1    0    0    0  501 -0.00000000000E+00 -0.00000000000E+00 -0.16242787225E+03  0.16242787225E+03  0.00000000000E+00 0.  1.
          5    1    1    2  502    0  0.35864235013E+02 -0.24200647449E+02 -0.51839463864E+02  0.67685557572E+02  0.47000000000E+01 0. -1.
         -5    1    1    2    0  502  0.96366815238E+02  0.44708629462E+02  0.45221693608E+02  0.11555308823E+03  0.47000000000E+01 0. -1.
        -11    1    1    2    0    0 -0.55731995134E+02 -0.41632675399E+01 -0.32155170870E+02  0.64477461891E+02  0.00000000000E+00 0.  1.
         11    1    1    2    0    0 -0.76499055117E+02 -0.16344714473E+02  0.60563617789E+02  0.98930313477E+02  0.00000000000E+00 0. -1.
<mgrwt>
<rscale>  0 0.17729740E+03</rscale>
<asrwt>0</asrwt>
<pdfrwt beam="1">  1        2 0.28341315E-01 0.18311910E+03</pdfrwt>
<pdfrwt beam="2">  1       -2 0.24988903E-01 0.18311910E+03</pdfrwt>
<totfact> 0.26081033E+03</totfact>
</mgrwt>
</event>
<event>
 6    1  0.7270761E-006  0.2134160E+03  0.7546771E-02  0.1142886E+00
          2   -1    0    0  501    0  0.00000000000E+00  0.00000000000E+00  0.96041118005E+03  0.96041118005E+03  0.00000000000E+00 0. -1.
         -2   -1    0    0    0  501 -0.00000000000E+00 -0.00000000000E+00 -0.52493931156E+02  0.52493931156E+02  0.00000000000E+00 0.  1.
          5    1    1    2  502    0  0.10552589111E+03 -0.62460393580E+02  0.25570223266E+03  0.28362428713E+03  0.47000000000E+01 0. -1.
         -5    1    1    2    0  502  0.36487131396E+02 -0.36257532567E+02  0.29913180750E+01  0.51739321692E+02  0.47000000000E+01 0. -1.
        -11    1    1    2    0    0 -0.80530134056E+02  0.49644020465E+02  0.19712984366E+03  0.21865453693E+03  0.00000000000E+00 0.  1.
         11    1    1    2    0    0 -0.61482888447E+02  0.49073905683E+02  0.45209385449E+03  0.45888696545E+03  0.00000000000E+00 0. -1.
<mgrwt>
<rscale>  0 0.20834207E+03</rscale>
<asrwt>0</asrwt>
<pdfrwt beam="1">  1        2 0.14775555E+00 0.21341602E+03</pdfrwt>
<pdfrwt beam="2">  1       -2 0.80759901E-02 0.21341602E+03</pdfrwt>
<totfact> 0.25768697E+03</totfact>
</mgrwt>
</event>
<event>
 6    1  0.7270761E-006  0.1439740E+03  0.7546771E-02  0.1221523E+00
         -2   -1    0    0    0  501 -0.00000000000E+00  0.00000000000E+00  0.35224352731E+02  0.35224352731E+02  0.00000000000E+00 0.  1.
          2   -1    0    0  501    0  0.00000000000E+00 -0.00000000000E+00 -0.46570209836E+03  0.46570209836E+03  0.00000000000E+00 0. -1.
          5    1    1    2  502    0 -0.64369166038E+02  0.36574440269E+02 -0.67371564083E+02  0.10021026327E+03  0.47000000000E+01 0. -1.
         -5    1    1    2    0  502 -0.27838390085E+01 -0.60925340782E+02 -0.13435589953E+03  0.14762535232E+03  0.47000000000E+01 0. -1.
        -11    1    1    2    0    0  0.33603395518E+02  0.34408750803E+02 -0.44443800678E+02  0.65485889631E+02  0.00000000000E+00 0.  1.
         11    1    1    2    0    0  0.33549609529E+02 -0.10057850290E+02 -0.18430648134E+03  0.18760494588E+03  0.00000000000E+00 0. -1.
<mgrwt>
<rscale>  0 0.13408106E+03</rscale>
<asrwt>0</asrwt>
<pdfrwt beam="2">  1        2 0.71646475E-01 0.14397404E+03</pdfrwt>
<pdfrwt beam="1">  1       -2 0.54191313E-02 0.14397404E+03</pdfrwt>
<totfact> 0.11130780E+04</totfact>
</mgrwt>
</event>
<event>
 6    1  0.7270761E-006  0.1428298E+03  0.7546771E-02  0.1222626E+00
          2   -1    0    0  501    0  0.00000000000E+00  0.00000000000E+00  0.16435261326E+03  0.16435261326E+03  0.00000000000E+00 0. -1.
         -2   -1    0    0    0  501 -0.00000000000E+00 -0.00000000000E+00 -0.10812859273E+03  0.10812859273E+03  0.00000000000E+00 0.  1.
          5    1    1    2  502    0 -0.30575335910E+02  0.73824284384E+02  0.15571540114E+02  0.81544092320E+02  0.47000000000E+01 0. -1.
         -5    1    1    2    0  502 -0.19973863030E+02 -0.50579496855E+02 -0.29283533261E+02  0.61942360519E+02  0.47000000000E+01 0.  1.
        -11    1    1    2    0    0 -0.91801926707E+01  0.28102293833E+02  0.21030912438E+02  0.36281043730E+02  0.00000000000E+00 0.  1.
         11    1    1    2    0    0  0.59729391610E+02 -0.51347081362E+02  0.48905101244E+02  0.92713709419E+02  0.00000000000E+00 0. -1.
<mgrwt>
<rscale>  0 0.13330987E+03</rscale>
<asrwt>0</asrwt>
<pdfrwt beam="1">  1        2 0.25285017E-01 0.14282977E+03</pdfrwt>
<pdfrwt beam="2">  1       -2 0.16635168E-01 0.14282977E+03</pdfrwt>
<totfact> 0.58389367E+03</totfact>
</mgrwt>
</event>
<event>
 6    1  0.7270761E-006  0.1345790E+03  0.7546771E-02  0.1232988E+00
         -1   -1    0    0    0  501 -0.00000000000E+00  0.00000000000E+00  0.84031107365E+02  0.84031107365E+02  0.00000000000E+00 0.  1.
          1   -1    0    0  501    0  0.00000000000E+00 -0.00000000000E+00 -0.18890611644E+03  0.18890611644E+03  0.00000000000E+00 0. -1.
          5    1    1    2  502    0  0.43852512116E+02  0.16419404695E+02 -0.63739416108E+02  0.79230315128E+02  0.47000000000E+01 0. -1.
         -5    1    1    2    0  502  0.43481435868E+01 -0.28418638438E+02  0.48121339590E+02  0.56251921631E+02  0.47000000000E+01 0. -1.
        -11    1    1    2    0    0 -0.11483724541E+02  0.16043289970E+02  0.16318556937E+02  0.25603874372E+02  0.00000000000E+00 0.  1.
         11    1    1    2    0    0 -0.36716931162E+02 -0.40440562275E+01 -0.10557548949E+03  0.11185111267E+03  0.00000000000E+00 0. -1.
<mgrwt>
<rscale>  0 0.12634149E+03</rscale>
<asrwt>0</asrwt>
<pdfrwt beam="2">  1        1 0.29062479E-01 0.13457902E+03</pdfrwt>
<pdfrwt beam="1">  1       -1 0.12927863E-01 0.13457902E+03</pdfrwt>
<totfact> 0.61124602E+03</totfact>
</mgrwt>
</event>
<event>
 6    1  0.7270761E-006  0.1369705E+03  0.7546771E-02  0.1229668E+00
         -1   -1    0    0    0  501 -0.00000000000E+00  0.00000000000E+00  0.69795962430E+02  0.69795962430E+02  0.00000000000E+00 0.  1.
          1   -1    0    0  501    0  0.00000000000E+00 -0.00000000000E+00 -0.25877168452E+03  0.25877168452E+03  0.00000000000E+00 0. -1.
          5    1    1    2  502    0 -0.17135214534E+01  0.10435816890E+02 -0.73419570831E+02  0.74326077597E+02  0.47000000000E+01 0.  1.
         -5    1    1    2    0  502  0.53229338791E+02  0.11496667368E+02  0.38704655890E+02  0.66975191349E+02  0.47000000000E+01 0.  1.
        -11    1    1    2    0    0  0.96600060799E+00  0.17176741618E+02  0.25055236455E+01  0.17385374845E+02  0.00000000000E+00 0.  1.
         11    1    1    2    0    0 -0.52481817945E+02 -0.39109225875E+02 -0.15676633079E+03  0.16988100316E+03  0.00000000000E+00 0. -1.
<mgrwt>
<rscale>  0 0.12852035E+03</rscale>
<asrwt>0</asrwt>
<pdfrwt beam="2">  1        1 0.39811029E-01 0.13697052E+03</pdfrwt>
<pdfrwt beam="1">  1       -1 0.10737840E-01 0.13697052E+03</pdfrwt>
<totfact> 0.55143496E+03</totfact>
</mgrwt>
</event>
<event>
 6    1  0.7270761E-006  0.1319166E+03  0.7546771E-02  0.1235165E+00
          1   -1    0    0  501    0  0.00000000000E+00  0.00000000000E+00  0.13006124356E+03  0.13006124356E+03  0.00000000000E+00 0. -1.
         -1   -1    0    0    0  501 -0.00000000000E+00 -0.00000000000E+00 -0.10926039076E+03  0.10926039076E+03  0.00000000000E+00 0.  1.
          5    1    1    2  502    0 -0.98013711485E+01  0.20680835614E+02  0.52070804978E+02  0.57072082222E+02  0.47000000000E+01 0.  1.
         -5    1    1    2    0  502  0.51495192691E+02 -0.26988816460E+02 -0.47050712557E+02  0.74940046946E+02  0.47000000000E+01 0.  1.
        -11    1    1    2    0    0  0.16021061184E+02  0.18036847476E+02  0.37456073253E+02  0.44552886460E+02  0.00000000000E+00 0. -1.
         11    1    1    2    0    0 -0.57714882727E+02 -0.11728866629E+02 -0.21675312877E+02  0.62756618686E+02  0.00000000000E+00 0.  1.
<mgrwt>
<rscale>  0 0.12493880E+03</rscale>
<asrwt>0</asrwt>
<pdfrwt beam="1">  1        1 0.20009422E-01 0.13191664E+03</pdfrwt>
<pdfrwt beam="2">  1       -1 0.16809291E-01 0.13191664E+03</pdfrwt>
<totfact> 0.64714593E+03</totfact>
</mgrwt>
</event>
<event>
 6    1  0.7270761E-006  0.1353503E+03  0.7546771E-02  0.1232070E+00
         -4   -1    0    0    0  501 -0.00000000000E+00  0.00000000000E+00  0.44625849671E+03  0.44625849671E+03  0.00000000000E+00 0.  1.
          4   -1    0    0  501    0  0.00000000000E+00 -0.00000000000E+00 -0.33820400292E+02  0.33820400292E+02  0.00000000000E+00 0. -1.
          5    1    1    2  502    0  0.11516103010E+02 -0.64607703585E+02  0.24332952978E+03  0.25206770133E+03  0.47000000000E+01 0.  1.
         -5    1    1    2    0  502  0.31008800156E+02  0.34815356521E+02  0.38756505046E+02  0.60809632627E+02  0.47000000000E+01 0.  1.
        -11    1    1    2    0    0  0.14411814855E+02  0.13981494971E+02 -0.39592996419E+01  0.20466036810E+02  0.00000000000E+00 0. -1.
         11    1    1    2    0    0 -0.56936718021E+02  0.15810852093E+02  0.13431136123E+03  0.14673552624E+03  0.00000000000E+00 0.  1.
<mgrwt>
<rscale>  0 0.12693867E+03</rscale>
<asrwt>0</asrwt>
<pdfrwt beam="2">  1        4 0.52031388E-02 0.13535027E+03</pdfrwt>
<pdfrwt beam="1">  1       -4 0.68655149E-01 0.13535027E+03</pdfrwt>
<totfact> 0.73713193E+02</totfact>
</mgrwt>
</event>
<event>
 6    1  0.7270761E-006  0.1576680E+03  0.7546771E-02  0.1199909E+00
         -1   -1    0    0    0  501 -0.00000000000E+00  0.00000000000E+00  0.40295526331E+02  0.40295526331E+02  0.00000000000E+00 0.  1.
          1   -1    0    0  501    0  0.00000000000E+00 -0.00000000000E+00 -0.55453867194E+03  0.55453867194E+03  0.00000000000E+00 0. -1.
          5    1    1    2  502    0 -0.17889089978E+02 -0.41666491729E+02 -0.63326204575E+01  0.46025081804E+02  0.47000000000E+01 0.  1.
         -5    1    1    2    0  502 -0.75008709893E+02  0.17071331520E+02 -0.19513707039E+03  0.20980539354E+03  0.47000000000E+01 0.  1.
        -11    1    1    2    0    0  0.48421739885E+02 -0.19911329699E+02 -0.65514291161E+02  0.83864463810E+02  0.00000000000E+00 0.  1.
         11    1    1    2    0    0  0.44476059986E+02  0.44506489908E+02 -0.24725916361E+03  0.25513925912E+03  0.00000000000E+00 0. -1.
<mgrwt>
<rscale>  0 0.15045977E+03</rscale>
<asrwt>0</asrwt>
<pdfrwt beam="2">  1        1 0.85313641E-01 0.15766799E+03</pdfrwt>
<pdfrwt beam="1">  1       -1 0.61993118E-02 0.15766799E+03</pdfrwt>
<totfact> 0.48558236E+03</totfact>
</mgrwt>
</event>
<event>
 6    1  0.7270761E-006  0.1738622E+03  0.7546771E-02  0.1180140E+00
         -2   -1    0    0    0  501 -0.00000000000E+00  0.00000000000E+00  0.33093469332E+03  0.33093469332E+03  0.00000000000E+00 0.  1.
          2   -1    0    0  501    0  0.00000000000E+00 -0.00000000000E+00 -0.13777921681E+03  0.13777921681E+03  0.00000000000E+00 0. -1.
          5    1    1    2  502    0  0.24060960553E+02  0.71614440495E+02  0.48898550738E+02  0.90115016364E+02  0.47000000000E+01 0. -1.
         -5    1    1    2    0  502  0.73333157341E+02 -0.78770937676E-01  0.20357683639E+03  0.21643330725E+03  0.47000000000E+01 0. -1.
        -11    1    1    2    0    0 -0.11323229139E+03 -0.72359063927E+02 -0.48052416408E+02  0.14271096898E+03  0.00000000000E+00 0. -1.
         11    1    1    2    0    0  0.15838173493E+02  0.82339436978E+00 -0.11267494206E+02  0.19454617538E+02  0.00000000000E+00 0.  1.
<mgrwt>
<rscale>  0 0.16782059E+03</rscale>
<asrwt>0</asrwt>
<pdfrwt beam="2">  1        2 0.21196803E-01 0.17386217E+03</pdfrwt>
<pdfrwt beam="1">  1       -2 0.50913030E-01 0.17386217E+03</pdfrwt>
<totfact> 0.95280131E+02</totfact>
</mgrwt>
</event>
<event>
 6    1  0.7270761E-006  0.1444634E+03  0.7546771E-02  0.1217776E+00
          1   -1    0    0  501    0  0.00000000000E+00  0.00000000000E+00  0.13771935119E+02  0.13771935119E+02  0.00000000000E+00 0. -1.
         -1   -1    0    0    0  501 -0.00000000000E+00 -0.00000000000E+00 -0.12661912199E+04  0.12661912199E+04  0.00000000000E+00 0.  1.
          5    1    1    2  502    0  0.48294681645E+02  0.86206356703E+02 -0.61763103904E+03  0.62550307961E+03  0.47000000000E+01 0.  1.
         -5    1    1    2    0  502 -0.40537880352E+02 -0.14200527804E+02 -0.18077840120E+03  0.18587064070E+03  0.47000000000E+01 0.  1.
        -11    1    1    2    0    0  0.13392843306E+02 -0.73381985409E+02 -0.43058888500E+03  0.43700237061E+03  0.00000000000E+00 0.  1.
         11    1    1    2    0    0 -0.21149644599E+02  0.13761565107E+01 -0.23420959580E+02  0.31587064141E+02  0.00000000000E+00 0. -1.
<mgrwt>
<rscale>  0 0.13674556E+03</rscale>
<asrwt>0</asrwt>
<pdfrwt beam="1">  1        1 0.21187589E-02 0.14446342E+03</pdfrwt>
<pdfrwt beam="2">  1       -1 0.19479868E+00 0.14446342E+03</pdfrwt>
<totfact> 0.99194316E+02</totfact>
</mgrwt>
</event>
<event>
 6    1  0.7270761E-006  0.1979864E+03  0.7546771E-02  0.1156563E+00
         -2   -1    0    0    0  501 -0.00000000000E+00  0.00000000000E+00  0.10280370447E+03  0.10280370447E+03  0.00000000000E+00 0.  1.
          2   -1    0    0  501    0  0.00000000000E+00 -0.00000000000E+00 -0.34070681424E+03  0.34070681424E+03  0.00000000000E+00 0. -1.
          5    1    1    2  502    0  0.53744171624E+02  0.59796702211E+02 -0.50639989070E+01  0.80695821848E+02  0.47000000000E+01 0. -1.
         -5    1    1    2    0  502  0.96481927456E+02 -0.28086929994E+02 -0.10675734529E+03  0.14668625953E+03  0.47000000000E+01 0. -1.
        -11    1    1    2    0    0 -0.10252674530E+03  0.34536203473E+01 -0.36831821360E+02  0.10899653233E+03  0.00000000000E+00 0.  1.
         11    1    1    2    0    0 -0.47699353776E+02 -0.35163392564E+02 -0.89249944209E+02  0.10713190500E+03  0.00000000000E+00 0. -1.
<mgrwt>
<rscale>  0 0.19211954E+03</rscale>
<asrwt>0</asrwt>
<pdfrwt beam="2">  1        2 0.52416432E-01 0.19798636E+03</pdfrwt>
<pdfrwt beam="1">  1       -2 0.15815955E-01 0.19798636E+03</pdfrwt>
<totfact> 0.29378819E+03</totfact>
</mgrwt>
</event>
<event>
 6    1  0.7270761E-006  0.1360668E+03  0.7546771E-02  0.1230546E+00
          4   -1    0    0  501    0  0.00000000000E+00  0.00000000000E+00  0.41293349140E+02  0.41293349140E+02  0.00000000000E+00 0.  1.
         -4   -1    0    0    0  501 -0.00000000000E+00 -0.00000000000E+00 -0.36764239643E+03  0.36764239643E+03  0.00000000000E+00 0. -1.
          5    1    1    2  502    0 -0.59365181907E+01 -0.32573595600E+02 -0.15185800218E+03  0.15549670159E+03  0.47000000000E+01 0.  1.
         -5    1    1    2    0  502 -0.33153123346E+02  0.69575229497E+02 -0.67099686815E+02  0.10229516175E+03  0.47000000000E+01 0.  1.
        -11    1    1    2    0    0  0.12587992584E+02  0.30392637553E+02 -0.24141963341E+02  0.40804465058E+02  0.00000000000E+00 0.  1.
         11    1    1    2    0    0  0.26501648953E+02 -0.67394271450E+02 -0.83249394953E+02  0.11033941717E+03  0.00000000000E+00 0. -1.
<mgrwt>
<rscale>  0 0.12793945E+03</rscale>
<asrwt>0</asrwt>
<pdfrwt beam="1">  1        4 0.63528229E-02 0.13606680E+03</pdfrwt>
<pdfrwt beam="2">  1       -4 0.56560369E-01 0.13606680E+03</pdfrwt>
<totfact> 0.80421635E+02</totfact>
</mgrwt>
</event>
<event>
 6    1  0.7270761E-006  0.1476334E+03  0.7546771E-02  0.1221031E+00
         -1   -1    0    0    0  501 -0.00000000000E+00  0.00000000000E+00  0.14516750842E+03  0.14516750842E+03  0.00000000000E+00 0.  1.
          1   -1    0    0  501    0  0.00000000000E+00 -0.00000000000E+00 -0.21951004605E+03  0.21951004605E+03  0.00000000000E+00 0. -1.
          5    1    1    2  502    0 -0.44383758850E+02 -0.17570388126E+02 -0.15385524945E+02  0.50373018238E+02  0.47000000000E+01 0. -1.
         -5    1    1    2    0  502  0.43048265636E+02  0.45998524365E+02  0.10437958429E+03  0.12200903669E+03  0.47000000000E+01 0.  1.
        -11    1    1    2    0    0  0.45027202040E+02 -0.30207029757E+02 -0.64802116733E+02  0.84493951875E+02  0.00000000000E+00 0.  1.
         11    1    1    2    0    0 -0.43691708826E+02  0.17788935188E+01 -0.98534480239E+02  0.10780154766E+03  0.00000000000E+00 0. -1.
<mgrwt>
<rscale>  0 0.13442697E+03</rscale>
<asrwt>0</asrwt>
<pdfrwt beam="2">  1        1 0.33770776E-01 0.14763343E+03</pdfrwt>
<pdfrwt beam="1">  1       -1 0.22333463E-01 0.14763343E+03</pdfrwt>
<totfact> 0.21415263E+03</totfact>
</mgrwt>
</event>
<event>
 6    1  0.7270761E-006  0.1260445E+03  0.7546771E-02  0.1248468E+00
          2   -1    0    0  501    0  0.00000000000E+00  0.00000000000E+00  0.11345903688E+03  0.11345903688E+03  0.00000000000E+00 0. -1.
         -2   -1    0    0    0  501 -0.00000000000E+00 -0.00000000000E+00 -0.10568977791E+03  0.10568977791E+03  0.00000000000E+00 0.  1.
          5    1    1    2  502    0  0.14309520022E+02  0.81351685581E+01 -0.58415041576E+02  0.60871589539E+02  0.47000000000E+01 0.  1.
         -5    1    1    2    0  502 -0.45125683393E+01 -0.20994917701E+02  0.61390949354E+02  0.65208040185E+02  0.47000000000E+01 0.  1.
        -11    1    1    2    0    0  0.28211186361E+02  0.38023381541E+02  0.33168581476E+01  0.47462091480E+02  0.00000000000E+00 0.  1.
         11    1    1    2    0    0 -0.38008138044E+02 -0.25163632398E+02  0.14764930443E+01  0.45607093579E+02  0.00000000000E+00 0. -1.
<mgrwt>
<rscale>  0 0.11680198E+03</rscale>
<asrwt>0</asrwt>
<pdfrwt beam="1">  1        2 0.17455236E-01 0.12604450E+03</pdfrwt>
<pdfrwt beam="2">  1       -2 0.16259966E-01 0.12604450E+03</pdfrwt>
<totfact> 0.91132432E+03</totfact>
</mgrwt>
</event>
<event>
 6    1  0.7270761E-006  0.1849442E+03  0.7546771E-02  0.1168342E+00
          1   -1    0    0  501    0  0.00000000000E+00  0.00000000000E+00  0.12878198788E+03  0.12878198788E+03  0.00000000000E+00 0. -1.
         -1   -1    0    0    0  501 -0.00000000000E+00 -0.00000000000E+00 -0.23724639276E+03  0.23724639276E+03  0.00000000000E+00 0.  1.
          5    1    1    2  502    0  0.79697664782E+02  0.81102916430E+02 -0.88314557319E+02  0.14405190682E+03  0.47000000000E+01 0.  1.
         -5    1    1    2    0  502  0.43854954756E+02 -0.23549599817E+02  0.18953250571E+02  0.53471080178E+02  0.47000000000E+01 0.  1.
        -11    1    1    2    0    0 -0.11185129543E+02 -0.19029697507E+02 -0.44416380763E+02  0.49598905131E+02  0.00000000000E+00 0.  1.
         11    1    1    2    0    0 -0.11236749000E+03 -0.38523619107E+02  0.53132826257E+01  0.11890648851E+03  0.00000000000E+00 0. -1.
<mgrwt>
<rscale>  0 0.17944396E+03</rscale>
<asrwt>0</asrwt>
<pdfrwt beam="1">  1        1 0.19812614E-01 0.18494415E+03</pdfrwt>
<pdfrwt beam="2">  1       -1 0.36499444E-01 0.18494415E+03</pdfrwt>
<totfact> 0.18528268E+03</totfact>
</mgrwt>
</event>
<event>
 6    1  0.7270761E-006  0.2534034E+03  0.7546771E-02  0.1111173E+00
          2   -1    0    0  501    0  0.00000000000E+00  0.00000000000E+00  0.39021894082E+03  0.39021894082E+03  0.00000000000E+00 0.  1.
         -2   -1    0    0    0  501 -0.00000000000E+00 -0.00000000000E+00 -0.41139261747E+02  0.41139261747E+02  0.00000000000E+00 0. -1.
          5    1    1    2  502    0  0.66714327135E+02 -0.37350493984E+01  0.17939409787E+03  0.19149173452E+03  0.47000000000E+01 0.  1.
         -5    1    1    2    0  502 -0.46688766193E+01  0.13341290007E+02 -0.17158423642E+02  0.22722014212E+02  0.47000000000E+01 0.  1.
        -11    1    1    2    0    0 -0.28087828021E+02 -0.20587566840E+02  0.92949611058E+01  0.36044004956E+02  0.00000000000E+00 0. -1.
         11    1    1    2    0    0 -0.33957622495E+02  0.10981326232E+02  0.17754904374E+03  0.18110044888E+03  0.00000000000E+00 0.  1.
<mgrwt>
<rscale>  0 0.25340339E+03</rscale>
<asrwt>0</asrwt>
<pdfrwt beam="1">  1        2 0.60033681E-01 0.25340339E+03</pdfrwt>
<pdfrwt beam="2">  1       -2 0.63291175E-02 0.25340339E+03</pdfrwt>
<totfact> 0.11045985E+04</totfact>
</mgrwt>
</event>
<event>
 6    1  0.7270761E-006  0.1278484E+03  0.7546771E-02  0.1244952E+00
          1   -1    0    0  501    0  0.00000000000E+00  0.00000000000E+00  0.23574743831E+02  0.23574743831E+02  0.00000000000E+00 0. -1.
         -1   -1    0    0    0  501 -0.00000000000E+00 -0.00000000000E+00 -0.55113285306E+03  0.55113285306E+03  0.00000000000E+00 0.  1.
          5    1    1    2  502    0 -0.40217245744E+02 -0.29517093989E+02 -0.11292992542E+03  0.12354733404E+03  0.47000000000E+01 0.  1.
         -5    1    1    2    0  502  0.60543175262E+02  0.47025459460E+02 -0.13095740606E+03  0.15181831942E+03  0.47000000000E+01 0.  1.
        -11    1    1    2    0    0  0.13679208222E+02 -0.39243747770E+02 -0.22048170341E+03  0.22436437778E+03  0.00000000000E+00 0.  1.
         11    1    1    2    0    0 -0.34005137740E+02  0.21735382299E+02 -0.63189074330E+02  0.74977565652E+02  0.00000000000E+00 0. -1.
<mgrwt>
<rscale>  0 0.11888276E+03</rscale>
<asrwt>0</asrwt>
<pdfrwt beam="1">  1        1 0.36268838E-02 0.12784840E+03</pdfrwt>
<pdfrwt beam="2">  1       -1 0.84789667E-01 0.12784840E+03</pdfrwt>
<totfact> 0.36028823E+03</totfact>
</mgrwt>
</event>
<event>
 6    1  0.7270761E-006  0.1529685E+03  0.7546771E-02  0.1205010E+00
         -1   -1    0    0    0  501 -0.00000000000E+00  0.00000000000E+00  0.43668451535E+02  0.43668451535E+02  0.00000000000E+00 0.  1.
          1   -1    0    0  501    0  0.00000000000E+00 -0.00000000000E+00 -0.45363611890E+03  0.45363611890E+03  0.00000000000E+00 0. -1.
          5    1    1    2  502    0 -0.17439601162E+02 -0.24314727196E+02  0.49816847985E+01  0.30696137065E+02  0.47000000000E+01 0. -1.
         -5    1    1    2    0  502  0.27711525440E+02 -0.63288834354E+02 -0.23941950625E+03  0.24923321442E+03  0.47000000000E+01 0. -1.
        -11    1    1    2    0    0 -0.45470350799E+02  0.19085108486E+02 -0.50967793424E+02  0.70919039293E+02  0.00000000000E+00 0.  1.
         11    1    1    2    0    0  0.35198426521E+02  0.68518453064E+02 -0.12456205249E+03  0.14645617966E+03  0.00000000000E+00 0. -1.
<mgrwt>
<rscale>  0 0.14636704E+03</rscale>
<asrwt>0</asrwt>
<pdfrwt beam="2">  1        1 0.69790173E-01 0.15296846E+03</pdfrwt>
<pdfrwt beam="1">  1       -1 0.67182233E-02 0.15296846E+03</pdfrwt>
<totfact> 0.55937360E+03</totfact>
</mgrwt>
</event>
<event>
 6    1  0.7270761E-006  0.1549854E+03  0.7546771E-02  0.1199755E+00
         -1   -1    0    0    0  501 -0.00000000000E+00  0.00000000000E+00  0.42769406881E+03  0.42769406881E+03  0.00000000000E+00 0.  1.
          1   -1    0    0  501    0  0.00000000000E+00 -0.00000000000E+00 -0.97028016753E+02  0.97028016753E+02  0.00000000000E+00 0. -1.
          5    1    1    2  502    0  0.65111997159E+02  0.21628850061E+01  0.12707079428E+03  0.14287521480E+03  0.47000000000E+01 0. -1.
         -5    1    1    2    0  502 -0.19831711363E+02 -0.86165600996E+02  0.22525773337E+03  0.24203500576E+03  0.47000000000E+01 0.  1.
        -11    1    1    2    0    0  0.79305940610E+01 -0.19844706642E+02 -0.17905608414E+01  0.21445577912E+02  0.00000000000E+00 0.  1.
         11    1    1    2    0    0 -0.53210879856E+02  0.10384742263E+03 -0.19871914755E+02  0.11836628708E+03  0.00000000000E+00 0. -1.
<mgrwt>
<rscale>  0 0.15058616E+03</rscale>
<asrwt>0</asrwt>
<pdfrwt beam="2">  1        1 0.14927387E-01 0.15498544E+03</pdfrwt>
<pdfrwt beam="1">  1       -1 0.65799086E-01 0.15498544E+03</pdfrwt>
<totfact> 0.90240223E+02</totfact>
</mgrwt>
</event>
<event>
 6    1  0.7270761E-006  0.3649422E+03  0.7546771E-02  0.1056644E+00
          2   -1    0    0  501    0  0.00000000000E+00  0.00000000000E+00  0.64668093183E+02  0.64668093183E+02  0.00000000000E+00 0. -1.
         -2   -1    0    0    0  501 -0.00000000000E+00 -0.00000000000E+00 -0.51487060958E+03  0.51487060958E+03  0.00000000000E+00 0.  1.
          5    1    1    2  502    0 -0.67851716570E+01  0.26665001088E+02 -0.24813008260E+02  0.37347506160E+02  0.47000000000E+01 0. -1.
         -5    1    1    2    0  502 -0.27010968299E+02 -0.16308175219E+03 -0.25689888785E+03  0.30552312332E+03  0.47000000000E+01 0.  1.
        -11    1    1    2    0    0  0.60281326311E+02  0.72670790359E+02 -0.75704583370E+02  0.12102093214E+03  0.00000000000E+00 0.  1.
         11    1    1    2    0    0 -0.26485186356E+02  0.63745960742E+02 -0.92786036923E+02  0.11564714115E+03  0.00000000000E+00 0. -1.
<mgrwt>
<rscale>  0 0.36494219E+03</rscale>
<asrwt>0</asrwt>
<pdfrwt beam="1">  1        2 0.99489373E-02 0.36494219E+03</pdfrwt>
<pdfrwt beam="2">  1       -2 0.79210864E-01 0.36494219E+03</pdfrwt>
<totfact> 0.94463181E+02</totfact>
</mgrwt>
</event>
<event>
 6    1  0.7270761E-006  0.2478503E+03  0.7546771E-02  0.1149386E+00
          1   -1    0    0  501    0  0.00000000000E+00  0.00000000000E+00  0.69125338912E+03  0.69125338912E+03  0.00000000000E+00 0. -1.
         -1   -1    0    0    0  501 -0.00000000000E+00 -0.00000000000E+00 -0.73939172692E+02  0.73939172692E+02  0.00000000000E+00 0.  1.
          5    1    1    2  502    0 -0.69356458783E+02 -0.71567276712E+02  0.14627477639E+03  0.17706098858E+03  0.47000000000E+01 0. -1.
         -5    1    1    2    0  502  0.38665979792E+02  0.10968354906E+03  0.11991346146E+02  0.11701034702E+03  0.47000000000E+01 0.  1.
        -11    1    1    2    0    0  0.61260465514E+02 -0.29554746513E+02  0.37812649964E+03  0.38419523345E+03  0.00000000000E+00 0.  1.
         11    1    1    2    0    0 -0.30569986523E+02 -0.85615258314E+01  0.80921594252E+02  0.86925992758E+02  0.00000000000E+00 0. -1.
<mgrwt>
<rscale>  0 0.20041945E+03</rscale>
<asrwt>0</asrwt>
<pdfrwt beam="1">  1        1 0.10634667E+00 0.24785033E+03</pdfrwt>
<pdfrwt beam="2">  1       -1 0.11375258E-01 0.24785033E+03</pdfrwt>
<totfact> 0.14302018E+03</totfact>
</mgrwt>
</event>
<event>
 6    1  0.7270761E-006  0.1443202E+03  0.7546771E-02  0.1217902E+00
         -2   -1    0    0    0  501 -0.00000000000E+00  0.00000000000E+00  0.86579245018E+02  0.86579245018E+02  0.00000000000E+00 0.  1.
          2   -1    0    0  501    0  0.00000000000E+00 -0.00000000000E+00 -0.21739016854E+03  0.21739016854E+03  0.00000000000E+00 0. -1.
          5    1    1    2  502    0 -0.94699828774E+02 -0.55978677465E+01 -0.91539833672E+01  0.95421586157E+02  0.47000000000E+01 0. -1.
         -5    1    1    2    0  502  0.34424528802E+02 -0.34066171574E+02 -0.14906137262E+02  0.50890423038E+02  0.47000000000E+01 0. -1.
        -11    1    1    2    0    0  0.24316814228E+02  0.82318844157E+01 -0.10685690747E+03  0.10989754342E+03  0.00000000000E+00 0. -1.
         11    1    1    2    0    0  0.35958485745E+02  0.31432154904E+02  0.10610458067E+00  0.47759860942E+02  0.00000000000E+00 0.  1.
<mgrwt>
<rscale>  0 0.13665528E+03</rscale>
<asrwt>0</asrwt>
<pdfrwt beam="2">  1        2 0.33444641E-01 0.14432018E+03</pdfrwt>
<pdfrwt beam="1">  1       -2 0.13319884E-01 0.14432018E+03</pdfrwt>
<totfact> 0.61974817E+03</totfact>
</mgrwt>
</event>
<event>
 6    1  0.7270761E-006  0.1276027E+03  0.7546771E-02  0.1245304E+00
          1   -1    0    0  501    0  0.00000000000E+00  0.00000000000E+00  0.12664979850E+03  0.12664979850E+03  0.00000000000E+00 0. -1.
         -1   -1    0    0    0  501 -0.00000000000E+00 -0.00000000000E+00 -0.10697630470E+03  0.10697630470E+03  0.00000000000E+00 0.  1.
          5    1    1    2  502    0 -0.20492952054E+02  0.36220965792E+02 -0.66180689067E+02  0.78319174230E+02  0.47000000000E+01 0. -1.
         -5    1    1    2    0  502  0.22932550704E+02 -0.10707544094E+02  0.44212802947E+02  0.51160681453E+02  0.47000000000E+01 0. -1.
        -11    1    1    2    0    0  0.16922627019E+02 -0.53686756023E+02  0.92372251954E+01  0.57043574632E+02  0.00000000000E+00 0.  1.
         11    1    1    2    0    0 -0.19362225669E+02  0.28173334326E+02  0.32404154725E+02  0.47102672889E+02  0.00000000000E+00 0. -1.
<mgrwt>
<rscale>  0 0.11867225E+03</rscale>
<asrwt>0</asrwt>
<pdfrwt beam="1">  1        1 0.19484584E-01 0.12760268E+03</pdfrwt>
<pdfrwt beam="2">  1       -1 0.16457893E-01 0.12760268E+03</pdfrwt>
<totfact> 0.69038489E+03</totfact>
</mgrwt>
</event>
<event>
 6    1  0.7270761E-006  0.4054656E+03  0.7546771E-02  0.1041903E+00
          2   -1    0    0  501    0  0.00000000000E+00  0.00000000000E+00  0.28553530417E+03  0.28553530417E+03  0.00000000000E+00 0. -1.
         -2   -1    0    0    0  501 -0.00000000000E+00 -0.00000000000E+00 -0.14394220679E+03  0.14394220679E+03  0.00000000000E+00 0.  1.
          5    1    1    2  502    0  0.14368683598E+02  0.10079311899E+02 -0.33301909053E+02  0.37936245772E+02  0.47000000000E+01 0. -1.
         -5    1    1    2    0  502  0.15303089612E+03  0.21609920794E+02  0.97981548680E+02  0.18305168048E+03  0.47000000000E+01 0. -1.
        -11    1    1    2    0    0 -0.28086393587E+02 -0.98495354145E+01 -0.21337974555E+02  0.36621960771E+02  0.00000000000E+00 0.  1.
         11    1    1    2    0    0 -0.13931318613E+03 -0.21839697278E+02  0.98251432316E+02  0.17186762394E+03  0.00000000000E+00 0. -1.
<mgrwt>
<rscale>  0 0.40546557E+03</rscale>
<asrwt>0</asrwt>
<pdfrwt beam="1">  1        2 0.43928508E-01 0.40546557E+03</pdfrwt>
<pdfrwt beam="2">  1       -2 0.22144955E-01 0.40546557E+03</pdfrwt>
<totfact> 0.20452017E+03</totfact>
</mgrwt>
</event>
<event>
 6    1  0.7270761E-006  0.2020687E+03  0.7546771E-02  0.1170965E+00
          3   -1    0    0  501    0  0.00000000000E+00  0.00000000000E+00  0.12147395617E+03  0.12147395617E+03  0.00000000000E+00 0. -1.
         -3   -1    0    0    0  501 -0.00000000000E+00 -0.00000000000E+00 -0.30325987369E+03  0.30325987369E+03  0.00000000000E+00 0.  1.
          5    1    1    2  502    0 -0.35456785735E+02 -0.69240463048E+02 -0.66945079483E+01  0.78219766137E+02  0.47000000000E+01 0. -1.
         -5    1    1    2    0  502  0.53706633511E+02 -0.72495035616E+01 -0.21488062530E+03  0.22165904203E+03  0.47000000000E+01 0.  1.
        -11    1    1    2    0    0  0.29955468565E+02  0.69292405555E+01  0.23432074457E+02  0.38657555342E+02  0.00000000000E+00 0.  1.
         11    1    1    2    0    0 -0.48205316341E+02  0.69560726054E+02  0.16357141275E+02  0.86197466340E+02  0.00000000000E+00 0. -1.
<mgrwt>
<rscale>  0 0.17677139E+03</rscale>
<asrwt>0</asrwt>
<pdfrwt beam="1">  1        3 0.18688301E-01 0.20206870E+03</pdfrwt>
<pdfrwt beam="2">  1       -3 0.46655365E-01 0.20206870E+03</pdfrwt>
<totfact> 0.28385510E+02</totfact>
</mgrwt>
</event>
<event>
 6    1  0.7270761E-006  0.1286404E+03  0.7546771E-02  0.1243865E+00
          4   -1    0    0  501    0  0.00000000000E+00  0.00000000000E+00  0.28409320898E+03  0.28409320898E+03  0.00000000000E+00 0.  1.
         -4   -1    0    0    0  501 -0.00000000000E+00 -0.00000000000E+00 -0.50335309781E+02  0.50335309781E+02  0.00000000000E+00 0. -1.
          5    1    1    2  502    0  0.18833708532E+02 -0.44383108445E+02  0.11159478267E+02  0.49711093807E+02  0.47000000000E+01 0. -1.
         -5    1    1    2    0  502 -0.43576542302E+02  0.62020696374E+02  0.63720606916E+02  0.99135702768E+02  0.47000000000E+01 0. -1.
        -11    1    1    2    0    0 -0.27753381498E+02 -0.28628893421E+02  0.88743968859E+02  0.97290059780E+02  0.00000000000E+00 0.  1.
         11    1    1    2    0    0  0.52496215268E+02  0.10991305493E+02  0.70133845159E+02  0.88291662408E+02  0.00000000000E+00 0. -1.
<mgrwt>
<rscale>  0 0.11953554E+03</rscale>
<asrwt>0</asrwt>
<pdfrwt beam="1">  1        4 0.43706646E-01 0.12864036E+03</pdfrwt>
<pdfrwt beam="2">  1       -4 0.77438940E-02 0.12864036E+03</pdfrwt>
<totfact> 0.97040669E+02</totfact>
</mgrwt>
</event>
<event>
 6    1  0.7270761E-006  0.1492653E+03  0.7546771E-02  0.1211209E+00
         -1   -1    0    0    0  501 -0.00000000000E+00  0.00000000000E+00  0.56920557476E+02  0.56920557476E+02  0.00000000000E+00 0.  1.
          1   -1    0    0  501    0  0.00000000000E+00 -0.00000000000E+00 -0.34893925765E+03  0.34893925765E+03  0.00000000000E+00 0. -1.
          5    1    1    2  502    0  0.59626980291E+02 -0.65661988997E+02 -0.10490605699E+03  0.13745633623E+03  0.47000000000E+01 0.  1.
         -5    1    1    2    0  502 -0.40992393006E+02 -0.13762768717E+02  0.24888677810E+01  0.43566897410E+02  0.47000000000E+01 0.  1.
        -11    1    1    2    0    0  0.22025490551E+02  0.44342086617E+02 -0.33562094552E+02  0.59814355052E+02  0.00000000000E+00 0.  1.
         11    1    1    2    0    0 -0.40660077836E+02  0.35082671097E+02 -0.15603941641E+03  0.16502222643E+03  0.00000000000E+00 0. -1.
<mgrwt>
<rscale>  0 0.14158704E+03</rscale>
<asrwt>0</asrwt>
<pdfrwt beam="2">  1        1 0.53682963E-01 0.14926530E+03</pdfrwt>
<pdfrwt beam="1">  1       -1 0.87570088E-02 0.14926530E+03</pdfrwt>
<totfact> 0.52195963E+03</totfact>
</mgrwt>
</event>
<event>
 6    1  0.7270761E-006  0.1330389E+03  0.7546771E-02  0.1234057E+00
          2   -1    0    0  501    0  0.00000000000E+00  0.00000000000E+00  0.35288431219E+03  0.35288431219E+03  0.00000000000E+00 0. -1.
         -2   -1    0    0    0  501 -0.00000000000E+00 -0.00000000000E+00 -0.54395645387E+02  0.54395645387E+02  0.00000000000E+00 0.  1.
          5    1    1    2  502    0  0.72371758818E+02 -0.24442921901E+02  0.52739770976E+02  0.92944614412E+02  0.47000000000E+01 0. -1.
         -5    1    1    2    0  502 -0.30420960341E+02  0.42244814271E+02  0.64473970530E+01  0.52666100003E+02  0.47000000000E+01 0. -1.
        -11    1    1    2    0    0 -0.58531884936E+02 -0.38249930068E+02  0.11482166701E+03  0.13443605885E+03  0.00000000000E+00 0.  1.
         11    1    1    2    0    0  0.16581086459E+02  0.20448037699E+02  0.12447983177E+03  0.12723318432E+03  0.00000000000E+00 0. -1.
<mgrwt>
<rscale>  0 0.12565026E+03</rscale>
<asrwt>0</asrwt>
<pdfrwt beam="1">  1        2 0.54289893E-01 0.13303894E+03</pdfrwt>
<pdfrwt beam="2">  1       -2 0.83685610E-02 0.13303894E+03</pdfrwt>
<totfact> 0.76736913E+03</totfact>
</mgrwt>
</event>
<event>
 6    1  0.7270761E-006  0.3193918E+03  0.7546771E-02  0.1077224E+00
          2   -1    0    0  501    0  0.00000000000E+00  0.00000000000E+00  0.10949676246E+04  0.10949676246E+04  0.00000000000E+00 0. -1.
         -2   -1    0    0    0  501 -0.00000000000E+00 -0.00000000000E+00 -0.91509897496E+02  0.91509897496E+02  0.00000000000E+00 0.  1.
          5    1    1    2  502    0  0.11761313724E+03  0.14818570765E+02  0.11917449132E+03  0.16815793015E+03  0.47000000000E+01 0. -1.
         -5    1    1    2    0  502  0.15907031892E+03 -0.11397162712E+03  0.31445309201E+03  0.37039942660E+03  0.47000000000E+01 0. -1.
        -11    1    1    2    0    0 -0.18319584059E+03  0.43060314534E+02  0.27193811774E+03  0.33070416777E+03  0.00000000000E+00 0.  1.
         11    1    1    2    0    0 -0.93487615558E+02  0.56092741823E+02  0.29789202599E+03  0.31721599755E+03  0.00000000000E+00 0. -1.
<mgrwt>
<rscale>  0 0.31660085E+03</rscale>
<asrwt>0</asrwt>
<pdfrwt beam="1">  1        2 0.16845655E+00 0.31939184E+03</pdfrwt>
<pdfrwt beam="2">  1       -2 0.14078447E-01 0.31939184E+03</pdfrwt>
<totfact> 0.87477193E+02</totfact>
</mgrwt>
</event>
<event>
 6    1  0.7270761E-006  0.1264179E+03  0.7546771E-02  0.1246313E+00
         -1   -1    0    0    0  501 -0.00000000000E+00  0.00000000000E+00  0.36658911772E+03  0.36658911772E+03  0.00000000000E+00 0.  1.
          1   -1    0    0  501    0  0.00000000000E+00 -0.00000000000E+00 -0.37456377054E+02  0.37456377054E+02  0.00000000000E+00 0. -1.
          5    1    1    2  502    0 -0.41253088738E+02  0.48878755507E+02  0.16089233588E+03  0.17320330198E+03  0.47000000000E+01 0.  1.
         -5    1    1    2    0  502  0.49332955992E+02 -0.31721985325E+02  0.86464208528E+02  0.10458572683E+03  0.47000000000E+01 0.  1.
        -11    1    1    2    0    0  0.41725221950E+02 -0.19546188798E+02  0.43876868345E+02  0.63625680500E+02  0.00000000000E+00 0.  1.
         11    1    1    2    0    0 -0.49805089204E+02  0.23894186158E+01  0.37899327904E+02  0.62630785462E+02  0.00000000000E+00 0. -1.
<mgrwt>
<rscale>  0 0.11807115E+03</rscale>
<asrwt>0</asrwt>
<pdfrwt beam="2">  1        1 0.57625198E-02 0.12641790E+03</pdfrwt>
<pdfrwt beam="1">  1       -1 0.56398323E-01 0.12641790E+03</pdfrwt>
<totfact> 0.42620395E+03</totfact>
</mgrwt>
</event>
<event>
 6    1  0.7270761E-006  0.2739876E+03  0.7546771E-02  0.1099019E+00
          2   -1    0    0  501    0  0.00000000000E+00  0.00000000000E+00  0.11856552519E+03  0.11856552519E+03  0.00000000000E+00 0. -1.
         -2   -1    0    0    0  501 -0.00000000000E+00 -0.00000000000E+00 -0.15828631520E+03  0.15828631520E+03  0.00000000000E+00 0.  1.
          5    1    1    2  502    0 -0.41157409824E+02 -0.16597636856E+02  0.14268899603E+02  0.46851952238E+02  0.47000000000E+01 0.  1.
         -5    1    1    2    0  502  0.17218572678E+02  0.12215069844E-01 -0.11471707774E+03  0.11609727525E+03  0.47000000000E+01 0.  1.
        -11    1    1    2    0    0  0.35174884517E+02 -0.21901057967E+02  0.36395862546E+00  0.41437438467E+02  0.00000000000E+00 0.  1.
         11    1    1    2    0    0 -0.11236047370E+02  0.38486479754E+02  0.60363429508E+02  0.72465174437E+02  0.00000000000E+00 0. -1.
<mgrwt>
<rscale>  0 0.27398759E+03</rscale>
<asrwt>0</asrwt>
<pdfrwt beam="1">  1        2 0.18240850E-01 0.27398759E+03</pdfrwt>
<pdfrwt beam="2">  1       -2 0.24351741E-01 0.27398759E+03</pdfrwt>
<totfact> 0.45738837E+03</totfact>
</mgrwt>
</event>
<event>
 6    1  0.7270761E-006  0.1370103E+03  0.7546771E-02  0.1228620E+00
          2   -1    0    0  501    0  0.00000000000E+00  0.00000000000E+00  0.16271382727E+03  0.16271382727E+03  0.00000000000E+00 0.  1.
         -2   -1    0    0    0  501 -0.00000000000E+00 -0.00000000000E+00 -0.17872075979E+03  0.17872075979E+03  0.00000000000E+00 0. -1.
          5    1    1    2  502    0  0.16193558800E+02  0.67243425182E+02 -0.87175640306E+02  0.11138039253E+03  0.47000000000E+01 0. -1.
         -5    1    1    2    0  502  0.37666242537E+02 -0.51528697822E+02 -0.39444478897E+02  0.75179182235E+02  0.47000000000E+01 0. -1.
        -11    1    1    2    0    0  0.26217779693E+02 -0.87733396421E+01  0.22856379367E+02  0.35871402792E+02  0.00000000000E+00 0. -1.
         11    1    1    2    0    0 -0.80077581029E+02 -0.69413877186E+01  0.87756807311E+02  0.11900360951E+03  0.00000000000E+00 0.  1.
<mgrwt>
<rscale>  0 0.12921836E+03</rscale>
<asrwt>0</asrwt>
<pdfrwt beam="1">  1        2 0.25032897E-01 0.13701029E+03</pdfrwt>
<pdfrwt beam="2">  1       -2 0.27495501E-01 0.13701029E+03</pdfrwt>
<totfact> 0.24939536E+03</totfact>
</mgrwt>
</event>
<event>
 6    1  0.7270761E-006  0.3263125E+03  0.7546771E-02  0.1072780E+00
          3   -1    0    0  501    0  0.00000000000E+00  0.00000000000E+00  0.12701257383E+03  0.12701257383E+03  0.00000000000E+00 0. -1.
         -3   -1    0    0    0  501 -0.00000000000E+00 -0.00000000000E+00 -0.20958519869E+03  0.20958519869E+03  0.00000000000E+00 0.  1.
          5    1    1    2  502    0  0.11620108775E+03 -0.78325407888E+01 -0.14483237835E+02  0.11745593075E+03  0.47000000000E+01 0. -1.
         -5    1    1    2    0  502 -0.29393478438E+01  0.39485638540E+02 -0.54459098631E+02  0.67495472740E+02  0.47000000000E+01 0. -1.
        -11    1    1    2    0    0 -0.88229062618E+02  0.22536562399E+02 -0.12730471466E+02  0.91947425407E+02  0.00000000000E+00 0.  1.
         11    1    1    2    0    0 -0.25032677291E+02 -0.54189660150E+02 -0.89981692501E+00  0.59698943625E+02  0.00000000000E+00 0. -1.
<mgrwt>
<rscale>  0 0.32631246E+03</rscale>
<asrwt>0</asrwt>
<pdfrwt beam="1">  1        3 0.19540396E-01 0.32631246E+03</pdfrwt>
<pdfrwt beam="2">  1       -3 0.32243877E-01 0.32631246E+03</pdfrwt>
<totfact> 0.56579563E+02</totfact>
</mgrwt>
</event>
<event>
 6    1  0.7270761E-006  0.1587536E+03  0.7546771E-02  0.1200823E+00
         -2   -1    0    0    0  501 -0.00000000000E+00  0.00000000000E+00  0.10574179259E+03  0.10574179259E+03  0.00000000000E+00 0.  1.
          2   -1    0    0  501    0  0.00000000000E+00 -0.00000000000E+00 -0.19116129010E+03  0.19116129010E+03  0.00000000000E+00 0. -1.
          5    1    1    2  502    0  0.47992543913E+00 -0.43261373846E+02 -0.88632029641E+02  0.98739574000E+02  0.47000000000E+01 0. -1.
         -5    1    1    2    0  502 -0.35291630794E+02 -0.36327612589E+02  0.42822726667E+02  0.66491131436E+02  0.47000000000E+01 0.  1.
        -11    1    1    2    0    0 -0.28398582295E+02  0.21108114501E+02  0.31551041833E+01  0.35524451530E+02  0.00000000000E+00 0.  1.
         11    1    1    2    0    0  0.63210287650E+02  0.58480871933E+02 -0.42765298713E+02  0.96147925723E+02  0.00000000000E+00 0. -1.
<mgrwt>
<rscale>  0 0.14971555E+03</rscale>
<asrwt>0</asrwt>
<pdfrwt beam="2">  1        2 0.29409429E-01 0.15875356E+03</pdfrwt>
<pdfrwt beam="1">  1       -2 0.16267968E-01 0.15875356E+03</pdfrwt>
<totfact> 0.51675247E+03</totfact>
</mgrwt>
</event>
<event>
 6    1  0.7270761E-006  0.1581157E+03  0.7546771E-02  0.1199040E+00
         -1   -1    0    0    0  501 -0.00000000000E+00  0.00000000000E+00  0.19167454479E+03  0.19167454479E+03  0.00000000000E+00 0.  1.
          1   -1    0    0  501    0  0.00000000000E+00 -0.00000000000E+00 -0.15586103119E+03  0.15586103119E+03  0.00000000000E+00 0. -1.
          5    1    1    2  502    0  0.12121438627E+03  0.68276846776E+01  0.91426050246E+02  0.15205379765E+03  0.47000000000E+01 0. -1.
         -5    1    1    2    0  502 -0.28724881027E+02  0.21835455285E+02  0.21738108837E+02  0.42385625787E+02  0.47000000000E+01 0. -1.
        -11    1    1    2    0    0 -0.85460489365E+02  0.46578463033E+01 -0.82236654037E+02  0.11869312550E+03  0.00000000000E+00 0. -1.
         11    1    1    2    0    0 -0.70290158757E+01 -0.33320986265E+02  0.48860085452E+01  0.34403027038E+02  0.00000000000E+00 0.  1.
<mgrwt>
<rscale>  0 0.15117226E+03</rscale>
<asrwt>0</asrwt>
<pdfrwt beam="2">  1        1 0.23978620E-01 0.15811566E+03</pdfrwt>
<pdfrwt beam="1">  1       -1 0.29488391E-01 0.15811566E+03</pdfrwt>
<totfact> 0.20818782E+03</totfact>
</mgrwt>
</event>
<event>
 6    1  0.7270761E-006  0.2957882E+03  0.7546771E-02  0.1087365E+00
          2   -1    0    0  501    0  0.00000000000E+00  0.00000000000E+00  0.58589767899E+02  0.58589767899E+02  0.00000000000E+00 0. -1.
         -2   -1    0    0    0  501 -0.00000000000E+00 -0.00000000000E+00 -0.37331874335E+03  0.37331874335E+03  0.00000000000E+00 0.  1.
          5    1    1    2  502    0 -0.86855811442E+02 -0.67971155501E+02 -0.15159312953E+03  0.18752753633E+03  0.47000000000E+01 0. -1.
         -5    1    1    2    0  502  0.40690815741E+02 -0.61263457078E+01 -0.72983153255E+02  0.83916060778E+02  0.47000000000E+01 0. -1.
        -11    1    1    2    0    0 -0.25111722483E+01  0.37509969538E+02 -0.92165835385E+02  0.99538158578E+02  0.00000000000E+00 0.  1.
         11    1    1    2    0    0  0.48676167949E+02  0.36587531671E+02  0.20131427174E+01  0.60926755564E+02  0.00000000000E+00 0. -1.
<mgrwt>
<rscale>  0 0.29578816E+03</rscale>
<asrwt>0</asrwt>
<pdfrwt beam="1">  1        2 0.90138107E-02 0.29578816E+03</pdfrwt>
<pdfrwt beam="2">  1       -2 0.57433651E-01 0.29578816E+03</pdfrwt>
<totfact> 0.21153723E+03</totfact>
</mgrwt>
</event>
<event>
 6    1  0.7270761E-006  0.1791528E+03  0.7546771E-02  0.1174466E+00
          2   -1    0    0  501    0  0.00000000000E+00  0.00000000000E+00  0.83500307820E+03  0.83500307820E+03  0.00000000000E+00 0. -1.
         -2   -1    0    0    0  501 -0.00000000000E+00 -0.00000000000E+00 -0.33810322024E+02  0.33810322024E+02  0.00000000000E+00 0.  1.
          5    1    1    2  502    0  0.28510421955E+01 -0.96466773465E+02  0.23698062708E+03  0.25592161776E+03  0.47000000000E+01 0.  1.
         -5    1    1    2    0  502 -0.82030714056E+02 -0.45349613342E+01  0.18025983364E+03  0.19815474142E+03  0.47000000000E+01 0.  1.
        -11    1    1    2    0    0  0.55656965890E+02  0.65718367723E+02  0.34992636342E+03  0.36036795296E+03  0.00000000000E+00 0. -1.
         11    1    1    2    0    0  0.23522705970E+02  0.35283367076E+02  0.34025932043E+02  0.54369088090E+02  0.00000000000E+00 0.  1.
<mgrwt>
<rscale>  0 0.17328339E+03</rscale>
<asrwt>0</asrwt>
<pdfrwt beam="1">  1        2 0.12846200E+00 0.17915283E+03</pdfrwt>
<pdfrwt beam="2">  1       -2 0.52015886E-02 0.17915283E+03</pdfrwt>
<totfact> 0.60699619E+03</totfact>
</mgrwt>
</event>
<event>
 6    1  0.7270761E-006  0.1350752E+03  0.7546771E-02  0.1232113E+00
         -2   -1    0    0    0  501 -0.00000000000E+00  0.00000000000E+00  0.45162289345E+03  0.45162289345E+03  0.00000000000E+00 0.  1.
          2   -1    0    0  501    0  0.00000000000E+00 -0.00000000000E+00 -0.56280049287E+02  0.56280049287E+02  0.00000000000E+00 0. -1.
          5    1    1    2  502    0  0.15289234887E+02  0.61850671072E+01  0.29565026868E+03  0.29614723893E+03  0.47000000000E+01 0.  1.
         -5    1    1    2    0  502 -0.65089029545E+02  0.56475419617E+01  0.82110593158E+02  0.10503673646E+03  0.47000000000E+01 0.  1.
        -11    1    1    2    0    0 -0.19361801092E+02 -0.86174810333E+01  0.29643372269E+02  0.36439948413E+02  0.00000000000E+00 0.  1.
         11    1    1    2    0    0  0.69161595751E+02 -0.32151280356E+01 -0.12061389939E+02  0.70279018934E+02  0.00000000000E+00 0. -1.
<mgrwt>
<rscale>  0 0.12691072E+03</rscale>
<asrwt>0</asrwt>
<pdfrwt beam="2">  1        2 0.86584694E-02 0.13507521E+03</pdfrwt>
<pdfrwt beam="1">  1       -2 0.69480443E-01 0.13507521E+03</pdfrwt>
<totfact> 0.14446215E+03</totfact>
</mgrwt>
</event>
<event>
 6    1  0.7270761E-006  0.3193859E+03  0.7546771E-02  0.1075932E+00
          2   -1    0    0  501    0  0.00000000000E+00  0.00000000000E+00  0.40089649427E+03  0.40089649427E+03  0.00000000000E+00 0.  1.
         -2   -1    0    0    0  501 -0.00000000000E+00 -0.00000000000E+00 -0.63612039398E+02  0.63612039398E+02  0.00000000000E+00 0. -1.
          5    1    1    2  502    0  0.10070893524E+03 -0.42279339286E+02  0.64729609706E+02  0.12705055900E+03  0.47000000000E+01 0. -1.
         -5    1    1    2    0  502  0.30063940674E+01 -0.11802483005E+02  0.13660029323E+03  0.13722269172E+03  0.47000000000E+01 0. -1.
        -11    1    1    2    0    0 -0.87052234245E+02  0.15214336108E+02  0.13048522828E+03  0.15759429656E+03  0.00000000000E+00 0.  1.
         11    1    1    2    0    0 -0.16663095066E+02  0.38867486184E+02  0.54693236551E+01  0.42640986395E+02  0.00000000000E+00 0. -1.
<mgrwt>
<rscale>  0 0.31938593E+03</rscale>
<asrwt>0</asrwt>
<pdfrwt beam="1">  1        2 0.61676382E-01 0.31938593E+03</pdfrwt>
<pdfrwt beam="2">  1       -2 0.97864679E-02 0.31938593E+03</pdfrwt>
<totfact> 0.54727344E+03</totfact>
</mgrwt>
</event>
<event>
 6    1  0.7270761E-006  0.1495708E+03  0.7546771E-02  0.1210340E+00
         -1   -1    0    0    0  501 -0.00000000000E+00  0.00000000000E+00  0.31639256751E+03  0.31639256751E+03  0.00000000000E+00 0.  1.
          1   -1    0    0  501    0  0.00000000000E+00 -0.00000000000E+00 -0.11109323297E+03  0.11109323297E+03  0.00000000000E+00 0. -1.
          5    1    1    2  502    0 -0.34629199669E+02 -0.22773955724E+02  0.15105708707E+03  0.15671045939E+03  0.47000000000E+01 0.  1.
         -5    1    1    2    0  502 -0.10461021469E+02  0.91419326460E+02  0.10378013505E+03  0.13877799772E+03  0.47000000000E+01 0.  1.
        -11    1    1    2    0    0  0.79706388802E+01 -0.56124933314E+02  0.13040462508E+02  0.58168658968E+02  0.00000000000E+00 0.  1.
         11    1    1    2    0    0  0.37119582258E+02 -0.12520437422E+02 -0.62578350086E+02  0.73828684397E+02  0.00000000000E+00 0. -1.
<mgrwt>
<rscale>  0 0.14224442E+03</rscale>
<asrwt>0</asrwt>
<pdfrwt beam="2">  1        1 0.17091267E-01 0.14957078E+03</pdfrwt>
<pdfrwt beam="1">  1       -1 0.48675779E-01 0.14957078E+03</pdfrwt>
<totfact> 0.13341495E+03</totfact>
</mgrwt>
</event>
<event>
 6    1  0.7270761E-006  0.2172501E+03  0.7546771E-02  0.1138973E+00
          2   -1    0    0  501    0  0.00000000000E+00  0.00000000000E+00  0.82183501076E+03  0.82183501076E+03  0.00000000000E+00 0. -1.
         -2   -1    0    0    0  501 -0.00000000000E+00 -0.00000000000E+00 -0.56345259809E+02  0.56345259809E+02  0.00000000000E+00 0.  1.
          5    1    1    2  502    0  0.12055853054E+02  0.26308146558E+02  0.16251581361E+03  0.16513915902E+03  0.47000000000E+01 0.  1.
         -5    1    1    2    0  502 -0.95596728268E+01  0.15137012279E+03  0.13396257644E+03  0.20241631185E+03  0.47000000000E+01 0.  1.
        -11    1    1    2    0    0 -0.43684184547E+02 -0.70463440202E+02  0.24898560578E+03  0.26242567761E+03  0.00000000000E+00 0. -1.
         11    1    1    2    0    0  0.41188004320E+02 -0.10721482914E+03  0.22002575511E+03  0.24819912208E+03  0.00000000000E+00 0.  1.
<mgrwt>
<rscale>  0 0.21330804E+03</rscale>
<asrwt>0</asrwt>
<pdfrwt beam="1">  1        2 0.12643615E+00 0.21725006E+03</pdfrwt>
<pdfrwt beam="2">  1       -2 0.86685021E-02 0.21725006E+03</pdfrwt>
<totfact> 0.28364380E+03</totfact>
</mgrwt>
</event>
<event>
 6    1  0.7270761E-006  0.3218760E+03  0.7546771E-02  0.1120080E+00
          1   -1    0    0  501    0  0.00000000000E+00  0.00000000000E+00  0.53067496227E+02  0.53067496227E+02  0.00000000000E+00 0. -1.
         -1   -1    0    0    0  501 -0.00000000000E+00 -0.00000000000E+00 -0.84077160950E+03  0.84077160950E+03  0.00000000000E+00 0.  1.
          5    1    1    2  502    0  0.14425738574E+03  0.64519757049E+01 -0.18345834976E+03  0.23351847342E+03  0.47000000000E+01 0. -1.
         -5    1    1    2    0  502 -0.15293217527E+03 -0.38966194115E+02 -0.45252342727E+03  0.47927670165E+03  0.47000000000E+01 0.  1.
        -11    1    1    2    0    0  0.28995619689E+02 -0.50612764163E+01 -0.71466564273E+01  0.30289225447E+02  0.00000000000E+00 0. -1.
         11    1    1    2    0    0 -0.20320830154E+02  0.37575494827E+02 -0.14457567981E+03  0.15075470521E+03  0.00000000000E+00 0.  1.
<mgrwt>
<rscale>  0 0.23956991E+03</rscale>
<asrwt>0</asrwt>
<pdfrwt beam="1">  1        1 0.81642301E-02 0.32187597E+03</pdfrwt>
<pdfrwt beam="2">  1       -1 0.12934948E+00 0.32187597E+03</pdfrwt>
<totfact> 0.46611943E+02</totfact>
</mgrwt>
</event>
<event>
 6    1  0.7270761E-006  0.1919011E+03  0.7546771E-02  0.1158386E+00
         -2   -1    0    0    0  501 -0.00000000000E+00  0.00000000000E+00  0.19812305120E+03  0.19812305120E+03  0.00000000000E+00 0. -1.
          2   -1    0    0  501    0  0.00000000000E+00 -0.00000000000E+00 -0.18344760099E+03  0.18344760099E+03  0.00000000000E+00 0.  1.
          5    1    1    2  502    0 -0.59022892539E+02  0.22248035497E+02 -0.31214114845E+02  0.70534302950E+02  0.47000000000E+01 0.  1.
         -5    1    1    2    0  502 -0.14499682440E+02  0.10343425362E+03  0.68395437024E+02  0.12493562910E+03  0.47000000000E+01 0.  1.
        -11    1    1    2    0    0  0.25424254881E+02 -0.14478516444E+01 -0.44311440465E+02  0.51107658592E+02  0.00000000000E+00 0.  1.
         11    1    1    2    0    0  0.48098320098E+02 -0.12423443747E+03  0.21805568488E+02  0.13499306155E+03  0.00000000000E+00 0. -1.
<mgrwt>
<rscale>  0 0.19008391E+03</rscale>
<asrwt>0</asrwt>
<pdfrwt beam="2">  1        2 0.28222708E-01 0.19190113E+03</pdfrwt>
<pdfrwt beam="1">  1       -2 0.30480470E-01 0.19190113E+03</pdfrwt>
<totfact> 0.18408153E+03</totfact>
</mgrwt>
</event>
<event>
 6    1  0.7270761E-006  0.1540890E+03  0.7546771E-02  0.1204099E+00
          1   -1    0    0  501    0  0.00000000000E+00  0.00000000000E+00  0.58654375904E+02  0.58654375904E+02  0.00000000000E+00 0. -1.
         -1   -1    0    0    0  501 -0.00000000000E+00 -0.00000000000E+00 -0.36591249322E+03  0.36591249322E+03  0.00000000000E+00 0.  1.
          5    1    1    2  502    0 -0.38642944357E+02  0.64479491040E+02 -0.69160859433E+02  0.10225554455E+03  0.47000000000E+01 0.  1.
         -5    1    1    2    0  502 -0.49894985670E+02 -0.47761382857E+02 -0.15500404693E+03  0.16976160889E+03  0.47000000000E+01 0.  1.
        -11    1    1    2    0    0  0.65846441832E+02 -0.24937482001E+02 -0.10055873646E+03  0.12275867134E+03  0.00000000000E+00 0.  1.
         11    1    1    2    0    0  0.22691488195E+02  0.82193738183E+01  0.17465525504E+02  0.29791044352E+02  0.00000000000E+00 0. -1.
<mgrwt>
<rscale>  0 0.14708714E+03</rscale>
<asrwt>0</asrwt>
<pdfrwt beam="1">  1        1 0.90237501E-02 0.15408902E+03</pdfrwt>
<pdfrwt beam="2">  1       -1 0.56294230E-01 0.15408902E+03</pdfrwt>
<totfact> 0.23620257E+03</totfact>
</mgrwt>
</event>
<event>
 6    1  0.7270761E-006  0.2861695E+03  0.7546771E-02  0.1092366E+00
         -1   -1    0    0    0  501 -0.00000000000E+00  0.00000000000E+00  0.34026809262E+03  0.34026809262E+03  0.00000000000E+00 0.  1.
          1   -1    0    0  501    0  0.00000000000E+00 -0.00000000000E+00 -0.60167975994E+02  0.60167975994E+02  0.00000000000E+00 0. -1.
          5    1    1    2  502    0  0.96647867118E+01  0.17931880758E+01  0.93557230874E+02  0.94189538031E+02  0.47000000000E+01 0.  1.
         -5    1    1    2    0  502 -0.10047085643E+03 -0.15172717412E+02  0.36049791182E+02  0.10791794008E+03  0.47000000000E+01 0.  1.
        -11    1    1    2    0    0  0.42614189807E+02  0.52120359982E+02  0.80087530662E+02  0.10462558800E+03  0.00000000000E+00 0.  1.
         11    1    1    2    0    0  0.48191879915E+02 -0.38740830646E+02  0.70405563912E+02  0.93703002506E+02  0.00000000000E+00 0. -1.
<mgrwt>
<rscale>  0 0.28616948E+03</rscale>
<asrwt>0</asrwt>
<pdfrwt beam="2">  1        1 0.92566119E-02 0.28616948E+03</pdfrwt>
<pdfrwt beam="1">  1       -1 0.52348936E-01 0.28616948E+03</pdfrwt>
<totfact> 0.26812295E+03</totfact>
</mgrwt>
</event>
<event>
 6    1  0.7270761E-006  0.3890816E+03  0.7546771E-02  0.1047627E+00
          2   -1    0    0  501    0  0.00000000000E+00  0.00000000000E+00  0.36243437713E+03  0.36243437713E+03  0.00000000000E+00 0. -1.
         -2   -1    0    0    0  501 -0.00000000000E+00 -0.00000000000E+00 -0.10442202205E+03  0.10442202205E+03  0.00000000000E+00 0.  1.
          5    1    1    2  502    0 -0.21575610785E+02 -0.82670234756E+01 -0.15735785876E+02  0.28347056550E+02  0.47000000000E+01 0. -1.
         -5    1    1    2    0  502  0.95947366569E+02 -0.12684125650E+03  0.95684240802E+02  0.18566681298E+03  0.47000000000E+01 0. -1.
        -11    1    1    2    0    0 -0.71246639959E+02  0.59105435735E+02  0.53585897687E+02  0.10696253863E+03  0.00000000000E+00 0.  1.
         11    1    1    2    0    0 -0.31251158248E+01  0.76002844244E+02  0.12447800247E+03  0.14587999103E+03  0.00000000000E+00 0. -1.
<mgrwt>
<rscale>  0 0.38908164E+03</rscale>
<asrwt>0</asrwt>
<pdfrwt beam="1">  1        2 0.55759134E-01 0.38908164E+03</pdfrwt>
<pdfrwt beam="2">  1       -2 0.16064927E-01 0.38908164E+03</pdfrwt>
<totfact> 0.27308034E+03</totfact>
</mgrwt>
</event>
<event>
 6    1  0.7270761E-006  0.1468373E+03  0.7546771E-02  0.1213521E+00
         -2   -1    0    0    0  501 -0.00000000000E+00  0.00000000000E+00  0.13372715767E+02  0.13372715767E+02  0.00000000000E+00 0. -1.
          2   -1    0    0  501    0  0.00000000000E+00 -0.00000000000E+00 -0.13491470184E+04  0.13491470184E+04  0.00000000000E+00 0.  1.
          5    1    1    2  502    0  0.29183340177E+02  0.16507906479E+02 -0.12182656599E+03  0.12644358624E+03  0.47000000000E+01 0. -1.
         -5    1    1    2    0  502 -0.81158623633E+02 -0.73382005422E+02 -0.66760022616E+03  0.67652331288E+03  0.47000000000E+01 0. -1.
        -11    1    1    2    0    0  0.12536098469E+02 -0.23141035251E+02 -0.67163081361E+02  0.72135572190E+02  0.00000000000E+00 0. -1.
         11    1    1    2    0    0  0.39439184988E+02  0.80015134194E+02 -0.47918442914E+03  0.48741726287E+03  0.00000000000E+00 0.  1.
<mgrwt>
<rscale>  0 0.13985736E+03</rscale>
<asrwt>0</asrwt>
<pdfrwt beam="2">  1        2 0.20756103E+00 0.14683726E+03</pdfrwt>
<pdfrwt beam="1">  1       -2 0.20573414E-02 0.14683726E+03</pdfrwt>
<totfact> 0.11893306E+04</totfact>
</mgrwt>
</event>
<event>
 6    1  0.7270761E-006  0.1253894E+03  0.7546771E-02  0.1249892E+00
          1   -1    0    0  501    0  0.00000000000E+00  0.00000000000E+00  0.37377587506E+03  0.37377587506E+03  0.00000000000E+00 0. -1.
         -1   -1    0    0    0  501 -0.00000000000E+00 -0.00000000000E+00 -0.38214473527E+02  0.38214473527E+02  0.00000000000E+00 0.  1.
          5    1    1    2  502    0 -0.49827403652E+02  0.44526253376E+02  0.57680778132E+02  0.88399771269E+02  0.47000000000E+01 0. -1.
         -5    1    1    2    0  502  0.40246352843E+02 -0.41998516462E+02  0.46302537956E+02  0.74496035622E+02  0.47000000000E+01 0. -1.
        -11    1    1    2    0    0 -0.31091724083E+02 -0.12575865185E+01  0.29221238662E+02  0.42686738213E+02  0.00000000000E+00 0.  1.
         11    1    1    2    0    0  0.40672774891E+02 -0.12701503952E+01  0.20235684679E+03  0.20640780349E+03  0.00000000000E+00 0. -1.
<mgrwt>
<rscale>  0 0.11597322E+03</rscale>
<asrwt>0</asrwt>
<pdfrwt beam="1">  1        1 0.57503978E-01 0.12538945E+03</pdfrwt>
<pdfrwt beam="2">  1       -1 0.58791500E-02 0.12538945E+03</pdfrwt>
<totfact> 0.86165928E+03</totfact>
</mgrwt>
</event>
<event>
 6    1  0.7270761E-006  0.3005470E+03  0.7546771E-02  0.1084967E+00
          1   -1    0    0  501    0  0.00000000000E+00  0.00000000000E+00  0.18017999412E+02  0.18017999412E+02  0.00000000000E+00 0. -1.
         -1   -1    0    0    0  501 -0.00000000000E+00 -0.00000000000E+00 -0.12533096198E+04  0.12533096198E+04  0.00000000000E+00 0.  1.
          5    1    1    2  502    0 -0.90897499017E+02 -0.99728677200E+02 -0.55470185911E+03  0.57089789533E+03  0.47000000000E+01 0.  1.
         -5    1    1    2    0  502  0.24378841553E+02  0.15713573608E+02 -0.13951651950E+03  0.14257697404E+03  0.47000000000E+01 0.  1.
        -11    1    1    2    0    0  0.16301566554E+02  0.83973061048E+02 -0.34692515233E+03  0.35731537522E+03  0.00000000000E+00 0.  1.
         11    1    1    2    0    0  0.50217090910E+02  0.42042544045E-01 -0.19414808945E+03  0.20053737463E+03  0.00000000000E+00 0. -1.
<mgrwt>
<rscale>  0 0.30054705E+03</rscale>
<asrwt>0</asrwt>
<pdfrwt beam="1">  1        1 0.27719997E-02 0.30054705E+03</pdfrwt>
<pdfrwt beam="2">  1       -1 0.19281688E+00 0.30054705E+03</pdfrwt>
<totfact> 0.71195776E+02</totfact>
</mgrwt>
</event>
<event>
 6    1  0.7270761E-006  0.3453168E+03  0.7546771E-02  0.1064554E+00
         -1   -1    0    0    0  501 -0.00000000000E+00  0.00000000000E+00  0.40765637608E+03  0.40765637608E+03  0.00000000000E+00 0.  1.
          1   -1    0    0  501    0  0.00000000000E+00 -0.00000000000E+00 -0.73127565478E+02  0.73127565478E+02  0.00000000000E+00 0. -1.
          5    1    1    2  502    0  0.23992324907E+02  0.94749902392E+01  0.11773298940E+03  0.12061738634E+03  0.47000000000E+01 0. -1.
         -5    1    1    2    0  502 -0.78626265282E+02 -0.10467392560E+03  0.72878011246E+02  0.14990668703E+03  0.47000000000E+01 0.  1.
        -11    1    1    2    0    0  0.38594404905E+02  0.57113692747E+02  0.94385706464E+01  0.69574338696E+02  0.00000000000E+00 0. -1.
         11    1    1    2    0    0  0.16039535470E+02  0.38085242616E+02  0.13447923931E+03  0.14068552949E+03  0.00000000000E+00 0.  1.
<mgrwt>
<rscale>  0 0.34531677E+03</rscale>
<asrwt>0</asrwt>
<pdfrwt beam="2">  1        1 0.11250395E-01 0.34531677E+03</pdfrwt>
<pdfrwt beam="1">  1       -1 0.62716364E-01 0.34531677E+03</pdfrwt>
<totfact> 0.14636763E+03</totfact>
</mgrwt>
</event>
<event>
 6    1  0.7270761E-006  0.1268501E+03  0.7546771E-02  0.1247643E+00
          2   -1    0    0  501    0  0.00000000000E+00  0.00000000000E+00  0.16628408682E+02  0.16628408682E+02  0.00000000000E+00 0. -1.
         -2   -1    0    0    0  501 -0.00000000000E+00 -0.00000000000E+00 -0.97862886796E+03  0.97862886796E+03  0.00000000000E+00 0.  1.
          5    1    1    2  502    0  0.35149348632E+02 -0.14419239927E+02 -0.68770307339E+02  0.78707282768E+02  0.47000000000E+01 0.  1.
         -5    1    1    2    0  502 -0.14335513839E+02  0.88724258241E+01 -0.71881042833E+03  0.71902346886E+03  0.47000000000E+01 0.  1.
        -11    1    1    2    0    0  0.28522093406E+02  0.89626794529E+00 -0.12239612799E+03  0.12567865871E+03  0.00000000000E+00 0.  1.
         11    1    1    2    0    0 -0.49335928199E+02  0.46505461579E+01 -0.52023595621E+02  0.71847866302E+02  0.00000000000E+00 0. -1.
<mgrwt>
<rscale>  0 0.11728582E+03</rscale>
<asrwt>0</asrwt>
<pdfrwt beam="1">  1        2 0.25582157E-02 0.12685006E+03</pdfrwt>
<pdfrwt beam="2">  1       -2 0.15055835E+00 0.12685006E+03</pdfrwt>
<totfact> 0.11766691E+03</totfact>
</mgrwt>
</event>
<event>
 6    1  0.7270761E-006  0.1345310E+03  0.7546771E-02  0.1234392E+00
         -1   -1    0    0    0  501 -0.00000000000E+00  0.00000000000E+00  0.65447363561E+02  0.65447363561E+02  0.00000000000E+00 0.  1.
          1   -1    0    0  501    0  0.00000000000E+00 -0.00000000000E+00 -0.22142122009E+03  0.22142122009E+03  0.00000000000E+00 0. -1.
          5    1    1    2  502    0 -0.64097886966E+02 -0.29561597734E+02 -0.33888126919E+02  0.78440565527E+02  0.47000000000E+01 0. -1.
         -5    1    1    2    0  502  0.60336491238E+02 -0.20024470697E+02 -0.27023478252E+02  0.69237489689E+02  0.47000000000E+01 0. -1.
        -11    1    1    2    0    0 -0.26329678627E+02  0.20167759124E+02  0.21754047541E+01  0.33237371594E+02  0.00000000000E+00 0.  1.
         11    1    1    2    0    0  0.30091074355E+02  0.29418309307E+02 -0.97237656110E+02  0.10595315684E+03  0.00000000000E+00 0. -1.
<mgrwt>
<rscale>  0 0.12543448E+03</rscale>
<asrwt>0</asrwt>
<pdfrwt beam="2">  1        1 0.34064803E-01 0.13453098E+03</pdfrwt>
<pdfrwt beam="1">  1       -1 0.10068825E-01 0.13453098E+03</pdfrwt>
<totfact> 0.73705707E+03</totfact>
</mgrwt>
</event>
<event>
 6    1  0.7270761E-006  0.1275089E+03  0.7546771E-02  0.1246073E+00
         -2   -1    0    0    0  501 -0.00000000000E+00  0.00000000000E+00  0.42465916656E+03  0.42465916656E+03  0.00000000000E+00 0.  1.
          2   -1    0    0  501    0  0.00000000000E+00 -0.00000000000E+00 -0.28967600304E+02  0.28967600304E+02  0.00000000000E+00 0. -1.
          5    1    1    2  502    0 -0.13391924323E+02 -0.42704015811E+02  0.26958918024E+02  0.52458077209E+02  0.47000000000E+01 0.  1.
         -5    1    1    2    0  502 -0.96327458432E+01  0.52904600519E+02  0.20777171414E+03  0.21466919143E+03  0.47000000000E+01 0.  1.
        -11    1    1    2    0    0  0.27580485826E+02  0.32511840621E+02  0.11918099335E+03  0.12657729715E+03  0.00000000000E+00 0.  1.
         11    1    1    2    0    0 -0.45558156591E+01 -0.42712425329E+02  0.41779940742E+02  0.59922201079E+02  0.00000000000E+00 0. -1.
<mgrwt>
<rscale>  0 0.11821375E+03</rscale>
<asrwt>0</asrwt>
<pdfrwt beam="2">  1        2 0.44565542E-02 0.12750885E+03</pdfrwt>
<pdfrwt beam="1">  1       -2 0.65332175E-01 0.12750885E+03</pdfrwt>
<totfact> 0.38380536E+03</totfact>
</mgrwt>
</event>
<event>
 6    1  0.7270761E-006  0.1312131E+03  0.7546771E-02  0.1239180E+00
         -4   -1    0    0    0  501 -0.00000000000E+00  0.00000000000E+00  0.38765607132E+03  0.38765607132E+03  0.00000000000E+00 0.  1.
          4   -1    0    0  501    0  0.00000000000E+00 -0.00000000000E+00 -0.39456604476E+02  0.39456604476E+02  0.00000000000E+00 0. -1.
          5    1    1    2  502    0  0.29197737219E+02  0.41240403325E+02  0.61030930882E+02  0.79373441713E+02  0.47000000000E+01 0. -1.
         -5    1    1    2    0  502 -0.25475278004E+01 -0.70933946662E+02  0.21059273836E+03  0.22228249175E+03  0.47000000000E+01 0. -1.
        -11    1    1    2    0    0  0.77295478596E+01  0.14050172965E+02 -0.17707143624E+02  0.23889248749E+02  0.00000000000E+00 0. -1.
         11    1    1    2    0    0 -0.34379757279E+02  0.15643370372E+02  0.94282941218E+02  0.10156749358E+03  0.00000000000E+00 0.  1.
<mgrwt>
<rscale>  0 0.12240610E+03</rscale>
<asrwt>0</asrwt>
<pdfrwt beam="2">  1        4 0.60702471E-02 0.13121313E+03</pdfrwt>
<pdfrwt beam="1">  1       -4 0.59639393E-01 0.13121313E+03</pdfrwt>
<totfact> 0.76961643E+02</totfact>
</mgrwt>
</event>
<event>
 6    1  0.7270761E-006  0.3465359E+03  0.7546771E-02  0.1064046E+00
         -2   -1    0    0    0  501 -0.00000000000E+00  0.00000000000E+00  0.71623498367E+02  0.71623498367E+02  0.00000000000E+00 0.  1.
          2   -1    0    0  501    0  0.00000000000E+00 -0.00000000000E+00 -0.41916104977E+03  0.41916104977E+03  0.00000000000E+00 0. -1.
          5    1    1    2  502    0 -0.64908863814E+02  0.99380032191E+02 -0.13805614857E+03  0.18212946373E+03  0.47000000000E+01 0. -1.
         -5    1    1    2    0  502  0.36990308179E+01  0.94288890348E+01  0.25161790992E+02  0.27528031229E+02  0.47000000000E+01 0. -1.
        -11    1    1    2    0    0  0.41202776673E+02 -0.20502005013E+02 -0.15101162387E+03  0.15786865287E+03  0.00000000000E+00 0. -1.
         11    1    1    2    0    0  0.20007056323E+02 -0.88306916213E+02 -0.83631569952E+02  0.12325840031E+03  0.00000000000E+00 0.  1.
<mgrwt>
<rscale>  0 0.34653589E+03</rscale>
<asrwt>0</asrwt>
<pdfrwt beam="2">  1        2 0.64486315E-01 0.34653589E+03</pdfrwt>
<pdfrwt beam="1">  1       -2 0.11019000E-01 0.34653589E+03</pdfrwt>
<totfact> 0.43182230E+03</totfact>
</mgrwt>
</event>
<event>
 6    1  0.7270761E-006  0.1336156E+03  0.7546771E-02  0.1236291E+00
          1   -1    0    0  501    0  0.00000000000E+00  0.00000000000E+00  0.30299465822E+03  0.30299465822E+03  0.00000000000E+00 0. -1.
         -1   -1    0    0    0  501 -0.00000000000E+00 -0.00000000000E+00 -0.49489520260E+02  0.49489520260E+02  0.00000000000E+00 0.  1.
          5    1    1    2  502    0 -0.40632346860E+02 -0.25709129363E+01  0.11970054902E+03  0.12652236419E+03  0.47000000000E+01 0.  1.
         -5    1    1    2    0  502 -0.15215996050E+01 -0.18709186149E+02 -0.29076506535E+02  0.34926811249E+02  0.47000000000E+01 0.  1.
        -11    1    1    2    0    0  0.46955602001E+02 -0.19261723563E+02  0.51052907269E+02  0.71987789899E+02  0.00000000000E+00 0.  1.
         11    1    1    2    0    0 -0.48016555364E+01  0.40541822648E+02  0.11182818821E+03  0.11904721314E+03  0.00000000000E+00 0. -1.
<mgrwt>
<rscale>  0 0.12422176E+03</rscale>
<asrwt>0</asrwt>
<pdfrwt beam="1">  1        1 0.46614561E-01 0.13361556E+03</pdfrwt>
<pdfrwt beam="2">  1       -1 0.76137726E-02 0.13361556E+03</pdfrwt>
<totfact> 0.76346497E+03</totfact>
</mgrwt>
</event>
<event>
 6    1  0.7270761E-006  0.1385521E+03  0.7546771E-02  0.1226549E+00
         -2   -1    0    0    0  501 -0.00000000000E+00  0.00000000000E+00  0.49392829921E+02  0.49392829921E+02  0.00000000000E+00 0.  1.
          2   -1    0    0  501    0  0.00000000000E+00 -0.00000000000E+00 -0.40159950519E+03  0.40159950519E+03  0.00000000000E+00 0. -1.
          5    1    1    2  502    0  0.39949661855E+02  0.26808247990E+02 -0.53200092633E+02  0.71881830102E+02  0.47000000000E+01 0.  1.
         -5    1    1    2    0  502 -0.83780048691E+02  0.13815941689E+02 -0.32543727476E+02  0.91055812563E+02  0.47000000000E+01 0.  1.
        -11    1    1    2    0    0  0.10183535685E+02 -0.57846687377E+02 -0.22228094898E+03  0.22991033887E+03  0.00000000000E+00 0. -1.
         11    1    1    2    0    0  0.33646851151E+02  0.17222497697E+02 -0.44181906184E+02  0.58144353581E+02  0.00000000000E+00 0.  1.
<mgrwt>
<rscale>  0 0.13061268E+03</rscale>
<asrwt>0</asrwt>
<pdfrwt beam="2">  1        2 0.61784539E-01 0.13855206E+03</pdfrwt>
<pdfrwt beam="1">  1       -2 0.75988970E-02 0.13855206E+03</pdfrwt>
<totfact> 0.77804847E+03</totfact>
</mgrwt>
</event>
<event>
 6    1  0.7270761E-006  0.2462788E+03  0.7546771E-02  0.1115679E+00
          2   -1    0    0  501    0  0.00000000000E+00  0.00000000000E+00  0.12384523294E+03  0.12384523294E+03  0.00000000000E+00 0. -1.
         -2   -1    0    0    0  501 -0.00000000000E+00 -0.00000000000E+00 -0.12243755612E+03  0.12243755612E+03  0.00000000000E+00 0.  1.
          5    1    1    2  502    0 -0.50823764737E+02  0.47017721009E+02  0.48202146314E+02  0.84494130330E+02  0.47000000000E+01 0. -1.
         -5    1    1    2    0  502  0.17817447523E+02  0.15259611177E+01 -0.50283600599E+02  0.53575371980E+02  0.47000000000E+01 0. -1.
        -11    1    1    2    0    0  0.28375210067E+02 -0.15452102550E+02 -0.41234938761E+02  0.52385496029E+02  0.00000000000E+00 0.  1.
         11    1    1    2    0    0  0.46311071463E+01 -0.33091579577E+02  0.44724069857E+02  0.55827790721E+02  0.00000000000E+00 0. -1.
<mgrwt>
<rscale>  0 0.24627877E+03</rscale>
<asrwt>0</asrwt>
<pdfrwt beam="1">  1        2 0.19053113E-01 0.24627877E+03</pdfrwt>
<pdfrwt beam="2">  1       -2 0.18836547E-01 0.24627877E+03</pdfrwt>
<totfact> 0.67461622E+03</totfact>
</mgrwt>
</event>
<event>
 6    1  0.7270761E-006  0.1456551E+03  0.7546771E-02  0.1215978E+00
         -4   -1    0    0    0  501 -0.00000000000E+00  0.00000000000E+00  0.49057886738E+02  0.49057886738E+02  0.00000000000E+00 0.  1.
          4   -1    0    0  501    0  0.00000000000E+00 -0.00000000000E+00 -0.40892632762E+03  0.40892632762E+03  0.00000000000E+00 0. -1.
          5    1    1    2  502    0 -0.23756299085E+02 -0.26231997913E+02 -0.41085985662E+02  0.54430025524E+02  0.47000000000E+01 0. -1.
         -5    1    1    2    0  502  0.46944881964E+02  0.97312540963E+02 -0.71170876915E+02  0.12946403474E+03  0.47000000000E+01 0. -1.
        -11    1    1    2    0    0 -0.16893133049E+02  0.19947277551E+02 -0.49589114463E+02  0.56056686480E+02  0.00000000000E+00 0.  1.
         11    1    1    2    0    0 -0.62954498300E+01 -0.91027820601E+02 -0.19802246384E+03  0.21803346761E+03  0.00000000000E+00 0. -1.
<mgrwt>
<rscale>  0 0.13804923E+03</rscale>
<asrwt>0</asrwt>
<pdfrwt beam="2">  1        4 0.62911741E-01 0.14565515E+03</pdfrwt>
<pdfrwt beam="1">  1       -4 0.75473674E-02 0.14565515E+03</pdfrwt>
<totfact> 0.49118927E+02</totfact>
</mgrwt>
</event>
<event>
 6    1  0.7270761E-006  0.1415936E+03  0.7546771E-02  0.1221257E+00
          2   -1    0    0  501    0  0.00000000000E+00  0.00000000000E+00  0.68936787491E+03  0.68936787491E+03  0.00000000000E+00 0. -1.
         -2   -1    0    0    0  501 -0.00000000000E+00 -0.00000000000E+00 -0.23980402820E+02  0.23980402820E+02  0.00000000000E+00 0.  1.
          5    1    1    2  502    0  0.93157896284E+02 -0.18466363902E+02  0.22358278460E+03  0.24296244938E+03  0.47000000000E+01 0. -1.
         -5    1    1    2    0  502 -0.40572629721E+02 -0.22227640170E+02  0.11176189055E+03  0.12104964457E+03  0.47000000000E+01 0. -1.
        -11    1    1    2    0    0  0.87988890901E+01  0.49946651415E+01 -0.15407197895E+01  0.10234302447E+02  0.00000000000E+00 0.  1.
         11    1    1    2    0    0 -0.61384155653E+02  0.35699338930E+02  0.33158351672E+03  0.33910188134E+03  0.00000000000E+00 0. -1.
<mgrwt>
<rscale>  0 0.13426810E+03</rscale>
<asrwt>0</asrwt>
<pdfrwt beam="1">  1        2 0.10605658E+00 0.14159362E+03</pdfrwt>
<pdfrwt beam="2">  1       -2 0.36892933E-02 0.14159362E+03</pdfrwt>
<totfact> 0.12688725E+04</totfact>
</mgrwt>
</event>
<event>
 6    1  0.7270761E-006  0.1813408E+03  0.7546771E-02  0.1172042E+00
          1   -1    0    0  501    0  0.00000000000E+00  0.00000000000E+00  0.17135885725E+03  0.17135885725E+03  0.00000000000E+00 0. -1.
         -1   -1    0    0    0  501 -0.00000000000E+00 -0.00000000000E+00 -0.17185100513E+03  0.17185100513E+03  0.00000000000E+00 0.  1.
          5    1    1    2  502    0  0.64685894145E+01 -0.60828630764E+02 -0.52602043719E+02  0.80814788083E+02  0.47000000000E+01 0. -1.
         -5    1    1    2    0  502 -0.16656934549E+02 -0.70152961391E+02  0.71259093844E+02  0.10148320017E+03  0.47000000000E+01 0. -1.
        -11    1    1    2    0    0  0.47599890639E+01  0.11098231393E+03 -0.51540553992E+02  0.12245881024E+03  0.00000000000E+00 0.  1.
         11    1    1    2    0    0  0.54283560701E+01  0.19999278228E+02  0.32391355991E+02  0.38453063886E+02  0.00000000000E+00 0. -1.
<mgrwt>
<rscale>  0 0.17568889E+03</rscale>
<asrwt>0</asrwt>
<pdfrwt beam="1">  1        1 0.26362901E-01 0.18134076E+03</pdfrwt>
<pdfrwt beam="2">  1       -1 0.26438616E-01 0.18134076E+03</pdfrwt>
<totfact> 0.22280585E+03</totfact>
</mgrwt>
</event>
<event>
 6    1  0.7270761E-006  0.3176175E+03  0.7546771E-02  0.1078282E+00
         -2   -1    0    0    0  501 -0.00000000000E+00  0.00000000000E+00  0.26581422545E+03  0.26581422545E+03  0.00000000000E+00 0.  1.
          2   -1    0    0  501    0  0.00000000000E+00 -0.00000000000E+00 -0.40179728274E+03  0.40179728274E+03  0.00000000000E+00 0. -1.
          5    1    1    2  502    0  0.52712141785E+02  0.24788454740E+03 -0.96947363886E+02  0.27137833387E+03  0.47000000000E+01 0. -1.
         -5    1    1    2    0  502 -0.25077594839E+02  0.42788734302E+02 -0.74320369992E+02  0.89472727363E+02  0.47000000000E+01 0. -1.
        -11    1    1    2    0    0  0.18843474482E+02 -0.96603726702E+02  0.42184812131E+02  0.10708368185E+03  0.00000000000E+00 0.  1.
         11    1    1    2    0    0 -0.46478021428E+02 -0.19406955500E+03 -0.69001355442E+01  0.19967676511E+03  0.00000000000E+00 0. -1.
<mgrwt>
<rscale>  0 0.31434394E+03</rscale>
<asrwt>0</asrwt>
<pdfrwt beam="2">  1        2 0.61814966E-01 0.31761746E+03</pdfrwt>
<pdfrwt beam="1">  1       -2 0.40894496E-01 0.31761746E+03</pdfrwt>
<totfact> 0.45539378E+02</totfact>
</mgrwt>
</event>
<event>
 6    1  0.7270761E-006  0.1316353E+03  0.7546771E-02  0.1238231E+00
          2   -1    0    0  501    0  0.00000000000E+00  0.00000000000E+00  0.95677350862E+02  0.95677350862E+02  0.00000000000E+00 0. -1.
         -2   -1    0    0    0  501 -0.00000000000E+00 -0.00000000000E+00 -0.15767714040E+03  0.15767714040E+03  0.00000000000E+00 0.  1.
          5    1    1    2  502    0  0.32418928515E+02 -0.45375350450E+02 -0.12079294246E+02  0.57253023536E+02  0.47000000000E+01 0.  1.
         -5    1    1    2    0  502 -0.66277073460E+02  0.21775792489E+02 -0.63984527830E+02  0.94778401583E+02  0.47000000000E+01 0.  1.
        -11    1    1    2    0    0  0.43863862512E+02  0.37015203264E+02  0.40351725843E+02  0.70159999185E+02  0.00000000000E+00 0. -1.
         11    1    1    2    0    0 -0.10005717568E+02 -0.13415645303E+02 -0.26287693308E+02  0.31163066961E+02  0.00000000000E+00 0.  1.
<mgrwt>
<rscale>  0 0.12299861E+03</rscale>
<asrwt>0</asrwt>
<pdfrwt beam="1">  1        2 0.14719593E-01 0.13163529E+03</pdfrwt>
<pdfrwt beam="2">  1       -2 0.24258021E-01 0.13163529E+03</pdfrwt>
<totfact> 0.56683473E+03</totfact>
</mgrwt>
</event>
<event>
 6    1  0.7270761E-006  0.1276670E+03  0.7546771E-02  0.1241695E+00
         -1   -1    0    0    0  501 -0.00000000000E+00  0.00000000000E+00  0.14122734187E+03  0.14122734187E+03  0.00000000000E+00 0.  1.
          1   -1    0    0  501    0  0.00000000000E+00 -0.00000000000E+00 -0.18711285238E+03  0.18711285238E+03  0.00000000000E+00 0. -1.
          5    1    1    2  502    0  0.36249366545E+02  0.63488161156E+02  0.36829206765E+02  0.81995387997E+02  0.47000000000E+01 0. -1.
         -5    1    1    2    0  502 -0.14616846045E+02 -0.49132486881E+02  0.54561965388E+02  0.75011675908E+02  0.47000000000E+01 0. -1.
        -11    1    1    2    0    0  0.11405374102E+02 -0.21232886219E+02 -0.13540692729E+03  0.13753528265E+03  0.00000000000E+00 0. -1.
         11    1    1    2    0    0 -0.33037894602E+02  0.68772119446E+01 -0.18697553712E+01  0.33797847698E+02  0.00000000000E+00 0.  1.
<mgrwt>
<rscale>  0 0.12085377E+03</rscale>
<asrwt>0</asrwt>
<pdfrwt beam="2">  1        1 0.28786592E-01 0.12766703E+03</pdfrwt>
<pdfrwt beam="1">  1       -1 0.21727284E-01 0.12766703E+03</pdfrwt>
<totfact> 0.27144666E+03</totfact>
</mgrwt>
</event>
<event>
 6    1  0.7270761E-006  0.1356911E+03  0.7546771E-02  0.1230577E+00
         -1   -1    0    0    0  501 -0.00000000000E+00  0.00000000000E+00  0.19179271468E+02  0.19179271468E+02  0.00000000000E+00 0.  1.
          1   -1    0    0  501    0  0.00000000000E+00 -0.00000000000E+00 -0.77412091583E+03  0.77412091583E+03  0.00000000000E+00 0. -1.
          5    1    1    2  502    0 -0.28547055122E+02  0.72536895521E+02 -0.22429823498E+03  0.23750436582E+03  0.47000000000E+01 0.  1.
         -5    1    1    2    0  502  0.51641998045E+02 -0.25068609222E+02 -0.16463286137E+03  0.17441731615E+03  0.47000000000E+01 0.  1.
        -11    1    1    2    0    0  0.27256883851E+02  0.10049018965E+02 -0.73193479137E+02  0.78747735762E+02  0.00000000000E+00 0. -1.
         11    1    1    2    0    0 -0.50351826773E+02 -0.57517305264E+02 -0.29281706887E+03  0.30263076956E+03  0.00000000000E+00 0.  1.
<mgrwt>
<rscale>  0 0.12791865E+03</rscale>
<asrwt>0</asrwt>
<pdfrwt beam="2">  1        1 0.11909553E+00 0.13569110E+03</pdfrwt>
<pdfrwt beam="1">  1       -1 0.29506570E-02 0.13569110E+03</pdfrwt>
<totfact> 0.90097809E+03</totfact>
</mgrwt>
</event>
<event>
 6    1  0.7270761E-006  0.1347569E+03  0.7546771E-02  0.1233076E+00
         -2   -1    0    0    0  501 -0.00000000000E+00  0.00000000000E+00  0.22206316341E+03  0.22206316341E+03  0.00000000000E+00 0.  1.
          2   -1    0    0  501    0  0.00000000000E+00 -0.00000000000E+00 -0.74766939568E+02  0.74766939568E+02  0.00000000000E+00 0. -1.
          5    1    1    2  502    0 -0.47955003684E+02 -0.28037897335E+02  0.53862019034E+02  0.77517824787E+02  0.47000000000E+01 0. -1.
         -5    1    1    2    0  502  0.77801805745E+02 -0.12506582177E+02  0.83499109129E+02  0.11490747060E+03  0.47000000000E+01 0. -1.
        -11    1    1    2    0    0  0.19546590247E+02 -0.44603926061E+01  0.28689839696E+02  0.35001017047E+02  0.00000000000E+00 0.  1.
         11    1    1    2    0    0 -0.49393392308E+02  0.45004872118E+02 -0.18754744020E+02  0.69403790540E+02  0.00000000000E+00 0. -1.
<mgrwt>
<rscale>  0 0.12628434E+03</rscale>
<asrwt>0</asrwt>
<pdfrwt beam="2">  1        2 0.11502606E-01 0.13475687E+03</pdfrwt>
<pdfrwt beam="1">  1       -2 0.34163563E-01 0.13475687E+03</pdfrwt>
<totfact> 0.41304833E+03</totfact>
</mgrwt>
</event>
<event>
 6    1  0.7270761E-006  0.1772970E+03  0.7546771E-02  0.1176074E+00
         -1   -1    0    0    0  501 -0.00000000000E+00  0.00000000000E+00  0.10370827144E+03  0.10370827144E+03  0.00000000000E+00 0.  1.
          1   -1    0    0  501    0  0.00000000000E+00 -0.00000000000E+00 -0.28888776649E+03  0.28888776649E+03  0.00000000000E+00 0. -1.
          5    1    1    2  502    0  0.22512740067E+02 -0.11123630320E+03 -0.61138125374E+02  0.12899728287E+03  0.47000000000E+01 0. -1.
         -5    1    1    2    0  502 -0.50000329618E+02 -0.11462677286E+02  0.16028349089E+02  0.53948344803E+02  0.47000000000E+01 0. -1.
        -11    1    1    2    0    0  0.75818190771E+01 -0.70459799356E+01  0.70207337161E+01  0.12506818768E+02  0.00000000000E+00 0.  1.
         11    1    1    2    0    0  0.19905770474E+02  0.12974496042E+03 -0.14709045248E+03  0.19714359149E+03  0.00000000000E+00 0. -1.
<mgrwt>
<rscale>  0 0.17171259E+03</rscale>
<asrwt>0</asrwt>
<pdfrwt beam="2">  1        1 0.44444272E-01 0.17729696E+03</pdfrwt>
<pdfrwt beam="1">  1       -1 0.15955119E-01 0.17729696E+03</pdfrwt>
<totfact> 0.26282075E+03</totfact>
</mgrwt>
</event>
<event>
 6    1  0.7270761E-006  0.1685827E+03  0.7546771E-02  0.1185965E+00
          4   -1    0    0  501    0  0.00000000000E+00  0.00000000000E+00  0.91734143954E+03  0.91734143954E+03  0.00000000000E+00 0. -1.
         -4   -1    0    0    0  501 -0.00000000000E+00 -0.00000000000E+00 -0.27054842570E+02  0.27054842570E+02  0.00000000000E+00 0.  1.
          5    1    1    2  502    0 -0.31337058830E+01 -0.33050275560E+02  0.33793077539E+03  0.33959010554E+03  0.47000000000E+01 0.  1.
         -5    1    1    2    0  502 -0.42582523068E+02 -0.70432633572E+02  0.99577637152E+02  0.12927421616E+03  0.47000000000E+01 0.  1.
        -11    1    1    2    0    0  0.43900765247E+02  0.12026677234E+03  0.38730175455E+03  0.40791423461E+03  0.00000000000E+00 0.  1.
         11    1    1    2    0    0  0.18154637034E+01 -0.16783863210E+02  0.65476429885E+02  0.67617725806E+02  0.00000000000E+00 0. -1.
<mgrwt>
<rscale>  0 0.16244381E+03</rscale>
<asrwt>0</asrwt>
<pdfrwt beam="1">  1        4 0.14112943E+00 0.16858274E+03</pdfrwt>
<pdfrwt beam="2">  1       -4 0.41622842E-02 0.16858274E+03</pdfrwt>
<totfact> 0.20667632E+02</totfact>
</mgrwt>
</event>
<event>
 6    1  0.7270761E-006  0.1650793E+03  0.7546771E-02  0.1190100E+00
         -1   -1    0    0    0  501 -0.00000000000E+00  0.00000000000E+00  0.88181766502E+02  0.88181766502E+02  0.00000000000E+00 0.  1.
          1   -1    0    0  501    0  0.00000000000E+00 -0.00000000000E+00 -0.76264188210E+03  0.76264188210E+03  0.00000000000E+00 0. -1.
          5    1    1    2  502    0 -0.66143353681E+02  0.31115730478E+02 -0.21797492564E+02  0.76422199663E+02  0.47000000000E+01 0.  1.
         -5    1    1    2    0  502  0.44296257212E+02  0.74469656726E+02  0.18344001010E+02  0.88693182088E+02  0.47000000000E+01 0.  1.
        -11    1    1    2    0    0  0.56497605943E+02 -0.50463707440E+02 -0.38541430198E+03  0.39278842831E+03  0.00000000000E+00 0.  1.
         11    1    1    2    0    0 -0.34650509473E+02 -0.55121679764E+02 -0.28559232206E+03  0.29291983853E+03  0.00000000000E+00 0. -1.
<mgrwt>
<rscale>  0 0.15876369E+03</rscale>
<asrwt>0</asrwt>
<pdfrwt beam="2">  1        1 0.11732952E+00 0.16507926E+03</pdfrwt>
<pdfrwt beam="1">  1       -1 0.13566425E-01 0.16507926E+03</pdfrwt>
<totfact> 0.93885790E+02</totfact>
</mgrwt>
</event>
<event>
 6    1  0.7270761E-006  0.1442574E+03  0.7546771E-02  0.1284788E+00
          2   -1    0    0  501    0  0.00000000000E+00  0.00000000000E+00  0.20399527887E+03  0.20399527887E+03  0.00000000000E+00 0. -1.
         -2   -1    0    0    0  501 -0.00000000000E+00 -0.00000000000E+00 -0.46607609877E+02  0.46607609877E+02  0.00000000000E+00 0.  1.
          5    1    1    2  502    0  0.39249980699E+02  0.13499639454E+02  0.91579717791E+02  0.10065652468E+03  0.47000000000E+01 0. -1.
         -5    1    1    2    0  502 -0.40459639045E+02 -0.43324974741E+02 -0.16852019240E+02  0.61807090050E+02  0.47000000000E+01 0.  1.
        -11    1    1    2    0    0  0.94068889028E+00  0.16519437297E+02  0.36037336788E+02  0.39654335790E+02  0.00000000000E+00 0. -1.
         11    1    1    2    0    0  0.26896945629E+00  0.13305897990E+02  0.46622633656E+02  0.48484938228E+02  0.00000000000E+00 0.  1.
<mgrwt>
<rscale>  0 0.97893755E+02</rscale>
<asrwt>0</asrwt>
<pdfrwt beam="1">  1        2 0.31383889E-01 0.14425740E+03</pdfrwt>
<pdfrwt beam="2">  1       -2 0.71704016E-02 0.14425740E+03</pdfrwt>
<totfact> 0.17571953E+04</totfact>
</mgrwt>
</event>
<event>
 6    1  0.7270761E-006  0.2725735E+03  0.7546771E-02  0.1099816E+00
          2   -1    0    0  501    0  0.00000000000E+00  0.00000000000E+00  0.72297900755E+03  0.72297900755E+03  0.00000000000E+00 0. -1.
         -2   -1    0    0    0  501 -0.00000000000E+00 -0.00000000000E+00 -0.25691038827E+02  0.25691038827E+02  0.00000000000E+00 0.  1.
          5    1    1    2  502    0 -0.29345671781E+02 -0.21169435610E+02  0.45012552568E+02  0.57944226158E+02  0.47000000000E+01 0.  1.
         -5    1    1    2    0  502  0.14172772666E+02  0.10316968613E+03  0.32925697008E+03  0.34536516032E+03  0.47000000000E+01 0.  1.
        -11    1    1    2    0    0  0.34015108476E+02 -0.27461962119E+02  0.50470673368E+02  0.66771819192E+02  0.00000000000E+00 0.  1.
         11    1    1    2    0    0 -0.18842209360E+02 -0.54538288402E+02  0.27254777271E+03  0.27858884071E+03  0.00000000000E+00 0. -1.
<mgrwt>
<rscale>  0 0.27257353E+03</rscale>
<asrwt>0</asrwt>
<pdfrwt beam="1">  1        2 0.11122752E+00 0.27257353E+03</pdfrwt>
<pdfrwt beam="2">  1       -2 0.39524681E-02 0.27257353E+03</pdfrwt>
<totfact> 0.11230784E+04</totfact>
</mgrwt>
</event>
<event>
 6    1  0.7270761E-006  0.1263961E+03  0.7546771E-02  0.1248227E+00
          1   -1    0    0  501    0  0.00000000000E+00  0.00000000000E+00  0.61845919866E+03  0.61845919866E+03  0.00000000000E+00 0. -1.
         -1   -1    0    0    0  501 -0.00000000000E+00 -0.00000000000E+00 -0.19767683034E+02  0.19767683034E+02  0.00000000000E+00 0.  1.
          5    1    1    2  502    0 -0.32323215599E+02  0.43764686331E+02  0.15339438016E+03  0.16282525572E+03  0.47000000000E+01 0. -1.
         -5    1    1    2    0  502  0.50207005150E+02 -0.49464386495E+02  0.14764072384E+03  0.16366839107E+03  0.47000000000E+01 0. -1.
        -11    1    1    2    0    0  0.54341554022E+01 -0.38378816397E+02  0.86817737906E+02  0.95077774522E+02  0.00000000000E+00 0.  1.
         11    1    1    2    0    0 -0.23317944953E+02  0.44078516561E+02  0.21083867372E+03  0.21665546039E+03  0.00000000000E+00 0. -1.
<mgrwt>
<rscale>  0 0.11694325E+03</rscale>
<asrwt>0</asrwt>
<pdfrwt beam="1">  1        1 0.95147554E-01 0.12639607E+03</pdfrwt>
<pdfrwt beam="2">  1       -1 0.30411825E-02 0.12639607E+03</pdfrwt>
<totfact> 0.11812158E+04</totfact>
</mgrwt>
</event>
<event>
 6    1  0.7270761E-006  0.1407691E+03  0.7546771E-02  0.1225340E+00
         -2   -1    0    0    0  501 -0.00000000000E+00  0.00000000000E+00  0.28968229101E+03  0.28968229101E+03  0.00000000000E+00 0. -1.
          2   -1    0    0  501    0  0.00000000000E+00 -0.00000000000E+00 -0.57499912528E+02  0.57499912528E+02  0.00000000000E+00 0.  1.
          5    1    1    2  502    0 -0.32163826423E+02 -0.42181373464E+02  0.19078338081E+02  0.56567243007E+02  0.47000000000E+01 0.  1.
         -5    1    1    2    0  502  0.58395847036E+02 -0.17003282872E+02  0.15987145505E+03  0.17111446087E+03  0.47000000000E+01 0.  1.
        -11    1    1    2    0    0 -0.29747156449E+02  0.94023154242E+01  0.61455997231E+02  0.68921233650E+02  0.00000000000E+00 0.  1.
         11    1    1    2    0    0  0.35151358353E+01  0.49782340911E+02 -0.82234118860E+01  0.50579266005E+02  0.00000000000E+00 0. -1.
<mgrwt>
<rscale>  0 0.13143628E+03</rscale>
<asrwt>0</asrwt>
<pdfrwt beam="2">  1        2 0.88461405E-02 0.14076907E+03</pdfrwt>
<pdfrwt beam="1">  1       -2 0.44566506E-01 0.14076907E+03</pdfrwt>
<totfact> 0.34628780E+03</totfact>
</mgrwt>
</event>
<event>
 6    1  0.7270761E-006  0.2756560E+03  0.7546771E-02  0.1098085E+00
          1   -1    0    0  501    0  0.00000000000E+00  0.00000000000E+00  0.52252065176E+02  0.52252065176E+02  0.00000000000E+00 0. -1.
         -1   -1    0    0    0  501 -0.00000000000E+00 -0.00000000000E+00 -0.36355602752E+03  0.36355602752E+03  0.00000000000E+00 0.  1.
          5    1    1    2  502    0  0.46663946766E+02  0.80562666119E+02 -0.11273414542E+03  0.14628378121E+03  0.47000000000E+01 0. -1.
         -5    1    1    2    0  502  0.34235879394E+01 -0.34367447685E+02 -0.13522970259E+03  0.13964957886E+03  0.47000000000E+01 0. -1.
        -11    1    1    2    0    0 -0.46598062265E+02  0.45392321815E+01 -0.63656013191E+02  0.79019440968E+02  0.00000000000E+00 0.  1.
         11    1    1    2    0    0 -0.34894724402E+01 -0.50734450616E+02  0.31589886084E+00  0.50855291654E+02  0.00000000000E+00 0. -1.
<mgrwt>
<rscale>  0 0.27565597E+03</rscale>
<asrwt>0</asrwt>
<pdfrwt beam="1">  1        1 0.80387795E-02 0.27565597E+03</pdfrwt>
<pdfrwt beam="2">  1       -1 0.55931695E-01 0.27565597E+03</pdfrwt>
<totfact> 0.28637390E+03</totfact>
</mgrwt>
</event>
<event>
 6    1  0.7270761E-006  0.1530668E+03  0.7546771E-02  0.1205038E+00
         -2   -1    0    0    0  501 -0.00000000000E+00  0.00000000000E+00  0.56428766049E+02  0.56428766049E+02  0.00000000000E+00 0.  1.
          2   -1    0    0  501    0  0.00000000000E+00 -0.00000000000E+00 -0.37468846858E+03  0.37468846858E+03  0.00000000000E+00 0. -1.
          5    1    1    2  502    0 -0.58418451797E+01 -0.54663725447E+02 -0.76068153891E+02  0.93971825943E+02  0.47000000000E+01 0. -1.
         -5    1    1    2    0  502 -0.81003919197E+02  0.38486882026E+02 -0.40951307960E+02  0.98701441919E+02  0.47000000000E+01 0. -1.
        -11    1    1    2    0    0  0.32553415677E+02  0.46481228593E+02 -0.14047833621E+03  0.15150707056E+03  0.00000000000E+00 0.  1.
         11    1    1    2    0    0  0.54292348700E+02 -0.30304385172E+02 -0.60761904471E+02  0.86936896212E+02  0.00000000000E+00 0. -1.
<mgrwt>
<rscale>  0 0.14634456E+03</rscale>
<asrwt>0</asrwt>
<pdfrwt beam="2">  1        2 0.57644380E-01 0.15306676E+03</pdfrwt>
<pdfrwt beam="1">  1       -2 0.86813486E-02 0.15306676E+03</pdfrwt>
<totfact> 0.68602977E+03</totfact>
</mgrwt>
</event>
<event>
 6    1  0.7270761E-006  0.1331441E+03  0.7546771E-02  0.1236028E+00
          1   -1    0    0  501    0  0.00000000000E+00  0.00000000000E+00  0.35991350656E+03  0.35991350656E+03  0.00000000000E+00 0. -1.
         -1   -1    0    0    0  501 -0.00000000000E+00 -0.00000000000E+00 -0.47735906995E+02  0.47735906995E+02  0.00000000000E+00 0.  1.
          5    1    1    2  502    0 -0.41378917120E+02  0.94691154350E+01  0.67805907065E+02  0.80134948443E+02  0.47000000000E+01 0. -1.
         -5    1    1    2    0  502  0.70272492119E+02  0.26141988296E+02  0.14847069574E+02  0.76577752484E+02  0.47000000000E+01 0. -1.
        -11    1    1    2    0    0  0.90566305236E+01  0.14340403536E+02  0.48095786775E+01  0.17629571097E+02  0.00000000000E+00 0.  1.
         11    1    1    2    0    0 -0.37950205522E+02 -0.49951507267E+02  0.22471504425E+03  0.23330714153E+03  0.00000000000E+00 0. -1.
<mgrwt>
<rscale>  0 0.12438877E+03</rscale>
<asrwt>0</asrwt>
<pdfrwt beam="1">  1        1 0.55371307E-01 0.13314412E+03</pdfrwt>
<pdfrwt beam="2">  1       -1 0.73439859E-02 0.13314412E+03</pdfrwt>
<totfact> 0.65063787E+03</totfact>
</mgrwt>
</event>
<event>
 6    1  0.7270761E-006  0.1257416E+03  0.7546771E-02  0.1249221E+00
         -2   -1    0    0    0  501 -0.00000000000E+00  0.00000000000E+00  0.55394780496E+02  0.55394780496E+02  0.00000000000E+00 0.  1.
          2   -1    0    0  501    0  0.00000000000E+00 -0.00000000000E+00 -0.21441765466E+03  0.21441765466E+03  0.00000000000E+00 0. -1.
          5    1    1    2  502    0  0.37763807286E+02 -0.44123901721E+02 -0.68072759073E+02  0.89604767572E+02  0.47000000000E+01 0. -1.
         -5    1    1    2    0  502 -0.49129356111E+02  0.36442709298E+02 -0.22438118584E+02  0.65324756857E+02  0.47000000000E+01 0. -1.
        -11    1    1    2    0    0 -0.13015069583E+02 -0.34360886106E+02 -0.85974822574E+01  0.37735649344E+02  0.00000000000E+00 0.  1.
         11    1    1    2    0    0  0.24380618408E+02  0.42042078529E+02 -0.59914514247E+02  0.77147261380E+02  0.00000000000E+00 0. -1.
<mgrwt>
<rscale>  0 0.11636255E+03</rscale>
<asrwt>0</asrwt>
<pdfrwt beam="2">  1        2 0.32987331E-01 0.12574155E+03</pdfrwt>
<pdfrwt beam="1">  1       -2 0.85222740E-02 0.12574155E+03</pdfrwt>
<totfact> 0.12608715E+04</totfact>
</mgrwt>
</event>
<event>
 6    1  0.7270761E-006  0.2962364E+03  0.7546771E-02  0.1120867E+00
         -2   -1    0    0    0  501 -0.00000000000E+00  0.00000000000E+00  0.16855966167E+03  0.16855966167E+03  0.00000000000E+00 0.  1.
          2   -1    0    0  501    0  0.00000000000E+00 -0.00000000000E+00 -0.27354604493E+03  0.27354604493E+03  0.00000000000E+00 0. -1.
          5    1    1    2  502    0  0.84395857758E+02  0.12956361287E+03 -0.36633037260E+02  0.15897628756E+03  0.47000000000E+01 0. -1.
         -5    1    1    2    0  502  0.17688602424E-01 -0.13880837415E+03  0.47624565582E+01  0.13896955076E+03  0.47000000000E+01 0.  1.
        -11    1    1    2    0    0 -0.87957992633E+02  0.30583245106E+02 -0.33393085240E+02  0.98929477362E+02  0.00000000000E+00 0.  1.
         11    1    1    2    0    0  0.35444462724E+01 -0.21338483827E+02 -0.39722717319E+02  0.45230390919E+02  0.00000000000E+00 0. -1.
<mgrwt>
<rscale>  0 0.23839446E+03</rscale>
<asrwt>0</asrwt>
<pdfrwt beam="2">  1        2 0.42084007E-01 0.29623637E+03</pdfrwt>
<pdfrwt beam="1">  1       -2 0.25932256E-01 0.29623637E+03</pdfrwt>
<totfact> 0.16105927E+03</totfact>
</mgrwt>
</event>
<event>
 6    1  0.7270761E-006  0.1667999E+03  0.7546771E-02  0.1188153E+00
          2   -1    0    0  501    0  0.00000000000E+00  0.00000000000E+00  0.70530771811E+03  0.70530771811E+03  0.00000000000E+00 0.  1.
         -2   -1    0    0    0  501 -0.00000000000E+00 -0.00000000000E+00 -0.38058839350E+02  0.38058839350E+02  0.00000000000E+00 0. -1.
          5    1    1    2  502    0 -0.45511562227E+02 -0.38804538089E+01  0.27695933342E+02  0.53623828116E+02  0.47000000000E+01 0. -1.
         -5    1    1    2    0  502  0.11444931058E+02  0.10894535040E+03  0.20789715397E+03  0.23503912962E+03  0.47000000000E+01 0. -1.
        -11    1    1    2    0    0  0.70913727493E+01 -0.87495673735E+02  0.40012899400E+03  0.40964495888E+03  0.00000000000E+00 0.  1.
         11    1    1    2    0    0  0.26975258419E+02 -0.17569222855E+02  0.31526797437E+02  0.45058640849E+02  0.00000000000E+00 0. -1.
<mgrwt>
<rscale>  0 0.16048215E+03</rscale>
<asrwt>0</asrwt>
<pdfrwt beam="1">  1        2 0.10850887E+00 0.16679988E+03</pdfrwt>
<pdfrwt beam="2">  1       -2 0.58552066E-02 0.16679988E+03</pdfrwt>
<totfact> 0.62306503E+03</totfact>
</mgrwt>
</event>
<event>
 6    1  0.7270761E-006  0.1359293E+03  0.7546771E-02  0.1231072E+00
          1   -1    0    0  501    0  0.00000000000E+00  0.00000000000E+00  0.27741565920E+02  0.27741565920E+02  0.00000000000E+00 0. -1.
         -1   -1    0    0    0  501 -0.00000000000E+00 -0.00000000000E+00 -0.58742195686E+03  0.58742195686E+03  0.00000000000E+00 0.  1.
          5    1    1    2  502    0 -0.60836145458E+02  0.27856490732E+02 -0.13220414987E+03  0.14824657809E+03  0.47000000000E+01 0. -1.
         -5    1    1    2    0  502  0.15016420656E+02 -0.55288295736E+02 -0.27838648800E+03  0.28425941538E+03  0.47000000000E+01 0. -1.
        -11    1    1    2    0    0  0.43466708884E+01  0.35595736019E+02 -0.13247109034E+03  0.13723898771E+03  0.00000000000E+00 0.  1.
         11    1    1    2    0    0  0.41473053913E+02 -0.81639310146E+01 -0.16618662724E+02  0.45418541602E+02  0.00000000000E+00 0. -1.
<mgrwt>
<rscale>  0 0.12759273E+03</rscale>
<asrwt>0</asrwt>
<pdfrwt beam="1">  1        1 0.42679328E-02 0.13592926E+03</pdfrwt>
<pdfrwt beam="2">  1       -1 0.90372617E-01 0.13592926E+03</pdfrwt>
<totfact> 0.25280754E+03</totfact>
</mgrwt>
</event>
<event>
 6    1  0.7270761E-006  0.1939819E+03  0.7546771E-02  0.1171630E+00
         -2   -1    0    0    0  501 -0.00000000000E+00  0.00000000000E+00  0.19387434836E+02  0.19387434836E+02  0.00000000000E+00 0.  1.
          2   -1    0    0  501    0  0.00000000000E+00 -0.00000000000E+00 -0.13965534575E+04  0.13965534575E+04  0.00000000000E+00 0. -1.
          5    1    1    2  502    0  0.57681049992E+02 -0.13352354006E+03 -0.69347563465E+03  0.70858040131E+03  0.47000000000E+01 0. -1.
         -5    1    1    2    0  502 -0.17362466121E+02  0.44971697917E+02 -0.22297426389E+03  0.22817432196E+03  0.47000000000E+01 0.  1.
        -11    1    1    2    0    0 -0.34246528126E+02 -0.50554208794E+01 -0.81636809978E+02  0.88673280713E+02  0.00000000000E+00 0.  1.
         11    1    1    2    0    0 -0.60720557448E+01  0.93607263026E+02 -0.37907931412E+03  0.39051288832E+03  0.00000000000E+00 0. -1.
<mgrwt>
<rscale>  0 0.17610221E+03</rscale>
<asrwt>0</asrwt>
<pdfrwt beam="2">  1        2 0.21485440E+00 0.19398195E+03</pdfrwt>
<pdfrwt beam="1">  1       -2 0.29826819E-02 0.19398195E+03</pdfrwt>
<totfact> 0.65701772E+03</totfact>
</mgrwt>
</event>
<event>
 6    1  0.7270761E-006  0.1407245E+03  0.7546771E-02  0.1224149E+00
          1   -1    0    0  501    0  0.00000000000E+00  0.00000000000E+00  0.11866188758E+03  0.11866188758E+03  0.00000000000E+00 0. -1.
         -1   -1    0    0    0  501 -0.00000000000E+00 -0.00000000000E+00 -0.13369379145E+03  0.13369379145E+03  0.00000000000E+00 0.  1.
          5    1    1    2  502    0 -0.20696856678E+02  0.68025166214E+02 -0.49508843706E+02  0.86769803042E+02  0.47000000000E+01 0.  1.
         -5    1    1    2    0  502  0.47022971904E+02 -0.90289929753E+01  0.27881131320E+02  0.55606924790E+02  0.47000000000E+01 0.  1.
        -11    1    1    2    0    0 -0.12026870052E+02  0.72945415419E+01 -0.29844430014E+02  0.32993119622E+02  0.00000000000E+00 0.  1.
         11    1    1    2    0    0 -0.14299245174E+02 -0.66290714781E+02  0.36440238537E+02  0.76985831575E+02  0.00000000000E+00 0. -1.
<mgrwt>
<rscale>  0 0.13225405E+03</rscale>
<asrwt>0</asrwt>
<pdfrwt beam="1">  1        1 0.18255675E-01 0.14072446E+03</pdfrwt>
<pdfrwt beam="2">  1       -1 0.20568276E-01 0.14072446E+03</pdfrwt>
<totfact> 0.52943600E+03</totfact>
</mgrwt>
</event>
<event>
 6    1  0.7270761E-006  0.1366103E+03  0.7546771E-02  0.1230487E+00
          3   -1    0    0  501    0  0.00000000000E+00  0.00000000000E+00  0.11122674041E+03  0.11122674041E+03  0.00000000000E+00 0. -1.
         -3   -1    0    0    0  501 -0.00000000000E+00 -0.00000000000E+00 -0.13203790196E+03  0.13203790196E+03  0.00000000000E+00 0.  1.
          5    1    1    2  502    0  0.25766069215E+02  0.13482725350E+02  0.34251183795E+02  0.45176407526E+02  0.47000000000E+01 0.  1.
         -5    1    1    2    0  502 -0.32118608825E+02 -0.68158756748E+02 -0.54080362524E+02  0.92865476712E+02  0.47000000000E+01 0.  1.
        -11    1    1    2    0    0 -0.22932556434E+02  0.44760116297E+02 -0.33440238914E+02  0.60395527435E+02  0.00000000000E+00 0.  1.
         11    1    1    2    0    0  0.29285096045E+02  0.99159151015E+01  0.32458256099E+02  0.44827230694E+02  0.00000000000E+00 0. -1.
<mgrwt>
<rscale>  0 0.12797797E+03</rscale>
<asrwt>0</asrwt>
<pdfrwt beam="1">  1        3 0.17111806E-01 0.13661027E+03</pdfrwt>
<pdfrwt beam="2">  1       -3 0.20313523E-01 0.13661027E+03</pdfrwt>
<totfact> 0.14832718E+03</totfact>
</mgrwt>
</event>
<event>
 6    1  0.7270761E-006  0.2973079E+03  0.7546771E-02  0.1086594E+00
         -2   -1    0    0    0  501 -0.00000000000E+00  0.00000000000E+00  0.14295629213E+03  0.14295629213E+03  0.00000000000E+00 0.  1.
          2   -1    0    0  501    0  0.00000000000E+00 -0.00000000000E+00 -0.15457867661E+03  0.15457867661E+03  0.00000000000E+00 0. -1.
          5    1    1    2  502    0  0.12042229928E+01  0.36783069599E+02 -0.29371969716E+02  0.47320682235E+02  0.47000000000E+01 0.  1.
         -5    1    1    2    0  502  0.91616015703E+02 -0.21637288589E+02  0.61030082235E+02  0.11228725452E+03  0.47000000000E+01 0.  1.
        -11    1    1    2    0    0 -0.57487455411E+02  0.35342934359E+02 -0.11043890682E+02  0.68380538607E+02  0.00000000000E+00 0. -1.
         11    1    1    2    0    0 -0.35332783284E+02 -0.50488715369E+02 -0.32236606320E+02  0.69546493379E+02  0.00000000000E+00 0.  1.
<mgrwt>
<rscale>  0 0.29730788E+03</rscale>
<asrwt>0</asrwt>
<pdfrwt beam="2">  1        2 0.23781335E-01 0.29730788E+03</pdfrwt>
<pdfrwt beam="1">  1       -2 0.21993276E-01 0.29730788E+03</pdfrwt>
<totfact> 0.40471724E+03</totfact>
</mgrwt>
</event>
<event>
 6    1  0.7270761E-006  0.1326484E+03  0.7546771E-02  0.1242541E+00
          2   -1    0    0  501    0  0.00000000000E+00  0.00000000000E+00  0.60859121890E+03  0.60859121890E+03  0.00000000000E+00 0. -1.
         -2   -1    0    0    0  501 -0.00000000000E+00 -0.00000000000E+00 -0.23034050348E+02  0.23034050348E+02  0.00000000000E+00 0.  1.
          5    1    1    2  502    0 -0.81696920398E-01 -0.69588412816E+02  0.23374613136E+03  0.24393010843E+03  0.47000000000E+01 0.  1.
         -5    1    1    2    0  502  0.63637933880E+01  0.25652913695E+02  0.24392220044E+01  0.26955697938E+02  0.47000000000E+01 0.  1.
        -11    1    1    2    0    0 -0.36979705289E+02  0.42686299321E+02  0.18165384121E+03  0.19023074614E+03  0.00000000000E+00 0.  1.
         11    1    1    2    0    0  0.30697608821E+02  0.12491997999E+01  0.16771797399E+03  0.17050871674E+03  0.00000000000E+00 0. -1.
<mgrwt>
<rscale>  0 0.12033755E+03</rscale>
<asrwt>0</asrwt>
<pdfrwt beam="1">  1        2 0.93629406E-01 0.13264840E+03</pdfrwt>
<pdfrwt beam="2">  1       -2 0.35437005E-02 0.13264840E+03</pdfrwt>
<totfact> 0.15492371E+04</totfact>
</mgrwt>
</event>
<event>
 6    1  0.7270761E-006  0.2083508E+03  0.7546771E-02  0.1146736E+00
          2   -1    0    0  501    0  0.00000000000E+00  0.00000000000E+00  0.47342576001E+03  0.47342576001E+03  0.00000000000E+00 0. -1.
         -2   -1    0    0    0  501 -0.00000000000E+00 -0.00000000000E+00 -0.87769576569E+02  0.87769576569E+02  0.00000000000E+00 0.  1.
          5    1    1    2  502    0 -0.67782900392E+02 -0.12483306485E+02  0.55893436632E+02  0.88862369903E+02  0.47000000000E+01 0.  1.
         -5    1    1    2    0  502 -0.51831716056E+02  0.12857659488E+03  0.85736575975E+02  0.16306844575E+03  0.47000000000E+01 0.  1.
        -11    1    1    2    0    0  0.30297256776E+02  0.98791043551E+01  0.21638478500E+02  0.38519400603E+02  0.00000000000E+00 0. -1.
         11    1    1    2    0    0  0.89317359671E+02 -0.12597239275E+03  0.22238769233E+03  0.27074512032E+03  0.00000000000E+00 0.  1.
<mgrwt>
<rscale>  0 0.20360034E+03</rscale>
<asrwt>0</asrwt>
<pdfrwt beam="1">  1        2 0.72834731E-01 0.20835085E+03</pdfrwt>
<pdfrwt beam="2">  1       -2 0.13503012E-01 0.20835085E+03</pdfrwt>
<totfact> 0.26696696E+03</totfact>
</mgrwt>
</event>
<event>
 6    1  0.7270761E-006  0.1595527E+03  0.7546771E-02  0.1212329E+00
          3   -1    0    0  501    0  0.00000000000E+00  0.00000000000E+00  0.16508136196E+03  0.16508136196E+03  0.00000000000E+00 0. -1.
         -3   -1    0    0    0  501 -0.00000000000E+00 -0.00000000000E+00 -0.11300637949E+03  0.11300637949E+03  0.00000000000E+00 0.  1.
          5    1    1    2  502    0 -0.49316242152E+02  0.34622568925E+02  0.96759420138E+01  0.61208887205E+02  0.47000000000E+01 0. -1.
         -5    1    1    2    0  502  0.67061746041E+02 -0.68351533644E+02 -0.25005150354E+02  0.99078541964E+02  0.47000000000E+01 0.  1.
        -11    1    1    2    0    0  0.32797734927E+02 -0.10808099988E+01  0.11464196821E+02  0.34760428297E+02  0.00000000000E+00 0.  1.
         11    1    1    2    0    0 -0.50543238816E+02  0.34809774718E+02  0.55939993984E+02  0.83039883988E+02  0.00000000000E+00 0. -1.
<mgrwt>
<rscale>  0 0.14074542E+03</rscale>
<asrwt>0</asrwt>
<pdfrwt beam="1">  1        3 0.25397133E-01 0.15955274E+03</pdfrwt>
<pdfrwt beam="2">  1       -3 0.17385597E-01 0.15955274E+03</pdfrwt>
<totfact> 0.99150536E+02</totfact>
</mgrwt>
</event>
<event>
 6    1  0.7270761E-006  0.1492991E+03  0.7546771E-02  0.1221853E+00
         -3   -1    0    0    0  501 -0.00000000000E+00  0.00000000000E+00  0.64528049269E+03  0.64528049269E+03  0.00000000000E+00 0.  1.
          3   -1    0    0  501    0  0.00000000000E+00 -0.00000000000E+00 -0.52008273000E+02  0.52008273000E+02  0.00000000000E+00 0. -1.
          5    1    1    2  502    0  0.62351576248E+02  0.73881465257E+02  0.34916771755E+03  0.36233461737E+03  0.47000000000E+01 0. -1.
         -5    1    1    2    0  502  0.15447862760E+02 -0.49175170353E+02  0.23205257299E+03  0.23775474858E+03  0.47000000000E+01 0. -1.
        -11    1    1    2    0    0 -0.31485559926E+02 -0.36903875886E+02  0.75651007569E+01  0.49096509944E+02  0.00000000000E+00 0.  1.
         11    1    1    2    0    0 -0.46313879081E+02  0.12197580981E+02  0.44868283984E+01  0.48102889793E+02  0.00000000000E+00 0. -1.
<mgrwt>
<rscale>  0 0.13384979E+03</rscale>
<asrwt>0</asrwt>
<pdfrwt beam="2">  1        3 0.80012733E-02 0.14929910E+03</pdfrwt>
<pdfrwt beam="1">  1       -3 0.99273916E-01 0.14929910E+03</pdfrwt>
<totfact> 0.23184830E+02</totfact>
</mgrwt>
</event>
<event>
 6    1  0.7270761E-006  0.3905557E+03  0.7546771E-02  0.1047100E+00
         -2   -1    0    0    0  501 -0.00000000000E+00  0.00000000000E+00  0.40833226314E+02  0.40833226314E+02  0.00000000000E+00 0.  1.
          2   -1    0    0  501    0  0.00000000000E+00 -0.00000000000E+00 -0.93388257481E+03  0.93388257481E+03  0.00000000000E+00 0. -1.
          5    1    1    2  502    0 -0.39627891197E+02  0.15282887890E+03 -0.62940112682E+03  0.64891825712E+03  0.47000000000E+01 0.  1.
         -5    1    1    2    0  502 -0.11350791473E+02 -0.16861756185E+02 -0.23071193902E+02  0.31105132644E+02  0.47000000000E+01 0.  1.
        -11    1    1    2    0    0  0.43361849625E+02 -0.15496698394E+02 -0.95057033731E+02  0.10562309087E+03  0.00000000000E+00 0. -1.
         11    1    1    2    0    0  0.76168330459E+01 -0.12047042432E+03 -0.14551999404E+03  0.18906932048E+03  0.00000000000E+00 0.  1.
<mgrwt>
<rscale>  0 0.39055570E+03</rscale>
<asrwt>0</asrwt>
<pdfrwt beam="2">  1        2 0.14367423E+00 0.39055570E+03</pdfrwt>
<pdfrwt beam="1">  1       -2 0.62820352E-02 0.39055570E+03</pdfrwt>
<totfact> 0.40010725E+03</totfact>
</mgrwt>
</event>
<event>
 6    1  0.7270761E-006  0.1662196E+03  0.7546771E-02  0.1188437E+00
          1   -1    0    0  501    0  0.00000000000E+00  0.00000000000E+00  0.46125590755E+03  0.46125590755E+03  0.00000000000E+00 0. -1.
         -1   -1    0    0    0  501 -0.00000000000E+00 -0.00000000000E+00 -0.52064080049E+02  0.52064080049E+02  0.00000000000E+00 0.  1.
          5    1    1    2  502    0  0.30165272864E+02 -0.18289036520E+01 -0.10358183282E+02  0.32290409357E+02  0.47000000000E+01 0.  1.
         -5    1    1    2    0  502  0.72619237756E+02  0.39727866605E+02  0.22097091316E+03  0.23601290545E+03  0.47000000000E+01 0.  1.
        -11    1    1    2    0    0 -0.10262976260E+03  0.21020395444E+01  0.15450308631E+03  0.18549525714E+03  0.00000000000E+00 0.  1.
         11    1    1    2    0    0 -0.15474801859E+00 -0.40001002498E+02  0.44076011309E+02  0.59521415648E+02  0.00000000000E+00 0. -1.
<mgrwt>
<rscale>  0 0.16022997E+03</rscale>
<asrwt>0</asrwt>
<pdfrwt beam="1">  1        1 0.70962445E-01 0.16621957E+03</pdfrwt>
<pdfrwt beam="2">  1       -1 0.80098588E-02 0.16621957E+03</pdfrwt>
<totfact> 0.42161446E+03</totfact>
</mgrwt>
</event>
<event>
 6    1  0.7270761E-006  0.1545935E+03  0.7546771E-02  0.1202991E+00
         -4   -1    0    0    0  501 -0.00000000000E+00  0.00000000000E+00  0.46775773706E+02  0.46775773706E+02  0.00000000000E+00 0.  1.
          4   -1    0    0  501    0  0.00000000000E+00 -0.00000000000E+00 -0.44591875684E+03  0.44591875684E+03  0.00000000000E+00 0. -1.
          5    1    1    2  502    0  0.73576956570E+02  0.73636882091E+02 -0.86689272228E+02  0.13554733071E+03  0.47000000000E+01 0.  1.
         -5    1    1    2    0  502 -0.41175988260E+02  0.11362369134E+02 -0.86610310457E+02  0.96685062543E+02  0.47000000000E+01 0.  1.
        -11    1    1    2    0    0 -0.12411509878E+02 -0.99063327477E+02 -0.14531747512E+03  0.17630869804E+03  0.00000000000E+00 0.  1.
         11    1    1    2    0    0 -0.19989458432E+02  0.14064076251E+02 -0.80525925325E+02  0.84153439256E+02  0.00000000000E+00 0. -1.
<mgrwt>
<rscale>  0 0.14796906E+03</rscale>
<asrwt>0</asrwt>
<pdfrwt beam="2">  1        4 0.68602887E-01 0.15459346E+03</pdfrwt>
<pdfrwt beam="1">  1       -4 0.71962727E-02 0.15459346E+03</pdfrwt>
<totfact> 0.44650208E+02</totfact>
</mgrwt>
</event>
<event>
 6    1  0.7270761E-006  0.1559475E+03  0.7546771E-02  0.1201274E+00
          1   -1    0    0  501    0  0.00000000000E+00  0.00000000000E+00  0.13454784970E+03  0.13454784970E+03  0.00000000000E+00 0. -1.
         -1   -1    0    0    0  501 -0.00000000000E+00 -0.00000000000E+00 -0.15324218872E+03  0.15324218872E+03  0.00000000000E+00 0.  1.
          5    1    1    2  502    0  0.16520680424E+02 -0.10631354403E+03 -0.17548780871E+01  0.10770641635E+03  0.47000000000E+01 0. -1.
         -5    1    1    2    0  502  0.36711920243E+02  0.29762133253E+02 -0.11076538439E+02  0.48768118351E+02  0.47000000000E+01 0. -1.
        -11    1    1    2    0    0 -0.11876296168E+02 -0.17591785539E+02  0.15513692731E+02  0.26290530449E+02  0.00000000000E+00 0.  1.
         11    1    1    2    0    0 -0.41356304500E+02  0.94143196311E+02 -0.21376615220E+02  0.10502497328E+03  0.00000000000E+00 0. -1.
<mgrwt>
<rscale>  0 0.14934977E+03</rscale>
<asrwt>0</asrwt>
<pdfrwt beam="1">  1        1 0.20699669E-01 0.15594754E+03</pdfrwt>
<pdfrwt beam="2">  1       -1 0.23575721E-01 0.15594754E+03</pdfrwt>
<totfact> 0.36345750E+03</totfact>
</mgrwt>
</event>
<event>
 6    1  0.7270761E-006  0.1362909E+03  0.7546771E-02  0.1230713E+00
          1   -1    0    0  501    0  0.00000000000E+00  0.00000000000E+00  0.23683738913E+03  0.23683738913E+03  0.00000000000E+00 0. -1.
         -1   -1    0    0    0  501 -0.00000000000E+00 -0.00000000000E+00 -0.66210278739E+02  0.66210278739E+02  0.00000000000E+00 0.  1.
          5    1    1    2  502    0  0.17498078765E+02  0.40972903785E+02  0.29234717036E+02  0.53495049166E+02  0.47000000000E+01 0.  1.
         -5    1    1    2    0  502  0.66919761953E+01 -0.89600513707E+02  0.26949097007E+02  0.93922193498E+02  0.47000000000E+01 0.  1.
        -11    1    1    2    0    0 -0.32609842731E+01  0.19227595646E+02 -0.12827033904E+02  0.23342391727E+02  0.00000000000E+00 0.  1.
         11    1    1    2    0    0 -0.20929070687E+02  0.29400014276E+02  0.12727033025E+03  0.13228803348E+03  0.00000000000E+00 0. -1.
<mgrwt>
<rscale>  0 0.12782940E+03</rscale>
<asrwt>0</asrwt>
<pdfrwt beam="1">  1        1 0.36436521E-01 0.13629095E+03</pdfrwt>
<pdfrwt beam="2">  1       -1 0.10186197E-01 0.13629095E+03</pdfrwt>
<totfact> 0.66680497E+03</totfact>
</mgrwt>
</event>
<event>
 6    1  0.7270761E-006  0.1899630E+03  0.7546771E-02  0.1163786E+00
          1   -1    0    0  501    0  0.00000000000E+00  0.00000000000E+00  0.36988288244E+03  0.36988288244E+03  0.00000000000E+00 0. -1.
         -1   -1    0    0    0  501 -0.00000000000E+00 -0.00000000000E+00 -0.11637463285E+03  0.11637463285E+03  0.00000000000E+00 0.  1.
          5    1    1    2  502    0 -0.61110272229E+00  0.21892282469E+02  0.28660447540E+02  0.36375221393E+02  0.47000000000E+01 0.  1.
         -5    1    1    2    0  502  0.13470152856E+03 -0.71703742474E+02 -0.18918740158E+02  0.15383737260E+03  0.47000000000E+01 0.  1.
        -11    1    1    2    0    0 -0.11891176797E+02 -0.30304901484E+01 -0.55035526896E+01  0.13448905099E+02  0.00000000000E+00 0.  1.
         11    1    1    2    0    0 -0.12219924904E+03  0.52841950153E+02  0.24927009489E+03  0.28259601620E+03  0.00000000000E+00 0. -1.
<mgrwt>
<rscale>  0 0.18421383E+03</rscale>
<asrwt>0</asrwt>
<pdfrwt beam="1">  1        1 0.56905058E-01 0.18996297E+03</pdfrwt>
<pdfrwt beam="2">  1       -1 0.17903790E-01 0.18996297E+03</pdfrwt>
<totfact> 0.16071980E+03</totfact>
</mgrwt>
</event>
<event>
 6    1  0.7270761E-006  0.1664348E+03  0.7546771E-02  0.1188233E+00
         -1   -1    0    0    0  501 -0.00000000000E+00  0.00000000000E+00  0.24821520642E+03  0.24821520642E+03  0.00000000000E+00 0.  1.
          1   -1    0    0  501    0  0.00000000000E+00 -0.00000000000E+00 -0.10045941126E+03  0.10045941126E+03  0.00000000000E+00 0. -1.
          5    1    1    2  502    0 -0.43726164539E+02  0.21001052903E+02  0.45996528829E+02  0.67013374431E+02  0.47000000000E+01 0. -1.
         -5    1    1    2    0  502 -0.12528391629E+02 -0.11539495400E+03  0.66197880307E+02  0.13370566691E+03  0.47000000000E+01 0. -1.
        -11    1    1    2    0    0  0.15098176592E+02 -0.12129842948E+02  0.27282796787E+02  0.33458018872E+02  0.00000000000E+00 0.  1.
         11    1    1    2    0    0  0.41156379576E+02  0.10652374405E+03  0.82785892374E+01  0.11449755746E+03  0.00000000000E+00 0. -1.
<mgrwt>
<rscale>  0 0.16041155E+03</rscale>
<asrwt>0</asrwt>
<pdfrwt beam="2">  1        1 0.15455294E-01 0.16643482E+03</pdfrwt>
<pdfrwt beam="1">  1       -1 0.38186955E-01 0.16643482E+03</pdfrwt>
<totfact> 0.23509491E+03</totfact>
</mgrwt>
</event>
<event>
 6    1  0.7270761E-006  0.2672801E+03  0.7546771E-02  0.1102846E+00
         -3   -1    0    0    0  501 -0.00000000000E+00  0.00000000000E+00  0.10453393995E+03  0.10453393995E+03  0.00000000000E+00 0.  1.
          3   -1    0    0  501    0  0.00000000000E+00 -0.00000000000E+00 -0.17085042538E+03  0.17085042538E+03  0.00000000000E+00 0. -1.
          5    1    1    2  502    0  0.41505375072E+02  0.84779123405E+02 -0.50611287031E+02  0.10720908684E+03  0.47000000000E+01 0.  1.
         -5    1    1    2    0  502 -0.31383277985E+01 -0.19701500620E+02  0.34097933738E+02  0.39783882582E+02  0.47000000000E+01 0.  1.
        -11    1    1    2    0    0 -0.45767302353E+02 -0.98117125977E+01  0.86597983206E+01  0.47601552241E+02  0.00000000000E+00 0.  1.
         11    1    1    2    0    0  0.74002550804E+01 -0.55265910187E+02 -0.58462930453E+02  0.80789843676E+02  0.00000000000E+00 0. -1.
<mgrwt>
<rscale>  0 0.26728014E+03</rscale>
<asrwt>0</asrwt>
<pdfrwt beam="2">  1        3 0.26284681E-01 0.26728014E+03</pdfrwt>
<pdfrwt beam="1">  1       -3 0.16082145E-01 0.26728014E+03</pdfrwt>
<totfact> 0.11439487E+03</totfact>
</mgrwt>
</event>
<event>
 6    1  0.7270761E-006  0.1343171E+03  0.7546771E-02  0.1232909E+00
          1   -1    0    0  501    0  0.00000000000E+00  0.00000000000E+00  0.36113422049E+02  0.36113422049E+02  0.00000000000E+00 0. -1.
         -1   -1    0    0    0  501 -0.00000000000E+00 -0.00000000000E+00 -0.79611144212E+03  0.79611144212E+03  0.00000000000E+00 0.  1.
          5    1    1    2  502    0 -0.85462892293E+01  0.86443813562E+02 -0.57758451871E+03  0.58409891132E+03  0.47000000000E+01 0. -1.
         -5    1    1    2    0  502 -0.35729454719E+01 -0.38811605421E+02 -0.11873158002E+03  0.12505352753E+03  0.47000000000E+01 0. -1.
        -11    1    1    2    0    0  0.88960958362E+01 -0.73504944292E+02 -0.62631639885E+02  0.96978552635E+02  0.00000000000E+00 0.  1.
         11    1    1    2    0    0  0.32231388650E+01  0.25872736151E+02 -0.10502814626E+01  0.26093872676E+02  0.00000000000E+00 0. -1.
<mgrwt>
<rscale>  0 0.12639266E+03</rscale>
<asrwt>0</asrwt>
<pdfrwt beam="1">  1        1 0.55559105E-02 0.13431706E+03</pdfrwt>
<pdfrwt beam="2">  1       -1 0.12247870E+00 0.13431706E+03</pdfrwt>
<totfact> 0.89151973E+02</totfact>
</mgrwt>
</event>
<event>
 6    1  0.7270761E-006  0.1368577E+03  0.7546771E-02  0.1230358E+00
         -1   -1    0    0    0  501 -0.00000000000E+00  0.00000000000E+00  0.10153672376E+03  0.10153672376E+03  0.00000000000E+00 0.  1.
          1   -1    0    0  501    0  0.00000000000E+00 -0.00000000000E+00 -0.14471661383E+03  0.14471661383E+03  0.00000000000E+00 0. -1.
          5    1    1    2  502    0  0.15025535338E+02  0.53482891126E+02  0.44289011398E+01  0.55927556005E+02  0.47000000000E+01 0.  1.
         -5    1    1    2    0  502 -0.68867100378E+02 -0.39122975405E+02 -0.19907298211E+02  0.81802660355E+02  0.47000000000E+01 0.  1.
        -11    1    1    2    0    0  0.62859776753E+02  0.22564480963E+02 -0.15035116193E+02  0.68458469553E+02  0.00000000000E+00 0.  1.
         11    1    1    2    0    0 -0.90182117132E+01 -0.36924396684E+02 -0.12666376799E+02  0.40064651679E+02  0.00000000000E+00 0. -1.
<mgrwt>
<rscale>  0 0.12806334E+03</rscale>
<asrwt>0</asrwt>
<pdfrwt beam="2">  1        1 0.22264095E-01 0.13685771E+03</pdfrwt>
<pdfrwt beam="1">  1       -1 0.15621034E-01 0.13685771E+03</pdfrwt>
<totfact> 0.63610756E+03</totfact>
</mgrwt>
</event>
<event>
 6    1  0.7270761E-006  0.1254269E+03  0.7546771E-02  0.1250557E+00
          2   -1    0    0  501    0  0.00000000000E+00  0.00000000000E+00  0.39041113919E+03  0.39041113919E+03  0.00000000000E+00 0.  1.
         -2   -1    0    0    0  501 -0.00000000000E+00 -0.00000000000E+00 -0.30412436967E+02  0.30412436967E+02  0.00000000000E+00 0. -1.
          5    1    1    2  502    0 -0.63319163570E+02 -0.33338095020E+01  0.82595275925E+02  0.10423291402E+03  0.47000000000E+01 0.  1.
         -5    1    1    2    0  502  0.54203160360E+02  0.81999567274E+01  0.15432770935E+03  0.16384246628E+03  0.47000000000E+01 0.  1.
        -11    1    1    2    0    0 -0.27684226252E+01 -0.30814736517E+02  0.12013672531E+03  0.12405661981E+03  0.00000000000E+00 0.  1.
         11    1    1    2    0    0  0.11884425835E+02  0.25948589291E+02  0.29389916308E+01  0.28691576036E+02  0.00000000000E+00 0. -1.
<mgrwt>
<rscale>  0 0.11558893E+03</rscale>
<asrwt>0</asrwt>
<pdfrwt beam="1">  1        2 0.60063249E-01 0.12542691E+03</pdfrwt>
<pdfrwt beam="2">  1       -2 0.46788367E-02 0.12542691E+03</pdfrwt>
<totfact> 0.16593727E+04</totfact>
</mgrwt>
</event>
<event>
 6    1  0.7270761E-006  0.2341277E+03  0.7546771E-02  0.1126701E+00
          2   -1    0    0  501    0  0.00000000000E+00  0.00000000000E+00  0.30600235255E+03  0.30600235255E+03  0.00000000000E+00 0. -1.
         -2   -1    0    0    0  501 -0.00000000000E+00 -0.00000000000E+00 -0.26220787301E+03  0.26220787301E+03  0.00000000000E+00 0.  1.
          5    1    1    2  502    0 -0.70358059089E+02  0.13635315476E+03 -0.73307768275E+02  0.17011336861E+03  0.47000000000E+01 0. -1.
         -5    1    1    2    0  502  0.46542047373E+02  0.60183512575E+02 -0.75590709598E+02  0.10735111894E+03  0.47000000000E+01 0. -1.
        -11    1    1    2    0    0  0.20807881278E+02 -0.77305396049E+02  0.22933892444E+02  0.83276981239E+02  0.00000000000E+00 0.  1.
         11    1    1    2    0    0  0.30081304383E+01 -0.11923127128E+03  0.16975906496E+03  0.20746875678E+03  0.00000000000E+00 0. -1.
<mgrwt>
<rscale>  0 0.22991366E+03</rscale>
<asrwt>0</asrwt>
<pdfrwt beam="1">  1        2 0.47077285E-01 0.23412771E+03</pdfrwt>
<pdfrwt beam="2">  1       -2 0.40339673E-01 0.23412771E+03</pdfrwt>
<totfact> 0.62905325E+02</totfact>
</mgrwt>
</event>
<event>
 6    1  0.7270761E-006  0.1291387E+03  0.7546771E-02  0.1244070E+00
         -2   -1    0    0    0  501 -0.00000000000E+00  0.00000000000E+00  0.17125978651E+03  0.17125978651E+03  0.00000000000E+00 0.  1.
          2   -1    0    0  501    0  0.00000000000E+00 -0.00000000000E+00 -0.72983946847E+02  0.72983946847E+02  0.00000000000E+00 0. -1.
          5    1    1    2  502    0  0.37479167917E+02 -0.35117888355E+02  0.86884590749E+02  0.10103947852E+03  0.47000000000E+01 0. -1.
         -5    1    1    2    0  502 -0.29822996290E+02  0.36274929522E+01 -0.27591881455E+02  0.41060586151E+02  0.47000000000E+01 0. -1.
        -11    1    1    2    0    0 -0.18998064391E+02  0.12523115555E+02  0.64494787298E+02  0.68391026183E+02  0.00000000000E+00 0.  1.
         11    1    1    2    0    0  0.11341892763E+02  0.18967279848E+02 -0.25511656932E+02  0.33752642499E+02  0.00000000000E+00 0. -1.
<mgrwt>
<rscale>  0 0.11941234E+03</rscale>
<asrwt>0</asrwt>
<pdfrwt beam="2">  1        2 0.11228300E-01 0.12913870E+03</pdfrwt>
<pdfrwt beam="1">  1       -2 0.26347659E-01 0.12913870E+03</pdfrwt>
<totfact> 0.67631138E+03</totfact>
</mgrwt>
</event>
<event>
 6    1  0.7270761E-006  0.1786716E+03  0.7546771E-02  0.1175425E+00
          4   -1    0    0  501    0  0.00000000000E+00  0.00000000000E+00  0.40326614302E+03  0.40326614302E+03  0.00000000000E+00 0. -1.
         -4   -1    0    0    0  501 -0.00000000000E+00 -0.00000000000E+00 -0.69964230954E+02  0.69964230954E+02  0.00000000000E+00 0.  1.
          5    1    1    2  502    0  0.40992091376E+02  0.44272577034E+02  0.14438893990E+03  0.15655883430E+03  0.47000000000E+01 0. -1.
         -5    1    1    2    0  502  0.75492299294E+02  0.79717572152E+01  0.47994291319E+01  0.76208665425E+02  0.47000000000E+01 0. -1.
        -11    1    1    2    0    0 -0.13153887931E+02 -0.46391514196E+02  0.81648923717E+02  0.94824807415E+02  0.00000000000E+00 0. -1.
         11    1    1    2    0    0 -0.10333050274E+03 -0.58528200531E+01  0.10246461931E+03  0.14563806683E+03  0.00000000000E+00 0.  1.
<mgrwt>
<rscale>  0 0.17234442E+03</rscale>
<asrwt>0</asrwt>
<pdfrwt beam="1">  1        4 0.62040944E-01 0.17867160E+03</pdfrwt>
<pdfrwt beam="2">  1       -4 0.10763728E-01 0.17867160E+03</pdfrwt>
<totfact> 0.28910562E+02</totfact>
</mgrwt>
</event>
<event>
 6    1  0.7270761E-006  0.1376396E+03  0.7546771E-02  0.1228573E+00
         -1   -1    0    0    0  501 -0.00000000000E+00  0.00000000000E+00  0.46918295428E+02  0.46918295428E+02  0.00000000000E+00 0.  1.
          1   -1    0    0  501    0  0.00000000000E+00 -0.00000000000E+00 -0.31914395122E+03  0.31914395122E+03  0.00000000000E+00 0. -1.
          5    1    1    2  502    0  0.27225106195E+02  0.45221049340E+02 -0.37795363948E+01  0.53127437413E+02  0.47000000000E+01 0.  1.
         -5    1    1    2    0  502 -0.34274934886E+02  0.11893658159E+02 -0.14504641000E+03  0.14958870720E+03  0.47000000000E+01 0.  1.
        -11    1    1    2    0    0  0.62932952753E+01  0.22681428592E+02 -0.48463227360E+02  0.53877056105E+02  0.00000000000E+00 0. -1.
         11    1    1    2    0    0  0.75653341608E+00 -0.79796136091E+02 -0.74936482034E+02  0.10946904593E+03  0.00000000000E+00 0.  1.
<mgrwt>
<rscale>  0 0.12924969E+03</rscale>
<asrwt>0</asrwt>
<pdfrwt beam="2">  1        1 0.49099068E-01 0.13763965E+03</pdfrwt>
<pdfrwt beam="1">  1       -1 0.72181995E-02 0.13763965E+03</pdfrwt>
<totfact> 0.77719527E+03</totfact>
</mgrwt>
</event>
<event>
 6    1  0.7270761E-006  0.2942425E+03  0.7546771E-02  0.1088155E+00
          1   -1    0    0  501    0  0.00000000000E+00  0.00000000000E+00  0.19463053094E+03  0.19463053094E+03  0.00000000000E+00 0. -1.
         -1   -1    0    0    0  501 -0.00000000000E+00 -0.00000000000E+00 -0.11120897352E+03  0.11120897352E+03  0.00000000000E+00 0.  1.
          5    1    1    2  502    0  0.26108290504E+02  0.58106244229E+02 -0.77141364530E+02  0.10015417402E+03  0.47000000000E+01 0. -1.
         -5    1    1    2    0  502  0.11948669329E+01  0.18356433557E+01  0.44569801733E+02  0.44870419209E+02  0.47000000000E+01 0. -1.
        -11    1    1    2    0    0 -0.43986169204E+02 -0.10342044158E+02  0.15961219541E+02  0.47921826841E+02  0.00000000000E+00 0.  1.
         11    1    1    2    0    0  0.16683011767E+02 -0.49599843427E+02  0.10003190068E+03  0.11289308439E+03  0.00000000000E+00 0. -1.
<mgrwt>
<rscale>  0 0.29424250E+03</rscale>
<asrwt>0</asrwt>
<pdfrwt beam="1">  1        1 0.29943159E-01 0.29424250E+03</pdfrwt>
<pdfrwt beam="2">  1       -1 0.17109073E-01 0.29424250E+03</pdfrwt>
<totfact> 0.39365308E+03</totfact>
</mgrwt>
</event>
<event>
 6    1  0.7270761E-006  0.1270481E+03  0.7546771E-02  0.1246091E+00
         -1   -1    0    0    0  501 -0.00000000000E+00  0.00000000000E+00  0.11639365745E+03  0.11639365745E+03  0.00000000000E+00 0.  1.
          1   -1    0    0  501    0  0.00000000000E+00 -0.00000000000E+00 -0.11462359002E+03  0.11462359002E+03  0.00000000000E+00 0. -1.
          5    1    1    2  502    0  0.52731923066E+02 -0.13353440656E+02 -0.10052385682E+02  0.55516759141E+02  0.47000000000E+01 0. -1.
         -5    1    1    2    0  502 -0.51020903092E+02  0.36000290129E+02  0.42274284729E+02  0.75553680196E+02  0.47000000000E+01 0. -1.
        -11    1    1    2    0    0 -0.42574211970E+02 -0.14292991642E+02  0.50268552916E+01  0.45189848518E+02  0.00000000000E+00 0.  1.
         11    1    1    2    0    0  0.40863191997E+02 -0.83538578316E+01 -0.35478686918E+02  0.54756959615E+02  0.00000000000E+00 0. -1.
<mgrwt>
<rscale>  0 0.11820323E+03</rscale>
<asrwt>0</asrwt>
<pdfrwt beam="2">  1        1 0.17634398E-01 0.12704806E+03</pdfrwt>
<pdfrwt beam="1">  1       -1 0.17906716E-01 0.12704806E+03</pdfrwt>
<totfact> 0.68588900E+03</totfact>
</mgrwt>
</event>
<event>
 6    1  0.7270761E-006  0.3255627E+03  0.7546771E-02  0.1073117E+00
          2   -1    0    0  501    0  0.00000000000E+00  0.00000000000E+00  0.10302026027E+03  0.10302026027E+03  0.00000000000E+00 0. -1.
         -2   -1    0    0    0  501 -0.00000000000E+00 -0.00000000000E+00 -0.25720935068E+03  0.25720935068E+03  0.00000000000E+00 0.  1.
          5    1    1    2  502    0  0.11266746214E+03  0.32465011739E+02 -0.89963339467E+02  0.14786286369E+03  0.47000000000E+01 0.  1.
         -5    1    1    2    0  502 -0.27597955521E+02 -0.19598801164E+02 -0.20765116359E+02  0.39988000868E+02  0.47000000000E+01 0.  1.
        -11    1    1    2    0    0 -0.83471869720E+02 -0.68135811376E+02 -0.11119128286E+02  0.10832209765E+03  0.00000000000E+00 0. -1.
         11    1    1    2    0    0 -0.15976368979E+01  0.55269600801E+02 -0.32341506298E+02  0.64056648726E+02  0.00000000000E+00 0.  1.
<mgrwt>
<rscale>  0 0.32556274E+03</rscale>
<asrwt>0</asrwt>
<pdfrwt beam="1">  1        2 0.15849271E-01 0.32556274E+03</pdfrwt>
<pdfrwt beam="2">  1       -2 0.39570669E-01 0.32556274E+03</pdfrwt>
<totfact> 0.22259209E+03</totfact>
</mgrwt>
</event>
<event>
 6    1  0.7270761E-006  0.2492012E+03  0.7546771E-02  0.1116662E+00
         -2   -1    0    0    0  501 -0.00000000000E+00  0.00000000000E+00  0.34430840544E+03  0.34430840544E+03  0.00000000000E+00 0.  1.
          2   -1    0    0  501    0  0.00000000000E+00 -0.00000000000E+00 -0.21352184045E+03  0.21352184045E+03  0.00000000000E+00 0. -1.
          5    1    1    2  502    0 -0.16551245054E+03 -0.12573233358E+03  0.13401885294E+03  0.24735831082E+03  0.47000000000E+01 0. -1.
         -5    1    1    2    0  502  0.14453779461E+02 -0.28075703184E+02  0.61855425011E+02  0.69608479752E+02  0.47000000000E+01 0. -1.
        -11    1    1    2    0    0  0.13661361951E+03  0.10762778413E+03 -0.20598218168E+02  0.17513225729E+03  0.00000000000E+00 0.  1.
         11    1    1    2    0    0  0.14445051575E+02  0.46180252629E+02 -0.44489494793E+02  0.65731198033E+02  0.00000000000E+00 0. -1.
<mgrwt>
<rscale>  0 0.24475914E+03</rscale>
<asrwt>0</asrwt>
<pdfrwt beam="2">  1        2 0.32849514E-01 0.24920115E+03</pdfrwt>
<pdfrwt beam="1">  1       -2 0.52970524E-01 0.24920115E+03</pdfrwt>
<totfact> 0.54369699E+02</totfact>
</mgrwt>
</event>
<event>
 6    1  0.7270761E-006  0.2623321E+03  0.7546771E-02  0.1105750E+00
          2   -1    0    0  501    0  0.00000000000E+00  0.00000000000E+00  0.68056617821E+03  0.68056617821E+03  0.00000000000E+00 0.  1.
         -2   -1    0    0    0  501 -0.00000000000E+00 -0.00000000000E+00 -0.25279730070E+02  0.25279730070E+02  0.00000000000E+00 0. -1.
          5    1    1    2  502    0 -0.35423245691E+02  0.91586252914E+02  0.16595883573E+03  0.19289186923E+03  0.47000000000E+01 0. -1.
         -5    1    1    2    0  502  0.76148648417E+01 -0.38708351926E+02  0.82893014885E+02  0.91922057158E+02  0.47000000000E+01 0. -1.
        -11    1    1    2    0    0 -0.27364197204E+02 -0.47012244558E+02  0.19680181621E+03  0.20418106007E+03  0.00000000000E+00 0. -1.
         11    1    1    2    0    0  0.55172578054E+02 -0.58656564293E+01  0.20963278132E+03  0.21685092183E+03  0.00000000000E+00 0.  1.
<mgrwt>
<rscale>  0 0.26233207E+03</rscale>
<asrwt>0</asrwt>
<pdfrwt beam="1">  1        2 0.10470247E+00 0.26233207E+03</pdfrwt>
<pdfrwt beam="2">  1       -2 0.38891898E-02 0.26233207E+03</pdfrwt>
<totfact> 0.12363680E+04</totfact>
</mgrwt>
</event>
<event>
 6    1  0.7270761E-006  0.1625548E+03  0.7546771E-02  0.1193483E+00
         -2   -1    0    0    0  501 -0.00000000000E+00  0.00000000000E+00  0.65801367113E+02  0.65801367113E+02  0.00000000000E+00 0.  1.
          2   -1    0    0  501    0  0.00000000000E+00 -0.00000000000E+00 -0.36098845764E+03  0.36098845764E+03  0.00000000000E+00 0. -1.
          5    1    1    2  502    0 -0.34413865757E+02  0.74542836940E+02 -0.48592472700E+02  0.95521029614E+02  0.47000000000E+01 0. -1.
         -5    1    1    2    0  502 -0.65406219411E+02 -0.45606532882E+02 -0.61464391837E+02  0.10078636239E+03  0.47000000000E+01 0. -1.
        -11    1    1    2    0    0  0.28534624164E+02 -0.17325596315E+01  0.17354640418E+01  0.28639804023E+02  0.00000000000E+00 0.  1.
         11    1    1    2    0    0  0.71285461004E+02 -0.27203744427E+02 -0.18686569003E+03  0.20184262873E+03  0.00000000000E+00 0. -1.
<mgrwt>
<rscale>  0 0.15583351E+03</rscale>
<asrwt>0</asrwt>
<pdfrwt beam="2">  1        2 0.55536686E-01 0.16255485E+03</pdfrwt>
<pdfrwt beam="1">  1       -2 0.10123287E-01 0.16255485E+03</pdfrwt>
<totfact> 0.56295129E+03</totfact>
</mgrwt>
</event>
<event>
 6    1  0.7270761E-006  0.1382440E+03  0.7546771E-02  0.1227255E+00
          1   -1    0    0  501    0  0.00000000000E+00  0.00000000000E+00  0.32543956410E+03  0.32543956410E+03  0.00000000000E+00 0. -1.
         -1   -1    0    0    0  501 -0.00000000000E+00 -0.00000000000E+00 -0.47326600652E+02  0.47326600652E+02  0.00000000000E+00 0.  1.
          5    1    1    2  502    0 -0.31121929140E+02 -0.24139151009E+02  0.36915673004E+02  0.54186068304E+02  0.47000000000E+01 0.  1.
         -5    1    1    2    0  502  0.77471797749E+02  0.60711465248E+02  0.98974992621E+02  0.13966352646E+03  0.47000000000E+01 0.  1.
        -11    1    1    2    0    0  0.13822112727E+02 -0.19362453755E+02  0.10149753136E+03  0.10424828195E+03  0.00000000000E+00 0.  1.
         11    1    1    2    0    0 -0.60171981335E+02 -0.17209860484E+02  0.40724766455E+02  0.74668288038E+02  0.00000000000E+00 0. -1.
<mgrwt>
<rscale>  0 0.13013557E+03</rscale>
<asrwt>0</asrwt>
<pdfrwt beam="1">  1        1 0.50067624E-01 0.13824396E+03</pdfrwt>
<pdfrwt beam="2">  1       -1 0.72810157E-02 0.13824396E+03</pdfrwt>
<totfact> 0.74897310E+03</totfact>
</mgrwt>
</event>
<event>
 6    1  0.7270761E-006  0.2511855E+03  0.7546771E-02  0.1115056E+00
          2   -1    0    0  501    0  0.00000000000E+00  0.00000000000E+00  0.60554206822E+03  0.60554206822E+03  0.00000000000E+00 0. -1.
         -2   -1    0    0    0  501 -0.00000000000E+00 -0.00000000000E+00 -0.11444086328E+03  0.11444086328E+03  0.00000000000E+00 0.  1.
          5    1    1    2  502    0  0.10688969974E+03  0.20628960217E+03  0.97854145288E+02  0.25214744025E+03  0.47000000000E+01 0.  1.
         -5    1    1    2    0  502 -0.12772384782E+02 -0.97920151736E+01  0.17578263548E+02  0.24292030041E+02  0.47000000000E+01 0.  1.
        -11    1    1    2    0    0 -0.58983587894E+02 -0.68585410243E+02  0.85410101822E+02  0.12441023926E+03  0.00000000000E+00 0. -1.
         11    1    1    2    0    0 -0.35133727067E+02 -0.12791217676E+03  0.29025869428E+03  0.31913322194E+03  0.00000000000E+00 0.  1.
<mgrwt>
<rscale>  0 0.24724863E+03</rscale>
<asrwt>0</asrwt>
<pdfrwt beam="1">  1        2 0.93160316E-01 0.25118547E+03</pdfrwt>
<pdfrwt beam="2">  1       -2 0.17606287E-01 0.25118547E+03</pdfrwt>
<totfact> 0.13050523E+03</totfact>
</mgrwt>
</event>
<event>
 6    1  0.7270761E-006  0.1264241E+03  0.7546771E-02  0.1248416E+00
          1   -1    0    0  501    0  0.00000000000E+00  0.00000000000E+00  0.11488640117E+03  0.11488640117E+03  0.00000000000E+00 0. -1.
         -1   -1    0    0    0  501 -0.00000000000E+00 -0.00000000000E+00 -0.10534461449E+03  0.10534461449E+03  0.00000000000E+00 0.  1.
          5    1    1    2  502    0  0.60431310182E+01 -0.57839498147E+02 -0.40039175798E+02  0.70761236401E+02  0.47000000000E+01 0. -1.
         -5    1    1    2    0  502 -0.16905369886E+02  0.41228387515E+02  0.33325071654E+02  0.55841041079E+02  0.47000000000E+01 0. -1.
        -11    1    1    2    0    0 -0.19607040787E+02 -0.98679190683E+01 -0.26778220523E+02  0.34624918333E+02  0.00000000000E+00 0.  1.
         11    1    1    2    0    0  0.30469279654E+02  0.26479029701E+02  0.43034111346E+02  0.59003819842E+02  0.00000000000E+00 0. -1.
<mgrwt>
<rscale>  0 0.11683236E+03</rscale>
<asrwt>0</asrwt>
<pdfrwt beam="1">  1        1 0.17674831E-01 0.12642412E+03</pdfrwt>
<pdfrwt beam="2">  1       -1 0.16206864E-01 0.12642412E+03</pdfrwt>
<totfact> 0.80031283E+03</totfact>
</mgrwt>
</event>
<event>
 6    1  0.7270761E-006  0.2532373E+03  0.7546771E-02  0.1112737E+00
          2   -1    0    0  501    0  0.00000000000E+00  0.00000000000E+00  0.13038687180E+04  0.13038687180E+04  0.00000000000E+00 0. -1.
         -2   -1    0    0    0  501 -0.00000000000E+00 -0.00000000000E+00 -0.74875298785E+02  0.74875298785E+02  0.00000000000E+00 0.  1.
          5    1    1    2  502    0  0.36983347415E+02 -0.87119746333E+02  0.16754677625E+03  0.19248800072E+03  0.47000000000E+01 0. -1.
         -5    1    1    2    0  502  0.16459709592E+02 -0.12652384124E+03  0.36685347240E+02  0.13284242223E+03  0.47000000000E+01 0. -1.
        -11    1    1    2    0    0  0.94770641922E+01  0.83295962888E+02  0.21401460322E+03  0.22984839040E+03  0.00000000000E+00 0.  1.
         11    1    1    2    0    0 -0.62920121200E+02  0.13034762468E+03  0.81074669255E+03  0.82356520349E+03  0.00000000000E+00 0. -1.
<mgrwt>
<rscale>  0 0.25090016E+03</rscale>
<asrwt>0</asrwt>
<pdfrwt beam="1">  1        2 0.20059517E+00 0.25323729E+03</pdfrwt>
<pdfrwt beam="2">  1       -2 0.11519278E-01 0.25323729E+03</pdfrwt>
<totfact> 0.92561999E+02</totfact>
</mgrwt>
</event>
<event>
 6    1  0.7270761E-006  0.1716602E+03  0.7546771E-02  0.1182460E+00
          1   -1    0    0  501    0  0.00000000000E+00  0.00000000000E+00  0.45191883078E+03  0.45191883078E+03  0.00000000000E+00 0. -1.
         -1   -1    0    0    0  501 -0.00000000000E+00 -0.00000000000E+00 -0.58384367385E+02  0.58384367385E+02  0.00000000000E+00 0.  1.
          5    1    1    2  502    0 -0.10644950989E+03 -0.84514000488E+02  0.13665805030E+03  0.19279944799E+03  0.47000000000E+01 0.  1.
         -5    1    1    2    0  502 -0.39807136590E+00  0.35272303559E+02  0.32213939095E+02  0.48001268016E+02  0.47000000000E+01 0.  1.
        -11    1    1    2    0    0  0.78383932240E+02  0.52349203191E+02  0.84961196465E+02  0.12689714265E+03  0.00000000000E+00 0.  1.
         11    1    1    2    0    0  0.28463649018E+02 -0.31075062615E+01  0.13970127754E+03  0.14260533951E+03  0.00000000000E+00 0. -1.
<mgrwt>
<rscale>  0 0.16565116E+03</rscale>
<asrwt>0</asrwt>
<pdfrwt beam="1">  1        1 0.69525972E-01 0.17166023E+03</pdfrwt>
<pdfrwt beam="2">  1       -1 0.89822107E-02 0.17166023E+03</pdfrwt>
<totfact> 0.36416068E+03</totfact>
</mgrwt>
</event>
<event>
 6    1  0.7270761E-006  0.1435312E+03  0.7546771E-02  0.1215984E+00
          2   -1    0    0  501    0  0.00000000000E+00  0.00000000000E+00  0.15457954091E+03  0.15457954091E+03  0.00000000000E+00 0. -1.
         -2   -1    0    0    0  501 -0.00000000000E+00 -0.00000000000E+00 -0.11472957407E+03  0.11472957407E+03  0.00000000000E+00 0.  1.
          5    1    1    2  502    0  0.88755745145E+02 -0.23694803909E+02  0.51299471145E+02  0.10532213333E+03  0.47000000000E+01 0. -1.
         -5    1    1    2    0  502 -0.89322151789E+01  0.25008830954E+02 -0.29371030939E+02  0.39874472437E+02  0.47000000000E+01 0.  1.
        -11    1    1    2    0    0 -0.99637653333E+02  0.67599247290E+00  0.38231808875E+01  0.99713267119E+02  0.00000000000E+00 0.  1.
         11    1    1    2    0    0  0.19814123367E+02 -0.19900195178E+01  0.14098345747E+02  0.24399242105E+02  0.00000000000E+00 0. -1.
<mgrwt>
<rscale>  0 0.13804468E+03</rscale>
<asrwt>0</asrwt>
<pdfrwt beam="1">  1        2 0.23781468E-01 0.14353117E+03</pdfrwt>
<pdfrwt beam="2">  1       -2 0.17650704E-01 0.14353117E+03</pdfrwt>
<totfact> 0.56650406E+03</totfact>
</mgrwt>
</event>
<event>
 6    1  0.7270761E-006  0.1410573E+03  0.7546771E-02  0.1222994E+00
          2   -1    0    0  501    0  0.00000000000E+00  0.00000000000E+00  0.21708248861E+03  0.21708248861E+03  0.00000000000E+00 0.  1.
         -2   -1    0    0    0  501 -0.00000000000E+00 -0.00000000000E+00 -0.73617318314E+02  0.73617318314E+02  0.00000000000E+00 0. -1.
          5    1    1    2  502    0  0.16615168980E+02 -0.33127730650E+02  0.83296121410E+02  0.91289891117E+02  0.47000000000E+01 0.  1.
         -5    1    1    2    0  502  0.43713926919E+02  0.58318997130E+02  0.10115720953E+01  0.73041947612E+02  0.47000000000E+01 0.  1.
        -11    1    1    2    0    0 -0.16706957099E+02 -0.14639216165E+02  0.75426910380E+02  0.78629815433E+02  0.00000000000E+00 0.  1.
         11    1    1    2    0    0 -0.43622138800E+02 -0.10552050315E+02 -0.16269433593E+02  0.47738152758E+02  0.00000000000E+00 0. -1.
<mgrwt>
<rscale>  0 0.13305365E+03</rscale>
<asrwt>0</asrwt>
<pdfrwt beam="1">  1        2 0.33397306E-01 0.14105731E+03</pdfrwt>
<pdfrwt beam="2">  1       -2 0.11325741E-01 0.14105731E+03</pdfrwt>
<totfact> 0.80365473E+03</totfact>
</mgrwt>
</event>
<event>
 6    1  0.7270761E-006  0.1359006E+03  0.7546771E-02  0.1237964E+00
          2   -1    0    0  501    0  0.00000000000E+00  0.00000000000E+00  0.11299103403E+03  0.11299103403E+03  0.00000000000E+00 0. -1.
         -2   -1    0    0    0  501 -0.00000000000E+00 -0.00000000000E+00 -0.15960560126E+03  0.15960560126E+03  0.00000000000E+00 0.  1.
          5    1    1    2  502    0  0.33717354363E+02  0.28872994741E+02 -0.37960027793E+01  0.44799659013E+02  0.47000000000E+01 0. -1.
         -5    1    1    2    0  502 -0.52135476842E+02 -0.58782581166E+02 -0.94151504928E+02  0.12271958146E+03  0.47000000000E+01 0.  1.
        -11    1    1    2    0    0 -0.32965407191E+02  0.19378442382E+01  0.15572452555E+02  0.36509924543E+02  0.00000000000E+00 0. -1.
         11    1    1    2    0    0  0.51383529670E+02  0.27971742187E+02  0.35760487925E+02  0.68567470268E+02  0.00000000000E+00 0.  1.
<mgrwt>
<rscale>  0 0.12316604E+03</rscale>
<asrwt>0</asrwt>
<pdfrwt beam="1">  1        2 0.17383236E-01 0.13590063E+03</pdfrwt>
<pdfrwt beam="2">  1       -2 0.24554708E-01 0.13590063E+03</pdfrwt>
<totfact> 0.45846648E+03</totfact>
</mgrwt>
</event>
<event>
 6    1  0.7270761E-006  0.2053972E+03  0.7546771E-02  0.1150804E+00
         -2   -1    0    0    0  501 -0.00000000000E+00  0.00000000000E+00  0.14502114240E+03  0.14502114240E+03  0.00000000000E+00 0.  1.
          2   -1    0    0  501    0  0.00000000000E+00 -0.00000000000E+00 -0.27914149000E+03  0.27914149000E+03  0.00000000000E+00 0. -1.
          5    1    1    2  502    0 -0.28484503082E+01  0.15582781874E+02 -0.53812926431E+02  0.56292608850E+02  0.47000000000E+01 0. -1.
         -5    1    1    2    0  502 -0.10718967926E+03  0.94368903402E+02  0.43499533898E+02  0.14936337141E+03  0.47000000000E+01 0.  1.
        -11    1    1    2    0    0  0.10723113403E+03 -0.89784852696E+02 -0.13574698114E+03  0.19490274181E+03  0.00000000000E+00 0. -1.
         11    1    1    2    0    0  0.28069955381E+01 -0.20166832580E+02  0.11940026067E+02  0.23603910327E+02  0.00000000000E+00 0.  1.
<mgrwt>
<rscale>  0 0.19874331E+03</rscale>
<asrwt>0</asrwt>
<pdfrwt beam="2">  1        2 0.42944844E-01 0.20539722E+03</pdfrwt>
<pdfrwt beam="1">  1       -2 0.22310945E-01 0.20539722E+03</pdfrwt>
<totfact> 0.20341059E+03</totfact>
</mgrwt>
</event>
<event>
 6    1  0.7270761E-006  0.1306436E+03  0.7546771E-02  0.1240692E+00
         -1   -1    0    0    0  501 -0.00000000000E+00  0.00000000000E+00  0.71322552279E+02  0.71322552279E+02  0.00000000000E+00 0.  1.
          1   -1    0    0  501    0  0.00000000000E+00 -0.00000000000E+00 -0.18799276493E+03  0.18799276493E+03  0.00000000000E+00 0. -1.
          5    1    1    2  502    0 -0.21239084554E+02  0.59354203511E+02 -0.74128808087E+01  0.63647945678E+02  0.47000000000E+01 0. -1.
         -5    1    1    2    0  502  0.52222570574E+02 -0.37344934862E+02 -0.37503869741E+02  0.74501485105E+02  0.47000000000E+01 0. -1.
        -11    1    1    2    0    0 -0.11631673867E+02 -0.56715794696E+02 -0.42192263467E+02  0.71639125494E+02  0.00000000000E+00 0. -1.
         11    1    1    2    0    0 -0.19351812153E+02  0.34706526047E+02 -0.29561198635E+02  0.49526760934E+02  0.00000000000E+00 0.  1.
<mgrwt>
<rscale>  0 0.12146960E+03</rscale>
<asrwt>0</asrwt>
<pdfrwt beam="2">  1        1 0.28921964E-01 0.13064360E+03</pdfrwt>
<pdfrwt beam="1">  1       -1 0.10972700E-01 0.13064360E+03</pdfrwt>
<totfact> 0.79012437E+03</totfact>
</mgrwt>
</event>
<event>
 6    1  0.7270761E-006  0.2927536E+03  0.7546771E-02  0.1090620E+00
         -2   -1    0    0    0  501 -0.00000000000E+00  0.00000000000E+00  0.52391504655E+02  0.52391504655E+02  0.00000000000E+00 0.  1.
          2   -1    0    0  501    0  0.00000000000E+00 -0.00000000000E+00 -0.15649731299E+04  0.15649731299E+04  0.00000000000E+00 0. -1.
          5    1    1    2  502    0  0.13629443787E+02 -0.22031077557E+03 -0.53229846196E+03  0.57626933128E+03  0.47000000000E+01 0.  1.
         -5    1    1    2    0  502  0.57954985513E+02 -0.34553223307E+02 -0.25084732570E+03  0.25980603610E+03  0.47000000000E+01 0.  1.
        -11    1    1    2    0    0 -0.26533955922E+02  0.14776610543E+03 -0.28753126719E+03  0.32436569231E+03  0.00000000000E+00 0.  1.
         11    1    1    2    0    0 -0.45050473377E+02  0.10709789345E+03 -0.44190457038E+03  0.45692357485E+03  0.00000000000E+00 0. -1.
<mgrwt>
<rscale>  0 0.28948236E+03</rscale>
<asrwt>0</asrwt>
<pdfrwt beam="2">  1        2 0.24076505E+00 0.29275364E+03</pdfrwt>
<pdfrwt beam="1">  1       -2 0.80602332E-02 0.29275364E+03</pdfrwt>
<totfact> 0.11763712E+03</totfact>
</mgrwt>
</event>
<event>
 6    1  0.7270761E-006  0.6900574E+03  0.7546771E-02  0.9734388E-01
          1   -1    0    0  501    0  0.00000000000E+00  0.00000000000E+00  0.72318362696E+03  0.72318362696E+03  0.00000000000E+00 0. -1.
         -1   -1    0    0    0  501 -0.00000000000E+00 -0.00000000000E+00 -0.16461212142E+03  0.16461212142E+03  0.00000000000E+00 0.  1.
          5    1    1    2  502    0  0.10464299177E+03 -0.13298207795E+03 -0.95208477306E+02  0.19421929084E+03  0.47000000000E+01 0. -1.
         -5    1    1    2    0  502 -0.28608005461E+01 -0.16294574273E+02  0.30322731905E+02  0.34860513489E+02  0.47000000000E+01 0. -1.
        -11    1    1    2    0    0 -0.85489105979E+02  0.16734553215E+03  0.53867543392E+03  0.57051217119E+03  0.00000000000E+00 0.  1.
         11    1    1    2    0    0 -0.16293085241E+02 -0.18068879928E+02  0.84781817023E+02  0.88203772858E+02  0.00000000000E+00 0. -1.
<mgrwt>
<rscale>  0 0.69005736E+03</rscale>
<asrwt>0</asrwt>
<pdfrwt beam="1">  1        1 0.11125902E+00 0.69005736E+03</pdfrwt>
<pdfrwt beam="2">  1       -1 0.25324942E-01 0.69005736E+03</pdfrwt>
<totfact> 0.35898183E+02</totfact>
</mgrwt>
</event>
<event>
 6    1  0.7270761E-006  0.2551051E+03  0.7546771E-02  0.1112438E+00
         -2   -1    0    0    0  501 -0.00000000000E+00  0.00000000000E+00  0.12791160251E+03  0.12791160251E+03  0.00000000000E+00 0.  1.
          2   -1    0    0  501    0  0.00000000000E+00 -0.00000000000E+00 -0.51341143013E+03  0.51341143013E+03  0.00000000000E+00 0. -1.
          5    1    1    2  502    0 -0.16049152328E+02 -0.54384996188E+01 -0.56303326253E+02  0.58985651779E+02  0.47000000000E+01 0. -1.
         -5    1    1    2    0  502 -0.47414442472E+02 -0.20771546430E+03 -0.60104995393E+02  0.22142390100E+03  0.47000000000E+01 0. -1.
        -11    1    1    2    0    0  0.69938835933E+02  0.15686265233E+03 -0.14604487097E+03  0.22544719294E+03  0.00000000000E+00 0.  1.
         11    1    1    2    0    0 -0.64752411331E+01  0.56291311582E+02 -0.12304663500E+03  0.13546628692E+03  0.00000000000E+00 0. -1.
<mgrwt>
<rscale>  0 0.25137709E+03</rscale>
<asrwt>0</asrwt>
<pdfrwt beam="2">  1        2 0.78986373E-01 0.25510512E+03</pdfrwt>
<pdfrwt beam="1">  1       -2 0.19678708E-01 0.25510512E+03</pdfrwt>
<totfact> 0.13054100E+03</totfact>
</mgrwt>
</event>
<event>
 6    1  0.7270761E-006  0.1374065E+03  0.7546771E-02  0.1228641E+00
          4   -1    0    0  501    0  0.00000000000E+00  0.00000000000E+00  0.27920616455E+02  0.27920616455E+02  0.00000000000E+00 0. -1.
         -4   -1    0    0    0  501 -0.00000000000E+00 -0.00000000000E+00 -0.59492900344E+03  0.59492900344E+03  0.00000000000E+00 0.  1.
          5    1    1    2  502    0  0.65051601270E+02  0.27315643888E+02 -0.10790598352E+03  0.12901025737E+03  0.47000000000E+01 0.  1.
         -5    1    1    2    0  502 -0.23943711586E+02  0.12280065352E+02 -0.30368380982E+03  0.30490990092E+03  0.47000000000E+01 0.  1.
        -11    1    1    2    0    0  0.15066971272E+02  0.63166840249E+00  0.36391858499E+01  0.15513100977E+02  0.00000000000E+00 0.  1.
         11    1    1    2    0    0 -0.56174860955E+02 -0.40227377642E+02 -0.15905777950E+03  0.17341636063E+03  0.00000000000E+00 0. -1.
<mgrwt>
<rscale>  0 0.12920472E+03</rscale>
<asrwt>0</asrwt>
<pdfrwt beam="1">  1        4 0.42954794E-02 0.13740650E+03</pdfrwt>
<pdfrwt beam="2">  1       -4 0.91527539E-01 0.13740650E+03</pdfrwt>
<totfact> 0.53282165E+02</totfact>
</mgrwt>
</event>
<event>
 6    1  0.7270761E-006  0.1293951E+03  0.7546771E-02  0.1242451E+00
         -3   -1    0    0    0  501 -0.00000000000E+00  0.00000000000E+00  0.38703104389E+03  0.38703104389E+03  0.00000000000E+00 0.  1.
          3   -1    0    0  501    0  0.00000000000E+00 -0.00000000000E+00 -0.36215844398E+02  0.36215844398E+02  0.00000000000E+00 0. -1.
          5    1    1    2  502    0  0.47556655958E+02 -0.10589851578E+02  0.93886813760E+02  0.10588014110E+03  0.47000000000E+01 0. -1.
         -5    1    1    2    0  502 -0.80178246746E+02  0.32449541183E+01  0.16597702557E+03  0.18441676713E+03  0.47000000000E+01 0. -1.
        -11    1    1    2    0    0  0.42410951504E+02 -0.16490449874E+02  0.81452090603E+01  0.46227353106E+02  0.00000000000E+00 0.  1.
         11    1    1    2    0    0 -0.97893607159E+01  0.23835347333E+02  0.82806151097E+02  0.86722626951E+02  0.00000000000E+00 0. -1.
<mgrwt>
<rscale>  0 0.12039258E+03</rscale>
<asrwt>0</asrwt>
<pdfrwt beam="2">  1        3 0.55716686E-02 0.12939505E+03</pdfrwt>
<pdfrwt beam="1">  1       -3 0.59543235E-01 0.12939505E+03</pdfrwt>
<totfact> 0.12251084E+03</totfact>
</mgrwt>
</event>
<event>
 6    1  0.7270761E-006  0.2298517E+03  0.7546771E-02  0.1161482E+00
          1   -1    0    0  501    0  0.00000000000E+00  0.00000000000E+00  0.27097470966E+02  0.27097470966E+02  0.00000000000E+00 0. -1.
         -1   -1    0    0    0  501 -0.00000000000E+00 -0.00000000000E+00 -0.10081441509E+04  0.10081441509E+04  0.00000000000E+00 0.  1.
          5    1    1    2  502    0 -0.79104380831E+02 -0.60358863351E+02 -0.15391687363E+03  0.18333900141E+03  0.47000000000E+01 0. -1.
         -5    1    1    2    0  502  0.41400945360E+02  0.76155934415E+02 -0.55941030429E+03  0.56610577030E+03  0.47000000000E+01 0.  1.
        -11    1    1    2    0    0 -0.20214334953E+01  0.31332668086E+02 -0.14626143084E+03  0.14959354410E+03  0.00000000000E+00 0.  1.
         11    1    1    2    0    0  0.39724868967E+02 -0.47129739151E+02 -0.12145807116E+03  0.13620330604E+03  0.00000000000E+00 0. -1.
<mgrwt>
<rscale>  0 0.18668909E+03</rscale>
<asrwt>0</asrwt>
<pdfrwt beam="1">  1        1 0.41688416E-02 0.22985170E+03</pdfrwt>
<pdfrwt beam="2">  1       -1 0.15509910E+00 0.22985170E+03</pdfrwt>
<totfact> 0.74062998E+02</totfact>
</mgrwt>
</event>
<event>
 6    1  0.7270761E-006  0.1280028E+03  0.7546771E-02  0.1245279E+00
         -2   -1    0    0    0  501 -0.00000000000E+00  0.00000000000E+00  0.11724161670E+03  0.11724161670E+03  0.00000000000E+00 0.  1.
          2   -1    0    0  501    0  0.00000000000E+00 -0.00000000000E+00 -0.10878417784E+03  0.10878417784E+03  0.00000000000E+00 0. -1.
          5    1    1    2  502    0 -0.51912926270E+02 -0.30563056629E+01 -0.29861854316E+02  0.60150754454E+02  0.47000000000E+01 0. -1.
         -5    1    1    2    0  502  0.36493520481E+02  0.26035227366E+02  0.53602144102E+02  0.70034919529E+02  0.47000000000E+01 0. -1.
        -11    1    1    2    0    0  0.28676208004E+02  0.14420883122E+02  0.23943046647E+02  0.40044428554E+02  0.00000000000E+00 0.  1.
         11    1    1    2    0    0 -0.13256802214E+02 -0.37399804825E+02 -0.39225897572E+02  0.55795692004E+02  0.00000000000E+00 0. -1.
<mgrwt>
<rscale>  0 0.11868698E+03</rscale>
<asrwt>0</asrwt>
<pdfrwt beam="2">  1        2 0.16736027E-01 0.12800277E+03</pdfrwt>
<pdfrwt beam="1">  1       -2 0.18037172E-01 0.12800277E+03</pdfrwt>
<totfact> 0.80653323E+03</totfact>
</mgrwt>
</event>
<event>
 6    1  0.7270761E-006  0.2324882E+03  0.7546771E-02  0.1128247E+00
         -3   -1    0    0    0  501 -0.00000000000E+00  0.00000000000E+00  0.13443017643E+03  0.13443017643E+03  0.00000000000E+00 0.  1.
          3   -1    0    0  501    0  0.00000000000E+00 -0.00000000000E+00 -0.48457770410E+03  0.48457770410E+03  0.00000000000E+00 0. -1.
          5    1    1    2  502    0 -0.18340522359E+02 -0.77818502858E+02 -0.74964854481E+02  0.10969919578E+03  0.47000000000E+01 0.  1.
         -5    1    1    2    0  502 -0.93284806420E+01 -0.11624048912E+03  0.44235943058E+02  0.12481097917E+03  0.47000000000E+01 0.  1.
        -11    1    1    2    0    0  0.18696810556E+02  0.68419800793E+02 -0.49075712561E+02  0.86251176392E+02  0.00000000000E+00 0.  1.
         11    1    1    2    0    0  0.89721924446E+01  0.12563919119E+03 -0.27034290369E+03  0.29824652919E+03  0.00000000000E+00 0. -1.
<mgrwt>
<rscale>  0 0.22773038E+03</rscale>
<asrwt>0</asrwt>
<pdfrwt beam="2">  1        3 0.74550415E-01 0.23248818E+03</pdfrwt>
<pdfrwt beam="1">  1       -3 0.20681566E-01 0.23248818E+03</pdfrwt>
<totfact> 0.91003150E+01</totfact>
</mgrwt>
</event>
<event>
 6    1  0.7270761E-006  0.2490170E+03  0.7546771E-02  0.1140359E+00
         -2   -1    0    0    0  501 -0.00000000000E+00  0.00000000000E+00  0.74619808980E+03  0.74619808980E+03  0.00000000000E+00 0. -1.
          2   -1    0    0  501    0  0.00000000000E+00 -0.00000000000E+00 -0.50500392788E+02  0.50500392788E+02  0.00000000000E+00 0.  1.
          5    1    1    2  502    0  0.11511907937E+02  0.10274225525E+03  0.12626760795E+03  0.16326081543E+03  0.47000000000E+01 0.  1.
         -5    1    1    2    0  502  0.79860522112E+02 -0.93315052676E+02  0.40951197599E+03  0.42755999641E+03  0.47000000000E+01 0. -1.
        -11    1    1    2    0    0  0.18204473562E+02 -0.12918026584E+01  0.35282837804E+02  0.39723421999E+02  0.00000000000E+00 0.  1.
         11    1    1    2    0    0 -0.10957690361E+03 -0.81353999140E+01  0.12463527526E+03  0.16615424874E+03  0.00000000000E+00 0. -1.
<mgrwt>
<rscale>  0 0.21153078E+03</rscale>
<asrwt>0</asrwt>
<pdfrwt beam="2">  1        2 0.77692918E-02 0.24901701E+03</pdfrwt>
<pdfrwt beam="1">  1       -2 0.11479970E+00 0.24901701E+03</pdfrwt>
<totfact> 0.54465065E+02</totfact>
</mgrwt>
</event>
<event>
 6    1  0.7270761E-006  0.1286796E+03  0.7546771E-02  0.1243024E+00
         -1   -1    0    0    0  501 -0.00000000000E+00  0.00000000000E+00  0.38218176154E+03  0.38218176154E+03  0.00000000000E+00 0.  1.
          1   -1    0    0  501    0  0.00000000000E+00 -0.00000000000E+00 -0.34402361051E+02  0.34402361051E+02  0.00000000000E+00 0. -1.
          5    1    1    2  502    0  0.45856533483E+02  0.50712338091E+02  0.16016541182E+03  0.17421140043E+03  0.47000000000E+01 0.  1.
         -5    1    1    2    0  502 -0.15423963769E+02 -0.53559779780E+02  0.71343406594E+02  0.90656055136E+02  0.47000000000E+01 0.  1.
        -11    1    1    2    0    0 -0.51941752286E+02  0.24740625328E+02  0.10361941203E+03  0.11852015323E+03  0.00000000000E+00 0.  1.
         11    1    1    2    0    0  0.21509182571E+02 -0.21893183639E+02  0.12651170053E+02  0.33196513799E+02  0.00000000000E+00 0. -1.
<mgrwt>
<rscale>  0 0.12004458E+03</rscale>
<asrwt>0</asrwt>
<pdfrwt beam="2">  1        1 0.52926712E-02 0.12867959E+03</pdfrwt>
<pdfrwt beam="1">  1       -1 0.58797191E-01 0.12867959E+03</pdfrwt>
<totfact> 0.44297117E+03</totfact>
</mgrwt>
</event>
<event>
 6    1  0.7270761E-006  0.1381785E+03  0.7546771E-02  0.1222558E+00
          2   -1    0    0  501    0  0.00000000000E+00  0.00000000000E+00  0.95941588867E+02  0.95941588867E+02  0.00000000000E+00 0. -1.
         -2   -1    0    0    0  501 -0.00000000000E+00 -0.00000000000E+00 -0.22303921177E+03  0.22303921177E+03  0.00000000000E+00 0.  1.
          5    1    1    2  502    0 -0.73034565438E+02  0.29788077781E+01 -0.31668126269E+02  0.79799005419E+02  0.47000000000E+01 0. -1.
         -5    1    1    2    0  502  0.12584127581E+01 -0.42470229630E+02 -0.11038633702E+03  0.11837456403E+03  0.47000000000E+01 0.  1.
        -11    1    1    2    0    0  0.88708934681E+02  0.15418395460E+02  0.15537800337E+02  0.91369717358E+02  0.00000000000E+00 0. -1.
         11    1    1    2    0    0 -0.16932782001E+02  0.24073026392E+02 -0.58095994501E+00  0.29437513829E+02  0.00000000000E+00 0.  1.
<mgrwt>
<rscale>  0 0.13335674E+03</rscale>
<asrwt>0</asrwt>
<pdfrwt beam="1">  1        2 0.14760244E-01 0.13817848E+03</pdfrwt>
<pdfrwt beam="2">  1       -2 0.34313725E-01 0.13817848E+03</pdfrwt>
<totfact> 0.30492757E+03</totfact>
</mgrwt>
</event>
<event>
 6    1  0.7270761E-006  0.2522862E+03  0.7546771E-02  0.1111868E+00
         -2   -1    0    0    0  501 -0.00000000000E+00  0.00000000000E+00  0.64374609648E+02  0.64374609648E+02  0.00000000000E+00 0.  1.
          2   -1    0    0  501    0  0.00000000000E+00 -0.00000000000E+00 -0.24717938389E+03  0.24717938389E+03  0.00000000000E+00 0. -1.
          5    1    1    2  502    0  0.16410692627E+02  0.13077991419E+02  0.37295866173E+02  0.43051321996E+02  0.47000000000E+01 0.  1.
         -5    1    1    2    0  502 -0.47913344021E+02 -0.10338286330E+02 -0.77844793375E+02  0.92111185830E+02  0.47000000000E+01 0.  1.
        -11    1    1    2    0    0  0.18312093759E+02 -0.27672711218E+02 -0.14434211158E+03  0.14810724796E+03  0.00000000000E+00 0. -1.
         11    1    1    2    0    0  0.13190557636E+02  0.24933006130E+02  0.20862645368E+01  0.28284237750E+02  0.00000000000E+00 0.  1.
<mgrwt>
<rscale>  0 0.25228616E+03</rscale>
<asrwt>0</asrwt>
<pdfrwt beam="2">  1        2 0.38027597E-01 0.25228616E+03</pdfrwt>
<pdfrwt beam="1">  1       -2 0.99037861E-02 0.25228616E+03</pdfrwt>
<totfact> 0.89780747E+03</totfact>
</mgrwt>
</event>
<event>
 6    1  0.7270761E-006  0.1334598E+03  0.7546771E-02  0.1235457E+00
          1   -1    0    0  501    0  0.00000000000E+00  0.00000000000E+00  0.51054000978E+03  0.51054000978E+03  0.00000000000E+00 0. -1.
         -1   -1    0    0    0  501 -0.00000000000E+00 -0.00000000000E+00 -0.29531475629E+02  0.29531475629E+02  0.00000000000E+00 0.  1.
          5    1    1    2  502    0  0.72314460198E+01  0.79930997833E+02  0.16479709152E+03  0.18336147250E+03  0.47000000000E+01 0. -1.
         -5    1    1    2    0  502  0.16347105589E+02 -0.39549435757E+02  0.28864462624E+02  0.51832739966E+02  0.47000000000E+01 0. -1.
        -11    1    1    2    0    0  0.13676831889E+02  0.65594751438E+01  0.46022088672E+01  0.15851270332E+02  0.00000000000E+00 0.  1.
         11    1    1    2    0    0 -0.37255383498E+02 -0.46941037220E+02  0.28274477114E+03  0.28902600261E+03  0.00000000000E+00 0. -1.
<mgrwt>
<rscale>  0 0.12475193E+03</rscale>
<asrwt>0</asrwt>
<pdfrwt beam="1">  1        1 0.78544610E-01 0.13345981E+03</pdfrwt>
<pdfrwt beam="2">  1       -1 0.45433043E-02 0.13345981E+03</pdfrwt>
<totfact> 0.85154572E+03</totfact>
</mgrwt>
</event>
<event>
 6    1  0.7270761E-006  0.1436996E+03  0.7546771E-02  0.1218430E+00
          1   -1    0    0  501    0  0.00000000000E+00  0.00000000000E+00  0.64818042072E+03  0.64818042072E+03  0.00000000000E+00 0. -1.
         -1   -1    0    0    0  501 -0.00000000000E+00 -0.00000000000E+00 -0.32547826341E+02  0.32547826341E+02  0.00000000000E+00 0.  1.
          5    1    1    2  502    0 -0.14548856348E+01 -0.33472750568E+02 -0.10382915506E+02  0.35389781819E+02  0.47000000000E+01 0. -1.
         -5    1    1    2    0  502 -0.18573499455E+02 -0.34521080456E+02  0.19294476237E+03  0.19694276124E+03  0.47000000000E+01 0. -1.
        -11    1    1    2    0    0 -0.32047259186E+02  0.34691165777E+02  0.11405565219E+03  0.12344713687E+03  0.00000000000E+00 0.  1.
         11    1    1    2    0    0  0.52075644276E+02  0.33302665246E+02  0.31901509532E+03  0.32494856714E+03  0.00000000000E+00 0. -1.
<mgrwt>
<rscale>  0 0.13627537E+03</rscale>
<asrwt>0</asrwt>
<pdfrwt beam="1">  1        1 0.99720055E-01 0.14369963E+03</pdfrwt>
<pdfrwt beam="2">  1       -1 0.50073584E-02 0.14369963E+03</pdfrwt>
<totfact> 0.53678512E+03</totfact>
</mgrwt>
</event>
<event>
 6    1  0.7270761E-006  0.1256477E+03  0.7546771E-02  0.1248923E+00
         -2   -1    0    0    0  501 -0.00000000000E+00  0.00000000000E+00  0.86252189975E+02  0.86252189975E+02  0.00000000000E+00 0.  1.
          2   -1    0    0  501    0  0.00000000000E+00 -0.00000000000E+00 -0.14898023791E+03  0.14898023791E+03  0.00000000000E+00 0. -1.
          5    1    1    2  502    0  0.22377701276E+01  0.67250887778E+02 -0.16605464918E+02  0.69465969994E+02  0.47000000000E+01 0. -1.
         -5    1    1    2    0  502  0.68889180278E+00 -0.54843884357E+02  0.11694390150E+02  0.56277659726E+02  0.47000000000E+01 0. -1.
        -11    1    1    2    0    0  0.32454197877E+02  0.18963498070E+02 -0.48388297606E+02  0.61272478031E+02  0.00000000000E+00 0. -1.
         11    1    1    2    0    0 -0.35380859807E+02 -0.31370501491E+02 -0.94286755628E+01  0.48216320135E+02  0.00000000000E+00 0.  1.
<mgrwt>
<rscale>  0 0.11653637E+03</rscale>
<asrwt>0</asrwt>
<pdfrwt beam="2">  1        2 0.22920037E-01 0.12564769E+03</pdfrwt>
<pdfrwt beam="1">  1       -2 0.13269568E-01 0.12564769E+03</pdfrwt>
<totfact> 0.93267921E+03</totfact>
</mgrwt>
</event>
<event>
 6    1  0.7270761E-006  0.1494388E+03  0.7546771E-02  0.1210014E+00
         -1   -1    0    0    0  501 -0.00000000000E+00  0.00000000000E+00  0.50302081091E+03  0.50302081091E+03  0.00000000000E+00 0.  1.
          1   -1    0    0  501    0  0.00000000000E+00 -0.00000000000E+00 -0.38294791156E+02  0.38294791156E+02  0.00000000000E+00 0. -1.
          5    1    1    2  502    0  0.15911932379E+01 -0.88700197939E+02  0.13205174343E+03  0.15915404473E+03  0.47000000000E+01 0.  1.
         -5    1    1    2    0  502  0.46743861021E+02  0.22565168389E+02  0.17056350776E+03  0.17834846663E+03  0.47000000000E+01 0.  1.
        -11    1    1    2    0    0 -0.27753118406E+02  0.68051166865E+02  0.16710088439E+03  0.18254835649E+03  0.00000000000E+00 0.  1.
         11    1    1    2    0    0 -0.20581935853E+02 -0.19161373155E+01 -0.49901158271E+01  0.21264734225E+02  0.00000000000E+00 0. -1.
<mgrwt>
<rscale>  0 0.14249230E+03</rscale>
<asrwt>0</asrwt>
<pdfrwt beam="2">  1        1 0.58915067E-02 0.14943880E+03</pdfrwt>
<pdfrwt beam="1">  1       -1 0.77387813E-01 0.14943880E+03</pdfrwt>
<totfact> 0.22549740E+03</totfact>
</mgrwt>
</event>
<event>
 6    1  0.7270761E-006  0.3016588E+03  0.7546771E-02  0.1084414E+00
          2   -1    0    0  501    0  0.00000000000E+00  0.00000000000E+00  0.25227952623E+03  0.25227952623E+03  0.00000000000E+00 0. -1.
         -2   -1    0    0    0  501 -0.00000000000E+00 -0.00000000000E+00 -0.90175800170E+02  0.90175800170E+02  0.00000000000E+00 0.  1.
          5    1    1    2  502    0 -0.26660514575E+02 -0.68368247474E+01  0.72927665624E+02  0.78090073783E+02  0.47000000000E+01 0. -1.
         -5    1    1    2    0  502  0.53861429126E+02 -0.92247493492E+02  0.20873932274E+02  0.10894248323E+03  0.47000000000E+01 0. -1.
        -11    1    1    2    0    0  0.24772939117E+02  0.40932274193E+02 -0.53577032473E+01  0.48144102102E+02  0.00000000000E+00 0.  1.
         11    1    1    2    0    0 -0.51973853668E+02  0.58152044046E+02  0.73659831413E+02  0.10727866729E+03  0.00000000000E+00 0. -1.
<mgrwt>
<rscale>  0 0.30165880E+03</rscale>
<asrwt>0</asrwt>
<pdfrwt beam="1">  1        2 0.38812235E-01 0.30165880E+03</pdfrwt>
<pdfrwt beam="2">  1       -2 0.13873200E-01 0.30165880E+03</pdfrwt>
<totfact> 0.51337318E+03</totfact>
</mgrwt>
</event>
<event>
 6    1  0.7270761E-006  0.1297581E+03  0.7546771E-02  0.1241816E+00
         -1   -1    0    0    0  501 -0.00000000000E+00  0.00000000000E+00  0.12182912476E+03  0.12182912476E+03  0.00000000000E+00 0.  1.
          1   -1    0    0  501    0  0.00000000000E+00 -0.00000000000E+00 -0.11258783781E+03  0.11258783781E+03  0.00000000000E+00 0. -1.
          5    1    1    2  502    0 -0.46672535798E+02  0.64612083952E+02  0.31246210972E+02  0.85740671157E+02  0.47000000000E+01 0. -1.
         -5    1    1    2    0  502  0.18745539146E+02 -0.44188430850E+02  0.23042316182E+01  0.48284698841E+02  0.47000000000E+01 0. -1.
        -11    1    1    2    0    0  0.57788665954E+02 -0.11741447190E+02 -0.33683090406E+02  0.67911280905E+02  0.00000000000E+00 0. -1.
         11    1    1    2    0    0 -0.29861669302E+02 -0.86822059122E+01  0.93739347600E+01  0.32480311666E+02  0.00000000000E+00 0.  1.
<mgrwt>
<rscale>  0 0.12078001E+03</rscale>
<asrwt>0</asrwt>
<pdfrwt beam="2">  1        1 0.17321206E-01 0.12975811E+03</pdfrwt>
<pdfrwt beam="1">  1       -1 0.18742942E-01 0.12975811E+03</pdfrwt>
<totfact> 0.65368318E+03</totfact>
</mgrwt>
</event>
<event>
 6    1  0.7270761E-006  0.1485084E+03  0.7546771E-02  0.1211929E+00
          1   -1    0    0  501    0  0.00000000000E+00  0.00000000000E+00  0.65908338694E+03  0.65908338694E+03  0.00000000000E+00 0. -1.
         -1   -1    0    0    0  501 -0.00000000000E+00 -0.00000000000E+00 -0.27517311157E+02  0.27517311157E+02  0.00000000000E+00 0.  1.
          5    1    1    2  502    0  0.82475112589E+02  0.68093587268E+02  0.32337299270E+03  0.34063332666E+03  0.47000000000E+01 0. -1.
         -5    1    1    2    0  502 -0.15465551901E+02 -0.24056708303E+02  0.25774496903E+02  0.38785605585E+02  0.47000000000E+01 0. -1.
        -11    1    1    2    0    0  0.18376896835E+02 -0.26042179592E+02  0.10018417077E+03  0.10513217171E+03  0.00000000000E+00 0. -1.
         11    1    1    2    0    0 -0.85386457522E+02 -0.17994699374E+02  0.18223441541E+03  0.20204959414E+03  0.00000000000E+00 0.  1.
<mgrwt>
<rscale>  0 0.14104538E+03</rscale>
<asrwt>0</asrwt>
<pdfrwt beam="1">  1        1 0.10139743E+00 0.14850844E+03</pdfrwt>
<pdfrwt beam="2">  1       -1 0.42334330E-02 0.14850844E+03</pdfrwt>
<totfact> 0.67320857E+03</totfact>
</mgrwt>
</event>
<event>
 6    1  0.7270761E-006  0.2462629E+03  0.7546771E-02  0.1157776E+00
         -2   -1    0    0    0  501 -0.00000000000E+00  0.00000000000E+00  0.44562006479E+03  0.44562006479E+03  0.00000000000E+00 0.  1.
          2   -1    0    0  501    0  0.00000000000E+00 -0.00000000000E+00 -0.63353282113E+02  0.63353282113E+02  0.00000000000E+00 0. -1.
          5    1    1    2  502    0 -0.59527889521E+02 -0.30482713969E+01 -0.22215695328E+02  0.63784705912E+02  0.47000000000E+01 0. -1.
         -5    1    1    2    0  502  0.33724531557E+02 -0.19932292344E+02  0.32096096103E+03  0.32337697632E+03  0.47000000000E+01 0.  1.
        -11    1    1    2    0    0 -0.17346657906E+02 -0.18355317530E+02  0.42136229923E+02  0.49125208338E+02  0.00000000000E+00 0. -1.
         11    1    1    2    0    0  0.43150015870E+02  0.41335881271E+02  0.41385287048E+02  0.72686456332E+02  0.00000000000E+00 0.  1.
<mgrwt>
<rscale>  0 0.19076231E+03</rscale>
<asrwt>0</asrwt>
<pdfrwt beam="2">  1        2 0.97466591E-02 0.24626294E+03</pdfrwt>
<pdfrwt beam="1">  1       -2 0.68556931E-01 0.24626294E+03</pdfrwt>
<totfact> 0.13135796E+03</totfact>
</mgrwt>
</event>
<event>
 6    1  0.7270761E-006  0.1491701E+03  0.7546771E-02  0.1211527E+00
          2   -1    0    0  501    0  0.00000000000E+00  0.00000000000E+00  0.14775521595E+03  0.14775521595E+03  0.00000000000E+00 0. -1.
         -2   -1    0    0    0  501 -0.00000000000E+00 -0.00000000000E+00 -0.14777345960E+03  0.14777345960E+03  0.00000000000E+00 0.  1.
          5    1    1    2  502    0 -0.82417517156E+02  0.75265251695E-01  0.37102598123E+01  0.82634791867E+02  0.47000000000E+01 0.  1.
         -5    1    1    2    0  502  0.13151193642E+02  0.42699426373E+02 -0.64145015949E+02  0.78312629747E+02  0.47000000000E+01 0.  1.
        -11    1    1    2    0    0 -0.20395190124E+02 -0.10999762224E+02  0.22123700341E+02  0.32037738153E+02  0.00000000000E+00 0. -1.
         11    1    1    2    0    0  0.89661513638E+02 -0.31774929401E+02  0.38292812152E+02  0.10254351578E+03  0.00000000000E+00 0.  1.
<mgrwt>
<rscale>  0 0.14134800E+03</rscale>
<asrwt>0</asrwt>
<pdfrwt beam="1">  1        2 0.22731572E-01 0.14917008E+03</pdfrwt>
<pdfrwt beam="2">  1       -2 0.22734378E-01 0.14917008E+03</pdfrwt>
<totfact> 0.38873766E+03</totfact>
</mgrwt>
</event>
<event>
 6    1  0.7270761E-006  0.1823928E+03  0.7546771E-02  0.1170965E+00
          1   -1    0    0  501    0  0.00000000000E+00  0.00000000000E+00  0.90885805599E+02  0.90885805599E+02  0.00000000000E+00 0. -1.
         -1   -1    0    0    0  501 -0.00000000000E+00 -0.00000000000E+00 -0.32607989755E+03  0.32607989755E+03  0.00000000000E+00 0.  1.
          5    1    1    2  502    0 -0.81134767824E+02 -0.29862216534E+02  0.41655904041E+01  0.86683589391E+02  0.47000000000E+01 0.  1.
         -5    1    1    2    0  502 -0.51217844249E+02  0.18862589497E+02 -0.11334400826E+03  0.12588891556E+03  0.47000000000E+01 0.  1.
        -11    1    1    2    0    0  0.11917920456E+03 -0.25346996301E+02 -0.89182023388E+02  0.15099531886E+03  0.00000000000E+00 0.  1.
         11    1    1    2    0    0  0.13173407509E+02  0.36346623338E+02 -0.36833650709E+02  0.53397879341E+02  0.00000000000E+00 0. -1.
<mgrwt>
<rscale>  0 0.17677108E+03</rscale>
<asrwt>0</asrwt>
<pdfrwt beam="1">  1        1 0.13982432E-01 0.18239283E+03</pdfrwt>
<pdfrwt beam="2">  1       -1 0.50166137E-01 0.18239283E+03</pdfrwt>
<totfact> 0.16483485E+03</totfact>
</mgrwt>
</event>
<event>
 6    1  0.7270761E-006  0.1829330E+03  0.7546771E-02  0.1170467E+00
         -2   -1    0    0    0  501 -0.00000000000E+00  0.00000000000E+00  0.16859955934E+02  0.16859955934E+02  0.00000000000E+00 0. -1.
          2   -1    0    0  501    0  0.00000000000E+00 -0.00000000000E+00 -0.18692543913E+04  0.18692543913E+04  0.00000000000E+00 0.  1.
          5    1    1    2  502    0 -0.68735363863E+02 -0.32037057278E+02 -0.10048597573E+04  0.10077282100E+04  0.47000000000E+01 0.  1.
         -5    1    1    2    0  502 -0.64363860443E+02  0.20913959609E+02 -0.20627860719E+03  0.21714753976E+03  0.47000000000E+01 0.  1.
        -11    1    1    2    0    0  0.12036595182E+03  0.21580746135E+02 -0.62880719629E+03  0.64058737192E+03  0.00000000000E+00 0.  1.
         11    1    1    2    0    0  0.12733272488E+02 -0.10457648466E+02 -0.12448874529E+02  0.20651225551E+02  0.00000000000E+00 0. -1.
<mgrwt>
<rscale>  0 0.17727490E+03</rscale>
<asrwt>0</asrwt>
<pdfrwt beam="2">  1        2 0.28757755E+00 0.18293295E+03</pdfrwt>
<pdfrwt beam="1">  1       -2 0.25938398E-02 0.18293295E+03</pdfrwt>
<totfact> 0.45635976E+03</totfact>
</mgrwt>
</event>
<event>
 6    1  0.7270761E-006  0.3383346E+03  0.7546771E-02  0.1068721E+00
         -1   -1    0    0    0  501 -0.00000000000E+00  0.00000000000E+00  0.19667130944E+03  0.19667130944E+03  0.00000000000E+00 0.  1.
          1   -1    0    0  501    0  0.00000000000E+00 -0.00000000000E+00 -0.60061902776E+03  0.60061902776E+03  0.00000000000E+00 0. -1.
          5    1    1    2  502    0  0.20164399835E+03 -0.10815439954E+03 -0.26464246463E+02  0.23039123801E+03  0.47000000000E+01 0.  1.
         -5    1    1    2    0  502  0.95333013967E+02  0.49522179434E+01 -0.78999510840E+02  0.12399968035E+03  0.47000000000E+01 0.  1.
        -11    1    1    2    0    0 -0.17903861607E+02 -0.15743148211E+02 -0.22454842062E+02  0.32750800113E+02  0.00000000000E+00 0.  1.
         11    1    1    2    0    0 -0.27907315071E+03  0.11894532981E+03 -0.27602911895E+03  0.41014861872E+03  0.00000000000E+00 0. -1.
<mgrwt>
<rscale>  0 0.33551883E+03</rscale>
<asrwt>0</asrwt>
<pdfrwt beam="2">  1        1 0.92402924E-01 0.33833463E+03</pdfrwt>
<pdfrwt beam="1">  1       -1 0.30257126E-01 0.33833463E+03</pdfrwt>
<totfact> 0.35434670E+02</totfact>
</mgrwt>
</event>
<event>
 6    1  0.7270761E-006  0.1258028E+03  0.7546771E-02  0.1249484E+00
          1   -1    0    0  501    0  0.00000000000E+00  0.00000000000E+00  0.11203227338E+03  0.11203227338E+03  0.00000000000E+00 0. -1.
         -1   -1    0    0    0  501 -0.00000000000E+00 -0.00000000000E+00 -0.12950819683E+03  0.12950819683E+03  0.00000000000E+00 0.  1.
          5    1    1    2  502    0  0.39971349057E+02  0.36772836441E+01 -0.74015747861E+02  0.84330611831E+02  0.47000000000E+01 0.  1.
         -5    1    1    2    0  502 -0.53317704595E+02 -0.84102792362E+01  0.12654326225E+02  0.55639306181E+02  0.47000000000E+01 0.  1.
        -11    1    1    2    0    0  0.45661323791E+02  0.20281610296E+01  0.50882151204E+02  0.68396368607E+02  0.00000000000E+00 0. -1.
         11    1    1    2    0    0 -0.32314968252E+02  0.27048345625E+01 -0.69966530246E+01  0.33174183588E+02  0.00000000000E+00 0.  1.
<mgrwt>
<rscale>  0 0.11620966E+03</rscale>
<asrwt>0</asrwt>
<pdfrwt beam="1">  1        1 0.17235734E-01 0.12580284E+03</pdfrwt>
<pdfrwt beam="2">  1       -1 0.19924338E-01 0.12580284E+03</pdfrwt>
<totfact> 0.59529491E+03</totfact>
</mgrwt>
</event>
<event>
 6    1  0.7270761E-006  0.4313243E+03  0.7546771E-02  0.1033442E+00
         -1   -1    0    0    0  501 -0.00000000000E+00  0.00000000000E+00  0.42401962109E+03  0.42401962109E+03  0.00000000000E+00 0.  1.
          1   -1    0    0  501    0  0.00000000000E+00 -0.00000000000E+00 -0.10968872672E+03  0.10968872672E+03  0.00000000000E+00 0. -1.
          5    1    1    2  502    0  0.11191467088E+02 -0.20070969557E+02  0.55767670922E+02  0.60499717971E+02  0.47000000000E+01 0.  1.
         -5    1    1    2    0  502 -0.15619222247E+03  0.73889874263E+02  0.23277589944E+03  0.28993522249E+03  0.47000000000E+01 0.  1.
        -11    1    1    2    0    0  0.47261179336E+02 -0.57625799306E-01  0.50345217356E+02  0.69052612576E+02  0.00000000000E+00 0.  1.
         11    1    1    2    0    0  0.97739576044E+02 -0.53761278907E+02 -0.24557893347E+02  0.11422079478E+03  0.00000000000E+00 0. -1.
<mgrwt>
<rscale>  0 0.43132434E+03</rscale>
<asrwt>0</asrwt>
<pdfrwt beam="2">  1        1 0.16875189E-01 0.43132434E+03</pdfrwt>
<pdfrwt beam="1">  1       -1 0.65233787E-01 0.43132434E+03</pdfrwt>
<totfact> 0.78933112E+02</totfact>
</mgrwt>
</event>
<event>
 6    1  0.7270761E-006  0.1256705E+03  0.7546771E-02  0.1249961E+00
         -1   -1    0    0    0  501 -0.00000000000E+00  0.00000000000E+00  0.93799839930E+02  0.93799839930E+02  0.00000000000E+00 0.  1.
          1   -1    0    0  501    0  0.00000000000E+00 -0.00000000000E+00 -0.16854333029E+03  0.16854333029E+03  0.00000000000E+00 0. -1.
          5    1    1    2  502    0  0.91444589347E+01 -0.62430516491E+02 -0.71536570338E+01  0.63674605044E+02  0.47000000000E+01 0.  1.
         -5    1    1    2    0  502 -0.18162960669E+02  0.52945728877E+02  0.31270616840E+02  0.64289072354E+02  0.47000000000E+01 0.  1.
        -11    1    1    2    0    0  0.43122147724E+02  0.17597253114E+02 -0.84523068490E+02  0.96505606306E+02  0.00000000000E+00 0. -1.
         11    1    1    2    0    0 -0.34103645990E+02 -0.81124655006E+01 -0.14337381672E+02  0.37873886512E+02  0.00000000000E+00 0.  1.
<mgrwt>
<rscale>  0 0.11593326E+03</rscale>
<asrwt>0</asrwt>
<pdfrwt beam="2">  1        1 0.25929743E-01 0.12567050E+03</pdfrwt>
<pdfrwt beam="1">  1       -1 0.14430745E-01 0.12567050E+03</pdfrwt>
<totfact> 0.59119965E+03</totfact>
</mgrwt>
</event>
<event>
 6    1  0.7270761E-006  0.1273220E+03  0.7546771E-02  0.1249643E+00
         -1   -1    0    0    0  501 -0.00000000000E+00  0.00000000000E+00  0.11397236373E+03  0.11397236373E+03  0.00000000000E+00 0.  1.
          1   -1    0    0  501    0  0.00000000000E+00 -0.00000000000E+00 -0.10515169500E+03  0.10515169500E+03  0.00000000000E+00 0. -1.
          5    1    1    2  502    0  0.44727064736E+02 -0.38148517380E+02 -0.67346410645E+01  0.59357098046E+02  0.47000000000E+01 0. -1.
         -5    1    1    2    0  502 -0.28399493068E+02  0.56016406500E+02  0.31238114856E+02  0.70301342971E+02  0.47000000000E+01 0. -1.
        -11    1    1    2    0    0  0.23673903518E+01 -0.21471855031E+02  0.31722891254E+02  0.38379511788E+02  0.00000000000E+00 0.  1.
         11    1    1    2    0    0 -0.18694962020E+02  0.36039659111E+01 -0.47405696313E+02  0.51086105920E+02  0.00000000000E+00 0. -1.
<mgrwt>
<rscale>  0 0.11611741E+03</rscale>
<asrwt>0</asrwt>
<pdfrwt beam="2">  1        1 0.16177184E-01 0.12732200E+03</pdfrwt>
<pdfrwt beam="1">  1       -1 0.17534210E-01 0.12732200E+03</pdfrwt>
<totfact> 0.79219844E+03</totfact>
</mgrwt>
</event>
<event>
 6    1  0.7270761E-006  0.1282807E+03  0.7546771E-02  0.1243355E+00
          2   -1    0    0  501    0  0.00000000000E+00  0.00000000000E+00  0.57548237470E+03  0.57548237470E+03  0.00000000000E+00 0. -1.
         -2   -1    0    0    0  501 -0.00000000000E+00 -0.00000000000E+00 -0.22188472390E+02  0.22188472390E+02  0.00000000000E+00 0.  1.
          5    1    1    2  502    0 -0.41530593264E+02 -0.47967893451E+02  0.83661339765E+02  0.10510479889E+03  0.47000000000E+01 0. -1.
         -5    1    1    2    0  502  0.14063484307E+02  0.39168768166E+02  0.22987448895E+03  0.23365860708E+03  0.47000000000E+01 0. -1.
        -11    1    1    2    0    0  0.43238342415E+02 -0.26087562694E+02  0.18714588497E+03  0.19383935989E+03  0.00000000000E+00 0. -1.
         11    1    1    2    0    0 -0.15771233458E+02  0.34886687979E+02  0.52612188622E+02  0.65068081227E+02  0.00000000000E+00 0.  1.
<mgrwt>
<rscale>  0 0.11984402E+03</rscale>
<asrwt>0</asrwt>
<pdfrwt beam="1">  1        2 0.88535739E-01 0.12828067E+03</pdfrwt>
<pdfrwt beam="2">  1       -2 0.34136116E-02 0.12828067E+03</pdfrwt>
<totfact> 0.17395097E+04</totfact>
</mgrwt>
</event>
<event>
 6    1  0.7270761E-006  0.2593073E+03  0.7546771E-02  0.1108988E+00
         -2   -1    0    0    0  501 -0.00000000000E+00  0.00000000000E+00  0.99706609589E+02  0.99706609589E+02  0.00000000000E+00 0.  1.
          2   -1    0    0  501    0  0.00000000000E+00 -0.00000000000E+00 -0.65461272633E+03  0.65461272633E+03  0.00000000000E+00 0. -1.
          5    1    1    2  502    0  0.17041920001E+03  0.16087083076E+01 -0.13785894369E+03  0.21925435008E+03  0.47000000000E+01 0.  1.
         -5    1    1    2    0  502  0.44422864354E+02  0.72275071497E+02 -0.11450367018E+03  0.14258421134E+03  0.47000000000E+01 0.  1.
        -11    1    1    2    0    0 -0.21470900677E+03 -0.53506109501E+02 -0.29871866934E+03  0.37174682884E+03  0.00000000000E+00 0. -1.
         11    1    1    2    0    0 -0.13305758937E+00 -0.20377670303E+02 -0.38248335343E+01  0.20733945666E+02  0.00000000000E+00 0.  1.
<mgrwt>
<rscale>  0 0.25695287E+03</rscale>
<asrwt>0</asrwt>
<pdfrwt beam="2">  1        2 0.10070965E+00 0.25930726E+03</pdfrwt>
<pdfrwt beam="1">  1       -2 0.15339478E-01 0.25930726E+03</pdfrwt>
<totfact> 0.14997189E+03</totfact>
</mgrwt>
</event>
<event>
 6    1  0.7270761E-006  0.1377130E+03  0.7546771E-02  0.1248111E+00
         -2   -1    0    0    0  501 -0.00000000000E+00  0.00000000000E+00  0.62070200373E+02  0.62070200373E+02  0.00000000000E+00 0.  1.
          2   -1    0    0  501    0  0.00000000000E+00 -0.00000000000E+00 -0.18004384601E+03  0.18004384601E+03  0.00000000000E+00 0. -1.
          5    1    1    2  502    0 -0.33909705186E+02 -0.11648639917E+00 -0.96406393960E+02  0.10230427396E+03  0.47000000000E+01 0. -1.
         -5    1    1    2    0  502 -0.15490217944E+02 -0.29880787431E+02  0.34728544264E+02  0.48589814736E+02  0.47000000000E+01 0. -1.
        -11    1    1    2    0    0  0.25578220314E+02  0.18616379136E+02 -0.30424633117E+01  0.31781622199E+02  0.00000000000E+00 0.  1.
         11    1    1    2    0    0  0.23821702816E+02  0.11380894694E+02 -0.53253332624E+02  0.59438335480E+02  0.00000000000E+00 0. -1.
<mgrwt>
<rscale>  0 0.11701101E+03</rscale>
<asrwt>0</asrwt>
<pdfrwt beam="2">  1        2 0.27699054E-01 0.13771299E+03</pdfrwt>
<pdfrwt beam="1">  1       -2 0.95492615E-02 0.13771299E+03</pdfrwt>
<totfact> 0.12857199E+04</totfact>
</mgrwt>
</event>
<event>
 6    1  0.7270761E-006  0.1257721E+03  0.7546771E-02  0.1250539E+00
         -1   -1    0    0    0  501 -0.00000000000E+00  0.00000000000E+00  0.98541421399E+02  0.98541421399E+02  0.00000000000E+00 0.  1.
          1   -1    0    0  501    0  0.00000000000E+00 -0.00000000000E+00 -0.12506235713E+03  0.12506235713E+03  0.00000000000E+00 0. -1.
          5    1    1    2  502    0 -0.77599902789E+01  0.56439435702E+02  0.29270494490E+02  0.64222108337E+02  0.47000000000E+01 0. -1.
         -5    1    1    2    0  502  0.21300029920E+02 -0.55181619824E+02 -0.18125058888E+02  0.62042809420E+02  0.47000000000E+01 0. -1.
        -11    1    1    2    0    0 -0.46389531465E+02  0.15747623500E+02 -0.74022140555E+01  0.49545625925E+02  0.00000000000E+00 0.  1.
         11    1    1    2    0    0  0.32849491823E+02 -0.17005439378E+02 -0.30264157281E+02  0.47793234850E+02  0.00000000000E+00 0. -1.
<mgrwt>
<rscale>  0 0.11559890E+03</rscale>
<asrwt>0</asrwt>
<pdfrwt beam="2">  1        1 0.19240363E-01 0.12577205E+03</pdfrwt>
<pdfrwt beam="1">  1       -1 0.15160219E-01 0.12577205E+03</pdfrwt>
<totfact> 0.79724798E+03</totfact>
</mgrwt>
</event>
<event>
 6    1  0.7270761E-006  0.1664052E+03  0.7546771E-02  0.1188817E+00
         -2   -1    0    0    0  501 -0.00000000000E+00  0.00000000000E+00  0.12392236005E+03  0.12392236005E+03  0.00000000000E+00 0.  1.
          2   -1    0    0  501    0  0.00000000000E+00 -0.00000000000E+00 -0.35519991912E+03  0.35519991912E+03  0.00000000000E+00 0. -1.
          5    1    1    2  502    0 -0.42680326373E+02  0.50416311707E+01 -0.19522780242E+01  0.43277357748E+02  0.47000000000E+01 0. -1.
         -5    1    1    2    0  502  0.36952790258E+02 -0.11472664659E+03  0.43599331064E+02  0.12826029711E+03  0.47000000000E+01 0. -1.
        -11    1    1    2    0    0  0.41753435671E+02  0.36369730823E+02 -0.73075630459E+02  0.91685083179E+02  0.00000000000E+00 0.  1.
         11    1    1    2    0    0 -0.36025899557E+02  0.73315284595E+02 -0.19984898166E+03  0.21589954114E+03  0.00000000000E+00 0. -1.
<mgrwt>
<rscale>  0 0.15989316E+03</rscale>
<asrwt>0</asrwt>
<pdfrwt beam="2">  1        2 0.54646141E-01 0.16640520E+03</pdfrwt>
<pdfrwt beam="1">  1       -2 0.19064979E-01 0.16640520E+03</pdfrwt>
<totfact> 0.20433428E+03</totfact>
</mgrwt>
</event>
<event>
 6    1  0.7270761E-006  0.2116387E+03  0.7546771E-02  0.1143630E+00
         -2   -1    0    0    0  501 -0.00000000000E+00  0.00000000000E+00  0.33162024715E+02  0.33162024715E+02  0.00000000000E+00 0.  1.
          2   -1    0    0  501    0  0.00000000000E+00 -0.00000000000E+00 -0.12569499636E+04  0.12569499636E+04  0.00000000000E+00 0. -1.
          5    1    1    2  502    0  0.24383328437E+02  0.93296262351E+02 -0.49423179451E+03  0.50357312873E+03  0.47000000000E+01 0.  1.
         -5    1    1    2    0  502  0.33954977136E+02  0.67211184719E+02 -0.87916038590E+02  0.11585164507E+03  0.47000000000E+01 0.  1.
        -11    1    1    2    0    0 -0.22106655837E+02 -0.75037624158E+02 -0.13858901483E+03  0.15914227692E+03  0.00000000000E+00 0.  1.
         11    1    1    2    0    0 -0.36231649737E+02 -0.85469822911E+02 -0.50305109098E+03  0.51154493762E+03  0.00000000000E+00 0. -1.
<mgrwt>
<rscale>  0 0.20741468E+03</rscale>
<asrwt>0</asrwt>
<pdfrwt beam="2">  1        2 0.19337694E+00 0.21163873E+03</pdfrwt>
<pdfrwt beam="1">  1       -2 0.51018494E-02 0.21163873E+03</pdfrwt>
<totfact> 0.35071274E+03</totfact>
</mgrwt>
</event>
<event>
 6    1  0.7270761E-006  0.1722649E+03  0.7546771E-02  0.1181848E+00
         -2   -1    0    0    0  501 -0.00000000000E+00  0.00000000000E+00  0.20115434993E+02  0.20115434993E+02  0.00000000000E+00 0.  1.
          2   -1    0    0  501    0  0.00000000000E+00 -0.00000000000E+00 -0.12914767375E+04  0.12914767375E+04  0.00000000000E+00 0. -1.
          5    1    1    2  502    0 -0.46231813536E+02  0.93145884862E+02 -0.54429873339E+03  0.55416309659E+03  0.47000000000E+01 0.  1.
         -5    1    1    2    0  502 -0.54072325873E+02 -0.29983999643E+02 -0.18154487374E+03  0.19184235153E+03  0.47000000000E+01 0.  1.
        -11    1    1    2    0    0  0.89296873233E+02 -0.63630397112E+02 -0.54341974952E+03  0.55437152089E+03  0.00000000000E+00 0. -1.
         11    1    1    2    0    0  0.11007266177E+02  0.46851189264E+00 -0.20979458413E+01  0.11215203469E+02  0.00000000000E+00 0.  1.
<mgrwt>
<rscale>  0 0.16621978E+03</rscale>
<asrwt>0</asrwt>
<pdfrwt beam="2">  1        2 0.19868880E+00 0.17226487E+03</pdfrwt>
<pdfrwt beam="1">  1       -2 0.30946812E-02 0.17226487E+03</pdfrwt>
<totfact> 0.70655472E+03</totfact>
</mgrwt>
</event>
<event>
 6    1  0.7270761E-006  0.1536828E+03  0.7546771E-02  0.1204797E+00
          2   -1    0    0  501    0  0.00000000000E+00  0.00000000000E+00  0.12089128771E+03  0.12089128771E+03  0.00000000000E+00 0. -1.
         -2   -1    0    0    0  501 -0.00000000000E+00 -0.00000000000E+00 -0.17031199144E+03  0.17031199144E+03  0.00000000000E+00 0.  1.
          5    1    1    2  502    0  0.24825815372E+02  0.42383480740E+02 -0.72783652581E+02  0.87933103161E+02  0.47000000000E+01 0.  1.
         -5    1    1    2    0  502  0.64413310293E+02 -0.36895147689E+02  0.15681312084E+02  0.76015261722E+02  0.47000000000E+01 0.  1.
        -11    1    1    2    0    0 -0.32606933975E+02 -0.43816946297E+02  0.19227528524E+02  0.57903668098E+02  0.00000000000E+00 0. -1.
         11    1    1    2    0    0 -0.56632191690E+02  0.38328613246E+02 -0.11545891756E+02  0.69351246171E+02  0.00000000000E+00 0.  1.
<mgrwt>
<rscale>  0 0.14653431E+03</rscale>
<asrwt>0</asrwt>
<pdfrwt beam="1">  1        2 0.18598660E-01 0.15368275E+03</pdfrwt>
<pdfrwt beam="2">  1       -2 0.26201845E-01 0.15368275E+03</pdfrwt>
<totfact> 0.38140488E+03</totfact>
</mgrwt>
</event>
<event>
 6    1  0.7270761E-006  0.3080687E+03  0.7546771E-02  0.1099885E+00
         -1   -1    0    0    0  501 -0.00000000000E+00  0.00000000000E+00  0.58084338247E+03  0.58084338247E+03  0.00000000000E+00 0.  1.
          1   -1    0    0  501    0  0.00000000000E+00 -0.00000000000E+00 -0.10694775413E+03  0.10694775413E+03  0.00000000000E+00 0. -1.
          5    1    1    2  502    0  0.75822450637E+02  0.17992964634E+02  0.65014289768E+02  0.10159595795E+03  0.47000000000E+01 0. -1.
         -5    1    1    2    0  502 -0.17660314426E+03 -0.14724275275E+03  0.19904962439E+03  0.30415775803E+03  0.47000000000E+01 0.  1.
        -11    1    1    2    0    0  0.32145924717E+02  0.95106510740E+02  0.16525865952E+03  0.19336244053E+03  0.00000000000E+00 0. -1.
         11    1    1    2    0    0  0.68634768904E+02  0.34143277373E+02  0.44573054658E+02  0.88674980089E+02  0.00000000000E+00 0.  1.
<mgrwt>
<rscale>  0 0.27245095E+03</rscale>
<asrwt>0</asrwt>
<pdfrwt beam="2">  1        1 0.16453501E-01 0.30806871E+03</pdfrwt>
<pdfrwt beam="1">  1       -1 0.89360519E-01 0.30806871E+03</pdfrwt>
<totfact> 0.42612476E+02</totfact>
</mgrwt>
</event>
<event>
 6    1  0.7270761E-006  0.1255613E+03  0.7546771E-02  0.1249242E+00
         -2   -1    0    0    0  501 -0.00000000000E+00  0.00000000000E+00  0.61294258917E+02  0.61294258917E+02  0.00000000000E+00 0.  1.
          2   -1    0    0  501    0  0.00000000000E+00 -0.00000000000E+00 -0.19759718571E+03  0.19759718571E+03  0.00000000000E+00 0. -1.
          5    1    1    2  502    0 -0.68617351222E+01  0.67352306494E+02 -0.22441226894E+02  0.71478075404E+02  0.47000000000E+01 0. -1.
         -5    1    1    2    0  502  0.59743464110E+01 -0.55602891904E+02 -0.38763018640E+02  0.68205835654E+02  0.47000000000E+01 0. -1.
        -11    1    1    2    0    0  0.12215103125E+02 -0.34177325230E+02 -0.84825636750E+02  0.92264223588E+02  0.00000000000E+00 0. -1.
         11    1    1    2    0    0 -0.11327714414E+02  0.22427910640E+02  0.97269554928E+01  0.26943309980E+02  0.00000000000E+00 0.  1.
<mgrwt>
<rscale>  0 0.11635053E+03</rscale>
<asrwt>0</asrwt>
<pdfrwt beam="2">  1        2 0.30399567E-01 0.12556128E+03</pdfrwt>
<pdfrwt beam="1">  1       -2 0.94298860E-02 0.12556128E+03</pdfrwt>
<totfact> 0.11761613E+04</totfact>
</mgrwt>
</event>
<event>
 6    1  0.7270761E-006  0.1528953E+03  0.7546771E-02  0.1202902E+00
          2   -1    0    0  501    0  0.00000000000E+00  0.00000000000E+00  0.33109638352E+03  0.33109638352E+03  0.00000000000E+00 0. -1.
         -2   -1    0    0    0  501 -0.00000000000E+00 -0.00000000000E+00 -0.72991284332E+02  0.72991284332E+02  0.00000000000E+00 0.  1.
          5    1    1    2  502    0  0.65612978236E+02  0.20223213634E+02  0.86375685706E+02  0.11043953261E+03  0.47000000000E+01 0. -1.
         -5    1    1    2    0  502  0.19912314537E+02 -0.41104877438E+02 -0.27361576766E+02  0.53449575326E+02  0.47000000000E+01 0. -1.
        -11    1    1    2    0    0 -0.19444195676E+02  0.53690246463E+02  0.11453761525E+03  0.12798275125E+03  0.00000000000E+00 0.  1.
         11    1    1    2    0    0 -0.66081097097E+02 -0.32808582659E+02  0.84553374999E+02  0.11221580866E+03  0.00000000000E+00 0. -1.
<mgrwt>
<rscale>  0 0.14804021E+03</rscale>
<asrwt>0</asrwt>
<pdfrwt beam="1">  1        2 0.50937904E-01 0.15289531E+03</pdfrwt>
<pdfrwt beam="2">  1       -2 0.11229429E-01 0.15289531E+03</pdfrwt>
<totfact> 0.52199496E+03</totfact>
</mgrwt>
</event>
<event>
 6    1  0.7270761E-006  0.1272136E+03  0.7546771E-02  0.1246293E+00
          2   -1    0    0  501    0  0.00000000000E+00  0.00000000000E+00  0.16414703990E+03  0.16414703990E+03  0.00000000000E+00 0. -1.
         -2   -1    0    0    0  501 -0.00000000000E+00 -0.00000000000E+00 -0.74876482351E+02  0.74876482351E+02  0.00000000000E+00 0.  1.
          5    1    1    2  502    0 -0.23263660639E+01 -0.34659845099E+02 -0.25482004616E+02  0.43337505704E+02  0.47000000000E+01 0.  1.
         -5    1    1    2    0  502 -0.92192030831E+01  0.55303250120E+02  0.73669041098E+02  0.92696606171E+02  0.47000000000E+01 0.  1.
        -11    1    1    2    0    0 -0.20725732967E+02 -0.46261684385E+02  0.34362808452E+02  0.61241342685E+02  0.00000000000E+00 0. -1.
         11    1    1    2    0    0  0.32271302114E+02  0.25618279364E+02  0.67207126132E+01  0.41748067689E+02  0.00000000000E+00 0.  1.
<mgrwt>
<rscale>  0 0.11808353E+03</rscale>
<asrwt>0</asrwt>
<pdfrwt beam="1">  1        2 0.25253391E-01 0.12721356E+03</pdfrwt>
<pdfrwt beam="2">  1       -2 0.11519459E-01 0.12721356E+03</pdfrwt>
<totfact> 0.10515585E+04</totfact>
</mgrwt>
</event>
<event>
 6    1  0.7270761E-006  0.2036644E+03  0.7546771E-02  0.1150495E+00
         -1   -1    0    0    0  501 -0.00000000000E+00  0.00000000000E+00  0.54827160831E+03  0.54827160831E+03  0.00000000000E+00 0.  1.
          1   -1    0    0  501    0  0.00000000000E+00 -0.00000000000E+00 -0.69248623635E+02  0.69248623635E+02  0.00000000000E+00 0. -1.
          5    1    1    2  502    0 -0.16641529608E+03 -0.55465262125E+02  0.22567796129E+03  0.28587248605E+03  0.47000000000E+01 0. -1.
         -5    1    1    2    0  502  0.83717728242E+01  0.25791579264E+02  0.25695977104E+02  0.37651897435E+02  0.47000000000E+01 0. -1.
        -11    1    1    2    0    0  0.25927974003E+02 -0.24199667745E+02  0.16391846149E+02  0.39071426581E+02  0.00000000000E+00 0. -1.
         11    1    1    2    0    0  0.13211554925E+03  0.53873350606E+02  0.21125720013E+03  0.25492442187E+03  0.00000000000E+00 0.  1.
<mgrwt>
<rscale>  0 0.19910659E+03</rscale>
<asrwt>0</asrwt>
<pdfrwt beam="2">  1        1 0.10653635E-01 0.20366436E+03</pdfrwt>
<pdfrwt beam="1">  1       -1 0.84349475E-01 0.20366436E+03</pdfrwt>
<totfact> 0.85613636E+02</totfact>
</mgrwt>
</event>
<event>
 6    1  0.7270761E-006  0.1315037E+03  0.7546771E-02  0.1237242E+00
         -2   -1    0    0    0  501 -0.00000000000E+00  0.00000000000E+00  0.19080280331E+03  0.19080280331E+03  0.00000000000E+00 0.  1.
          2   -1    0    0  501    0  0.00000000000E+00 -0.00000000000E+00 -0.81524815504E+02  0.81524815504E+02  0.00000000000E+00 0. -1.
          5    1    1    2  502    0  0.84927481143E+01 -0.55430217004E+02  0.95000545830E+01  0.57069928725E+02  0.47000000000E+01 0. -1.
         -5    1    1    2    0  502  0.31246918174E+02  0.46230991980E+02  0.97621796016E+02  0.11254234568E+03  0.47000000000E+01 0. -1.
        -11    1    1    2    0    0  0.13718743942E+02  0.39024112505E+02 -0.14832650658E+01  0.41391851461E+02  0.00000000000E+00 0. -1.
         11    1    1    2    0    0 -0.53458410230E+02 -0.29824887480E+02  0.36394022692E+01  0.61323492940E+02  0.00000000000E+00 0.  1.
<mgrwt>
<rscale>  0 0.12361992E+03</rscale>
<asrwt>0</asrwt>
<pdfrwt beam="2">  1        2 0.12542279E-01 0.13150374E+03</pdfrwt>
<pdfrwt beam="1">  1       -2 0.29354277E-01 0.13150374E+03</pdfrwt>
<totfact> 0.48941811E+03</totfact>
</mgrwt>
</event>
<event>
 6    1  0.7270761E-006  0.1445477E+03  0.7546771E-02  0.1217038E+00
          1   -1    0    0  501    0  0.00000000000E+00  0.00000000000E+00  0.54297609904E+03  0.54297609904E+03  0.00000000000E+00 0. -1.
         -1   -1    0    0    0  501 -0.00000000000E+00 -0.00000000000E+00 -0.34854761771E+02  0.34854761771E+02  0.00000000000E+00 0.  1.
          5    1    1    2  502    0  0.47143144307E+02 -0.52705653116E+02  0.10700763545E+03  0.12834752031E+03  0.47000000000E+01 0. -1.
         -5    1    1    2    0  502  0.23657240172E+02  0.68702584868E+02  0.83438631365E+02  0.11074206691E+03  0.47000000000E+01 0. -1.
        -11    1    1    2    0    0 -0.48388923820E+02 -0.31231255951E+02  0.30198501474E+03  0.30742776131E+03  0.00000000000E+00 0. -1.
         11    1    1    2    0    0 -0.22411460658E+02  0.15234324199E+02  0.15690055709E+02  0.31313512271E+02  0.00000000000E+00 0.  1.
<mgrwt>
<rscale>  0 0.13727903E+03</rscale>
<asrwt>0</asrwt>
<pdfrwt beam="1">  1        1 0.83534778E-01 0.14454774E+03</pdfrwt>
<pdfrwt beam="2">  1       -1 0.53622715E-02 0.14454774E+03</pdfrwt>
<totfact> 0.61729606E+03</totfact>
</mgrwt>
</event>
<event>
 6    1  0.7270761E-006  0.2092771E+03  0.7546771E-02  0.1151766E+00
          1   -1    0    0  501    0  0.00000000000E+00  0.00000000000E+00  0.20917121962E+03  0.20917121962E+03  0.00000000000E+00 0. -1.
         -1   -1    0    0    0  501 -0.00000000000E+00 -0.00000000000E+00 -0.24921656669E+03  0.24921656669E+03  0.00000000000E+00 0.  1.
          5    1    1    2  502    0 -0.59575868973E+02  0.51231819950E+02 -0.17148700724E+02  0.80561476375E+02  0.47000000000E+01 0. -1.
         -5    1    1    2    0  502 -0.70132746744E+02 -0.92916684055E+02 -0.13414056323E+03  0.17767355753E+03  0.47000000000E+01 0.  1.
        -11    1    1    2    0    0  0.42355885364E+02 -0.13005602580E+02 -0.52455774985E+01  0.44617068558E+02  0.00000000000E+00 0.  1.
         11    1    1    2    0    0  0.87352730352E+02  0.54690466685E+02  0.11648949439E+03  0.15553568384E+03  0.00000000000E+00 0. -1.
<mgrwt>
<rscale>  0 0.19761668E+03</rscale>
<asrwt>0</asrwt>
<pdfrwt beam="1">  1        1 0.32180188E-01 0.20927707E+03</pdfrwt>
<pdfrwt beam="2">  1       -1 0.38341010E-01 0.20927707E+03</pdfrwt>
<totfact> 0.92130192E+02</totfact>
</mgrwt>
</event>
<event>
 6    1  0.7270761E-006  0.1394160E+03  0.7546771E-02  0.1224952E+00
         -2   -1    0    0    0  501 -0.00000000000E+00  0.00000000000E+00  0.48070240558E+03  0.48070240558E+03  0.00000000000E+00 0.  1.
          2   -1    0    0  501    0  0.00000000000E+00 -0.00000000000E+00 -0.33034566653E+02  0.33034566653E+02  0.00000000000E+00 0. -1.
          5    1    1    2  502    0  0.43125291180E+01  0.92075502100E+02  0.15606367312E+03  0.18131314365E+03  0.47000000000E+01 0.  1.
         -5    1    1    2    0  502  0.23695172990E+02 -0.37050131987E+02  0.12142383816E+03  0.12922852617E+03  0.47000000000E+01 0.  1.
        -11    1    1    2    0    0  0.10997187289E+02 -0.21489948207E+02 -0.12907386059E+01  0.24174821785E+02  0.00000000000E+00 0. -1.
         11    1    1    2    0    0 -0.39004889397E+02 -0.33535421907E+02  0.17147106626E+03  0.17902048063E+03  0.00000000000E+00 0.  1.
<mgrwt>
<rscale>  0 0.13170173E+03</rscale>
<asrwt>0</asrwt>
<pdfrwt beam="2">  1        2 0.50822414E-02 0.13941596E+03</pdfrwt>
<pdfrwt beam="1">  1       -2 0.73954211E-01 0.13941596E+03</pdfrwt>
<totfact> 0.25004449E+03</totfact>
</mgrwt>
</event>
<event>
 6    1  0.7270761E-006  0.1267931E+03  0.7546771E-02  0.1242889E+00
         -3   -1    0    0    0  501 -0.00000000000E+00  0.00000000000E+00  0.29988294889E+02  0.29988294889E+02  0.00000000000E+00 0.  1.
          3   -1    0    0  501    0  0.00000000000E+00 -0.00000000000E+00 -0.44606064465E+03  0.44606064465E+03  0.00000000000E+00 0. -1.
          5    1    1    2  502    0 -0.33849477338E+02  0.49133546940E+02 -0.82543893934E+02  0.10195821191E+03  0.47000000000E+01 0. -1.
         -5    1    1    2    0  502  0.58621308610E+02 -0.82113423440E+01 -0.18117814284E+03  0.19066067609E+03  0.47000000000E+01 0.  1.
        -11    1    1    2    0    0 -0.21099303793E+02 -0.13189625928E+02  0.34655723674E+01  0.25122839101E+02  0.00000000000E+00 0.  1.
         11    1    1    2    0    0 -0.36725274782E+01 -0.27732578667E+02 -0.15581588536E+03  0.15830721243E+03  0.00000000000E+00 0. -1.
<mgrwt>
<rscale>  0 0.12012638E+03</rscale>
<asrwt>0</asrwt>
<pdfrwt beam="2">  1        3 0.68624709E-01 0.12679314E+03</pdfrwt>
<pdfrwt beam="1">  1       -3 0.46135842E-02 0.12679314E+03</pdfrwt>
<totfact> 0.12259083E+03</totfact>
</mgrwt>
</event>
<event>
 6    1  0.7270761E-006  0.1455033E+03  0.7546771E-02  0.1216469E+00
          1   -1    0    0  501    0  0.00000000000E+00  0.00000000000E+00  0.20042547013E+03  0.20042547013E+03  0.00000000000E+00 0. -1.
         -1   -1    0    0    0  501 -0.00000000000E+00 -0.00000000000E+00 -0.89590030572E+02  0.89590030572E+02  0.00000000000E+00 0.  1.
          5    1    1    2  502    0 -0.49614493919E+02  0.71742614121E+02 -0.91506362966E+01  0.87831798526E+02  0.47000000000E+01 0. -1.
         -5    1    1    2    0  502 -0.18426335271E+02 -0.41452894010E+02  0.40537156490E+02  0.61018221128E+02  0.47000000000E+01 0. -1.
        -11    1    1    2    0    0  0.52086439319E+02 -0.57675333870E+02  0.31865928988E+02  0.83993325498E+02  0.00000000000E+00 0.  1.
         11    1    1    2    0    0  0.15954389871E+02  0.27385613759E+02  0.47582990382E+02  0.57172155555E+02  0.00000000000E+00 0. -1.
<mgrwt>
<rscale>  0 0.13769213E+03</rscale>
<asrwt>0</asrwt>
<pdfrwt beam="1">  1        1 0.30834688E-01 0.14550332E+03</pdfrwt>
<pdfrwt beam="2">  1       -1 0.13783082E-01 0.14550332E+03</pdfrwt>
<totfact> 0.51646546E+03</totfact>
</mgrwt>
</event>
<event>
 6    1  0.7270761E-006  0.1312348E+03  0.7546771E-02  0.1239009E+00
         -1   -1    0    0    0  501 -0.00000000000E+00  0.00000000000E+00  0.35403767389E+02  0.35403767389E+02  0.00000000000E+00 0.  1.
          1   -1    0    0  501    0  0.00000000000E+00 -0.00000000000E+00 -0.37780459539E+03  0.37780459539E+03  0.00000000000E+00 0. -1.
          5    1    1    2  502    0 -0.45180947568E+02 -0.55009958726E+02 -0.76849802039E+02  0.10485893217E+03  0.47000000000E+01 0.  1.
         -5    1    1    2    0  502  0.54184372715E+02  0.16202111090E+02 -0.10565220289E+03  0.11992886486E+03  0.47000000000E+01 0.  1.
        -11    1    1    2    0    0 -0.24830074571E+02  0.73107365227E+01 -0.12621288043E+01  0.25914714755E+02  0.00000000000E+00 0.  1.
         11    1    1    2    0    0  0.15826649424E+02  0.31497111113E+02 -0.15863669426E+03  0.16250585099E+03  0.00000000000E+00 0. -1.
<mgrwt>
<rscale>  0 0.12251266E+03</rscale>
<asrwt>0</asrwt>
<pdfrwt beam="2">  1        1 0.58123782E-01 0.13123480E+03</pdfrwt>
<pdfrwt beam="1">  1       -1 0.54467337E-02 0.13123480E+03</pdfrwt>
<totfact> 0.95542808E+03</totfact>
</mgrwt>
</event>
<event>
 6    1  0.7270761E-006  0.1558752E+03  0.7546771E-02  0.1200928E+00
         -1   -1    0    0    0  501 -0.00000000000E+00  0.00000000000E+00  0.77852167982E+02  0.77852167982E+02  0.00000000000E+00 0.  1.
          1   -1    0    0  501    0  0.00000000000E+00 -0.00000000000E+00 -0.27930432664E+03  0.27930432664E+03  0.00000000000E+00 0. -1.
          5    1    1    2  502    0 -0.74930947606E+02  0.38445724124E+02  0.13640569670E+01  0.84360365480E+02  0.47000000000E+01 0.  1.
         -5    1    1    2    0  502  0.25665877192E+02  0.40579502509E+02 -0.72248066829E+02  0.86875234886E+02  0.47000000000E+01 0.  1.
        -11    1    1    2    0    0  0.74633188185E+02 -0.55029170851E+02 -0.70669352448E+02  0.11658679084E+03  0.00000000000E+00 0.  1.
         11    1    1    2    0    0 -0.25368117771E+02 -0.23996055781E+02 -0.59898796346E+02  0.69334103412E+02  0.00000000000E+00 0. -1.
<mgrwt>
<rscale>  0 0.14963048E+03</rscale>
<asrwt>0</asrwt>
<pdfrwt beam="2">  1        1 0.42969896E-01 0.15587523E+03</pdfrwt>
<pdfrwt beam="1">  1       -1 0.11977257E-01 0.15587523E+03</pdfrwt>
<totfact> 0.42706889E+03</totfact>
</mgrwt>
</event>
<event>
 6    1  0.7270761E-006  0.1806936E+03  0.7546771E-02  0.1173068E+00
         -1   -1    0    0    0  501 -0.00000000000E+00  0.00000000000E+00  0.56397311263E+03  0.56397311263E+03  0.00000000000E+00 0.  1.
          1   -1    0    0  501    0  0.00000000000E+00 -0.00000000000E+00 -0.64141263618E+02  0.64141263618E+02  0.00000000000E+00 0. -1.
          5    1    1    2  502    0  0.24589188242E+02  0.93041837453E+02  0.17357431165E+03  0.19852340759E+03  0.47000000000E+01 0.  1.
         -5    1    1    2    0  502 -0.75248073056E+02  0.27202369563E+02  0.23283483064E+03  0.24624457307E+03  0.47000000000E+01 0.  1.
        -11    1    1    2    0    0 -0.84508002462E+01 -0.44709543859E+02  0.71835297527E+02  0.85033342330E+02  0.00000000000E+00 0.  1.
         11    1    1    2    0    0  0.59109685060E+02 -0.75534663156E+02  0.21587409199E+02  0.98313053263E+02  0.00000000000E+00 0. -1.
<mgrwt>
<rscale>  0 0.17466504E+03</rscale>
<asrwt>0</asrwt>
<pdfrwt beam="2">  1        1 0.98678871E-02 0.18069357E+03</pdfrwt>
<pdfrwt beam="1">  1       -1 0.86765091E-01 0.18069357E+03</pdfrwt>
<totfact> 0.89194282E+02</totfact>
</mgrwt>
</event>
<event>
 6    1  0.7270761E-006  0.1335156E+03  0.7546771E-02  0.1235745E+00
         -1   -1    0    0    0  501 -0.00000000000E+00  0.00000000000E+00  0.96634155481E+02  0.96634155481E+02  0.00000000000E+00 0.  1.
          1   -1    0    0  501    0  0.00000000000E+00 -0.00000000000E+00 -0.14535629683E+03  0.14535629683E+03  0.00000000000E+00 0. -1.
          5    1    1    2  502    0 -0.32488520430E+01 -0.81771483376E+01  0.54809997793E+02  0.55710381910E+02  0.47000000000E+01 0. -1.
         -5    1    1    2    0  502 -0.42231242057E+02 -0.33008435423E+01 -0.65614750498E+02  0.78241669568E+02  0.47000000000E+01 0. -1.
        -11    1    1    2    0    0 -0.16995406533E+02 -0.18336824817E+02  0.64441991329E+01  0.25818804969E+02  0.00000000000E+00 0.  1.
         11    1    1    2    0    0  0.62475500633E+02  0.29814816696E+02 -0.44361587777E+02  0.82219595864E+02  0.00000000000E+00 0. -1.
<mgrwt>
<rscale>  0 0.12456833E+03</rscale>
<asrwt>0</asrwt>
<pdfrwt beam="2">  1        1 0.22362507E-01 0.13351558E+03</pdfrwt>
<pdfrwt beam="1">  1       -1 0.14866793E-01 0.13351558E+03</pdfrwt>
<totfact> 0.68249994E+03</totfact>
</mgrwt>
</event>
<event>
 6    1  0.7270761E-006  0.1803561E+03  0.7546771E-02  0.1173219E+00
         -1   -1    0    0    0  501 -0.00000000000E+00  0.00000000000E+00  0.35020839492E+03  0.35020839492E+03  0.00000000000E+00 0.  1.
          1   -1    0    0  501    0  0.00000000000E+00 -0.00000000000E+00 -0.98556228666E+02  0.98556228666E+02  0.00000000000E+00 0. -1.
          5    1    1    2  502    0 -0.55190667968E+01 -0.76504137997E+02  0.17709663226E+03  0.19305090103E+03  0.47000000000E+01 0. -1.
         -5    1    1    2    0  502  0.75310660556E+02 -0.33191570283E+02  0.48012499081E+02  0.95397410862E+02  0.47000000000E+01 0. -1.
        -11    1    1    2    0    0 -0.44025648575E+02  0.84351523244E+02  0.58817862585E+02  0.11186142394E+03  0.00000000000E+00 0.  1.
         11    1    1    2    0    0 -0.25765945185E+02  0.25344185036E+02 -0.32274827675E+02  0.48454887760E+02  0.00000000000E+00 0. -1.
<mgrwt>
<rscale>  0 0.17451533E+03</rscale>
<asrwt>0</asrwt>
<pdfrwt beam="2">  1        1 0.15162497E-01 0.18035606E+03</pdfrwt>
<pdfrwt beam="1">  1       -1 0.53878214E-01 0.18035606E+03</pdfrwt>
<totfact> 0.12985719E+03</totfact>
</mgrwt>
</event>
<event>
 6    1  0.7270761E-006  0.1332124E+03  0.7546771E-02  0.1236596E+00
          2   -1    0    0  501    0  0.00000000000E+00  0.00000000000E+00  0.30833326640E+03  0.30833326640E+03  0.00000000000E+00 0. -1.
         -2   -1    0    0    0  501 -0.00000000000E+00 -0.00000000000E+00 -0.46010983840E+02  0.46010983840E+02  0.00000000000E+00 0.  1.
          5    1    1    2  502    0 -0.16569097593E+02 -0.46936265594E+01  0.11702861395E+03  0.11838222674E+03  0.47000000000E+01 0.  1.
         -5    1    1    2    0  502  0.48889755393E+02 -0.28114559171E+02 -0.34205040365E+01  0.56695912265E+02  0.47000000000E+01 0.  1.
        -11    1    1    2    0    0 -0.62516399166E+02  0.19432878559E+02  0.82922643755E+02  0.10565084846E+03  0.00000000000E+00 0. -1.
         11    1    1    2    0    0  0.30195741366E+02  0.13375307171E+02  0.65791528892E+02  0.73615262769E+02  0.00000000000E+00 0.  1.
<mgrwt>
<rscale>  0 0.12402790E+03</rscale>
<asrwt>0</asrwt>
<pdfrwt beam="1">  1        2 0.47435886E-01 0.13321243E+03</pdfrwt>
<pdfrwt beam="2">  1       -2 0.70786131E-02 0.13321243E+03</pdfrwt>
<totfact> 0.11457720E+04</totfact>
</mgrwt>
</event>
<event>
 6    1  0.7270761E-006  0.1298746E+03  0.7546771E-02  0.1240714E+00
          1   -1    0    0  501    0  0.00000000000E+00  0.00000000000E+00  0.16125702359E+03  0.16125702359E+03  0.00000000000E+00 0. -1.
         -1   -1    0    0    0  501 -0.00000000000E+00 -0.00000000000E+00 -0.97169752283E+02  0.97169752283E+02  0.00000000000E+00 0.  1.
          5    1    1    2  502    0  0.45475405978E+02  0.24032237443E+02  0.42684094658E+02  0.67004350024E+02  0.47000000000E+01 0.  1.
         -5    1    1    2    0  502 -0.24429020480E+02  0.42801002794E+01 -0.58645562346E+02  0.63847382741E+02  0.47000000000E+01 0.  1.
        -11    1    1    2    0    0 -0.53587166902E+02 -0.32343192634E+02  0.34555003967E+02  0.71496257703E+02  0.00000000000E+00 0.  1.
         11    1    1    2    0    0  0.32540781405E+02  0.40308549118E+01  0.45493735023E+02  0.56078785401E+02  0.00000000000E+00 0. -1.
<mgrwt>
<rscale>  0 0.12145615E+03</rscale>
<asrwt>0</asrwt>
<pdfrwt beam="1">  1        1 0.24808773E-01 0.12987458E+03</pdfrwt>
<pdfrwt beam="2">  1       -1 0.14949193E-01 0.12987458E+03</pdfrwt>
<totfact> 0.59264439E+03</totfact>
</mgrwt>
</event>
<event>
 6    1  0.7270761E-006  0.1641784E+03  0.7546771E-02  0.1191226E+00
         -4   -1    0    0    0  501 -0.00000000000E+00  0.00000000000E+00  0.46298477407E+02  0.46298477407E+02  0.00000000000E+00 0.  1.
          4   -1    0    0  501    0  0.00000000000E+00 -0.00000000000E+00 -0.52173502778E+03  0.52173502778E+03  0.00000000000E+00 0. -1.
          5    1    1    2  502    0 -0.41889230530E+02  0.39654892248E+02 -0.40306623584E+02  0.70526108771E+02  0.47000000000E+01 0.  1.
         -5    1    1    2    0  502 -0.55237602594E+02 -0.83193449368E+02 -0.15734856337E+03  0.18642157373E+03  0.47000000000E+01 0.  1.
        -11    1    1    2    0    0  0.21441476973E+02  0.38113696303E+02 -0.19039687030E+03  0.19535444454E+03  0.00000000000E+00 0. -1.
         11    1    1    2    0    0  0.75685356150E+02  0.54248608170E+01 -0.87384493129E+02  0.11573137816E+03  0.00000000000E+00 0.  1.
<mgrwt>
<rscale>  0 0.15777999E+03</rscale>
<asrwt>0</asrwt>
<pdfrwt beam="2">  1        4 0.80266925E-01 0.16417837E+03</pdfrwt>
<pdfrwt beam="1">  1       -4 0.71228428E-02 0.16417837E+03</pdfrwt>
<totfact> 0.32550691E+02</totfact>
</mgrwt>
</event>
<event>
 6    1  0.7270761E-006  0.1277786E+03  0.7546771E-02  0.1243937E+00
         -2   -1    0    0    0  501 -0.00000000000E+00  0.00000000000E+00  0.15748935449E+03  0.15748935449E+03  0.00000000000E+00 0.  1.
          2   -1    0    0  501    0  0.00000000000E+00 -0.00000000000E+00 -0.83614731995E+02  0.83614731995E+02  0.00000000000E+00 0. -1.
          5    1    1    2  502    0 -0.20946499009E+02  0.17074642379E+02 -0.30667738755E+02  0.41144859137E+02  0.47000000000E+01 0. -1.
         -5    1    1    2    0  502  0.34009476655E+01 -0.36982554961E+02  0.94595154025E+02  0.10173302798E+03  0.47000000000E+01 0. -1.
        -11    1    1    2    0    0 -0.28421969560E+02 -0.12366462288E+02 -0.17625904210E+02  0.35656840051E+02  0.00000000000E+00 0. -1.
         11    1    1    2    0    0  0.45967520904E+02  0.32274374870E+02  0.27573111434E+02  0.62569359318E+02  0.00000000000E+00 0.  1.
<mgrwt>
<rscale>  0 0.11949257E+03</rscale>
<asrwt>0</asrwt>
<pdfrwt beam="2">  1        2 0.12863805E-01 0.12777862E+03</pdfrwt>
<pdfrwt beam="1">  1       -2 0.24229131E-01 0.12777862E+03</pdfrwt>
<totfact> 0.66453500E+03</totfact>
</mgrwt>
</event>
<event>
 6    1  0.7270761E-006  0.2234199E+03  0.7546771E-02  0.1134644E+00
         -2   -1    0    0    0  501 -0.00000000000E+00  0.00000000000E+00  0.16426389634E+03  0.16426389634E+03  0.00000000000E+00 0.  1.
          2   -1    0    0  501    0  0.00000000000E+00 -0.00000000000E+00 -0.39168005052E+03  0.39168005052E+03  0.00000000000E+00 0. -1.
          5    1    1    2  502    0 -0.15765249820E+02  0.26105961586E+02 -0.36308427729E+02  0.47649304889E+02  0.47000000000E+01 0. -1.
         -5    1    1    2    0  502  0.57529593607E+02  0.15430472770E+03  0.67077199684E+02  0.17787929573E+03  0.47000000000E+01 0. -1.
        -11    1    1    2    0    0 -0.51108589325E+02 -0.10582313800E+03 -0.21141664347E+03  0.24188348760E+03  0.00000000000E+00 0.  1.
         11    1    1    2    0    0  0.93442455380E+01 -0.74587551292E+02 -0.46768282662E+02  0.88531858648E+02  0.00000000000E+00 0. -1.
<mgrwt>
<rscale>  0 0.21898224E+03</rscale>
<asrwt>0</asrwt>
<pdfrwt beam="2">  1        2 0.60258469E-01 0.22341986E+03</pdfrwt>
<pdfrwt beam="1">  1       -2 0.25271369E-01 0.22341986E+03</pdfrwt>
<totfact> 0.11375285E+03</totfact>
</mgrwt>
</event>
<event>
 6    1  0.7270761E-006  0.1631596E+03  0.7546771E-02  0.1192740E+00
          1   -1    0    0  501    0  0.00000000000E+00  0.00000000000E+00  0.78487624276E+03  0.78487624276E+03  0.00000000000E+00 0. -1.
         -1   -1    0    0    0  501 -0.00000000000E+00 -0.00000000000E+00 -0.29366123833E+02  0.29366123833E+02  0.00000000000E+00 0.  1.
          5    1    1    2  502    0  0.54227313611E+02 -0.17205990397E+02  0.17773336496E+03  0.18667588668E+03  0.47000000000E+01 0.  1.
         -5    1    1    2    0  502 -0.59031427066E+02 -0.87545376019E+02  0.28272869349E+03  0.30183854354E+03  0.47000000000E+01 0.  1.
        -11    1    1    2    0    0 -0.38653042561E+02  0.24943529706E+02  0.80285259580E+02  0.92530861226E+02  0.00000000000E+00 0.  1.
         11    1    1    2    0    0  0.43457156015E+02  0.79807836710E+02  0.21476280090E+03  0.23319707515E+03  0.00000000000E+00 0. -1.
<mgrwt>
<rscale>  0 0.15647067E+03</rscale>
<asrwt>0</asrwt>
<pdfrwt beam="1">  1        1 0.12075018E+00 0.16315956E+03</pdfrwt>
<pdfrwt beam="2">  1       -1 0.45178658E-02 0.16315956E+03</pdfrwt>
<totfact> 0.47662000E+03</totfact>
</mgrwt>
</event>
<event>
 6    1  0.9153808E-006  0.3102722E+03  0.7546771E-02  0.1081606E+00
         -1   -1    0    0    0  501 -0.00000000000E+00  0.00000000000E+00  0.34186644321E+03  0.34186644321E+03  0.00000000000E+00 0.  1.
          1   -1    0    0  501    0  0.00000000000E+00 -0.00000000000E+00 -0.28220366271E+03  0.28220366271E+03  0.00000000000E+00 0. -1.
          5    1    1    2  502    0  0.15333180421E+03 -0.22008342974E+03  0.11451908793E+03  0.29169173750E+03  0.47000000000E+01 0.  1.
         -5    1    1    2    0  502 -0.35218154615E+01 -0.21164695317E+02 -0.22993366102E+02  0.31798308079E+02  0.47000000000E+01 0.  1.
        -11    1    1    2    0    0 -0.47230640747E+02  0.57143976868E+02 -0.49417894418E+02  0.89097114467E+02  0.00000000000E+00 0. -1.
         11    1    1    2    0    0 -0.10257934800E+03  0.18410414818E+03  0.17554953091E+02  0.21148294587E+03  0.00000000000E+00 0.  1.
<mgrwt>
<rscale>  0 0.30738576E+03</rscale>
<asrwt>0</asrwt>
<pdfrwt beam="2">  1        1 0.43415948E-01 0.31027222E+03</pdfrwt>
<pdfrwt beam="1">  1       -1 0.52594837E-01 0.31027222E+03</pdfrwt>
<totfact> 0.35525827E+02</totfact>
</mgrwt>
</event>
<event>
 6    1  0.7270761E-006  0.1270327E+03  0.7546771E-02  0.1247054E+00
          2   -1    0    0  501    0  0.00000000000E+00  0.00000000000E+00  0.16312072366E+03  0.16312072366E+03  0.00000000000E+00 0. -1.
         -2   -1    0    0    0  501 -0.00000000000E+00 -0.00000000000E+00 -0.74486659619E+02  0.74486659619E+02  0.00000000000E+00 0.  1.
          5    1    1    2  502    0 -0.26220989967E+02  0.23361711724E+02  0.68116906171E+02  0.76780940316E+02  0.47000000000E+01 0. -1.
         -5    1    1    2    0  502  0.35011289555E+02 -0.44169491464E+02 -0.18634508459E+02  0.59548881417E+02  0.47000000000E+01 0. -1.
        -11    1    1    2    0    0  0.39656627489E+02  0.11877221150E+02  0.58354926003E+01  0.41806332773E+02  0.00000000000E+00 0.  1.
         11    1    1    2    0    0 -0.48446927077E+02  0.89305585906E+01  0.33316173734E+02  0.59471228776E+02  0.00000000000E+00 0. -1.
<mgrwt>
<rscale>  0 0.11763268E+03</rscale>
<asrwt>0</asrwt>
<pdfrwt beam="1">  1        2 0.25095496E-01 0.12703272E+03</pdfrwt>
<pdfrwt beam="2">  1       -2 0.11459486E-01 0.12703272E+03</pdfrwt>
<totfact> 0.10675246E+04</totfact>
</mgrwt>
</event>
<event>
 6    1  0.7270761E-006  0.1276088E+03  0.7546771E-02  0.1245803E+00
         -3   -1    0    0    0  501 -0.00000000000E+00  0.00000000000E+00  0.10402646720E+03  0.10402646720E+03  0.00000000000E+00 0.  1.
          3   -1    0    0  501    0  0.00000000000E+00 -0.00000000000E+00 -0.16695410024E+03  0.16695410024E+03  0.00000000000E+00 0. -1.
          5    1    1    2  502    0  0.45428116128E+02 -0.54362415870E+02  0.22425094207E+00  0.71000889309E+02  0.47000000000E+01 0.  1.
         -5    1    1    2    0  502 -0.21889802912E+02  0.44164196482E+02  0.37358229579E+02  0.62027147603E+02  0.47000000000E+01 0.  1.
        -11    1    1    2    0    0 -0.21282771342E+01  0.30563575833E+02  0.25466359017E+01  0.30743244553E+02  0.00000000000E+00 0.  1.
         11    1    1    2    0    0 -0.21410036082E+02 -0.20365356445E+02 -0.10305674947E+03  0.10720928598E+03  0.00000000000E+00 0. -1.
<mgrwt>
<rscale>  0 0.11837462E+03</rscale>
<asrwt>0</asrwt>
<pdfrwt beam="2">  1        3 0.25685246E-01 0.12760884E+03</pdfrwt>
<pdfrwt beam="1">  1       -3 0.16004072E-01 0.12760884E+03</pdfrwt>
<totfact> 0.10825977E+03</totfact>
</mgrwt>
</event>
<event>
 6    1  0.7270761E-006  0.1341342E+03  0.7546771E-02  0.1241726E+00
          4   -1    0    0  501    0  0.00000000000E+00  0.00000000000E+00  0.52190634813E+02  0.52190634813E+02  0.00000000000E+00 0. -1.
         -4   -1    0    0    0  501 -0.00000000000E+00 -0.00000000000E+00 -0.25299880724E+03  0.25299880724E+03  0.00000000000E+00 0.  1.
          5    1    1    2  502    0 -0.80740987344E+02 -0.11744447871E+02 -0.59857413102E+02  0.10130172257E+03  0.47000000000E+01 0. -1.
         -5    1    1    2    0  502  0.38185078996E+02 -0.11818586645E+02 -0.97418387253E+02  0.10540498766E+03  0.47000000000E+01 0. -1.
        -11    1    1    2    0    0 -0.70250360952E+01 -0.18054447317E+02 -0.24049550309E+02  0.30881953794E+02  0.00000000000E+00 0.  1.
         11    1    1    2    0    0  0.49580944443E+02  0.41617481833E+02 -0.19482821762E+02  0.67600778027E+02  0.00000000000E+00 0. -1.
<mgrwt>
<rscale>  0 0.12083502E+03</rscale>
<asrwt>0</asrwt>
<pdfrwt beam="1">  1        4 0.80293283E-02 0.13413421E+03</pdfrwt>
<pdfrwt beam="2">  1       -4 0.38922894E-01 0.13413421E+03</pdfrwt>
<totfact> 0.11596357E+03</totfact>
</mgrwt>
</event>
<event>
 6    1  0.7270761E-006  0.1352253E+03  0.7546771E-02  0.1232194E+00
         -1   -1    0    0    0  501 -0.00000000000E+00  0.00000000000E+00  0.52395843972E+02  0.52395843972E+02  0.00000000000E+00 0.  1.
          1   -1    0    0  501    0  0.00000000000E+00 -0.00000000000E+00 -0.31205799399E+03  0.31205799399E+03  0.00000000000E+00 0. -1.
          5    1    1    2  502    0  0.87134084964E+01 -0.13500056504E+02  0.29538333089E+02  0.33952586572E+02  0.47000000000E+01 0.  1.
         -5    1    1    2    0  502  0.33554938102E+02  0.43066035222E+02 -0.11132916184E+03  0.12408420342E+03  0.47000000000E+01 0.  1.
        -11    1    1    2    0    0 -0.61122057046E+02 -0.33358171118E+02 -0.17313226956E+03  0.18661043969E+03  0.00000000000E+00 0. -1.
         11    1    1    2    0    0  0.18853710448E+02  0.37921923998E+01 -0.47390517095E+01  0.19806608290E+02  0.00000000000E+00 0.  1.
<mgrwt>
<rscale>  0 0.12685813E+03</rscale>
<asrwt>0</asrwt>
<pdfrwt beam="2">  1        1 0.48008922E-01 0.13522532E+03</pdfrwt>
<pdfrwt beam="1">  1       -1 0.80608991E-02 0.13522532E+03</pdfrwt>
<totfact> 0.67598346E+03</totfact>
</mgrwt>
</event>
<event>
 6    1  0.7270761E-006  0.1482446E+03  0.7546771E-02  0.1211795E+00
         -1   -1    0    0    0  501 -0.00000000000E+00  0.00000000000E+00  0.52736663091E+02  0.52736663091E+02  0.00000000000E+00 0.  1.
          1   -1    0    0  501    0  0.00000000000E+00 -0.00000000000E+00 -0.34576329488E+03  0.34576329488E+03  0.00000000000E+00 0. -1.
          5    1    1    2  502    0 -0.22317160600E+02  0.82297809469E+01 -0.11167069774E+03  0.11427256751E+03  0.47000000000E+01 0.  1.
         -5    1    1    2    0  502  0.78072229544E+02  0.48719641717E+02 -0.49091889189E+02  0.10440775881E+03  0.47000000000E+01 0.  1.
        -11    1    1    2    0    0 -0.64063191441E+02 -0.75703691373E+02 -0.95268399444E+02  0.13751803270E+03  0.00000000000E+00 0. -1.
         11    1    1    2    0    0  0.83081224965E+01  0.18754268709E+02 -0.36995645418E+02  0.42301598955E+02  0.00000000000E+00 0.  1.
<mgrwt>
<rscale>  0 0.14114592E+03</rscale>
<asrwt>0</asrwt>
<pdfrwt beam="2">  1        1 0.53194353E-01 0.14824465E+03</pdfrwt>
<pdfrwt beam="1">  1       -1 0.81133328E-02 0.14824465E+03</pdfrwt>
<totfact> 0.59250720E+03</totfact>
</mgrwt>
</event>
<event>
 6    1  0.7270761E-006  0.1587626E+03  0.7546771E-02  0.1198851E+00
         -1   -1    0    0    0  501 -0.00000000000E+00  0.00000000000E+00  0.48032851590E+03  0.48032851590E+03  0.00000000000E+00 0.  1.
          1   -1    0    0  501    0  0.00000000000E+00 -0.00000000000E+00 -0.57094537068E+02  0.57094537068E+02  0.00000000000E+00 0. -1.
          5    1    1    2  502    0 -0.60151234623E+02  0.50250586226E+02  0.22687473188E+03  0.24007816728E+03  0.47000000000E+01 0.  1.
         -5    1    1    2    0  502 -0.36389607056E+02 -0.66386866536E+02  0.12986235427E+03  0.15039195659E+03  0.47000000000E+01 0.  1.
        -11    1    1    2    0    0  0.32875926542E+02 -0.79888027492E+01 -0.18094018972E+02  0.38367186995E+02  0.00000000000E+00 0. -1.
         11    1    1    2    0    0  0.63664915137E+02  0.24125083060E+02  0.84590911655E+02  0.10858574210E+03  0.00000000000E+00 0.  1.
<mgrwt>
<rscale>  0 0.15132755E+03</rscale>
<asrwt>0</asrwt>
<pdfrwt beam="2">  1        1 0.87837753E-02 0.15876262E+03</pdfrwt>
<pdfrwt beam="1">  1       -1 0.73896692E-01 0.15876262E+03</pdfrwt>
<totfact> 0.14459626E+03</totfact>
</mgrwt>
</event>
<event>
 6    1  0.7270761E-006  0.1318879E+03  0.7546771E-02  0.1237294E+00
         -2   -1    0    0    0  501 -0.00000000000E+00  0.00000000000E+00  0.49939772098E+02  0.49939772098E+02  0.00000000000E+00 0.  1.
          2   -1    0    0  501    0  0.00000000000E+00 -0.00000000000E+00 -0.30561170922E+03  0.30561170922E+03  0.00000000000E+00 0. -1.
          5    1    1    2  502    0 -0.29720162449E+02  0.44905365241E+02 -0.54362249698E+02  0.76662403273E+02  0.47000000000E+01 0.  1.
         -5    1    1    2    0  502 -0.62885897758E+00 -0.74025578795E+02 -0.30713824413E+02  0.80284561340E+02  0.47000000000E+01 0.  1.
        -11    1    1    2    0    0  0.47980167886E+02 -0.17171604587E+02 -0.71310172896E+02  0.87647597075E+02  0.00000000000E+00 0.  1.
         11    1    1    2    0    0 -0.17631146460E+02  0.46291818141E+02 -0.99285690117E+02  0.11095691963E+03  0.00000000000E+00 0. -1.
<mgrwt>
<rscale>  0 0.12358704E+03</rscale>
<asrwt>0</asrwt>
<pdfrwt beam="2">  1        2 0.47017186E-01 0.13188787E+03</pdfrwt>
<pdfrwt beam="1">  1       -2 0.76830419E-02 0.13188787E+03</pdfrwt>
<totfact> 0.10191132E+04</totfact>
</mgrwt>
</event>
<event>
 6    1  0.7270761E-006  0.1267016E+03  0.7546771E-02  0.1246586E+00
          1   -1    0    0  501    0  0.00000000000E+00  0.00000000000E+00  0.66006200465E+02  0.66006200465E+02  0.00000000000E+00 0. -1.
         -1   -1    0    0    0  501 -0.00000000000E+00 -0.00000000000E+00 -0.18632386048E+03  0.18632386048E+03  0.00000000000E+00 0.  1.
          5    1    1    2  502    0 -0.36624307801E+02  0.98483186987E+01 -0.77816240422E+02  0.86693636309E+02  0.47000000000E+01 0. -1.
         -5    1    1    2    0  502  0.55527365705E+02 -0.18281982894E+02  0.59858499122E+01  0.58952859471E+02  0.47000000000E+01 0. -1.
        -11    1    1    2    0    0 -0.41992254243E+02 -0.25276497311E+02 -0.43478857504E+02  0.65518407968E+02  0.00000000000E+00 0.  1.
         11    1    1    2    0    0  0.23089196340E+02  0.33710161506E+02 -0.50084120017E+01  0.41165157198E+02  0.00000000000E+00 0. -1.
<mgrwt>
<rscale>  0 0.11790976E+03</rscale>
<asrwt>0</asrwt>
<pdfrwt beam="1">  1        1 0.10154800E-01 0.12670161E+03</pdfrwt>
<pdfrwt beam="2">  1       -1 0.28665209E-01 0.12670161E+03</pdfrwt>
<totfact> 0.65478339E+03</totfact>
</mgrwt>
</event>
<event>
 6    1  0.7270761E-006  0.1377991E+03  0.7546771E-02  0.1227790E+00
         -2   -1    0    0    0  501 -0.00000000000E+00  0.00000000000E+00  0.28244999533E+02  0.28244999533E+02  0.00000000000E+00 0.  1.
          2   -1    0    0  501    0  0.00000000000E+00 -0.00000000000E+00 -0.60253531239E+03  0.60253531239E+03  0.00000000000E+00 0. -1.
          5    1    1    2  502    0 -0.80496232837E+02  0.23527892924E+02 -0.11969211970E+03  0.14622413879E+03  0.47000000000E+01 0.  1.
         -5    1    1    2    0  502  0.47300815555E+02  0.24016717934E+02 -0.94235734934E+02  0.10824339994E+03  0.47000000000E+01 0.  1.
        -11    1    1    2    0    0  0.12961070919E+02 -0.56394968601E+02 -0.34398400761E+03  0.34881711446E+03  0.00000000000E+00 0. -1.
         11    1    1    2    0    0  0.20234346364E+02  0.88503577433E+01 -0.16378450609E+02  0.27495658735E+02  0.00000000000E+00 0.  1.
<mgrwt>
<rscale>  0 0.12977485E+03</rscale>
<asrwt>0</asrwt>
<pdfrwt beam="2">  1        2 0.92697747E-01 0.13779913E+03</pdfrwt>
<pdfrwt beam="1">  1       -2 0.43453842E-02 0.13779913E+03</pdfrwt>
<totfact> 0.11608136E+04</totfact>
</mgrwt>
</event>
<event>
 6    1  0.7270761E-006  0.1513148E+03  0.7546771E-02  0.1207699E+00
          2   -1    0    0  501    0  0.00000000000E+00  0.00000000000E+00  0.33108265495E+02  0.33108265495E+02  0.00000000000E+00 0. -1.
         -2   -1    0    0    0  501 -0.00000000000E+00 -0.00000000000E+00 -0.57716940857E+03  0.57716940857E+03  0.00000000000E+00 0.  1.
          5    1    1    2  502    0 -0.79769889519E+02 -0.25667717771E+02 -0.18527855183E+03  0.20340181606E+03  0.47000000000E+01 0.  1.
         -5    1    1    2    0  502  0.43431237484E+01  0.65443530661E+02 -0.10357543968E+03  0.12268528898E+03  0.47000000000E+01 0.  1.
        -11    1    1    2    0    0 -0.17760613853E+02 -0.25016809296E+02 -0.61518558120E+02  0.68744549929E+02  0.00000000000E+00 0. -1.
         11    1    1    2    0    0  0.93187379624E+02 -0.14759003594E+02 -0.19368859345E+03  0.21544601909E+03  0.00000000000E+00 0.  1.
<mgrwt>
<rscale>  0 0.14426747E+03</rscale>
<asrwt>0</asrwt>
<pdfrwt beam="1">  1        2 0.50935795E-02 0.15131481E+03</pdfrwt>
<pdfrwt beam="2">  1       -2 0.88795290E-01 0.15131481E+03</pdfrwt>
<totfact> 0.16766664E+03</totfact>
</mgrwt>
</event>
<event>
 6    1  0.7270761E-006  0.2830904E+03  0.7546771E-02  0.1095723E+00
         -1   -1    0    0    0  501 -0.00000000000E+00  0.00000000000E+00  0.79173350154E+02  0.79173350154E+02  0.00000000000E+00 0.  1.
          1   -1    0    0  501    0  0.00000000000E+00 -0.00000000000E+00 -0.99068536611E+03  0.99068536611E+03  0.00000000000E+00 0. -1.
          5    1    1    2  502    0  0.19587063249E+02  0.12820342546E+02 -0.70254498970E+00  0.23887189018E+02  0.47000000000E+01 0. -1.
         -5    1    1    2    0  502  0.21487340200E+03 -0.11051011353E+03 -0.38472536683E+03  0.45433331593E+03  0.47000000000E+01 0. -1.
        -11    1    1    2    0    0 -0.41920312050E+02  0.16147123796E+01 -0.17416970436E+03  0.17915079061E+03  0.00000000000E+00 0. -1.
         11    1    1    2    0    0 -0.19254015319E+03  0.96075058600E+02 -0.35191439977E+03  0.41248742071E+03  0.00000000000E+00 0.  1.
<mgrwt>
<rscale>  0 0.27993718E+03</rscale>
<asrwt>0</asrwt>
<pdfrwt beam="2">  1        1 0.15241314E+00 0.28309040E+03</pdfrwt>
<pdfrwt beam="1">  1       -1 0.12180515E-01 0.28309040E+03</pdfrwt>
<totfact> 0.72873963E+02</totfact>
</mgrwt>
</event>
<event>
 6    1  0.7270761E-006  0.1380996E+03  0.7546771E-02  0.1226354E+00
         -2   -1    0    0    0  501 -0.00000000000E+00  0.00000000000E+00  0.14678563461E+03  0.14678563461E+03  0.00000000000E+00 0.  1.
          2   -1    0    0  501    0  0.00000000000E+00 -0.00000000000E+00 -0.10946002625E+03  0.10946002625E+03  0.00000000000E+00 0. -1.
          5    1    1    2  502    0 -0.92532071907E+01 -0.49101380035E+02  0.25253300800E+02  0.56181728043E+02  0.47000000000E+01 0.  1.
         -5    1    1    2    0  502 -0.43439165433E+02  0.74995972060E+02  0.19173035149E+02  0.88887863038E+02  0.47000000000E+01 0.  1.
        -11    1    1    2    0    0 -0.24428074972E+01  0.10395729846E+02 -0.37147801105E+02  0.38652265580E+02  0.00000000000E+00 0. -1.
         11    1    1    2    0    0  0.55135180121E+02 -0.36290321872E+02  0.30047073511E+02  0.72523804196E+02  0.00000000000E+00 0.  1.
<mgrwt>
<rscale>  0 0.13074501E+03</rscale>
<asrwt>0</asrwt>
<pdfrwt beam="2">  1        2 0.16840004E-01 0.13809955E+03</pdfrwt>
<pdfrwt beam="1">  1       -2 0.22582405E-01 0.13809955E+03</pdfrwt>
<totfact> 0.55030832E+03</totfact>
</mgrwt>
</event>
<event>
 6    1  0.7270761E-006  0.1662851E+03  0.7546771E-02  0.1185226E+00
         -2   -1    0    0    0  501 -0.00000000000E+00  0.00000000000E+00  0.51278352096E+03  0.51278352096E+03  0.00000000000E+00 0.  1.
          2   -1    0    0  501    0  0.00000000000E+00 -0.00000000000E+00 -0.58776535724E+02  0.58776535724E+02  0.00000000000E+00 0. -1.
          5    1    1    2  502    0  0.14058250307E+02  0.33261444255E+02  0.40013918557E+02  0.54103250863E+02  0.47000000000E+01 0.  1.
         -5    1    1    2    0  502 -0.12212055496E+03 -0.14596909380E+02  0.30479035323E+03  0.32870313222E+03  0.47000000000E+01 0.  1.
        -11    1    1    2    0    0  0.83928530965E+02 -0.18952118133E+02  0.13066904803E+03  0.15645312782E+03  0.00000000000E+00 0.  1.
         11    1    1    2    0    0  0.24133773688E+02  0.28758325800E+00 -0.21466334592E+02  0.32300545775E+02  0.00000000000E+00 0. -1.
<mgrwt>
<rscale>  0 0.16311346E+03</rscale>
<asrwt>0</asrwt>
<pdfrwt beam="2">  1        2 0.90425443E-02 0.16628512E+03</pdfrwt>
<pdfrwt beam="1">  1       -2 0.78889769E-01 0.16628512E+03</pdfrwt>
<totfact> 0.10502030E+03</totfact>
</mgrwt>
</event>
<event>
 6    1  0.7270761E-006  0.1351344E+03  0.7546771E-02  0.1232260E+00
         -4   -1    0    0    0  501 -0.00000000000E+00  0.00000000000E+00  0.19780763641E+03  0.19780763641E+03  0.00000000000E+00 0.  1.
          4   -1    0    0  501    0  0.00000000000E+00 -0.00000000000E+00 -0.74036927544E+02  0.74036927544E+02  0.00000000000E+00 0. -1.
          5    1    1    2  502    0  0.12728716579E+02  0.45998199151E+02  0.51670607495E+02  0.70496781698E+02  0.47000000000E+01 0. -1.
         -5    1    1    2    0  502 -0.63570302880E+02 -0.53252332977E+02  0.35603043657E+02  0.90369580576E+02  0.47000000000E+01 0. -1.
        -11    1    1    2    0    0  0.39705852958E+02  0.10724226839E+01  0.67019027120E+02  0.77905422441E+02  0.00000000000E+00 0.  1.
         11    1    1    2    0    0  0.11135733342E+02  0.61817111421E+01 -0.30521969410E+02  0.33072779236E+02  0.00000000000E+00 0. -1.
<mgrwt>
<rscale>  0 0.12681483E+03</rscale>
<asrwt>0</asrwt>
<pdfrwt beam="2">  1        4 0.11390297E-01 0.13513436E+03</pdfrwt>
<pdfrwt beam="1">  1       -4 0.30431944E-01 0.13513436E+03</pdfrwt>
<totfact> 0.10370780E+03</totfact>
</mgrwt>
</event>
<event>
 6    1  0.7270761E-006  0.2783107E+03  0.7546771E-02  0.1096615E+00
          1   -1    0    0  501    0  0.00000000000E+00  0.00000000000E+00  0.54236467681E+03  0.54236467681E+03  0.00000000000E+00 0. -1.
         -1   -1    0    0    0  501 -0.00000000000E+00 -0.00000000000E+00 -0.35703297194E+02  0.35703297194E+02  0.00000000000E+00 0.  1.
          5    1    1    2  502    0  0.57421741170E+00 -0.43525805523E+01 -0.13649236572E+02  0.15088616309E+02  0.47000000000E+01 0. -1.
         -5    1    1    2    0  502  0.79223385048E+02  0.35856413441E+02  0.25976765091E+03  0.27397691433E+03  0.47000000000E+01 0. -1.
        -11    1    1    2    0    0 -0.40730510974E+02 -0.50117380034E+02  0.77341406416E+02  0.10075921522E+03  0.00000000000E+00 0.  1.
         11    1    1    2    0    0 -0.39067091485E+02  0.18613547145E+02  0.18320155886E+03  0.18824322815E+03  0.00000000000E+00 0. -1.
<mgrwt>
<rscale>  0 0.27831067E+03</rscale>
<asrwt>0</asrwt>
<pdfrwt beam="1">  1        1 0.83440713E-01 0.27831067E+03</pdfrwt>
<pdfrwt beam="2">  1       -1 0.54928154E-02 0.27831067E+03</pdfrwt>
<totfact> 0.61542640E+03</totfact>
</mgrwt>
</event>
<event>
 6    1  0.7270761E-006  0.1363700E+03  0.7546771E-02  0.1232603E+00
         -2   -1    0    0    0  501 -0.00000000000E+00  0.00000000000E+00  0.71779927307E+02  0.71779927307E+02  0.00000000000E+00 0.  1.
          2   -1    0    0  501    0  0.00000000000E+00 -0.00000000000E+00 -0.24624189113E+03  0.24624189113E+03  0.00000000000E+00 0. -1.
          5    1    1    2  502    0  0.12332271392E+02 -0.22835036736E+02 -0.75804915267E+02  0.80262064508E+02  0.47000000000E+01 0. -1.
         -5    1    1    2    0  502  0.31155682694E+02  0.73869208337E+01  0.48995031508E+02  0.58718364044E+02  0.47000000000E+01 0.  1.
        -11    1    1    2    0    0  0.16923860541E+02  0.30407745267E+02 -0.30017002457E+02  0.45957246048E+02  0.00000000000E+00 0.  1.
         11    1    1    2    0    0 -0.60411814627E+02 -0.14959629365E+02 -0.11763507761E+03  0.13308414384E+03  0.00000000000E+00 0. -1.
<mgrwt>
<rscale>  0 0.12659149E+03</rscale>
<asrwt>0</asrwt>
<pdfrwt beam="2">  1        2 0.37883368E-01 0.13637005E+03</pdfrwt>
<pdfrwt beam="1">  1       -2 0.11043066E-01 0.13637005E+03</pdfrwt>
<totfact> 0.72923151E+03</totfact>
</mgrwt>
</event>
<event>
 6    1  0.7270761E-006  0.1800795E+03  0.7546771E-02  0.1173087E+00
          1   -1    0    0  501    0  0.00000000000E+00  0.00000000000E+00  0.27015946287E+03  0.27015946287E+03  0.00000000000E+00 0. -1.
         -1   -1    0    0    0  501 -0.00000000000E+00 -0.00000000000E+00 -0.10660055341E+03  0.10660055341E+03  0.00000000000E+00 0.  1.
          5    1    1    2  502    0  0.61336488769E+01 -0.39273055405E+02  0.47188585323E+02  0.61877678642E+02  0.47000000000E+01 0. -1.
         -5    1    1    2    0  502 -0.13167482577E+03  0.69968165939E+01  0.37816714328E+02  0.13725672685E+03  0.47000000000E+01 0. -1.
        -11    1    1    2    0    0  0.94830195077E+02  0.74137239728E+01  0.63673325180E+01  0.95332429555E+02  0.00000000000E+00 0.  1.
         11    1    1    2    0    0  0.30710981815E+02  0.24862514839E+02  0.72186277285E+02  0.82293181227E+02  0.00000000000E+00 0. -1.
<mgrwt>
<rscale>  0 0.17464654E+03</rscale>
<asrwt>0</asrwt>
<pdfrwt beam="1">  1        1 0.41562994E-01 0.18007946E+03</pdfrwt>
<pdfrwt beam="2">  1       -1 0.16400085E-01 0.18007946E+03</pdfrwt>
<totfact> 0.27367530E+03</totfact>
</mgrwt>
</event>
<event>
 6    1  0.7270761E-006  0.1537441E+03  0.7546771E-02  0.1203577E+00
         -2   -1    0    0    0  501 -0.00000000000E+00  0.00000000000E+00  0.50668784951E+02  0.50668784951E+02  0.00000000000E+00 0.  1.
          2   -1    0    0  501    0  0.00000000000E+00 -0.00000000000E+00 -0.40593405247E+03  0.40593405247E+03  0.00000000000E+00 0. -1.
          5    1    1    2  502    0  0.30879580746E+02 -0.12648526525E+02 -0.72559685501E+02  0.80003322995E+02  0.47000000000E+01 0. -1.
         -5    1    1    2    0  502 -0.10528919212E+03 -0.37193167273E+02 -0.87571183813E+02  0.14198573134E+03  0.47000000000E+01 0. -1.
        -11    1    1    2    0    0  0.90337493525E+02  0.31524834501E+02 -0.18506289465E+03  0.20833375363E+03  0.00000000000E+00 0. -1.
         11    1    1    2    0    0 -0.15927882149E+02  0.18316859297E+02 -0.10071503556E+02  0.26280029454E+02  0.00000000000E+00 0.  1.
<mgrwt>
<rscale>  0 0.14750165E+03</rscale>
<asrwt>0</asrwt>
<pdfrwt beam="2">  1        2 0.62451392E-01 0.15374409E+03</pdfrwt>
<pdfrwt beam="1">  1       -2 0.77951978E-02 0.15374409E+03</pdfrwt>
<totfact> 0.74432669E+03</totfact>
</mgrwt>
</event>
<event>
 6    1  0.7270761E-006  0.1284741E+03  0.7546771E-02  0.1244357E+00
         -1   -1    0    0    0  501 -0.00000000000E+00  0.00000000000E+00  0.85240225717E+02  0.85240225717E+02  0.00000000000E+00 0.  1.
          1   -1    0    0  501    0  0.00000000000E+00 -0.00000000000E+00 -0.14811690547E+03  0.14811690547E+03  0.00000000000E+00 0. -1.
          5    1    1    2  502    0  0.42761263434E+02  0.29790866136E+02  0.28306627513E+02  0.59492659352E+02  0.47000000000E+01 0.  1.
         -5    1    1    2    0  502 -0.46733511158E+02 -0.36936858188E+00 -0.53920485448E+02  0.71509903155E+02  0.47000000000E+01 0.  1.
        -11    1    1    2    0    0 -0.39847603111E+02 -0.41932419768E+01 -0.32455465099E+02  0.51563281187E+02  0.00000000000E+00 0. -1.
         11    1    1    2    0    0  0.43819850835E+02 -0.25228255577E+02 -0.48073567215E+01  0.50791287495E+02  0.00000000000E+00 0.  1.
<mgrwt>
<rscale>  0 0.11923944E+03</rscale>
<asrwt>0</asrwt>
<pdfrwt beam="2">  1        1 0.22787216E-01 0.12847413E+03</pdfrwt>
<pdfrwt beam="1">  1       -1 0.13113881E-01 0.12847413E+03</pdfrwt>
<totfact> 0.80802667E+03</totfact>
</mgrwt>
</event>
<event>
 6    1  0.7270761E-006  0.1759316E+03  0.7546771E-02  0.1177770E+00
         -2   -1    0    0    0  501 -0.00000000000E+00  0.00000000000E+00  0.94861035145E+02  0.94861035145E+02  0.00000000000E+00 0.  1.
          2   -1    0    0  501    0  0.00000000000E+00 -0.00000000000E+00 -0.30924829105E+03  0.30924829105E+03  0.00000000000E+00 0. -1.
          5    1    1    2  502    0  0.21316638860E+02 -0.24066801003E+02 -0.29530469693E+02  0.43906134459E+02  0.47000000000E+01 0.  1.
         -5    1    1    2    0  502  0.36377708471E+02  0.13360556519E+03 -0.29411484283E+02  0.14163654236E+03  0.47000000000E+01 0.  1.
        -11    1    1    2    0    0 -0.12788890541E+02 -0.10483806544E+03 -0.88362456531E+02  0.13770439140E+03  0.00000000000E+00 0.  1.
         11    1    1    2    0    0 -0.44905456791E+02 -0.47006987461E+01 -0.67082845402E+02  0.80862257979E+02  0.00000000000E+00 0. -1.
<mgrwt>
<rscale>  0 0.17007506E+03</rscale>
<asrwt>0</asrwt>
<pdfrwt beam="2">  1        2 0.47576661E-01 0.17593161E+03</pdfrwt>
<pdfrwt beam="1">  1       -2 0.14594005E-01 0.17593161E+03</pdfrwt>
<totfact> 0.37031016E+03</totfact>
</mgrwt>
</event>
<event>
 6    1  0.7270761E-006  0.2738005E+03  0.7546771E-02  0.1099124E+00
         -3   -1    0    0    0  501 -0.00000000000E+00  0.00000000000E+00  0.27377043441E+03  0.27377043441E+03  0.00000000000E+00 0.  1.
          3   -1    0    0  501    0  0.00000000000E+00 -0.00000000000E+00 -0.68457647665E+02  0.68457647665E+02  0.00000000000E+00 0. -1.
          5    1    1    2  502    0  0.22032776387E+02 -0.24760060742E+02  0.54938003100E+02  0.64333335277E+02  0.47000000000E+01 0. -1.
         -5    1    1    2    0  502 -0.66162858347E+02  0.88062668168E+02  0.94314554256E+02  0.14508577633E+03  0.47000000000E+01 0. -1.
        -11    1    1    2    0    0  0.64055391020E+02 -0.11937357261E+02  0.33610217379E+02  0.73316030507E+02  0.00000000000E+00 0.  1.
         11    1    1    2    0    0 -0.19925309060E+02 -0.51365250164E+02  0.22450012011E+02  0.59492939958E+02  0.00000000000E+00 0. -1.
<mgrwt>
<rscale>  0 0.27380051E+03</rscale>
<asrwt>0</asrwt>
<pdfrwt beam="2">  1        3 0.10531946E-01 0.27380051E+03</pdfrwt>
<pdfrwt beam="1">  1       -3 0.42118528E-01 0.27380051E+03</pdfrwt>
<totfact> 0.96568191E+02</totfact>
</mgrwt>
</event>
<event>
 6    1  0.7270761E-006  0.1942373E+03  0.7546771E-02  0.1157795E+00
         -3   -1    0    0    0  501 -0.00000000000E+00  0.00000000000E+00  0.87617415997E+02  0.87617415997E+02  0.00000000000E+00 0.  1.
          3   -1    0    0  501    0  0.00000000000E+00 -0.00000000000E+00 -0.49530776311E+03  0.49530776311E+03  0.00000000000E+00 0. -1.
          5    1    1    2  502    0 -0.87861775936E+01  0.80909573916E+02 -0.10467462601E+03  0.13267412483E+03  0.47000000000E+01 0. -1.
         -5    1    1    2    0  502  0.51659570137E+01  0.74964963150E+02  0.21981911588E+02  0.78432947471E+02  0.47000000000E+01 0.  1.
        -11    1    1    2    0    0 -0.11967583039E+02  0.50315396771E+01 -0.62259052306E+01  0.14397962747E+02  0.00000000000E+00 0.  1.
         11    1    1    2    0    0  0.15587803619E+02 -0.16090607674E+03 -0.31877172745E+03  0.35742014406E+03  0.00000000000E+00 0. -1.
<mgrwt>
<rscale>  0 0.19074081E+03</rscale>
<asrwt>0</asrwt>
<pdfrwt beam="2">  1        3 0.76201193E-01 0.19423725E+03</pdfrwt>
<pdfrwt beam="1">  1       -3 0.13479603E-01 0.19423725E+03</pdfrwt>
<totfact> 0.18021209E+02</totfact>
</mgrwt>
</event>
<event>
 6    1  0.7270761E-006  0.1401568E+03  0.7546771E-02  0.1221573E+00
         -3   -1    0    0    0  501 -0.00000000000E+00  0.00000000000E+00  0.45726484184E+03  0.45726484184E+03  0.00000000000E+00 0.  1.
          3   -1    0    0  501    0  0.00000000000E+00 -0.00000000000E+00 -0.56354574903E+02  0.56354574903E+02  0.00000000000E+00 0. -1.
          5    1    1    2  502    0 -0.56138805686E+02 -0.29416634725E+02  0.10567555362E+03  0.12331389433E+03  0.47000000000E+01 0. -1.
         -5    1    1    2    0  502 -0.13497328822E+02  0.64763762021E+02  0.25931392525E+03  0.26766083872E+03  0.47000000000E+01 0.  1.
        -11    1    1    2    0    0  0.21004968827E+02  0.18936964199E+02  0.40750986629E+02  0.49603026518E+02  0.00000000000E+00 0.  1.
         11    1    1    2    0    0  0.48631165681E+02 -0.54284091495E+02 -0.48301985570E+01  0.73041657176E+02  0.00000000000E+00 0. -1.
<mgrwt>
<rscale>  0 0.13404604E+03</rscale>
<asrwt>0</asrwt>
<pdfrwt beam="2">  1        3 0.86699349E-02 0.14015678E+03</pdfrwt>
<pdfrwt beam="1">  1       -3 0.70348435E-01 0.14015678E+03</pdfrwt>
<totfact> 0.42926109E+02</totfact>
</mgrwt>
</event>
<event>
 6    1  0.7270761E-006  0.3067468E+03  0.7546771E-02  0.1081916E+00
         -1   -1    0    0    0  501 -0.00000000000E+00  0.00000000000E+00  0.82910628353E+02  0.82910628353E+02  0.00000000000E+00 0.  1.
          1   -1    0    0  501    0  0.00000000000E+00 -0.00000000000E+00 -0.28371998576E+03  0.28371998576E+03  0.00000000000E+00 0. -1.
          5    1    1    2  502    0  0.63150917084E+02 -0.10166060742E+03 -0.51383463238E+02  0.13032754016E+03  0.47000000000E+01 0.  1.
         -5    1    1    2    0  502 -0.42091658698E+02  0.53955968540E+00 -0.19276969905E+02  0.46536979117E+02  0.47000000000E+01 0.  1.
        -11    1    1    2    0    0 -0.42385106318E+02  0.55342504043E+02 -0.26697985460E+02  0.74646315508E+02  0.00000000000E+00 0.  1.
         11    1    1    2    0    0  0.21325847932E+02  0.45778543694E+02 -0.10345093881E+03  0.11511977933E+03  0.00000000000E+00 0. -1.
<mgrwt>
<rscale>  0 0.30674682E+03</rscale>
<asrwt>0</asrwt>
<pdfrwt beam="2">  1        1 0.43649228E-01 0.30674682E+03</pdfrwt>
<pdfrwt beam="1">  1       -1 0.12755481E-01 0.30674682E+03</pdfrwt>
<totfact> 0.39074187E+03</totfact>
</mgrwt>
</event>
<event>
 6    1  0.7270761E-006  0.1268554E+03  0.7546771E-02  0.1236944E+00
         -2   -1    0    0    0  501 -0.00000000000E+00  0.00000000000E+00  0.32595419395E+02  0.32595419395E+02  0.00000000000E+00 0.  1.
          2   -1    0    0  501    0  0.00000000000E+00 -0.00000000000E+00 -0.53918994186E+03  0.53918994186E+03  0.00000000000E+00 0. -1.
          5    1    1    2  502    0  0.48101597120E+02  0.24006760767E+02 -0.14321839704E+03  0.15304799071E+03  0.47000000000E+01 0. -1.
         -5    1    1    2    0  502 -0.40328622693E+02 -0.36918840040E+01 -0.35177511796E+01  0.40920561936E+02  0.47000000000E+01 0. -1.
        -11    1    1    2    0    0  0.16907838984E+00  0.47156064188E+02 -0.14910881286E+03  0.15638785454E+03  0.00000000000E+00 0. -1.
         11    1    1    2    0    0 -0.79420528168E+01 -0.67470940950E+02 -0.21074956139E+03  0.22142895407E+03  0.00000000000E+00 0.  1.
<mgrwt>
<rscale>  0 0.12380795E+03</rscale>
<asrwt>0</asrwt>
<pdfrwt beam="2">  1        2 0.82952289E-01 0.12685544E+03</pdfrwt>
<pdfrwt beam="1">  1       -2 0.50146805E-02 0.12685544E+03</pdfrwt>
<totfact> 0.10553665E+04</totfact>
</mgrwt>
</event>
<event>
 6    1  0.7270761E-006  0.1708258E+03  0.7546771E-02  0.1183394E+00
          2   -1    0    0  501    0  0.00000000000E+00  0.00000000000E+00  0.20025721292E+03  0.20025721292E+03  0.00000000000E+00 0. -1.
         -2   -1    0    0    0  501 -0.00000000000E+00 -0.00000000000E+00 -0.13624919064E+03  0.13624919064E+03  0.00000000000E+00 0.  1.
          5    1    1    2  502    0 -0.40698987215E+02  0.12592558136E+02 -0.54890471647E+02  0.69642185192E+02  0.47000000000E+01 0. -1.
         -5    1    1    2    0  502 -0.63065236277E+02 -0.65413801440E+02  0.44929384346E+02  0.10147378491E+03  0.47000000000E+01 0. -1.
        -11    1    1    2    0    0  0.72606644082E+02  0.89365662294E+01  0.83196343736E+02  0.11078455936E+03  0.00000000000E+00 0.  1.
         11    1    1    2    0    0  0.31157579410E+02  0.43884677074E+02 -0.92272341481E+01  0.54605874104E+02  0.00000000000E+00 0. -1.
<mgrwt>
<rscale>  0 0.16478868E+03</rscale>
<asrwt>0</asrwt>
<pdfrwt beam="1">  1        2 0.30808802E-01 0.17082579E+03</pdfrwt>
<pdfrwt beam="2">  1       -2 0.20961414E-01 0.17082579E+03</pdfrwt>
<totfact> 0.32191069E+03</totfact>
</mgrwt>
</event>
<event>
 6    1  0.7270761E-006  0.1285165E+03  0.7546771E-02  0.1243144E+00
          1   -1    0    0  501    0  0.00000000000E+00  0.00000000000E+00  0.72828039121E+03  0.72828039121E+03  0.00000000000E+00 0. -1.
         -1   -1    0    0    0  501 -0.00000000000E+00 -0.00000000000E+00 -0.19958632109E+02  0.19958632109E+02  0.00000000000E+00 0.  1.
          5    1    1    2  502    0 -0.25232253744E+02 -0.40017746892E+02  0.14050579233E+03  0.14833089487E+03  0.47000000000E+01 0. -1.
         -5    1    1    2    0  502  0.46146646460E+02  0.61321128229E+02  0.12736936043E+03  0.14877781327E+03  0.47000000000E+01 0. -1.
        -11    1    1    2    0    0 -0.13669709583E+02 -0.55618516664E+02  0.33871219955E+03  0.34352035527E+03  0.00000000000E+00 0. -1.
         11    1    1    2    0    0 -0.72446831328E+01  0.34315135327E+02  0.10173440679E+03  0.10760995991E+03  0.00000000000E+00 0.  1.
<mgrwt>
<rscale>  0 0.11997182E+03</rscale>
<asrwt>0</asrwt>
<pdfrwt beam="1">  1        1 0.11204312E+00 0.12851649E+03</pdfrwt>
<pdfrwt beam="2">  1       -1 0.30705593E-02 0.12851649E+03</pdfrwt>
<totfact> 0.92667810E+03</totfact>
</mgrwt>
</event>
<event>
 6    1  0.7270761E-006  0.1616052E+03  0.7546771E-02  0.1194433E+00
          3   -1    0    0  501    0  0.00000000000E+00  0.00000000000E+00  0.43636683234E+02  0.43636683234E+02  0.00000000000E+00 0. -1.
         -3   -1    0    0    0  501 -0.00000000000E+00 -0.00000000000E+00 -0.54896446290E+03  0.54896446290E+03  0.00000000000E+00 0.  1.
          5    1    1    2  502    0 -0.30787298412E+02  0.49808399702E+01 -0.50639712583E+02  0.59658503173E+02  0.47000000000E+01 0.  1.
         -5    1    1    2    0  502  0.12107113178E+03  0.43324710266E+02 -0.29990105769E+03  0.32634028846E+03  0.47000000000E+01 0.  1.
        -11    1    1    2    0    0 -0.82643573486E+02 -0.73272144667E+02 -0.11975853908E+03  0.16291370447E+03  0.00000000000E+00 0.  1.
         11    1    1    2    0    0 -0.76402598850E+01  0.24966594431E+02 -0.35028470317E+02  0.43688650029E+02  0.00000000000E+00 0. -1.
<mgrwt>
<rscale>  0 0.15502284E+03</rscale>
<asrwt>0</asrwt>
<pdfrwt beam="1">  1        3 0.67133360E-02 0.16160518E+03</pdfrwt>
<pdfrwt beam="2">  1       -3 0.84456070E-01 0.16160518E+03</pdfrwt>
<totfact> 0.44679230E+02</totfact>
</mgrwt>
</event>
<event>
 6    1  0.7270761E-006  0.2703834E+03  0.7546771E-02  0.1101060E+00
          3   -1    0    0  501    0  0.00000000000E+00  0.00000000000E+00  0.74533249679E+02  0.74533249679E+02  0.00000000000E+00 0. -1.
         -3   -1    0    0    0  501 -0.00000000000E+00 -0.00000000000E+00 -0.24521676230E+03  0.24521676230E+03  0.00000000000E+00 0.  1.
          5    1    1    2  502    0  0.85137641248E+02 -0.53881181607E+02 -0.11324243552E+03  0.15164939463E+03  0.47000000000E+01 0. -1.
         -5    1    1    2    0  502 -0.23410021057E+02  0.30928420645E+01  0.13026895390E+02  0.27374892903E+02  0.47000000000E+01 0. -1.
        -11    1    1    2    0    0 -0.28773932068E+02 -0.15635308296E+02  0.70036914411E+01  0.33488113204E+02  0.00000000000E+00 0. -1.
         11    1    1    2    0    0 -0.32953688123E+02  0.66423647838E+02 -0.77471663933E+02  0.10723761125E+03  0.00000000000E+00 0.  1.
<mgrwt>
<rscale>  0 0.27038345E+03</rscale>
<asrwt>0</asrwt>
<pdfrwt beam="1">  1        3 0.11466654E-01 0.27038345E+03</pdfrwt>
<pdfrwt beam="2">  1       -3 0.37725656E-01 0.27038345E+03</pdfrwt>
<totfact> 0.10356562E+03</totfact>
</mgrwt>
</event>
<event>
 6    1  0.7270761E-006  0.1283125E+03  0.7546771E-02  0.1237636E+00
          2   -1    0    0  501    0  0.00000000000E+00  0.00000000000E+00  0.23197624731E+03  0.23197624731E+03  0.00000000000E+00 0.  1.
         -2   -1    0    0    0  501 -0.00000000000E+00 -0.00000000000E+00 -0.64678298582E+02  0.64678298582E+02  0.00000000000E+00 0. -1.
          5    1    1    2  502    0  0.41574099512E+02  0.42748593614E+02  0.65348056884E+02  0.88590668497E+02  0.47000000000E+01 0. -1.
         -5    1    1    2    0  502 -0.13135585702E+02 -0.47785485100E+02 -0.10628602425E+02  0.50902390784E+02  0.47000000000E+01 0. -1.
        -11    1    1    2    0    0 -0.36815462511E+02  0.47330436561E+02  0.90918107682E+02  0.10891120608E+03  0.00000000000E+00 0.  1.
         11    1    1    2    0    0  0.83769487014E+01 -0.42293545075E+02  0.21660386586E+02  0.48250280534E+02  0.00000000000E+00 0. -1.
<mgrwt>
<rscale>  0 0.12337183E+03</rscale>
<asrwt>0</asrwt>
<pdfrwt beam="1">  1        2 0.35688653E-01 0.12831249E+03</pdfrwt>
<pdfrwt beam="2">  1       -2 0.99505076E-02 0.12831249E+03</pdfrwt>
<totfact> 0.91190142E+03</totfact>
</mgrwt>
</event>
<event>
 6    1  0.7270761E-006  0.1488654E+03  0.7546771E-02  0.1210811E+00
          1   -1    0    0  501    0  0.00000000000E+00  0.00000000000E+00  0.22663855771E+03  0.22663855771E+03  0.00000000000E+00 0. -1.
         -1   -1    0    0    0  501 -0.00000000000E+00 -0.00000000000E+00 -0.82709935262E+02  0.82709935262E+02  0.00000000000E+00 0.  1.
          5    1    1    2  502    0  0.37853974475E+02  0.13816033667E+02  0.34485254726E+02  0.53245929078E+02  0.47000000000E+01 0. -1.
         -5    1    1    2    0  502 -0.43604240599E+02 -0.94448333334E+02  0.25208413312E+02  0.10714182922E+03  0.47000000000E+01 0. -1.
        -11    1    1    2    0    0  0.17648356913E+02  0.89296489637E+02  0.94351164279E+02  0.13110099071E+03  0.00000000000E+00 0. -1.
         11    1    1    2    0    0 -0.11898090789E+02 -0.86641899701E+01 -0.10116209871E+02  0.17859743963E+02  0.00000000000E+00 0.  1.
<mgrwt>
<rscale>  0 0.14188778E+03</rscale>
<asrwt>0</asrwt>
<pdfrwt beam="1">  1        1 0.34867470E-01 0.14886537E+03</pdfrwt>
<pdfrwt beam="2">  1       -1 0.12724605E-01 0.14886537E+03</pdfrwt>
<totfact> 0.50264268E+03</totfact>
</mgrwt>
</event>
<event>
 6    1  0.7270761E-006  0.1285297E+03  0.7546771E-02  0.1242263E+00
         -1   -1    0    0    0  501 -0.00000000000E+00  0.00000000000E+00  0.11296099835E+03  0.11296099835E+03  0.00000000000E+00 0.  1.
          1   -1    0    0  501    0  0.00000000000E+00 -0.00000000000E+00 -0.11816097534E+03  0.11816097534E+03  0.00000000000E+00 0. -1.
          5    1    1    2  502    0 -0.37994993361E+02  0.18450566740E+02 -0.37853755659E+02  0.56912562330E+02  0.47000000000E+01 0. -1.
         -5    1    1    2    0  502  0.21454181426E+02 -0.43334598155E+02  0.53982932034E+02  0.72625176413E+02  0.47000000000E+01 0. -1.
        -11    1    1    2    0    0  0.11648953103E+02 -0.34383703284E+02  0.48159853895E+01  0.36621453756E+02  0.00000000000E+00 0.  1.
         11    1    1    2    0    0  0.48918588318E+01  0.59267734700E+02 -0.26145138761E+02  0.64962781191E+02  0.00000000000E+00 0. -1.
<mgrwt>
<rscale>  0 0.12050679E+03</rscale>
<asrwt>0</asrwt>
<pdfrwt beam="2">  1        1 0.18178612E-01 0.12852967E+03</pdfrwt>
<pdfrwt beam="1">  1       -1 0.17378615E-01 0.12852967E+03</pdfrwt>
<totfact> 0.69241019E+03</totfact>
</mgrwt>
</event>
<event>
 6    1  0.7270761E-006  0.1616287E+03  0.7546771E-02  0.1194864E+00
          2   -1    0    0  501    0  0.00000000000E+00  0.00000000000E+00  0.77493876800E+03  0.77493876800E+03  0.00000000000E+00 0. -1.
         -2   -1    0    0    0  501 -0.00000000000E+00 -0.00000000000E+00 -0.29077355307E+02  0.29077355307E+02  0.00000000000E+00 0.  1.
          5    1    1    2  502    0  0.10025002728E+03 -0.37389915130E+02  0.29265696710E+03  0.31163803381E+03  0.47000000000E+01 0.  1.
         -5    1    1    2    0  502  0.19389791975E+01  0.45808441428E+02  0.55033336301E+02  0.71783919166E+02  0.47000000000E+01 0.  1.
        -11    1    1    2    0    0 -0.41398169590E+02 -0.45395643769E+00  0.41240740341E+02  0.58436402916E+02  0.00000000000E+00 0.  1.
         11    1    1    2    0    0 -0.60790836886E+02 -0.79645698606E+01  0.35693036895E+03  0.36215776742E+03  0.00000000000E+00 0. -1.
<mgrwt>
<rscale>  0 0.15465740E+03</rscale>
<asrwt>0</asrwt>
<pdfrwt beam="1">  1        2 0.11922133E+00 0.16162873E+03</pdfrwt>
<pdfrwt beam="2">  1       -2 0.44734399E-02 0.16162873E+03</pdfrwt>
<totfact> 0.83297106E+03</totfact>
</mgrwt>
</event>
<event>
 6    1  0.7270761E-006  0.1315788E+03  0.7546771E-02  0.1238267E+00
          2   -1    0    0  501    0  0.00000000000E+00  0.00000000000E+00  0.10848429249E+03  0.10848429249E+03  0.00000000000E+00 0.  1.
         -2   -1    0    0    0  501 -0.00000000000E+00 -0.00000000000E+00 -0.12995273200E+03  0.12995273200E+03  0.00000000000E+00 0. -1.
          5    1    1    2  502    0 -0.26759429806E+02  0.42424727261E+02 -0.78084610404E+02  0.92925889550E+02  0.47000000000E+01 0.  1.
         -5    1    1    2    0  502 -0.39608680279E+01 -0.15142907319E+02  0.40701830442E+02  0.43860290912E+02  0.47000000000E+01 0.  1.
        -11    1    1    2    0    0 -0.12815917674E+02  0.37659265346E+00 -0.29981957158E+02  0.32608393443E+02  0.00000000000E+00 0. -1.
         11    1    1    2    0    0  0.43536215509E+02 -0.27658412596E+02  0.45896297609E+02  0.69042450582E+02  0.00000000000E+00 0.  1.
<mgrwt>
<rscale>  0 0.12297592E+03</rscale>
<asrwt>0</asrwt>
<pdfrwt beam="1">  1        2 0.16689891E-01 0.13157882E+03</pdfrwt>
<pdfrwt beam="2">  1       -2 0.19992728E-01 0.13157882E+03</pdfrwt>
<totfact> 0.68214882E+03</totfact>
</mgrwt>
</event>
<event>
 6    1  0.7270761E-006  0.3109920E+03  0.7546771E-02  0.1121603E+00
         -1   -1    0    0    0  501 -0.00000000000E+00  0.00000000000E+00  0.62386440092E+02  0.62386440092E+02  0.00000000000E+00 0.  1.
          1   -1    0    0  501    0  0.00000000000E+00 -0.00000000000E+00 -0.73760233184E+03  0.73760233184E+03  0.00000000000E+00 0. -1.
          5    1    1    2  502    0 -0.74733414673E+02  0.10547097184E+03 -0.21597932283E+03  0.25175060488E+03  0.47000000000E+01 0. -1.
         -5    1    1    2    0  502  0.76656338086E+02 -0.15985281457E+03 -0.19414924107E+03  0.26295462404E+03  0.47000000000E+01 0.  1.
        -11    1    1    2    0    0 -0.14921448359E+01 -0.21582737208E+02 -0.23083505800E+02  0.31636834254E+02  0.00000000000E+00 0. -1.
         11    1    1    2    0    0 -0.43077857795E+00  0.75964579943E+02 -0.24200382205E+03  0.25364670876E+03  0.00000000000E+00 0.  1.
<mgrwt>
<rscale>  0 0.23730266E+03</rscale>
<asrwt>0</asrwt>
<pdfrwt beam="2">  1        1 0.11347729E+00 0.31099202E+03</pdfrwt>
<pdfrwt beam="1">  1       -1 0.95979131E-02 0.31099202E+03</pdfrwt>
<totfact> 0.16953833E+03</totfact>
</mgrwt>
</event>
<event>
 6    1  0.7270761E-006  0.1341804E+03  0.7546771E-02  0.1233735E+00
         -1   -1    0    0    0  501 -0.00000000000E+00  0.00000000000E+00  0.10632414472E+03  0.10632414472E+03  0.00000000000E+00 0.  1.
          1   -1    0    0  501    0  0.00000000000E+00 -0.00000000000E+00 -0.15089605352E+03  0.15089605352E+03  0.00000000000E+00 0. -1.
          5    1    1    2  502    0  0.80792140816E+01  0.45326584333E+02  0.60869059811E+02  0.76465059927E+02  0.47000000000E+01 0.  1.
         -5    1    1    2    0  502 -0.40318654806E+02 -0.87129818101E+01 -0.41976071068E+02  0.59038889892E+02  0.47000000000E+01 0.  1.
        -11    1    1    2    0    0 -0.32257972276E+02 -0.12168764090E+02 -0.26326158437E+02  0.43378822171E+02  0.00000000000E+00 0.  1.
         11    1    1    2    0    0  0.64497413000E+02 -0.24444838432E+02 -0.37138739106E+02  0.78337426254E+02  0.00000000000E+00 0. -1.
<mgrwt>
<rscale>  0 0.12585765E+03</rscale>
<asrwt>0</asrwt>
<pdfrwt beam="2">  1        1 0.23214778E-01 0.13418038E+03</pdfrwt>
<pdfrwt beam="1">  1       -1 0.16357561E-01 0.13418038E+03</pdfrwt>
<totfact> 0.56047810E+03</totfact>
</mgrwt>
</event>
<event>
 6    1  0.7270761E-006  0.1250062E+03  0.7546771E-02  0.1250469E+00
          1   -1    0    0  501    0  0.00000000000E+00  0.00000000000E+00  0.65420932621E+02  0.65420932621E+02  0.00000000000E+00 0. -1.
         -1   -1    0    0    0  501 -0.00000000000E+00 -0.00000000000E+00 -0.20586015664E+03  0.20586015664E+03  0.00000000000E+00 0.  1.
          5    1    1    2  502    0 -0.33162646813E+02 -0.89508763810E+01 -0.13742887541E+03  0.14173448814E+03  0.47000000000E+01 0.  1.
         -5    1    1    2    0  502  0.34504979380E+02  0.88522871534E+01  0.94626394045E+01  0.37156266421E+02  0.47000000000E+01 0.  1.
        -11    1    1    2    0    0  0.10771582334E+02  0.28434385596E+02  0.28126245350E+02  0.41420127326E+02  0.00000000000E+00 0. -1.
         11    1    1    2    0    0 -0.12113914901E+02 -0.28335796369E+02 -0.40599233359E+02  0.50970207371E+02  0.00000000000E+00 0.  1.
<mgrwt>
<rscale>  0 0.11563963E+03</rscale>
<asrwt>0</asrwt>
<pdfrwt beam="1">  1        1 0.10064759E-01 0.12500618E+03</pdfrwt>
<pdfrwt beam="2">  1       -1 0.31670793E-01 0.12500618E+03</pdfrwt>
<totfact> 0.55993218E+03</totfact>
</mgrwt>
</event>
<event>
 6    1  0.7270761E-006  0.1375919E+03  0.7546771E-02  0.1226929E+00
          2   -1    0    0  501    0  0.00000000000E+00  0.00000000000E+00  0.10394750698E+03  0.10394750698E+03  0.00000000000E+00 0. -1.
         -2   -1    0    0    0  501 -0.00000000000E+00 -0.00000000000E+00 -0.17393828500E+03  0.17393828500E+03  0.00000000000E+00 0.  1.
          5    1    1    2  502    0  0.38687071592E+02 -0.20352420267E+01 -0.12191167824E+03  0.12800538664E+03  0.47000000000E+01 0.  1.
         -5    1    1    2    0  502  0.17686265453E+02 -0.94353824546E+01  0.30778598148E+02  0.37030292083E+02  0.47000000000E+01 0.  1.
        -11    1    1    2    0    0 -0.52282140310E+02 -0.17344125153E+02 -0.23232369189E+02  0.59782805646E+02  0.00000000000E+00 0.  1.
         11    1    1    2    0    0 -0.40911967351E+01  0.28814749635E+02  0.44374671263E+02  0.53067307610E+02  0.00000000000E+00 0. -1.
<mgrwt>
<rscale>  0 0.13035585E+03</rscale>
<asrwt>0</asrwt>
<pdfrwt beam="1">  1        2 0.15991924E-01 0.13759192E+03</pdfrwt>
<pdfrwt beam="2">  1       -2 0.26759736E-01 0.13759192E+03</pdfrwt>
<totfact> 0.43456354E+03</totfact>
</mgrwt>
</event>
<event>
 6    1  0.7270761E-006  0.2579562E+03  0.7546771E-02  0.1108377E+00
         -2   -1    0    0    0  501 -0.00000000000E+00  0.00000000000E+00  0.14688846477E+02  0.14688846477E+02  0.00000000000E+00 0.  1.
          2   -1    0    0  501    0  0.00000000000E+00 -0.00000000000E+00 -0.11325156772E+04  0.11325156772E+04  0.00000000000E+00 0. -1.
          5    1    1    2  502    0 -0.78015410227E+00  0.43152440772E+01 -0.46775851470E+03  0.46780268067E+03  0.47000000000E+01 0. -1.
         -5    1    1    2    0  502 -0.70808675138E+02 -0.13463783271E+02 -0.14851316008E+03  0.16514657324E+03  0.47000000000E+01 0. -1.
        -11    1    1    2    0    0  0.36781934664E+02  0.48057897758E+02 -0.30045021066E+03  0.30648458581E+03  0.00000000000E+00 0.  1.
         11    1    1    2    0    0  0.34806894575E+02 -0.38909358564E+02 -0.20110494532E+03  0.20777068399E+03  0.00000000000E+00 0. -1.
<mgrwt>
<rscale>  0 0.25795619E+03</rscale>
<asrwt>0</asrwt>
<pdfrwt beam="2">  1        2 0.17423323E+00 0.25795619E+03</pdfrwt>
<pdfrwt beam="1">  1       -2 0.22598219E-02 0.25795619E+03</pdfrwt>
<totfact> 0.14047818E+04</totfact>
</mgrwt>
</event>
<event>
 6    1  0.7270761E-006  0.2479687E+03  0.7546771E-02  0.1117310E+00
         -2   -1    0    0    0  501 -0.00000000000E+00  0.00000000000E+00  0.38597750446E+02  0.38597750446E+02  0.00000000000E+00 0.  1.
          2   -1    0    0  501    0  0.00000000000E+00 -0.00000000000E+00 -0.14926129755E+04  0.14926129755E+04  0.00000000000E+00 0. -1.
          5    1    1    2  502    0 -0.18813788413E+03 -0.12366897450E+03 -0.68721711496E+03  0.72317309946E+03  0.47000000000E+01 0.  1.
         -5    1    1    2    0  502  0.17689869221E+02 -0.59884832647E+01 -0.29518119814E+02  0.35244897534E+02  0.47000000000E+01 0.  1.
        -11    1    1    2    0    0  0.11392772220E+03  0.12976670037E+03 -0.59938806369E+03  0.62376676194E+03  0.00000000000E+00 0. -1.
         11    1    1    2    0    0  0.56520292704E+02 -0.10924260998E+00 -0.13789192655E+03  0.14902596697E+03  0.00000000000E+00 0.  1.
<mgrwt>
<rscale>  0 0.24376445E+03</rscale>
<asrwt>0</asrwt>
<pdfrwt beam="2">  1        2 0.22963277E+00 0.24796867E+03</pdfrwt>
<pdfrwt beam="1">  1       -2 0.59381155E-02 0.24796867E+03</pdfrwt>
<totfact> 0.20720845E+03</totfact>
</mgrwt>
</event>
<event>
 6    1  0.7270761E-006  0.1283696E+03  0.7546771E-02  0.1243977E+00
          1   -1    0    0  501    0  0.00000000000E+00  0.00000000000E+00  0.36956369122E+03  0.36956369122E+03  0.00000000000E+00 0. -1.
         -1   -1    0    0    0  501 -0.00000000000E+00 -0.00000000000E+00 -0.39523502838E+02  0.39523502838E+02  0.00000000000E+00 0.  1.
          5    1    1    2  502    0 -0.56645839637E+02  0.25142078850E+02  0.70109275404E+02  0.93692453137E+02  0.47000000000E+01 0. -1.
         -5    1    1    2    0  502  0.40433731578E+02 -0.49411864874E+02  0.40478151136E+02  0.75742918870E+02  0.47000000000E+01 0. -1.
        -11    1    1    2    0    0  0.44074196173E+02  0.29930764360E+02  0.72478486788E+02  0.89952856934E+02  0.00000000000E+00 0.  1.
         11    1    1    2    0    0 -0.27862088114E+02 -0.56609783361E+01  0.14697427505E+03  0.14969896512E+03  0.00000000000E+00 0. -1.
<mgrwt>
<rscale>  0 0.11946814E+03</rscale>
<asrwt>0</asrwt>
<pdfrwt beam="1">  1        1 0.56855950E-01 0.12836965E+03</pdfrwt>
<pdfrwt beam="2">  1       -1 0.60805391E-02 0.12836965E+03</pdfrwt>
<totfact> 0.83266978E+03</totfact>
</mgrwt>
</event>
<event>
 6    1  0.7270761E-006  0.2673459E+03  0.7546771E-02  0.1102808E+00
          2   -1    0    0  501    0  0.00000000000E+00  0.00000000000E+00  0.10646338476E+04  0.10646338476E+04  0.00000000000E+00 0. -1.
         -2   -1    0    0    0  501 -0.00000000000E+00 -0.00000000000E+00 -0.16783667032E+02  0.16783667032E+02  0.00000000000E+00 0.  1.
          5    1    1    2  502    0  0.50146642149E+01  0.19829752957E+01  0.33801272864E+03  0.33808841117E+03  0.47000000000E+01 0. -1.
         -5    1    1    2    0  502  0.53687903400E+02  0.17221520766E+02  0.54926048405E+02  0.78853868277E+02  0.47000000000E+01 0. -1.
        -11    1    1    2    0    0 -0.78983445492E+02  0.68859150277E+01  0.46437355297E+03  0.47109298147E+03  0.00000000000E+00 0.  1.
         11    1    1    2    0    0  0.20280877877E+02 -0.26090411089E+02  0.19053785057E+03  0.19338225373E+03  0.00000000000E+00 0. -1.
<mgrwt>
<rscale>  0 0.26734592E+03</rscale>
<asrwt>0</asrwt>
<pdfrwt beam="1">  1        2 0.16378977E+00 0.26734592E+03</pdfrwt>
<pdfrwt beam="2">  1       -2 0.25821035E-02 0.26734592E+03</pdfrwt>
<totfact> 0.12660523E+04</totfact>
</mgrwt>
</event>
<event>
 6    1  0.7270761E-006  0.2817562E+03  0.7546771E-02  0.1094734E+00
          2   -1    0    0  501    0  0.00000000000E+00  0.00000000000E+00  0.32786362229E+03  0.32786362229E+03  0.00000000000E+00 0.  1.
         -2   -1    0    0    0  501 -0.00000000000E+00 -0.00000000000E+00 -0.60533197263E+02  0.60533197263E+02  0.00000000000E+00 0. -1.
          5    1    1    2  502    0  0.80304154865E+02  0.50681170170E+02  0.90252403386E+02  0.13109128352E+03  0.47000000000E+01 0. -1.
         -5    1    1    2    0  502 -0.56489599957E+01 -0.34059761397E+02 -0.96533323269E+01  0.36155980425E+02  0.47000000000E+01 0. -1.
        -11    1    1    2    0    0 -0.51860023273E+02  0.21155910875E+02  0.16009767304E+03  0.16961220325E+03  0.00000000000E+00 0.  1.
         11    1    1    2    0    0 -0.22795171596E+02 -0.37777319649E+02  0.26633680925E+02  0.51537352353E+02  0.00000000000E+00 0. -1.
<mgrwt>
<rscale>  0 0.28175616E+03</rscale>
<asrwt>0</asrwt>
<pdfrwt beam="1">  1        2 0.50440556E-01 0.28175616E+03</pdfrwt>
<pdfrwt beam="2">  1       -2 0.93127998E-02 0.28175616E+03</pdfrwt>
<totfact> 0.73358088E+03</totfact>
</mgrwt>
</event>
<event>
 6    1  0.7270761E-006  0.2958762E+03  0.7546771E-02  0.1101714E+00
          3   -1    0    0  501    0  0.00000000000E+00  0.00000000000E+00  0.78551249050E+03  0.78551249050E+03  0.00000000000E+00 0. -1.
         -3   -1    0    0    0  501 -0.00000000000E+00 -0.00000000000E+00 -0.90850509161E+02  0.90850509161E+02  0.00000000000E+00 0.  1.
          5    1    1    2  502    0  0.18131596181E+03 -0.72798652726E+02  0.24682166454E+03  0.31483034468E+03  0.47000000000E+01 0. -1.
         -5    1    1    2    0  502 -0.32722634641E+00  0.71724880351E+02  0.22337314326E+01  0.71914150864E+02  0.47000000000E+01 0.  1.
        -11    1    1    2    0    0 -0.13547596528E+03  0.34876043782E+02  0.25614403111E+03  0.29185585529E+03  0.00000000000E+00 0.  1.
         11    1    1    2    0    0 -0.45512770179E+02 -0.33802271407E+02  0.18946255426E+03  0.19776264882E+03  0.00000000000E+00 0. -1.
<mgrwt>
<rscale>  0 0.26924231E+03</rscale>
<asrwt>0</asrwt>
<pdfrwt beam="1">  1        3 0.12084807E+00 0.29587618E+03</pdfrwt>
<pdfrwt beam="2">  1       -3 0.13977002E-01 0.29587618E+03</pdfrwt>
<totfact> 0.61344889E+01</totfact>
</mgrwt>
</event>
<event>
 6    1  0.7270761E-006  0.1257117E+03  0.7546771E-02  0.1249547E+00
          1   -1    0    0  501    0  0.00000000000E+00  0.00000000000E+00  0.26979282878E+03  0.26979282878E+03  0.00000000000E+00 0. -1.
         -1   -1    0    0    0  501 -0.00000000000E+00 -0.00000000000E+00 -0.44994395754E+02  0.44994395754E+02  0.00000000000E+00 0.  1.
          5    1    1    2  502    0  0.42207559968E+02 -0.27284732458E+02  0.22052691216E+01  0.50526111623E+02  0.47000000000E+01 0. -1.
         -5    1    1    2    0  502 -0.31929563521E+02  0.35693803874E+02  0.10191782213E+03  0.11270704117E+03  0.47000000000E+01 0. -1.
        -11    1    1    2    0    0  0.13178773417E+02 -0.45587639024E+02  0.56816851689E+02  0.74027478253E+02  0.00000000000E+00 0.  1.
         11    1    1    2    0    0 -0.23456769864E+02  0.37178567608E+02  0.63858490083E+02  0.77526593486E+02  0.00000000000E+00 0. -1.
<mgrwt>
<rscale>  0 0.11617327E+03</rscale>
<asrwt>0</asrwt>
<pdfrwt beam="1">  1        1 0.41506588E-01 0.12571175E+03</pdfrwt>
<pdfrwt beam="2">  1       -1 0.69222149E-02 0.12571175E+03</pdfrwt>
<totfact> 0.10117564E+04</totfact>
</mgrwt>
</event>
<event>
 6    1  0.7270761E-006  0.1268695E+03  0.7546771E-02  0.1248033E+00
         -2   -1    0    0    0  501 -0.00000000000E+00  0.00000000000E+00  0.42231142484E+02  0.42231142484E+02  0.00000000000E+00 0. -1.
          2   -1    0    0  501    0  0.00000000000E+00 -0.00000000000E+00 -0.30087010986E+03  0.30087010986E+03  0.00000000000E+00 0.  1.
          5    1    1    2  502    0 -0.13577095301E+02  0.44138386792E+02 -0.61514841731E+01  0.46823770277E+02  0.47000000000E+01 0.  1.
         -5    1    1    2    0  502  0.30805777309E+01 -0.62822288810E+02 -0.10180917152E+03  0.11976363111E+03  0.47000000000E+01 0.  1.
        -11    1    1    2    0    0 -0.34156275598E+02 -0.47213220343E+01 -0.96652255981E+02  0.10261871482E+03  0.00000000000E+00 0.  1.
         11    1    1    2    0    0  0.44652793168E+02  0.23405224052E+02 -0.54026055696E+02  0.73895136137E+02  0.00000000000E+00 0. -1.
<mgrwt>
<rscale>  0 0.11705645E+03</rscale>
<asrwt>0</asrwt>
<pdfrwt beam="2">  1        2 0.46287708E-01 0.12686946E+03</pdfrwt>
<pdfrwt beam="1">  1       -2 0.64970990E-02 0.12686946E+03</pdfrwt>
<totfact> 0.13348205E+04</totfact>
</mgrwt>
</event>
<event>
 6    1  0.7270761E-006  0.1283752E+03  0.7546771E-02  0.1244298E+00
         -1   -1    0    0    0  501 -0.00000000000E+00  0.00000000000E+00  0.18551741520E+03  0.18551741520E+03  0.00000000000E+00 0.  1.
          1   -1    0    0  501    0  0.00000000000E+00 -0.00000000000E+00 -0.67683365242E+02  0.67683365242E+02  0.00000000000E+00 0. -1.
          5    1    1    2  502    0  0.36717322437E+02  0.28784847982E+02 -0.15597138558E+01  0.46917501507E+02  0.47000000000E+01 0.  1.
         -5    1    1    2    0  502 -0.36313457291E+02 -0.58027045669E+02  0.72228445312E+02  0.99623508881E+02  0.47000000000E+01 0.  1.
        -11    1    1    2    0    0 -0.33609798153E+02 -0.16574382240E+02  0.28485501787E+02  0.47071780194E+02  0.00000000000E+00 0.  1.
         11    1    1    2    0    0  0.33205933007E+02  0.45816579927E+02  0.18679816714E+02  0.59587989859E+02  0.00000000000E+00 0. -1.
<mgrwt>
<rscale>  0 0.11927485E+03</rscale>
<asrwt>0</asrwt>
<pdfrwt beam="2">  1        1 0.10412825E-01 0.12837522E+03</pdfrwt>
<pdfrwt beam="1">  1       -1 0.28541141E-01 0.12837522E+03</pdfrwt>
<totfact> 0.63865600E+03</totfact>
</mgrwt>
</event>
<event>
 6    1  0.7270761E-006  0.3235446E+03  0.7546771E-02  0.1074029E+00
          3   -1    0    0  501    0  0.00000000000E+00  0.00000000000E+00  0.61077297280E+02  0.61077297280E+02  0.00000000000E+00 0. -1.
         -3   -1    0    0    0  501 -0.00000000000E+00 -0.00000000000E+00 -0.42847798237E+03  0.42847798237E+03  0.00000000000E+00 0.  1.
          5    1    1    2  502    0 -0.38294179989E+01  0.15979558778E+01 -0.18130820263E+03  0.18141657103E+03  0.47000000000E+01 0. -1.
         -5    1    1    2    0  502 -0.36666982742E+02 -0.97336703662E+02 -0.10523175758E+03  0.14803619256E+03  0.47000000000E+01 0. -1.
        -11    1    1    2    0    0 -0.25381728389E+02  0.33968056606E+02 -0.60503847589E+01  0.42833026526E+02  0.00000000000E+00 0. -1.
         11    1    1    2    0    0  0.65878129130E+02  0.61770691178E+02 -0.74810340118E+02  0.11726948953E+03  0.00000000000E+00 0.  1.
<mgrwt>
<rscale>  0 0.32354460E+03</rscale>
<asrwt>0</asrwt>
<pdfrwt beam="1">  1        3 0.93965070E-02 0.32354460E+03</pdfrwt>
<pdfrwt beam="2">  1       -3 0.65919691E-01 0.32354460E+03</pdfrwt>
<totfact> 0.47614139E+02</totfact>
</mgrwt>
</event>
<event>
 6    1  0.7270761E-006  0.1415415E+03  0.7546771E-02  0.1218359E+00
          1   -1    0    0  501    0  0.00000000000E+00  0.00000000000E+00  0.10958892424E+03  0.10958892424E+03  0.00000000000E+00 0. -1.
         -1   -1    0    0    0  501 -0.00000000000E+00 -0.00000000000E+00 -0.16131467422E+03  0.16131467422E+03  0.00000000000E+00 0.  1.
          5    1    1    2  502    0  0.13612806830E+02  0.24968260732E+02  0.10811527208E+02  0.30784763672E+02  0.47000000000E+01 0. -1.
         -5    1    1    2    0  502  0.16852580156E+02 -0.10188262071E+03 -0.57318516314E+02  0.11820143897E+03  0.47000000000E+01 0.  1.
        -11    1    1    2    0    0  0.16394513559E+02 -0.10674544774E+02  0.90614982799E+01  0.21560072635E+02  0.00000000000E+00 0.  1.
         11    1    1    2    0    0 -0.46859900544E+02  0.87588904754E+02 -0.14280259151E+02  0.10035732318E+03  0.00000000000E+00 0. -1.
<mgrwt>
<rscale>  0 0.13632630E+03</rscale>
<asrwt>0</asrwt>
<pdfrwt beam="1">  1        1 0.16859835E-01 0.14154147E+03</pdfrwt>
<pdfrwt beam="2">  1       -1 0.24817642E-01 0.14154147E+03</pdfrwt>
<totfact> 0.43212776E+03</totfact>
</mgrwt>
</event>
<event>
 6    1  0.7270761E-006  0.3640708E+03  0.7546771E-02  0.1056984E+00
          3   -1    0    0  501    0  0.00000000000E+00  0.00000000000E+00  0.96466934832E+02  0.96466934832E+02  0.00000000000E+00 0. -1.
         -3   -1    0    0    0  501 -0.00000000000E+00 -0.00000000000E+00 -0.34350512019E+03  0.34350512019E+03  0.00000000000E+00 0.  1.
          5    1    1    2  502    0 -0.19989830206E+01  0.30307958248E+02 -0.87189231480E+02  0.92447933197E+02  0.47000000000E+01 0. -1.
         -5    1    1    2    0  502 -0.88518424345E+02 -0.92777062233E+02 -0.15093806088E+03  0.19810977499E+03  0.47000000000E+01 0. -1.
        -11    1    1    2    0    0  0.30869881790E+02  0.38866775682E+02 -0.52196936261E+02  0.72028438888E+02  0.00000000000E+00 0.  1.
         11    1    1    2    0    0  0.59647525576E+02  0.23602328303E+02  0.43286043256E+02  0.77385907951E+02  0.00000000000E+00 0. -1.
<mgrwt>
<rscale>  0 0.36407080E+03</rscale>
<asrwt>0</asrwt>
<pdfrwt beam="1">  1        3 0.14841067E-01 0.36407080E+03</pdfrwt>
<pdfrwt beam="2">  1       -3 0.52846942E-01 0.36407080E+03</pdfrwt>
<totfact> 0.35035033E+02</totfact>
</mgrwt>
</event>
<event>
 6    1  0.7270761E-006  0.1585845E+03  0.7546771E-02  0.1198983E+00
          4   -1    0    0  501    0  0.00000000000E+00  0.00000000000E+00  0.31491833666E+03  0.31491833666E+03  0.00000000000E+00 0.  1.
         -4   -1    0    0    0  501 -0.00000000000E+00 -0.00000000000E+00 -0.15572881786E+03  0.15572881786E+03  0.00000000000E+00 0. -1.
          5    1    1    2  502    0 -0.81992107693E+02  0.89624052152E+01  0.38888121637E+01  0.82705763350E+02  0.47000000000E+01 0. -1.
         -5    1    1    2    0  502 -0.10068640680E+02  0.23419515860E+02 -0.98727133629E+02  0.10207344495E+03  0.47000000000E+01 0. -1.
        -11    1    1    2    0    0  0.30837567184E+02 -0.18557408738E+02  0.19951510743E+03  0.20273532267E+03  0.00000000000E+00 0.  1.
         11    1    1    2    0    0  0.61223181189E+02 -0.13824512337E+02  0.54512732846E+02  0.83132623552E+02  0.00000000000E+00 0. -1.
<mgrwt>
<rscale>  0 0.15121892E+03</rscale>
<asrwt>0</asrwt>
<pdfrwt beam="1">  1        4 0.48448975E-01 0.15858452E+03</pdfrwt>
<pdfrwt beam="2">  1       -4 0.23958280E-01 0.15858452E+03</pdfrwt>
<totfact> 0.11524653E+02</totfact>
</mgrwt>
</event>
<event>
 6    1  0.7270761E-006  0.5812223E+03  0.7546771E-02  0.1043988E+00
          2   -1    0    0  501    0  0.00000000000E+00  0.00000000000E+00  0.51007343475E+03  0.51007343475E+03  0.00000000000E+00 0. -1.
         -2   -1    0    0    0  501 -0.00000000000E+00 -0.00000000000E+00 -0.29001759155E+03  0.29001759155E+03  0.00000000000E+00 0.  1.
          5    1    1    2  502    0 -0.43444863558E+02 -0.15498711189E+03  0.23164751806E+03  0.28211898845E+03  0.47000000000E+01 0. -1.
         -5    1    1    2    0  502  0.11741978983E+03  0.20555451489E+03 -0.18571002638E+03  0.30091588448E+03  0.47000000000E+01 0.  1.
        -11    1    1    2    0    0 -0.48824540395E+02 -0.61869741405E+02  0.58386848077E+02  0.98085292856E+02  0.00000000000E+00 0. -1.
         11    1    1    2    0    0 -0.25150385875E+02  0.11302338410E+02  0.11573150344E+03  0.11897086051E+03  0.00000000000E+00 0.  1.
<mgrwt>
<rscale>  0 0.39939996E+03</rscale>
<asrwt>0</asrwt>
<pdfrwt beam="1">  1        2 0.78472836E-01 0.58122234E+03</pdfrwt>
<pdfrwt beam="2">  1       -2 0.44618091E-01 0.58122234E+03</pdfrwt>
<totfact> 0.29068272E+02</totfact>
</mgrwt>
</event>
<event>
 6    1  0.7270761E-006  0.1489216E+03  0.7546771E-02  0.1210333E+00
          2   -1    0    0  501    0  0.00000000000E+00  0.00000000000E+00  0.38519882367E+03  0.38519882367E+03  0.00000000000E+00 0. -1.
         -2   -1    0    0    0  501 -0.00000000000E+00 -0.00000000000E+00 -0.48616973129E+02  0.48616973129E+02  0.00000000000E+00 0.  1.
          5    1    1    2  502    0 -0.49692277233E+01  0.34174854551E+02  0.25852691510E+02  0.43394303382E+02  0.47000000000E+01 0.  1.
         -5    1    1    2    0  502  0.55246599244E+02 -0.97631189804E+02  0.14126719047E+03  0.18045094916E+03  0.47000000000E+01 0.  1.
        -11    1    1    2    0    0 -0.71842367289E+02  0.70769470779E+02  0.14415298264E+03  0.17592534251E+03  0.00000000000E+00 0. -1.
         11    1    1    2    0    0  0.21564995768E+02 -0.73131355252E+01  0.25308985919E+02  0.34045201746E+02  0.00000000000E+00 0.  1.
<mgrwt>
<rscale>  0 0.14225039E+03</rscale>
<asrwt>0</asrwt>
<pdfrwt beam="1">  1        2 0.59261356E-01 0.14892160E+03</pdfrwt>
<pdfrwt beam="2">  1       -2 0.74795346E-02 0.14892160E+03</pdfrwt>
<totfact> 0.83752254E+03</totfact>
</mgrwt>
</event>
<event>
 6    1  0.7270761E-006  0.1244199E+03  0.7546771E-02  0.1249807E+00
         -1   -1    0    0    0  501 -0.00000000000E+00  0.00000000000E+00  0.90940500081E+03  0.90940500081E+03  0.00000000000E+00 0.  1.
          1   -1    0    0  501    0  0.00000000000E+00 -0.00000000000E+00 -0.16871610130E+02  0.16871610130E+02  0.00000000000E+00 0. -1.
          5    1    1    2  502    0 -0.52102424015E+02  0.31236995505E+02  0.33779649631E+03  0.34324768811E+03  0.47000000000E+01 0. -1.
         -5    1    1    2    0  502  0.61203310822E+02 -0.16005868413E+02  0.37329102148E+03  0.37864272051E+03  0.47000000000E+01 0.  1.
        -11    1    1    2    0    0  0.32698405035E+02 -0.22556022126E+02  0.13820567298E+03  0.14380114001E+03  0.00000000000E+00 0.  1.
         11    1    1    2    0    0 -0.41799291841E+02  0.73248950343E+01  0.43240199918E+02  0.60585062306E+02  0.00000000000E+00 0. -1.
<mgrwt>
<rscale>  0 0.11602246E+03</rscale>
<asrwt>0</asrwt>
<pdfrwt beam="2">  1        1 0.25956330E-02 0.12441987E+03</pdfrwt>
<pdfrwt beam="1">  1       -1 0.13990842E+00 0.12441987E+03</pdfrwt>
<totfact> 0.18312572E+03</totfact>
</mgrwt>
</event>
<event>
 6    1  0.7270761E-006  0.4131321E+03  0.7546771E-02  0.1039325E+00
         -1   -1    0    0    0  501 -0.00000000000E+00  0.00000000000E+00  0.12335047679E+03  0.12335047679E+03  0.00000000000E+00 0.  1.
          1   -1    0    0  501    0  0.00000000000E+00 -0.00000000000E+00 -0.34592106322E+03  0.34592106322E+03  0.00000000000E+00 0. -1.
          5    1    1    2  502    0 -0.96482678587E+02 -0.14940381009E+03 -0.40667706430E+02  0.18250029612E+03  0.47000000000E+01 0. -1.
         -5    1    1    2    0  502 -0.16405050284E+02  0.22279032030E+02 -0.27399433561E+02  0.39221166511E+02  0.47000000000E+01 0. -1.
        -11    1    1    2    0    0  0.29525595946E+02  0.70773021640E+02 -0.19413640634E+02  0.79104177201E+02  0.00000000000E+00 0.  1.
         11    1    1    2    0    0  0.83362132924E+02  0.56351756421E+02 -0.13508980580E+03  0.16844590018E+03  0.00000000000E+00 0. -1.
<mgrwt>
<rscale>  0 0.41313208E+03</rscale>
<asrwt>0</asrwt>
<pdfrwt beam="2">  1        1 0.53218625E-01 0.41313208E+03</pdfrwt>
<pdfrwt beam="1">  1       -1 0.18976997E-01 0.41313208E+03</pdfrwt>
<totfact> 0.16131779E+03</totfact>
</mgrwt>
</event>
<event>
 6    1  0.7270761E-006  0.2970553E+03  0.7546771E-02  0.1088314E+00
         -1   -1    0    0    0  501 -0.00000000000E+00  0.00000000000E+00  0.79246705292E+02  0.79246705292E+02  0.00000000000E+00 0.  1.
          1   -1    0    0  501    0  0.00000000000E+00 -0.00000000000E+00 -0.10955713883E+04  0.10955713883E+04  0.00000000000E+00 0. -1.
          5    1    1    2  502    0 -0.15077154708E+03  0.22051763474E+03 -0.38080341467E+03  0.46518105859E+03  0.47000000000E+01 0.  1.
         -5    1    1    2    0  502 -0.24749462902E+02 -0.16037190142E+02 -0.44473160494E+02  0.53569388516E+02  0.47000000000E+01 0.  1.
        -11    1    1    2    0    0  0.12479664012E+02 -0.61616496303E+02 -0.19072419410E+03  0.20081845743E+03  0.00000000000E+00 0.  1.
         11    1    1    2    0    0  0.16304134597E+03 -0.14286394830E+03 -0.40032391371E+03  0.45524918903E+03  0.00000000000E+00 0. -1.
<mgrwt>
<rscale>  0 0.29393197E+03</rscale>
<asrwt>0</asrwt>
<pdfrwt beam="2">  1        1 0.16854943E+00 0.29705532E+03</pdfrwt>
<pdfrwt beam="1">  1       -1 0.12191802E-01 0.29705532E+03</pdfrwt>
<totfact> 0.60804692E+02</totfact>
</mgrwt>
</event>
<event>
 6    1  0.7270761E-006  0.1228789E+03  0.7546771E-02  0.1288243E+00
          2   -1    0    0  501    0  0.00000000000E+00  0.00000000000E+00  0.13678332415E+03  0.13678332415E+03  0.00000000000E+00 0. -1.
         -2   -1    0    0    0  501 -0.00000000000E+00 -0.00000000000E+00 -0.58179364300E+02  0.58179364300E+02  0.00000000000E+00 0.  1.
          5    1    1    2  502    0 -0.48798903924E+02 -0.80973027744E+01  0.16605810239E+01  0.49716665875E+02  0.47000000000E+01 0. -1.
         -5    1    1    2    0  502  0.66488968302E+02 -0.26406160069E+02  0.25778559783E+02  0.76188531551E+02  0.47000000000E+01 0.  1.
        -11    1    1    2    0    0 -0.15682592831E+02  0.56279508335E+01  0.24973073335E+02  0.30021191521E+02  0.00000000000E+00 0.  1.
         11    1    1    2    0    0 -0.20074715465E+01  0.28875512010E+02  0.26191745712E+02  0.39036299508E+02  0.00000000000E+00 0. -1.
<mgrwt>
<rscale>  0 0.96314216E+02</rscale>
<asrwt>0</asrwt>
<pdfrwt beam="1">  1        2 0.21043588E-01 0.12287885E+03</pdfrwt>
<pdfrwt beam="2">  1       -2 0.89506715E-02 0.12287885E+03</pdfrwt>
<totfact> 0.19073869E+04</totfact>
</mgrwt>
</event>
<event>
 6    1  0.7270761E-006  0.1298663E+03  0.7546771E-02  0.1242253E+00
          3   -1    0    0  501    0  0.00000000000E+00  0.00000000000E+00  0.89816690360E+02  0.89816690360E+02  0.00000000000E+00 0. -1.
         -3   -1    0    0    0  501 -0.00000000000E+00 -0.00000000000E+00 -0.17014618609E+03  0.17014618609E+03  0.00000000000E+00 0.  1.
          5    1    1    2  502    0 -0.46972359509E+02 -0.31753540015E+02 -0.55622885741E+02  0.79565603620E+02  0.47000000000E+01 0.  1.
         -5    1    1    2    0  502  0.71008053802E+02  0.61048117784E+01 -0.41548947709E+02  0.82630608659E+02  0.47000000000E+01 0.  1.
        -11    1    1    2    0    0 -0.50944028775E+01  0.54824431960E+02  0.27281857789E+02  0.61448930380E+02  0.00000000000E+00 0.  1.
         11    1    1    2    0    0 -0.18941291416E+02 -0.29175703724E+02 -0.10439520068E+02  0.36317733788E+02  0.00000000000E+00 0. -1.
<mgrwt>
<rscale>  0 0.12051316E+03</rscale>
<asrwt>0</asrwt>
<pdfrwt beam="1">  1        3 0.13817952E-01 0.12986626E+03</pdfrwt>
<pdfrwt beam="2">  1       -3 0.26176336E-01 0.12986626E+03</pdfrwt>
<totfact> 0.13479717E+03</totfact>
</mgrwt>
</event>
